<LesHouchesEvents version="3.0">
<header>
<!--
#*********************************************************************
#                                                                    *
#                        MadGraph5_aMC@NLO                           *
#                                                                    *
#                           Going Beyond                             *
#                                                                    *
#                   http://madgraph.hep.uiuc.edu                     *
#                   http://madgraph.phys.ucl.ac.be                   *
#                   http://amcatnlo.cern.ch                          *
#                                                                    *
#                     The MadGraph5_aMC@NLO team                     *
#                                                                    *
#....................................................................*
#                                                                    *
# This file contains all the information necessary to reproduce      *
# the events generated:                                              *
#                                                                    *
# 1. software version                                                *
# 2. proc_card          : code generation info including model       *
# 3. param_card         : model primary parameters in the LH format  *
# 4. run_card           : running parameters (collider and cuts)     *
# 5. pythia_card        : present only if pythia has been run        *
# 6. pgs_card           : present only if pgs has been run           *
# 7. delphes_cards      : present only if delphes has been run       *
#                                                                    *
#                                                                    *
#*********************************************************************
-->
<MGVersion>
#5.2.2.3
</MGVersion>
<MG5ProcCard>
#************************************************************
#*                     MadGraph5_aMC@NLO                    *
#*                                                          *
#*                *                       *                 *
#*                  *        * *        *                   *
#*                    * * * * 5 * * * *                     *
#*                  *        * *        *                   *
#*                *                       *                 *
#*                                                          *
#*                                                          *
#*         VERSION 2.2.3                 2015-02-10         *
#*                                                          *
#*    The MadGraph5_aMC@NLO Development Team - Find us at   *
#*    https://server06.fynu.ucl.ac.be/projects/madgraph     *
#*                                                          *
#************************************************************
#*                                                          *
#*               Command File for MadGraph5_aMC@NLO         *
#*                                                          *
#*     run as ./bin/mg5_aMC  filename                       *
#*                                                          *
#************************************************************
set group_subprocesses Auto
set ignore_six_quark_processes False
set loop_optimized_output True
set gauge unitary
set complex_mass_scheme False
import model sm
define p = g u c d s u~ c~ d~ s~
define j = g u c d s u~ c~ d~ s~
define l+ = e+ mu+
define l- = e- mu-
define vl = ve vm vt
define vl~ = ve~ vm~ vt~
import model Zprime_UFO
generate p p > zph, zph > j j
add process p p > zph, zph > b b~
output Dijet_signal
</MG5ProcCard>
<MGProcCard>
#*********************************************************************
#                        MadGraph/MadEvent                           *
#                   http://madgraph.hep.uiuc.edu                     *
#                                                                    *
#                          proc_card.dat                             *
#*********************************************************************
#                                                                    *
#            This Files is generated by MADGRAPH 5                   *
#                                                                    *
# WARNING: This Files is generated for MADEVENT (compatibility issue)*
#          This files is NOT a valid MG4 proc_card.dat               *
#          Running this in MG4 will NEVER reproduce the result of MG5*
#                                                                    *
#*********************************************************************
#*********************************************************************
# Process(es) requested : mg2 input                                  *
#*********************************************************************
# Begin PROCESS # This is TAG. Do not modify this line
p p > zph , zph > j j           #Process
# Be carefull the coupling are here in MG5 convention
          
end_coup           # End the couplings input

done               # this tells MG there are no more procs
# End PROCESS  # This is TAG. Do not modify this line
#*********************************************************************
# Model information                                                  *
#*********************************************************************
# Begin MODEL  # This is TAG. Do not modify this line
Zprime_UFO
# End   MODEL  # This is TAG. Do not modify this line
#*********************************************************************
# Start multiparticle definitions                                    *
#*********************************************************************
# Begin MULTIPARTICLES # This is TAG. Do not modify this line

# End  MULTIPARTICLES # This is TAG. Do not modify this line
</MGProcCard>
<MGRunCard>
#*********************************************************************
#                       MadGraph5_aMC@NLO                            *
#                                                                    *
#                     run_card.dat MadEvent                          *
#                                                                    *
#  This file is used to set the parameters of the run.               *
#                                                                    *
#  Some notation/conventions:                                        *
#                                                                    *
#   Lines starting with a '# ' are info or comments                  *
#                                                                    *
#   mind the format:   value    = variable     ! comment             *
#*********************************************************************
#
#*******************                                                 
# Running parameters
#*******************                                                 
#                                                                    
#*********************************************************************
# Tag name for the run (one word)                                    *
#*********************************************************************
  tag_1     = run_tag ! name of the run 
#*********************************************************************
# Run to generate the grid pack                                      *
#*********************************************************************
  .false.     = gridpack  !True = setting up the grid pack
#*********************************************************************
# Number of events and rnd seed                                      *
# Warning: Do not generate more than 1M events in a single run       *
# If you want to run Pythia, avoid more than 50k events in a run.    *
#*********************************************************************
  2000 = nevents ! Number of unweighted events requested 
 2001 = iseed   ! rnd seed (0=assigned automatically=default))
#*********************************************************************
# Collider type and energy                                           *
# lpp: 0=No PDF, 1=proton, -1=antiproton, 2=photon from proton,      *
#                                         3=photon from electron     *
#*********************************************************************
        1     = lpp1    ! beam 1 type 
        1     = lpp2    ! beam 2 type
     4000     = ebeam1  ! beam 1 total energy in GeV
     4000     = ebeam2  ! beam 2 total energy in GeV
#*********************************************************************
# Beam polarization from -100 (left-handed) to 100 (right-handed)    *
#*********************************************************************
        0     = polbeam1 ! beam polarization for beam 1
        0     = polbeam2 ! beam polarization for beam 2
#*********************************************************************
# PDF CHOICE: this automatically fixes also alpha_s and its evol.    *
#*********************************************************************
 'nn23lo1'    = pdlabel     ! PDF set                                     
 230000    = lhaid     ! if pdlabel=lhapdf, this is the lhapdf number
#*********************************************************************
# Renormalization and factorization scales                           *
#*********************************************************************
 F        = fixed_ren_scale  ! if .true. use fixed ren scale
 F        = fixed_fac_scale  ! if .true. use fixed fac scale
 91.1880  = scale            ! fixed ren scale
 91.1880  = dsqrt_q2fact1    ! fixed fact scale for pdf1
 91.1880  = dsqrt_q2fact2    ! fixed fact scale for pdf2
 1        = scalefact        ! scale factor for event-by-event scales
#*********************************************************************
# Matching - Warning! ickkw > 1 is still beta
#*********************************************************************
 0        = ickkw            ! 0 no matching, 1 MLM, 2 CKKW matching
 1        = highestmult      ! for ickkw=2, highest mult group
 1        = ktscheme         ! for ickkw=1, 1 Durham kT, 2 Pythia pTE
 1        = alpsfact         ! scale factor for QCD emission vx
 F        = chcluster        ! cluster only according to channel diag
 T        = pdfwgt           ! for ickkw=1, perform pdf reweighting
 5        = asrwgtflavor     ! highest quark flavor for a_s reweight
 T        = clusinfo         ! include clustering tag in output
 3.0      = lhe_version       ! Change the way clustering information pass to shower.        
#*********************************************************************
#**********************************************************
#
#**********************************************************
# Automatic ptj and mjj cuts if xqcut > 0
# (turn off for VBF and single top processes)
#**********************************************************
   T  = auto_ptj_mjj  ! Automatic setting of ptj and mjj
#**********************************************************
#                                                                    
#**********************************
# BW cutoff (M+/-bwcutoff*Gamma)
#**********************************
  15  = bwcutoff      ! (M+/-bwcutoff*Gamma)
#**********************************************************
# Apply pt/E/eta/dr/mij cuts on decay products or not
# (note that etmiss/ptll/ptheavy/ht/sorted cuts always apply)
#**********************************************************
   T  = cut_decays    ! Cut decay products 
#*************************************************************
# Number of helicities to sum per event (0 = all helicities)
# 0 gives more stable result, but longer run time (needed for
# long decay chains e.g.).
# Use >=2 if most helicities contribute, e.g. pure QCD.
#*************************************************************
   0  = nhel          ! Number of helicities used per event
#*******************                                                 
# Standard Cuts
#*******************                                                 
#                                                                    
#*********************************************************************
# Minimum and maximum pt's (for max, -1 means no cut)                *
#*********************************************************************
 20  = ptj       ! minimum pt for the jets 
  0  = ptb       ! minimum pt for the b 
 10  = pta       ! minimum pt for the photons 
 10  = ptl       ! minimum pt for the charged leptons 
  0  = misset    ! minimum missing Et (sum of neutrino's momenta)
  0  = ptheavy   ! minimum pt for one heavy final state
 1.0 = ptonium   ! minimum pt for the quarkonium states
 -1  = ptjmax    ! maximum pt for the jets
 -1  = ptbmax    ! maximum pt for the b
 -1  = ptamax    ! maximum pt for the photons
 -1  = ptlmax    ! maximum pt for the charged leptons
 -1  = missetmax ! maximum missing Et (sum of neutrino's momenta)
#*********************************************************************
# Minimum and maximum E's (in the center of mass frame)              *
#*********************************************************************
  0  = ej     ! minimum E for the jets 
  0  = eb     ! minimum E for the b 
  0  = ea     ! minimum E for the photons 
  0  = el     ! minimum E for the charged leptons 
 -1   = ejmax ! maximum E for the jets
 -1   = ebmax ! maximum E for the b
 -1   = eamax ! maximum E for the photons
 -1   = elmax ! maximum E for the charged leptons
#*********************************************************************
# Maximum and minimum absolute rapidity (for max, -1 means no cut)   *
#*********************************************************************
   5  = etaj    ! max rap for the jets 
  -1  = etab    ! max rap for the b
 2.5  = etaa    ! max rap for the photons 
 2.5  = etal    ! max rap for the charged leptons 
 0.6  = etaonium ! max rap for the quarkonium states
   0  = etajmin ! min rap for the jets
   0  = etabmin ! min rap for the b
   0  = etaamin ! min rap for the photons
   0  = etalmin ! main rap for the charged leptons
#*********************************************************************
# Minimum and maximum DeltaR distance                                *
#*********************************************************************
 0.4 = drjj    ! min distance between jets 
 0   = drbb    ! min distance between b's 
 0.4 = drll    ! min distance between leptons 
 0.4 = draa    ! min distance between gammas 
 0   = drbj    ! min distance between b and jet 
 0.4 = draj    ! min distance between gamma and jet 
 0.4 = drjl    ! min distance between jet and lepton 
 0   = drab    ! min distance between gamma and b 
 0   = drbl    ! min distance between b and lepton 
 0.4 = dral    ! min distance between gamma and lepton 
 -1  = drjjmax ! max distance between jets
 -1  = drbbmax ! max distance between b's
 -1  = drllmax ! max distance between leptons
 -1  = draamax ! max distance between gammas
 -1  = drbjmax ! max distance between b and jet
 -1  = drajmax ! max distance between gamma and jet
 -1  = drjlmax ! max distance between jet and lepton
 -1  = drabmax ! max distance between gamma and b
 -1  = drblmax ! max distance between b and lepton
 -1  = dralmax ! maxdistance between gamma and lepton
#*********************************************************************
# Minimum and maximum invariant mass for pairs                       *
# WARNING: for four lepton final state mmll cut require to have      *
#          different lepton masses for each flavor!                  *           
#*********************************************************************
 0   = mmjj    ! min invariant mass of a jet pair 
 0   = mmbb    ! min invariant mass of a b pair 
 0   = mmaa    ! min invariant mass of gamma gamma pair
 0   = mmll    ! min invariant mass of l+l- (same flavour) lepton pair
 -1  = mmjjmax ! max invariant mass of a jet pair
 -1  = mmbbmax ! max invariant mass of a b pair
 -1  = mmaamax ! max invariant mass of gamma gamma pair
 -1  = mmllmax ! max invariant mass of l+l- (same flavour) lepton pair
#*********************************************************************
# Minimum and maximum invariant mass for all letpons                 *
#*********************************************************************
 0   = mmnl    ! min invariant mass for all letpons (l+- and vl) 
 -1  = mmnlmax ! max invariant mass for all letpons (l+- and vl) 
#*********************************************************************
# Minimum and maximum pt for 4-momenta sum of leptons                *
#*********************************************************************
 0   = ptllmin  ! Minimum pt for 4-momenta sum of leptons(l and vl)
 -1  = ptllmax  ! Maximum pt for 4-momenta sum of leptons(l and vl)
#*********************************************************************
# Inclusive cuts                                                     *
#*********************************************************************
 0  = xptj ! minimum pt for at least one jet  
 0  = xptb ! minimum pt for at least one b 
 0  = xpta ! minimum pt for at least one photon 
 0  = xptl ! minimum pt for at least one charged lepton 
#*********************************************************************
# Control the pt's of the jets sorted by pt                          *
#*********************************************************************
 0   = ptj1min ! minimum pt for the leading jet in pt
 0   = ptj2min ! minimum pt for the second jet in pt
 0   = ptj3min ! minimum pt for the third jet in pt
 0   = ptj4min ! minimum pt for the fourth jet in pt
 -1  = ptj1max ! maximum pt for the leading jet in pt 
 -1  = ptj2max ! maximum pt for the second jet in pt
 -1  = ptj3max ! maximum pt for the third jet in pt
 -1  = ptj4max ! maximum pt for the fourth jet in pt
 0   = cutuse  ! reject event if fails any (0) / all (1) jet pt cuts
#*********************************************************************
# Control the pt's of leptons sorted by pt                           *
#*********************************************************************
 0   = ptl1min ! minimum pt for the leading lepton in pt
 0   = ptl2min ! minimum pt for the second lepton in pt
 0   = ptl3min ! minimum pt for the third lepton in pt
 0   = ptl4min ! minimum pt for the fourth lepton in pt
 -1  = ptl1max ! maximum pt for the leading lepton in pt 
 -1  = ptl2max ! maximum pt for the second lepton in pt
 -1  = ptl3max ! maximum pt for the third lepton in pt
 -1  = ptl4max ! maximum pt for the fourth lepton in pt
#*********************************************************************
# Control the Ht(k)=Sum of k leading jets                            *
#*********************************************************************
 0   = htjmin ! minimum jet HT=Sum(jet pt)
 -1  = htjmax ! maximum jet HT=Sum(jet pt)
 0   = ihtmin  !inclusive Ht for all partons (including b)
 -1  = ihtmax  !inclusive Ht for all partons (including b)
 0   = ht2min ! minimum Ht for the two leading jets
 0   = ht3min ! minimum Ht for the three leading jets
 0   = ht4min ! minimum Ht for the four leading jets
 -1  = ht2max ! maximum Ht for the two leading jets
 -1  = ht3max ! maximum Ht for the three leading jets
 -1  = ht4max ! maximum Ht for the four leading jets
#***********************************************************************
# Photon-isolation cuts, according to hep-ph/9801442                   *
# When ptgmin=0, all the other parameters are ignored                  *
# When ptgmin>0, pta and draj are not going to be used                 *
#***********************************************************************
   0 = ptgmin ! Min photon transverse momentum
 0.4 = R0gamma ! Radius of isolation code
 1.0 = xn ! n parameter of eq.(3.4) in hep-ph/9801442
 1.0 = epsgamma ! epsilon_gamma parameter of eq.(3.4) in hep-ph/9801442
 .true. = isoEM ! isolate photons from EM energy (photons and leptons)
#*********************************************************************
# WBF cuts                                                           *
#*********************************************************************
 0   = xetamin ! minimum rapidity for two jets in the WBF case  
 0   = deltaeta ! minimum rapidity for two jets in the WBF case 
#*********************************************************************
# KT DURHAM CUT                                                      *
#*********************************************************************
 -1    =  ktdurham        
 0.4  =  dparameter 
#*********************************************************************
# maximal pdg code for quark to be considered as a light jet         *
# (otherwise b cuts are applied)                                     *
#*********************************************************************
 4 = maxjetflavor    ! Maximum jet pdg code
#*********************************************************************
# Jet measure cuts                                                   *
#*********************************************************************
 0   = xqcut   ! minimum kt jet measure between partons
#*********************************************************************
#
#*********************************************************************
# Store info for systematics studies                                 *
# WARNING: If use_syst is T, matched Pythia output is                *
#          meaningful ONLY if plotted taking matchscale              *
#          reweighting into account!                                 *
#*********************************************************************
   F  = use_syst      ! Enable systematics studies
#
#**************************************
# Parameter of the systematics study
#  will be used by SysCalc (if installed)
#**************************************                                  
#
0.5 1 2 = sys_scalefact  # factorization/renormalization scale factor
0.5 1 2 = sys_alpsfact  # \alpha_s emission scale factors
30 50 = sys_matchscale # variation of merging scale
# PDF sets and number of members (0 or none for all members).
CT10nlo.LHgrid = sys_pdf # matching scales
# MSTW2008nlo68cl.LHgrid 1  = sys_pdf
</MGRunCard>
<slha>
######################################################################
## PARAM_CARD AUTOMATICALY GENERATED BY MG5 FOLLOWING UFO MODEL   ####
######################################################################
##                                                                  ##
##  Width set on Auto will be computed following the information    ##
##        present in the decay.py files of the model.               ##
##        See  arXiv:1402.1178 for more details.                    ##
##                                                                  ##
######################################################################

###################################
## INFORMATION FOR CKMBLOCK
###################################
Block ckmblock 
    1 2.277360e-01 # cabi 

###################################
## INFORMATION FOR FRBLOCK
###################################
Block frblock 
    1 1.000000e+00 # gz 

###################################
## INFORMATION FOR MASS
###################################
Block mass 
    1 5.040000e-03 # MD 
    2 2.550000e-03 # MU 
    3 1.010000e-01 # MS 
    4 1.270000e+00 # MC 
    5 4.700000e+00 # MB 
    6 1.720000e+02 # MT 
   11 5.110000e-04 # Me 
   13 1.056600e-01 # MM 
   15 1.777000e+00 # MTA 
   23 9.118760e+01 # MZ 
   25 1.200000e+02 # MH 
  10030 2.800000e+03 # MZph 
  10031 3.000000e+02 # MZpl 
## Dependent parameters, given by model restrictions.
## Those values should be edited following the 
## analytical expression. MG5 ignores those values 
## but they are important for interfacing the output of MG5
## to external program such as Pythia.
  12 0.000000 # ve : 0.0 
  14 0.000000 # vm : 0.0 
  16 0.000000 # vt : 0.0 
  21 0.000000 # g : 0.0 
  22 0.000000 # a : 0.0 
  24 79.824360 # w+ : cmath.sqrt(MZ__exp__2/2. + cmath.sqrt(MZ__exp__4/4. - (aEW*cmath.pi*MZ__exp__2)/(Gf*sqrt__2))) 

###################################
## INFORMATION FOR SMINPUTS
###################################
Block sminputs 
    1 1.279000e+02 # aEWM1 
    2 1.166370e-05 # Gf 
    3 1.184000e-01 # aS 

###################################
## INFORMATION FOR YUKAWA
###################################
Block yukawa 
    1 5.040000e-03 # ymdo 
    2 2.550000e-03 # ymup 
    3 1.010000e-01 # yms 
    4 1.270000e+00 # ymc 
    5 4.700000e+00 # ymb 
    6 1.720000e+02 # ymt 
   11 5.110000e-04 # yme 
   13 1.056600e-01 # ymm 
   15 1.777000e+00 # ymtau 

###################################
## INFORMATION FOR DECAY
###################################
DECAY   6 1.508336e+00 # WT 
DECAY  23 2.495200e+00 # WZ 
DECAY  24 2.085000e+00 # WW 
DECAY  25 5.753088e-03 # WH 
## Dependent parameters, given by model restrictions.
## Those values should be edited following the 
## analytical expression. MG5 ignores those values 
## but they are important for interfacing the output of MG5
## to external program such as Pythia.
DECAY  1 0.000000 # d : 0.0 
DECAY  2 0.000000 # u : 0.0 
DECAY  3 0.000000 # s : 0.0 
DECAY  4 0.000000 # c : 0.0 
DECAY  5 0.000000 # b : 0.0 
DECAY  11 0.000000 # e- : 0.0 
DECAY  12 0.000000 # ve : 0.0 
DECAY  13 0.000000 # mu- : 0.0 
DECAY  14 0.000000 # vm : 0.0 
DECAY  15 0.000000 # ta- : 0.0 
DECAY  16 0.000000 # vt : 0.0 
DECAY  21 0.000000 # g : 0.0 
DECAY  22 0.000000 # a : 0.0 
DECAY  10030 0.308725 # zph : (gz__exp__2*MZph*(5 + cmath.sqrt(1 - (4*MT__exp__2)/MZph__exp__2)))/(144.*cmath.pi) 
DECAY  10031 0.132629 # zpl : (5*gz__exp__2*MZpl)/(144.*cmath.pi) 
#===========================================================
# QUANTUM NUMBERS OF NEW STATE(S) (NON SM PDG CODE)
#===========================================================

Block QNUMBERS 10030  # zph 
        1 0  # 3 times electric charge
        2 3  # number of spin states (2S+1)
        3 1  # colour rep (1: singlet, 3: triplet, 8: octet)
        4 0  # Particle/Antiparticle distinction (0=own anti)
Block QNUMBERS 10031  # zpl 
        1 0  # 3 times electric charge
        2 3  # number of spin states (2S+1)
        3 1  # colour rep (1: singlet, 3: triplet, 8: octet)
        4 0  # Particle/Antiparticle distinction (0=own anti)
</slha>
## END BANNER##
<MGGenerationInfo>
#  Number of Events        :         3881
#  Integrated weight (pb)  :  0.24055E-02
#  Max wgt                 :  0.94269E-06
#  Average wgt             :  0.61981E-06
</MGGenerationInfo>
</header>
<init>
     2212     2212  0.40000000000E+04  0.40000000000E+04 0 0  247000  247000 2   1
  0.24080341455E-02  0.56920901911E-05  0.94269370000E-06   0
</init>
<event>
 5   0  0.9260173E-06  0.2858949E+04  0.7818609E-02  0.8285197E-01
        2   -1    0    0  501    0  0.00000000000E+00  0.00000000000E+00  0.24493556903E+04  0.24493556903E+04  0.25500000920E-02 0.  1.
       -2   -1    0    0    0  501  0.00000000000E+00  0.00000000000E+00 -0.83425911051E+03  0.83425911051E+03  0.25500000920E-02 0. -1.
    10030    2    1    2    0    0  0.00000000000E+00  0.00000000000E+00  0.16150965798E+04  0.32836148008E+04  0.28589489674E+04 0.  0.
        1    1    3    3  502    0 -0.47373012222E+02  0.71968141662E+03 -0.60996109457E+03  0.94458354878E+03  0.50400001928E-02 0. -1.
       -1    1    3    3    0  502  0.47373012222E+02 -0.71968141662E+03  0.22250576744E+04  0.23390312521E+04  0.50400001928E-02 0.  1.
</event>
<event>
 5   0  0.9260173E-06  0.2868872E+04  0.7818609E-02  0.8282200E-01
        2   -1    0    0  501    0  0.00000000000E+00  0.00000000000E+00  0.18205098972E+04  0.18205098972E+04  0.25500000920E-02 0. -1.
       -2   -1    0    0    0  501  0.00000000000E+00  0.00000000000E+00 -0.11302362406E+04  0.11302362406E+04  0.25500000920E-02 0.  1.
    10030    2    1    2    0    0  0.00000000000E+00  0.00000000000E+00  0.69027365668E+03  0.29507461378E+04  0.28688717379E+04 0.  0.
        1    1    3    3  502    0  0.13808309004E+04 -0.18341071159E+03 -0.70875067094E+01  0.13929765602E+04  0.50400001928E-02 0.  1.
       -1    1    3    3    0  502 -0.13808309004E+04  0.18341071159E+03  0.69736116339E+03  0.15577695776E+04  0.50400001928E-02 0. -1.
</event>
<event>
 5   0  0.9065579E-06  0.2811779E+04  0.7818609E-02  0.8299621E-01
       -2   -1    0    0    0  501  0.00000000000E+00  0.00000000000E+00  0.67239733332E+03  0.67239733332E+03  0.25500000920E-02 0.  1.
        2   -1    0    0  501    0  0.00000000000E+00  0.00000000000E+00 -0.29395207384E+04  0.29395207384E+04  0.25500000920E-02 0. -1.
    10030    2    1    2    0    0  0.00000000000E+00  0.00000000000E+00 -0.22671234050E+04  0.36119180717E+04  0.28117794406E+04 0.  0.
        3    1    3    3  502    0  0.97226436249E+03  0.52702657106E+03 -0.22486002493E+04  0.25058447854E+04  0.10100000352E+00 0. -1.
       -3    1    3    3    0  502 -0.97226436249E+03 -0.52702657106E+03 -0.18523155768E+02  0.11060732863E+04  0.10100000352E+00 0.  1.
</event>
<event>
 5   0  0.9260173E-06  0.2777741E+04  0.7818609E-02  0.8310212E-01
        2   -1    0    0  501    0  0.00000000000E+00  0.00000000000E+00  0.15237365238E+04  0.15237365238E+04  0.25500000920E-02 0.  1.
       -2   -1    0    0    0  501  0.00000000000E+00  0.00000000000E+00 -0.12659412054E+04  0.12659412054E+04  0.25500000920E-02 0. -1.
    10030    2    1    2    0    0  0.00000000000E+00  0.00000000000E+00  0.25779531843E+03  0.27896777292E+04  0.27777407018E+04 0.  0.
        1    1    3    3  502    0  0.65283204595E+03  0.33604648391E+03 -0.10550850240E+04  0.12854265158E+04  0.50400001928E-02 0. -1.
       -1    1    3    3    0  502 -0.65283204595E+03 -0.33604648391E+03  0.13128803424E+04  0.15042512134E+04  0.50400001928E-02 0.  1.
</event>
<event>
 5   0  0.9065579E-06  0.2817051E+04  0.7818609E-02  0.8297994E-01
        2   -1    0    0  501    0  0.00000000000E+00  0.00000000000E+00  0.12485172568E+04  0.12485172568E+04  0.25500000920E-02 0.  1.
       -2   -1    0    0    0  501  0.00000000000E+00  0.00000000000E+00 -0.15890397063E+04  0.15890397063E+04  0.25500000920E-02 0. -1.
    10030    2    1    2    0    0  0.00000000000E+00  0.00000000000E+00 -0.34052244941E+03  0.28375569631E+04  0.28170505818E+04 0.  0.
        3    1    3    3  502    0  0.64420830230E+02  0.12638838315E+04 -0.79314043029E+03  0.14935274137E+04  0.10100000352E+00 0. -1.
       -3    1    3    3    0  502 -0.64420830230E+02 -0.12638838315E+04  0.45261798089E+03  0.13440295494E+04  0.10100000352E+00 0.  1.
</event>
<event>
 5   0  0.3371603E-06  0.2812797E+04  0.7818609E-02  0.8299306E-01
       -1   -1    0    0    0  501  0.00000000000E+00  0.00000000000E+00  0.10153102390E+04  0.10153102391E+04  0.50400001928E-02 0. -1.
        1   -1    0    0  501    0  0.00000000000E+00  0.00000000000E+00 -0.19481309748E+04  0.19481309748E+04  0.50400001928E-02 0.  1.
    10030    2    1    2    0    0  0.00000000000E+00  0.00000000000E+00 -0.93282073575E+03  0.29634412139E+04  0.28127974159E+04 0.  0.
        1    1    3    3  502    0 -0.21375919335E+03  0.97500368588E+03 -0.15102463130E+04  0.18102953091E+04  0.50400001928E-02 0.  1.
       -1    1    3    3    0  502  0.21375919335E+03 -0.97500368588E+03  0.57742557729E+03  0.11531459047E+04  0.50400001928E-02 0. -1.
</event>
<event>
 5   0  0.3438130E-06  0.2767954E+04  0.7818609E-02  0.8313287E-01
       -1   -1    0    0    0  501  0.00000000000E+00  0.00000000000E+00  0.15558098918E+04  0.15558098918E+04  0.50400001928E-02 0.  1.
        1   -1    0    0  501    0  0.00000000000E+00  0.00000000000E+00 -0.12311225948E+04  0.12311225948E+04  0.50400001928E-02 0. -1.
    10030    2    1    2    0    0  0.00000000000E+00  0.00000000000E+00  0.32468729695E+03  0.27869324866E+04  0.27679542706E+04 0.  0.
        3    1    3    3  502    0  0.13495134275E+04  0.16323805876E+03 -0.99360675832E+02  0.13629767822E+04  0.10100000352E+00 0. -1.
       -3    1    3    3    0  502 -0.13495134275E+04 -0.16323805876E+03  0.42404797278E+03  0.14239557044E+04  0.10100000352E+00 0.  1.
</event>
<event>
 5   0  0.9260173E-06  0.2805562E+04  0.7818609E-02  0.8301544E-01
       -2   -1    0    0    0  501  0.00000000000E+00  0.00000000000E+00  0.13160538312E+04  0.13160538312E+04  0.25500000920E-02 0. -1.
        2   -1    0    0  501    0  0.00000000000E+00  0.00000000000E+00 -0.14952231695E+04  0.14952231695E+04  0.25500000920E-02 0.  1.
    10030    2    1    2    0    0  0.00000000000E+00  0.00000000000E+00 -0.17916933837E+03  0.28112770007E+04  0.28055617482E+04 0.  0.
        1    1    3    3  502    0  0.11331049598E+04  0.36360024263E+03  0.65466803153E+03  0.13582055139E+04  0.50400001928E-02 0. -1.
       -1    1    3    3    0  502 -0.11331049598E+04 -0.36360024263E+03 -0.83383736989E+03  0.14530714868E+04  0.50400001928E-02 0.  1.
</event>
<event>
 5   0  0.3397882E-06  0.2753307E+04  0.7818609E-02  0.8317913E-01
       -1   -1    0    0    0  501  0.00000000000E+00  0.00000000000E+00  0.10849597372E+04  0.10849597372E+04  0.50400001928E-02 0. -1.
        1   -1    0    0  501    0  0.00000000000E+00  0.00000000000E+00 -0.17467698850E+04  0.17467698850E+04  0.50400001928E-02 0.  1.
    10030    2    1    2    0    0  0.00000000000E+00  0.00000000000E+00 -0.66181014781E+03  0.28317296222E+04  0.27533070990E+04 0.  0.
        2    1    3    3  502    0  0.35742118704E+03  0.42668537936E+03 -0.16258810697E+04  0.17185166775E+04  0.25500000920E-02 0.  1.
       -2    1    3    3    0  502 -0.35742118704E+03 -0.42668537936E+03  0.96407092189E+03  0.11132129447E+04  0.25500000920E-02 0. -1.
</event>
<event>
 5   0  0.9065579E-06  0.2900172E+04  0.7818609E-02  0.8272826E-01
        2   -1    0    0  501    0  0.00000000000E+00  0.00000000000E+00  0.26413889899E+04  0.26413889899E+04  0.25500000920E-02 0.  1.
       -2   -1    0    0    0  501  0.00000000000E+00  0.00000000000E+00 -0.79607702767E+03  0.79607702767E+03  0.25500000920E-02 0. -1.
    10030    2    1    2    0    0  0.00000000000E+00  0.00000000000E+00  0.18453119622E+04  0.34374660175E+04  0.29001717852E+04 0.  0.
        3    1    3    3  502    0 -0.20353011510E+03 -0.92911222032E+03 -0.37469266872E+03  0.10222859834E+04  0.10100000352E+00 0. -1.
       -3    1    3    3    0  502  0.20353011510E+03  0.92911222032E+03  0.22200046309E+04  0.24151800341E+04  0.10100000352E+00 0.  1.
</event>
<event>
 5   0  0.3397882E-06  0.2824094E+04  0.7818609E-02  0.8295827E-01
       -1   -1    0    0    0  501  0.00000000000E+00  0.00000000000E+00  0.14413832631E+04  0.14413832631E+04  0.50400001928E-02 0.  1.
        1   -1    0    0  501    0  0.00000000000E+00  0.00000000000E+00 -0.13833079776E+04  0.13833079776E+04  0.50400001928E-02 0. -1.
    10030    2    1    2    0    0  0.00000000000E+00  0.00000000000E+00  0.58075285518E+02  0.28246912406E+04  0.28240941674E+04 0.  0.
        2    1    3    3  502    0  0.11487495697E+04 -0.14899186863E+02 -0.79212887206E+03  0.13954625433E+04  0.25500000920E-02 0. -1.
       -2    1    3    3    0  502 -0.11487495697E+04  0.14899186863E+02  0.85020415758E+03  0.14292286974E+04  0.25500000920E-02 0.  1.
</event>
<event>
 5   0  0.9252359E-06  0.2806289E+04  0.7818609E-02  0.8301319E-01
        2   -1    0    0  501    0  0.00000000000E+00  0.00000000000E+00  0.11832073934E+04  0.11832073934E+04  0.25500000920E-02 0.  1.
       -2   -1    0    0    0  501  0.00000000000E+00  0.00000000000E+00 -0.16639637775E+04  0.16639637775E+04  0.25500000920E-02 0. -1.
    10030    2    1    2    0    0  0.00000000000E+00  0.00000000000E+00 -0.48075638409E+03  0.28471711709E+04  0.28062888261E+04 0.  0.
        5    1    3    3  502    0  0.86330445171E+03  0.30944319170E+03  0.83704465867E+03  0.12416583732E+04  0.46999998093E+01 0.  1.
       -5    1    3    3    0  502 -0.86330445171E+03 -0.30944319170E+03 -0.13178010428E+04  0.16055127977E+04  0.46999998093E+01 0. -1.
</event>
<event>
 5   0  0.3600963E-06  0.2830997E+04  0.7818609E-02  0.8293709E-01
        1   -1    0    0  501    0  0.00000000000E+00  0.00000000000E+00  0.19618519845E+04  0.19618519845E+04  0.50400001928E-02 0. -1.
       -1   -1    0    0    0  501  0.00000000000E+00  0.00000000000E+00 -0.10212980642E+04  0.10212980642E+04  0.50400001928E-02 0.  1.
    10030    2    1    2    0    0  0.00000000000E+00  0.00000000000E+00  0.94055392026E+03  0.29831500487E+04  0.28309967390E+04 0.  0.
        5    1    3    3  502    0  0.87254338701E+03  0.39170964948E+02 -0.70347784772E+03  0.11215032318E+04  0.46999998093E+01 0.  1.
       -5    1    3    3    0  502 -0.87254338701E+03 -0.39170964948E+02  0.16440317680E+04  0.18616468169E+04  0.46999998093E+01 0. -1.
</event>
<event>
 5   0  0.3371603E-06  0.2824349E+04  0.7818609E-02  0.8295749E-01
        1   -1    0    0  501    0  0.00000000000E+00  0.00000000000E+00  0.11975734656E+04  0.11975734656E+04  0.50400001928E-02 0.  1.
       -1   -1    0    0    0  501  0.00000000000E+00  0.00000000000E+00 -0.16652315070E+04  0.16652315070E+04  0.50400001928E-02 0. -1.
    10030    2    1    2    0    0  0.00000000000E+00  0.00000000000E+00 -0.46765804141E+03  0.28628049726E+04  0.28243491759E+04 0.  0.
        1    1    3    3  502    0 -0.47061868145E+03 -0.58759574782E+03  0.97721340780E+03  0.12335707319E+04  0.50400001928E-02 0.  1.
       -1    1    3    3    0  502  0.47061868145E+03  0.58759574782E+03 -0.14448714492E+04  0.16292342407E+04  0.50400001928E-02 0. -1.
</event>
<event>
 5   0  0.3438130E-06  0.2760311E+04  0.7818609E-02  0.8315697E-01
        1   -1    0    0  501    0  0.00000000000E+00  0.00000000000E+00  0.11587374260E+04  0.11587374260E+04  0.50400001928E-02 0.  1.
       -1   -1    0    0    0  501  0.00000000000E+00  0.00000000000E+00 -0.16438831962E+04  0.16438831962E+04  0.50400001928E-02 0. -1.
    10030    2    1    2    0    0  0.00000000000E+00  0.00000000000E+00 -0.48514577025E+03  0.28026206222E+04  0.27603108401E+04 0.  0.
        3    1    3    3  502    0  0.10777439232E+04 -0.74851451514E+03  0.19179648459E+03  0.13261190916E+04  0.10100000352E+00 0.  1.
       -3    1    3    3    0  502 -0.10777439232E+04  0.74851451514E+03 -0.67694225484E+03  0.14765015306E+04  0.10100000352E+00 0. -1.
</event>
<event>
 5   0  0.3438130E-06  0.2805471E+04  0.7818609E-02  0.8301572E-01
       -1   -1    0    0    0  501  0.00000000000E+00  0.00000000000E+00  0.11206977947E+04  0.11206977948E+04  0.50400001928E-02 0. -1.
        1   -1    0    0  501    0  0.00000000000E+00  0.00000000000E+00 -0.17557509917E+04  0.17557509917E+04  0.50400001928E-02 0.  1.
    10030    2    1    2    0    0  0.00000000000E+00  0.00000000000E+00 -0.63505319697E+03  0.28764487865E+04  0.28054705592E+04 0.  0.
        3    1    3    3  502    0  0.12597390823E+04  0.50890065417E+03 -0.67527227888E+03  0.15172063446E+04  0.10100000352E+00 0. -1.
       -3    1    3    3    0  502 -0.12597390823E+04 -0.50890065417E+03  0.40219081905E+02  0.13592424419E+04  0.10100000352E+00 0.  1.
</event>
<event>
 5   0  0.9260173E-06  0.2797842E+04  0.7818609E-02  0.8303939E-01
       -2   -1    0    0    0  501  0.00000000000E+00  0.00000000000E+00  0.92765789555E+03  0.92765789555E+03  0.25500000920E-02 0. -1.
        2   -1    0    0  501    0  0.00000000000E+00  0.00000000000E+00 -0.21095923435E+04  0.21095923435E+04  0.25500000920E-02 0.  1.
    10030    2    1    2    0    0  0.00000000000E+00  0.00000000000E+00 -0.11819344480E+04  0.30372502391E+04  0.27978420212E+04 0.  0.
        1    1    3    3  502    0  0.11422787925E+04  0.16946109204E+03 -0.14481282434E+04  0.18521860897E+04  0.50400001928E-02 0.  1.
       -1    1    3    3    0  502 -0.11422787925E+04 -0.16946109204E+03  0.26619379541E+03  0.11850641494E+04  0.50400001928E-02 0. -1.
</event>
<event>
 5   0  0.3357244E-06  0.2794089E+04  0.7818609E-02  0.8305106E-01
        1   -1    0    0  501    0  0.00000000000E+00  0.00000000000E+00  0.12028844691E+04  0.12028844691E+04  0.50400001928E-02 0. -1.
       -1   -1    0    0    0  501  0.00000000000E+00  0.00000000000E+00 -0.16225439516E+04  0.16225439516E+04  0.50400001928E-02 0.  1.
    10030    2    1    2    0    0  0.00000000000E+00  0.00000000000E+00 -0.41965948249E+03  0.28254284208E+04  0.27940887029E+04 0.  0.
        4    1    3    3  502    0 -0.42536521097E+03  0.49648452579E+03  0.10386433388E+04  0.12272791228E+04  0.12699999809E+01 0. -1.
       -4    1    3    3    0  502  0.42536521097E+03 -0.49648452579E+03 -0.14583028213E+04  0.15981492980E+04  0.12699999809E+01 0.  1.
</event>
<event>
 5   0  0.3371603E-06  0.2715447E+04  0.7818609E-02  0.8330010E-01
       -1   -1    0    0    0  501  0.00000000000E+00  0.00000000000E+00  0.88675898856E+03  0.88675898857E+03  0.50400001928E-02 0. -1.
        1   -1    0    0  501    0  0.00000000000E+00  0.00000000000E+00 -0.20788208000E+04  0.20788208000E+04  0.50400001928E-02 0.  1.
    10030    2    1    2    0    0  0.00000000000E+00  0.00000000000E+00 -0.11920618114E+04  0.29655797886E+04  0.27154469466E+04 0.  0.
        1    1    3    3  502    0  0.35510083534E+03  0.37392561703E+03  0.77564791370E+03  0.93142184663E+03  0.50400001928E-02 0. -1.
       -1    1    3    3    0  502 -0.35510083534E+03 -0.37392561703E+03 -0.19677097251E+04  0.20341579419E+04  0.50400001928E-02 0.  1.
</event>
<event>
 5   0  0.9342133E-06  0.2871702E+04  0.7818609E-02  0.8281347E-01
       -2   -1    0    0    0  501  0.00000000000E+00  0.00000000000E+00  0.11900420143E+04  0.11900420143E+04  0.25500000920E-02 0. -1.
        2   -1    0    0  501    0  0.00000000000E+00  0.00000000000E+00 -0.17324330848E+04  0.17324330848E+04  0.25500000920E-02 0.  1.
    10030    2    1    2    0    0  0.00000000000E+00  0.00000000000E+00 -0.54239107053E+03  0.29224750991E+04  0.28717020443E+04 0.  0.
        2    1    3    3  502    0 -0.13867600546E+03 -0.86991690710E+03  0.88273103349E+03  0.12470767968E+04  0.25500000920E-02 0. -1.
       -2    1    3    3    0  502  0.13867600546E+03  0.86991690710E+03 -0.14251221040E+04  0.16753983022E+04  0.25500000920E-02 0.  1.
</event>
<event>
 5   0  0.3438130E-06  0.2883514E+04  0.7818609E-02  0.8277799E-01
       -1   -1    0    0    0  501  0.00000000000E+00  0.00000000000E+00  0.14979391651E+04  0.14979391651E+04  0.50400001928E-02 0. -1.
        1   -1    0    0  501    0  0.00000000000E+00  0.00000000000E+00 -0.13876822119E+04  0.13876822119E+04  0.50400001928E-02 0.  1.
    10030    2    1    2    0    0  0.00000000000E+00  0.00000000000E+00  0.11025695326E+03  0.28856213770E+04  0.28835141990E+04 0.  0.
        3    1    3    3  502    0  0.17108520779E+03  0.10007164105E+04  0.10795757572E+04  0.14819538820E+04  0.10100000352E+00 0. -1.
       -3    1    3    3    0  502 -0.17108520779E+03 -0.10007164105E+04 -0.96931880397E+03  0.14036674950E+04  0.10100000352E+00 0.  1.
</event>
<event>
 5   0  0.9065579E-06  0.2702184E+04  0.7818609E-02  0.8334297E-01
        2   -1    0    0  501    0  0.00000000000E+00  0.00000000000E+00  0.12111141658E+04  0.12111141658E+04  0.25500000920E-02 0.  1.
       -2   -1    0    0    0  501  0.00000000000E+00  0.00000000000E+00 -0.15072483339E+04  0.15072483339E+04  0.25500000920E-02 0. -1.
    10030    2    1    2    0    0  0.00000000000E+00  0.00000000000E+00 -0.29613416801E+03  0.27183624997E+04  0.27021841600E+04 0.  0.
        3    1    3    3  502    0  0.52492064110E+03  0.12247946278E+04 -0.37253128412E+03  0.13836340295E+04  0.10100000352E+00 0. -1.
       -3    1    3    3    0  502 -0.52492064110E+03 -0.12247946278E+04  0.76397116111E+02  0.13347284702E+04  0.10100000352E+00 0.  1.
</event>
<event>
 5   0  0.3371603E-06  0.2796000E+04  0.7818609E-02  0.8304511E-01
       -1   -1    0    0    0  501  0.00000000000E+00  0.00000000000E+00  0.14589178833E+04  0.14589178833E+04  0.50400001928E-02 0.  1.
        1   -1    0    0  501    0  0.00000000000E+00  0.00000000000E+00 -0.13396255743E+04  0.13396255744E+04  0.50400001928E-02 0. -1.
    10030    2    1    2    0    0  0.00000000000E+00  0.00000000000E+00  0.11929230900E+03  0.27985434577E+04  0.27959997907E+04 0.  0.
        1    1    3    3  502    0  0.76171772417E+03 -0.64632150719E+03 -0.91923044507E+03  0.13575455768E+04  0.50400001928E-02 0. -1.
       -1    1    3    3    0  502 -0.76171772417E+03  0.64632150719E+03  0.10385227541E+04  0.14409978809E+04  0.50400001928E-02 0.  1.
</event>
<event>
 5   0  0.9342133E-06  0.3024333E+04  0.7818609E-02  0.8236816E-01
        2   -1    0    0  501    0  0.00000000000E+00  0.00000000000E+00  0.23282595849E+04  0.23282595849E+04  0.25500000920E-02 0.  1.
       -2   -1    0    0    0  501  0.00000000000E+00  0.00000000000E+00 -0.98212717340E+03  0.98212717340E+03  0.25500000920E-02 0. -1.
    10030    2    1    2    0    0  0.00000000000E+00  0.00000000000E+00  0.13461324115E+04  0.33103867583E+04  0.30243326570E+04 0.  0.
        2    1    3    3  502    0 -0.10149323760E+04 -0.70504285413E+03 -0.28083981487E+03  0.12672979743E+04  0.25500000920E-02 0. -1.
       -2    1    3    3    0  502  0.10149323760E+04  0.70504285413E+03  0.16269722264E+04  0.20430887840E+04  0.25500000920E-02 0.  1.
</event>
<event>
 5   0  0.3397882E-06  0.2802715E+04  0.7818609E-02  0.8302426E-01
        1   -1    0    0  501    0  0.00000000000E+00  0.00000000000E+00  0.27684813901E+04  0.27684813901E+04  0.50400001928E-02 0.  1.
       -1   -1    0    0    0  501  0.00000000000E+00  0.00000000000E+00 -0.70934322243E+03  0.70934322245E+03  0.50400001928E-02 0. -1.
    10030    2    1    2    0    0  0.00000000000E+00  0.00000000000E+00  0.20591381677E+04  0.34778246125E+04  0.28027154765E+04 0.  0.
        2    1    3    3  502    0 -0.83452455465E+03  0.11249425675E+04  0.97581608062E+03  0.17070864171E+04  0.25500000920E-02 0. -1.
       -2    1    3    3    0  502  0.83452455465E+03 -0.11249425675E+04  0.10833220870E+04  0.17707381954E+04  0.25500000920E-02 0.  1.
</event>
<event>
 5   0  0.9065579E-06  0.2764702E+04  0.7818609E-02  0.8314312E-01
        2   -1    0    0  501    0  0.00000000000E+00  0.00000000000E+00  0.20577972085E+04  0.20577972085E+04  0.25500000920E-02 0. -1.
       -2   -1    0    0    0  501  0.00000000000E+00  0.00000000000E+00 -0.92861134657E+03  0.92861134657E+03  0.25500000920E-02 0.  1.
    10030    2    1    2    0    0  0.00000000000E+00  0.00000000000E+00  0.11291858619E+04  0.29864085550E+04  0.27647016741E+04 0.  0.
        3    1    3    3  502    0  0.51589029430E+03 -0.10700089202E+04  0.13282756240E+04  0.17819590423E+04  0.10100000352E+00 0. -1.
       -3    1    3    3    0  502 -0.51589029430E+03  0.10700089202E+04 -0.19908976212E+03  0.12044495127E+04  0.10100000352E+00 0.  1.
</event>
<event>
 5   0  0.9252359E-06  0.2790154E+04  0.7818609E-02  0.8306332E-01
       -2   -1    0    0    0  501  0.00000000000E+00  0.00000000000E+00  0.89977185777E+03  0.89977185777E+03  0.25500000920E-02 0. -1.
        2   -1    0    0  501    0  0.00000000000E+00  0.00000000000E+00 -0.21630365662E+04  0.21630365662E+04  0.25500000920E-02 0.  1.
    10030    2    1    2    0    0  0.00000000000E+00  0.00000000000E+00 -0.12632647084E+04  0.30628084240E+04  0.27901537087E+04 0.  0.
        5    1    3    3  502    0 -0.66313753528E+03 -0.97207689717E+03  0.19094951896E+03  0.11921278008E+04  0.46999998093E+01 0. -1.
       -5    1    3    3    0  502  0.66313753528E+03  0.97207689717E+03 -0.14542142274E+04  0.18706806232E+04  0.46999998093E+01 0.  1.
</event>
<event>
 5   0  0.3397882E-06  0.2811824E+04  0.7818609E-02  0.8299607E-01
       -1   -1    0    0    0  501  0.00000000000E+00  0.00000000000E+00  0.11428712800E+04  0.11428712800E+04  0.50400001928E-02 0.  1.
        1   -1    0    0  501    0  0.00000000000E+00  0.00000000000E+00 -0.17294935541E+04  0.17294935541E+04  0.50400001928E-02 0. -1.
    10030    2    1    2    0    0  0.00000000000E+00  0.00000000000E+00 -0.58662227406E+03  0.28723648341E+04  0.28118239717E+04 0.  0.
        2    1    3    3  502    0  0.72819456529E+03  0.23289004242E+03  0.91195818278E+03  0.11900305979E+04  0.25500000920E-02 0.  1.
       -2    1    3    3    0  502 -0.72819456529E+03 -0.23289004242E+03 -0.14985804568E+04  0.16823342362E+04  0.25500000920E-02 0. -1.
</event>
<event>
 5   0  0.9065579E-06  0.2817580E+04  0.7818609E-02  0.8297831E-01
       -2   -1    0    0    0  501  0.00000000000E+00  0.00000000000E+00  0.10019056325E+04  0.10019056325E+04  0.25500000920E-02 0.  1.
        2   -1    0    0  501    0  0.00000000000E+00  0.00000000000E+00 -0.19809144124E+04  0.19809144124E+04  0.25500000920E-02 0. -1.
    10030    2    1    2    0    0  0.00000000000E+00  0.00000000000E+00 -0.97900877986E+03  0.29828200450E+04  0.28175800307E+04 0.  0.
        3    1    3    3  502    0  0.40987272312E+03 -0.12666375010E+04 -0.16958441677E+01  0.13313035320E+04  0.10100000352E+00 0.  1.
       -3    1    3    3    0  502 -0.40987272312E+03  0.12666375010E+04 -0.97731293569E+03  0.16515165130E+04  0.10100000352E+00 0. -1.
</event>
<event>
 5   0  0.9260173E-06  0.2810128E+04  0.7818609E-02  0.8300131E-01
       -2   -1    0    0    0  501  0.00000000000E+00  0.00000000000E+00  0.86182902474E+03  0.86182902474E+03  0.25500000920E-02 0. -1.
        2   -1    0    0  501    0  0.00000000000E+00  0.00000000000E+00 -0.22907155555E+04  0.22907155555E+04  0.25500000920E-02 0.  1.
    10030    2    1    2    0    0  0.00000000000E+00  0.00000000000E+00 -0.14288865307E+04  0.31525445802E+04  0.28101282199E+04 0.  0.
        1    1    3    3  502    0 -0.95935253645E+03 -0.63017790308E+03  0.19468767156E+03  0.11642099330E+04  0.50400001928E-02 0. -1.
       -1    1    3    3    0  502  0.95935253645E+03  0.63017790308E+03 -0.16235742023E+04  0.19883346472E+04  0.50400001928E-02 0.  1.
</event>
<event>
 5   0  0.3600963E-06  0.2780025E+04  0.7818609E-02  0.8309497E-01
       -1   -1    0    0    0  501  0.00000000000E+00  0.00000000000E+00  0.12855300669E+04  0.12855300669E+04  0.50400001928E-02 0.  1.
        1   -1    0    0  501    0  0.00000000000E+00  0.00000000000E+00 -0.15029869872E+04  0.15029869872E+04  0.50400001928E-02 0. -1.
    10030    2    1    2    0    0  0.00000000000E+00  0.00000000000E+00 -0.21745692028E+03  0.27885170541E+04  0.27800251526E+04 0.  0.
        5    1    3    3  502    0  0.32275224177E+03 -0.23329212210E+03 -0.14445315981E+04  0.14984284607E+04  0.46999998093E+01 0. -1.
       -5    1    3    3    0  502 -0.32275224177E+03  0.23329212210E+03  0.12270746779E+04  0.12900885934E+04  0.46999998093E+01 0.  1.
</event>
<event>
 5   0  0.9065579E-06  0.2795165E+04  0.7818609E-02  0.8304771E-01
        2   -1    0    0  501    0  0.00000000000E+00  0.00000000000E+00  0.12806494208E+04  0.12806494208E+04  0.25500000920E-02 0.  1.
       -2   -1    0    0    0  501  0.00000000000E+00  0.00000000000E+00 -0.15251920537E+04  0.15251920537E+04  0.25500000920E-02 0. -1.
    10030    2    1    2    0    0  0.00000000000E+00  0.00000000000E+00 -0.24454263294E+03  0.28058414746E+04  0.27951646250E+04 0.  0.
        3    1    3    3  502    0  0.12817205211E+04  0.89032250382E+02  0.42983144273E+03  0.13548023159E+04  0.10100000352E+00 0.  1.
       -3    1    3    3    0  502 -0.12817205211E+04 -0.89032250382E+02 -0.67437407567E+03  0.14510391587E+04  0.10100000352E+00 0. -1.
</event>
<event>
 5   0  0.3357244E-06  0.2708596E+04  0.7818609E-02  0.8332221E-01
        1   -1    0    0  501    0  0.00000000000E+00  0.00000000000E+00  0.16194660858E+04  0.16194660858E+04  0.50400001928E-02 0.  1.
       -1   -1    0    0    0  501  0.00000000000E+00  0.00000000000E+00 -0.11325478589E+04  0.11325478589E+04  0.50400001928E-02 0. -1.
    10030    2    1    2    0    0  0.00000000000E+00  0.00000000000E+00  0.48691822689E+03  0.27520139447E+04  0.27085958340E+04 0.  0.
        4    1    3    3  502    0  0.91142411662E+03 -0.47131083859E+03  0.11415359686E+04  0.15349051461E+04  0.12699999809E+01 0.  1.
       -4    1    3    3    0  502 -0.91142411662E+03  0.47131083859E+03 -0.65461774175E+03  0.12171087986E+04  0.12699999809E+01 0. -1.
</event>
<event>
 5   0  0.3371603E-06  0.2785209E+04  0.7818609E-02  0.8307875E-01
       -1   -1    0    0    0  501  0.00000000000E+00  0.00000000000E+00  0.11593029808E+04  0.11593029808E+04  0.50400001928E-02 0. -1.
        1   -1    0    0  501    0  0.00000000000E+00  0.00000000000E+00 -0.16728561853E+04  0.16728561853E+04  0.50400001928E-02 0.  1.
    10030    2    1    2    0    0  0.00000000000E+00  0.00000000000E+00 -0.51355320455E+03  0.28321591661E+04  0.27852089057E+04 0.  0.
        1    1    3    3  502    0  0.42478516772E+03  0.10126271753E+04 -0.11276544724E+04  0.15739951855E+04  0.50400001928E-02 0.  1.
       -1    1    3    3    0  502 -0.42478516772E+03 -0.10126271753E+04  0.61410126787E+03  0.12581639806E+04  0.50400001928E-02 0. -1.
</event>
<event>
 5   0  0.3438130E-06  0.2759479E+04  0.7818609E-02  0.8315960E-01
        1   -1    0    0  501    0  0.00000000000E+00  0.00000000000E+00  0.21041724917E+04  0.21041724917E+04  0.50400001928E-02 0. -1.
       -1   -1    0    0    0  501  0.00000000000E+00  0.00000000000E+00 -0.90471754219E+03  0.90471754221E+03  0.50400001928E-02 0.  1.
    10030    2    1    2    0    0  0.00000000000E+00  0.00000000000E+00  0.11994549495E+04  0.30088900339E+04  0.27594794908E+04 0.  0.
        3    1    3    3  502    0  0.80876690418E+03 -0.10876054849E+04  0.31813792514E+03  0.13921929987E+04  0.10100000352E+00 0.  1.
       -3    1    3    3    0  502 -0.80876690418E+03  0.10876054849E+04  0.88131702432E+03  0.16166970352E+04  0.10100000352E+00 0. -1.
</event>
<event>
 5   0  0.9426937E-06  0.2933108E+04  0.7818609E-02  0.8263094E-01
        2   -1    0    0  501    0  0.00000000000E+00  0.00000000000E+00  0.27924172744E+04  0.27924172744E+04  0.25500000920E-02 0. -1.
       -2   -1    0    0    0  501  0.00000000000E+00  0.00000000000E+00 -0.77022184422E+03  0.77022184422E+03  0.25500000920E-02 0.  1.
    10030    2    1    2    0    0  0.00000000000E+00  0.00000000000E+00  0.20221954302E+04  0.35626391186E+04  0.29331081009E+04 0.  0.
        4    1    3    3  502    0 -0.18538836333E+03 -0.76442349746E+03 -0.49233033158E+03  0.92795630125E+03  0.12699999809E+01 0.  1.
       -4    1    3    3    0  502  0.18538836333E+03  0.76442349746E+03  0.25145257618E+04  0.26346828174E+04  0.12699999809E+01 0. -1.
</event>
<event>
 5   0  0.9426937E-06  0.2776072E+04  0.7818609E-02  0.8310736E-01
        2   -1    0    0  501    0  0.00000000000E+00  0.00000000000E+00  0.21389883832E+04  0.21389883832E+04  0.25500000920E-02 0.  1.
       -2   -1    0    0    0  501  0.00000000000E+00  0.00000000000E+00 -0.90072654731E+03  0.90072654732E+03  0.25500000920E-02 0. -1.
    10030    2    1    2    0    0  0.00000000000E+00  0.00000000000E+00  0.12382618359E+04  0.30397149305E+04  0.27760717722E+04 0.  0.
        4    1    3    3  502    0  0.21501088406E+03 -0.26698032796E+03  0.20919096846E+04  0.21198103494E+04  0.12699999809E+01 0.  1.
       -4    1    3    3    0  502 -0.21501088406E+03  0.26698032796E+03 -0.85364784876E+03  0.91990458112E+03  0.12699999809E+01 0. -1.
</event>
<event>
 5   0  0.3397882E-06  0.2774352E+04  0.7818609E-02  0.8311275E-01
        1   -1    0    0  501    0  0.00000000000E+00  0.00000000000E+00  0.13050679987E+04  0.13050679988E+04  0.50400001928E-02 0. -1.
       -1   -1    0    0    0  501  0.00000000000E+00  0.00000000000E+00 -0.14744502495E+04  0.14744502495E+04  0.50400001928E-02 0.  1.
    10030    2    1    2    0    0  0.00000000000E+00  0.00000000000E+00 -0.16938225072E+03  0.27795182482E+04  0.27743524191E+04 0.  0.
        2    1    3    3  502    0  0.34989609078E+03 -0.13039632623E+04 -0.40389129447E+03  0.14092109997E+04  0.25500000920E-02 0. -1.
       -2    1    3    3    0  502 -0.34989609078E+03  0.13039632623E+04  0.23450904374E+03  0.13703072486E+04  0.25500000920E-02 0.  1.
</event>
<event>
 5   0  0.3600963E-06  0.2801127E+04  0.7818609E-02  0.8302918E-01
       -1   -1    0    0    0  501  0.00000000000E+00  0.00000000000E+00  0.13288250206E+04  0.13288250206E+04  0.50400001928E-02 0. -1.
        1   -1    0    0  501    0  0.00000000000E+00  0.00000000000E+00 -0.14761752372E+04  0.14761752373E+04  0.50400001928E-02 0.  1.
    10030    2    1    2    0    0  0.00000000000E+00  0.00000000000E+00 -0.14735021664E+03  0.28050002579E+04  0.28011273374E+04 0.  0.
        5    1    3    3  502    0  0.48530397840E+03  0.68619117350E+03 -0.11955715000E+04  0.14614347675E+04  0.46999998093E+01 0.  1.
       -5    1    3    3    0  502 -0.48530397840E+03 -0.68619117350E+03  0.10482212834E+04  0.13435654904E+04  0.46999998093E+01 0. -1.
</event>
<event>
 5   0  0.3600963E-06  0.2804884E+04  0.7818609E-02  0.8301754E-01
       -1   -1    0    0    0  501  0.00000000000E+00  0.00000000000E+00  0.10775203331E+04  0.10775203331E+04  0.50400001928E-02 0.  1.
        1   -1    0    0  501    0  0.00000000000E+00  0.00000000000E+00 -0.18253424926E+04  0.18253424926E+04  0.50400001928E-02 0. -1.
    10030    2    1    2    0    0  0.00000000000E+00  0.00000000000E+00 -0.74782215950E+03  0.29028628257E+04  0.28048840622E+04 0.  0.
        5    1    3    3  502    0  0.63770701659E+03 -0.12196722352E+04 -0.95149330076E+02  0.13796180940E+04  0.46999998093E+01 0.  1.
       -5    1    3    3    0  502 -0.63770701659E+03  0.12196722352E+04 -0.65267282942E+03  0.15232447317E+04  0.46999998093E+01 0. -1.
</event>
<event>
 5   0  0.9342133E-06  0.2767474E+04  0.7818609E-02  0.8313438E-01
       -2   -1    0    0    0  501  0.00000000000E+00  0.00000000000E+00  0.14633878885E+04  0.14633878885E+04  0.25500000920E-02 0. -1.
        2   -1    0    0  501    0  0.00000000000E+00  0.00000000000E+00 -0.13084218246E+04  0.13084218246E+04  0.25500000920E-02 0.  1.
    10030    2    1    2    0    0  0.00000000000E+00  0.00000000000E+00  0.15496606390E+03  0.27718097131E+04  0.27674744091E+04 0.  0.
        2    1    3    3  502    0 -0.30548555903E+03  0.13475878628E+04  0.37866778718E+01  0.13817846481E+04  0.25500000920E-02 0.  1.
       -2    1    3    3    0  502  0.30548555903E+03 -0.13475878628E+04  0.15117938602E+03  0.13900250651E+04  0.25500000920E-02 0. -1.
</event>
<event>
 5   0  0.9252359E-06  0.2802586E+04  0.7818609E-02  0.8302466E-01
        2   -1    0    0  501    0  0.00000000000E+00  0.00000000000E+00  0.14461027959E+04  0.14461027959E+04  0.25500000920E-02 0.  1.
       -2   -1    0    0    0  501  0.00000000000E+00  0.00000000000E+00 -0.13578717990E+04  0.13578717990E+04  0.25500000920E-02 0. -1.
    10030    2    1    2    0    0  0.00000000000E+00  0.00000000000E+00  0.88230996912E+02  0.28039745949E+04  0.28025860950E+04 0.  0.
        5    1    3    3  502    0 -0.60719333811E+03 -0.12575832660E+04  0.15993421788E+03  0.14056316960E+04  0.46999998093E+01 0.  1.
       -5    1    3    3    0  502  0.60719333811E+03  0.12575832660E+04 -0.71703220967E+02  0.13983428988E+04  0.46999998093E+01 0. -1.
</event>
<event>
 5   0  0.9260173E-06  0.2786343E+04  0.7818609E-02  0.8307521E-01
        2   -1    0    0  501    0  0.00000000000E+00  0.00000000000E+00  0.22184736552E+04  0.22184736552E+04  0.25500000920E-02 0.  1.
       -2   -1    0    0    0  501  0.00000000000E+00  0.00000000000E+00 -0.87489261587E+03  0.87489261588E+03  0.25500000920E-02 0. -1.
    10030    2    1    2    0    0  0.00000000000E+00  0.00000000000E+00  0.13435810393E+04  0.30933662711E+04  0.27863425629E+04 0.  0.
        1    1    3    3  502    0 -0.75472899920E+03  0.42371241425E+02  0.19710031651E+04  0.21109866559E+04  0.50400001928E-02 0.  1.
       -1    1    3    3    0  502  0.75472899920E+03 -0.42371241425E+02 -0.62742212582E+03  0.98237961518E+03  0.50400001928E-02 0. -1.
</event>
<event>
 5   0  0.9342133E-06  0.2791052E+04  0.7818609E-02  0.8306052E-01
       -2   -1    0    0    0  501  0.00000000000E+00  0.00000000000E+00  0.13145377605E+04  0.13145377605E+04  0.25500000920E-02 0.  1.
        2   -1    0    0  501    0  0.00000000000E+00  0.00000000000E+00 -0.14815038368E+04  0.14815038368E+04  0.25500000920E-02 0. -1.
    10030    2    1    2    0    0  0.00000000000E+00  0.00000000000E+00 -0.16696607629E+03  0.27960415973E+04  0.27910519420E+04 0.  0.
        2    1    3    3  502    0 -0.96291171557E+03  0.51537745010E+03  0.78679312009E+03  0.13460521171E+04  0.25500000920E-02 0.  1.
       -2    1    3    3    0  502  0.96291171557E+03 -0.51537745010E+03 -0.95375919639E+03  0.14499894802E+04  0.25500000920E-02 0. -1.
</event>
<event>
 5   0  0.9065579E-06  0.2760395E+04  0.7818609E-02  0.8315671E-01
        2   -1    0    0  501    0  0.00000000000E+00  0.00000000000E+00  0.22990163111E+04  0.22990163111E+04  0.25500000920E-02 0. -1.
       -2   -1    0    0    0  501  0.00000000000E+00  0.00000000000E+00 -0.82859132185E+03  0.82859132186E+03  0.25500000920E-02 0.  1.
    10030    2    1    2    0    0  0.00000000000E+00  0.00000000000E+00  0.14704249892E+04  0.31276076330E+04  0.27603948733E+04 0.  0.
        3    1    3    3  502    0  0.99156907538E+03 -0.92524156403E+03  0.44487444036E+03  0.14273032127E+04  0.10100000352E+00 0.  1.
       -3    1    3    3    0  502 -0.99156907538E+03  0.92524156403E+03  0.10255505489E+04  0.17003044203E+04  0.10100000352E+00 0. -1.
</event>
<event>
 5   0  0.3600963E-06  0.2797117E+04  0.7818609E-02  0.8304164E-01
       -1   -1    0    0    0  501  0.00000000000E+00  0.00000000000E+00  0.13612066881E+04  0.13612066881E+04  0.50400001928E-02 0.  1.
        1   -1    0    0  501    0  0.00000000000E+00  0.00000000000E+00 -0.14369349628E+04  0.14369349628E+04  0.50400001928E-02 0. -1.
    10030    2    1    2    0    0  0.00000000000E+00  0.00000000000E+00 -0.75728274709E+02  0.27981416510E+04  0.27971167168E+04 0.  0.
        5    1    3    3  502    0  0.53617390626E+03 -0.52406613344E+03  0.11431681516E+04  0.13671076339E+04  0.46999998093E+01 0.  1.
       -5    1    3    3    0  502 -0.53617390626E+03  0.52406613344E+03 -0.12188964263E+04  0.14310340171E+04  0.46999998093E+01 0. -1.
</event>
<event>
 5   0  0.9252359E-06  0.2796899E+04  0.7818609E-02  0.8304232E-01
       -2   -1    0    0    0  501  0.00000000000E+00  0.00000000000E+00  0.11065061171E+04  0.11065061171E+04  0.25500000920E-02 0.  1.
        2   -1    0    0  501    0  0.00000000000E+00  0.00000000000E+00 -0.17674198803E+04  0.17674198803E+04  0.25500000920E-02 0. -1.
    10030    2    1    2    0    0  0.00000000000E+00  0.00000000000E+00 -0.66091376321E+03  0.28739259973E+04  0.27968989320E+04 0.  0.
        5    1    3    3  502    0 -0.11662647427E+04  0.40305397052E+03  0.34570270215E+03  0.12814672846E+04  0.46999998093E+01 0.  1.
       -5    1    3    3    0  502  0.11662647427E+04 -0.40305397052E+03 -0.10066164654E+04  0.15924587127E+04  0.46999998093E+01 0. -1.
</event>
<event>
 5   0  0.3600963E-06  0.2801905E+04  0.7818609E-02  0.8302677E-01
        1   -1    0    0  501    0  0.00000000000E+00  0.00000000000E+00  0.23492191283E+04  0.23492191283E+04  0.50400001928E-02 0. -1.
       -1   -1    0    0    0  501  0.00000000000E+00  0.00000000000E+00 -0.83545520985E+03  0.83545520987E+03  0.50400001928E-02 0.  1.
    10030    2    1    2    0    0  0.00000000000E+00  0.00000000000E+00  0.15137639184E+04  0.31846743381E+04  0.28019046092E+04 0.  0.
        5    1    3    3  502    0 -0.14791699313E+03 -0.36402542033E+03  0.22852962119E+04  0.23188347956E+04  0.46999998093E+01 0. -1.
       -5    1    3    3    0  502  0.14791699313E+03  0.36402542033E+03 -0.77153229346E+03  0.86583954250E+03  0.46999998093E+01 0.  1.
</event>
<event>
 5   0  0.3438130E-06  0.2751196E+04  0.7818609E-02  0.8318582E-01
        1   -1    0    0  501    0  0.00000000000E+00  0.00000000000E+00  0.15118220004E+04  0.15118220004E+04  0.50400001928E-02 0. -1.
       -1   -1    0    0    0  501  0.00000000000E+00  0.00000000000E+00 -0.12516487527E+04  0.12516487527E+04  0.50400001928E-02 0.  1.
    10030    2    1    2    0    0  0.00000000000E+00  0.00000000000E+00  0.26017324764E+03  0.27634707531E+04  0.27511961916E+04 0.  0.
        3    1    3    3  502    0  0.18161665734E+03  0.10849268605E+04  0.95973732103E+03  0.14598447309E+04  0.10100000352E+00 0. -1.
       -3    1    3    3    0  502 -0.18161665734E+03 -0.10849268605E+04 -0.69956407339E+03  0.13036260222E+04  0.10100000352E+00 0.  1.
</event>
<event>
 5   0  0.9065579E-06  0.2790502E+04  0.7818609E-02  0.8306223E-01
       -2   -1    0    0    0  501  0.00000000000E+00  0.00000000000E+00  0.81253253342E+03  0.81253253343E+03  0.25500000920E-02 0. -1.
        2   -1    0    0  501    0  0.00000000000E+00  0.00000000000E+00 -0.23958729820E+04  0.23958729820E+04  0.25500000920E-02 0.  1.
    10030    2    1    2    0    0  0.00000000000E+00  0.00000000000E+00 -0.15833404486E+04  0.32084055154E+04  0.27905015634E+04 0.  0.
        3    1    3    3  502    0  0.42251165356E+03  0.94868262347E+03  0.27965012679E+03  0.10755087266E+04  0.10100000352E+00 0. -1.
       -3    1    3    3    0  502 -0.42251165356E+03 -0.94868262347E+03 -0.18629905754E+04  0.21328967888E+04  0.10100000352E+00 0.  1.
</event>
<event>
 5   0  0.3371603E-06  0.2797234E+04  0.7818609E-02  0.8304128E-01
        1   -1    0    0  501    0  0.00000000000E+00  0.00000000000E+00  0.23689530295E+04  0.23689530295E+04  0.50400001928E-02 0.  1.
       -1   -1    0    0    0  501  0.00000000000E+00  0.00000000000E+00 -0.82573606765E+03  0.82573606767E+03  0.50400001928E-02 0. -1.
    10030    2    1    2    0    0  0.00000000000E+00  0.00000000000E+00  0.15432169619E+04  0.31946890972E+04  0.27972343192E+04 0.  0.
        1    1    3    3  502    0  0.10913288453E+04  0.91733124099E+02 -0.22188794458E+03  0.11174291362E+04  0.50400001928E-02 0. -1.
       -1    1    3    3    0  502 -0.10913288453E+04 -0.91733124099E+02  0.17651049064E+04  0.20772599609E+04  0.50400001928E-02 0.  1.
</event>
<event>
 5   0  0.3438130E-06  0.2820091E+04  0.7818609E-02  0.8297058E-01
       -1   -1    0    0    0  501  0.00000000000E+00  0.00000000000E+00  0.11541266756E+04  0.11541266756E+04  0.50400001928E-02 0.  1.
        1   -1    0    0  501    0  0.00000000000E+00  0.00000000000E+00 -0.17227122467E+04  0.17227122467E+04  0.50400001928E-02 0. -1.
    10030    2    1    2    0    0  0.00000000000E+00  0.00000000000E+00 -0.56858557114E+03  0.28768389223E+04  0.28200908909E+04 0.  0.
        3    1    3    3  502    0 -0.30597342190E+03  0.13764460189E+04 -0.28206477808E+03  0.14379791122E+04  0.10100000352E+00 0.  1.
       -3    1    3    3    0  502  0.30597342190E+03 -0.13764460189E+04 -0.28652079306E+03  0.14388598101E+04  0.10100000352E+00 0. -1.
</event>
<event>
 5   0  0.3357244E-06  0.2806026E+04  0.7818609E-02  0.8301400E-01
       -1   -1    0    0    0  501  0.00000000000E+00  0.00000000000E+00  0.21754512843E+04  0.21754512843E+04  0.50400001928E-02 0.  1.
        1   -1    0    0  501    0  0.00000000000E+00  0.00000000000E+00 -0.90484467694E+03  0.90484467695E+03  0.50400001928E-02 0. -1.
    10030    2    1    2    0    0  0.00000000000E+00  0.00000000000E+00  0.12706066074E+04  0.30802959613E+04  0.28060260259E+04 0.  0.
        4    1    3    3  502    0 -0.11851714285E+04 -0.73134017633E+03  0.82209434159E+03  0.16171983453E+04  0.12699999809E+01 0. -1.
       -4    1    3    3    0  502  0.11851714285E+04  0.73134017633E+03  0.44851226577E+03  0.14630976160E+04  0.12699999809E+01 0.  1.
</event>
<event>
 5   0  0.3600963E-06  0.2827769E+04  0.7818609E-02  0.8294699E-01
       -1   -1    0    0    0  501  0.00000000000E+00  0.00000000000E+00  0.21150309288E+04  0.21150309288E+04  0.50400001928E-02 0. -1.
        1   -1    0    0  501    0  0.00000000000E+00  0.00000000000E+00 -0.94517284806E+03  0.94517284808E+03  0.50400001928E-02 0.  1.
    10030    2    1    2    0    0  0.00000000000E+00  0.00000000000E+00  0.11698580808E+04  0.30602037769E+04  0.28277693023E+04 0.  0.
        5    1    3    3  502    0 -0.11088684542E+04  0.82031508569E+03  0.24867796571E+03  0.14015594561E+04  0.46999998093E+01 0. -1.
       -5    1    3    3    0  502  0.11088684542E+04 -0.82031508569E+03  0.92118011505E+03  0.16586443208E+04  0.46999998093E+01 0.  1.
</event>
<event>
 5   0  0.9426937E-06  0.2795735E+04  0.7818609E-02  0.8304594E-01
        2   -1    0    0  501    0  0.00000000000E+00  0.00000000000E+00  0.16847296002E+04  0.16847296002E+04  0.25500000920E-02 0.  1.
       -2   -1    0    0    0  501  0.00000000000E+00  0.00000000000E+00 -0.11598502419E+04  0.11598502419E+04  0.25500000920E-02 0. -1.
    10030    2    1    2    0    0  0.00000000000E+00  0.00000000000E+00  0.52487935835E+03  0.28445798421E+04  0.27957353482E+04 0.  0.
        4    1    3    3  502    0  0.23229554333E+03 -0.12846966545E+04  0.77079424112E+03  0.15160910555E+04  0.12699999809E+01 0.  1.
       -4    1    3    3    0  502 -0.23229554333E+03  0.12846966545E+04 -0.24591488277E+03  0.13284887866E+04  0.12699999809E+01 0. -1.
</event>
<event>
 5   0  0.9065579E-06  0.2840260E+04  0.7818609E-02  0.8290877E-01
       -2   -1    0    0    0  501  0.00000000000E+00  0.00000000000E+00  0.15537353938E+04  0.15537353938E+04  0.25500000920E-02 0.  1.
        2   -1    0    0  501    0  0.00000000000E+00  0.00000000000E+00 -0.12980133427E+04  0.12980133428E+04  0.25500000920E-02 0. -1.
    10030    2    1    2    0    0  0.00000000000E+00  0.00000000000E+00  0.25572205102E+03  0.28517487365E+04  0.28402600390E+04 0.  0.
        3    1    3    3  502    0 -0.48521930397E+03  0.12400732557E+04 -0.36764284533E+03  0.13814415385E+04  0.10100000352E+00 0. -1.
       -3    1    3    3    0  502  0.48521930397E+03 -0.12400732557E+04  0.62336489635E+03  0.14703071980E+04  0.10100000352E+00 0.  1.
</event>
<event>
 5   0  0.3357244E-06  0.2879621E+04  0.7818609E-02  0.8278967E-01
       -1   -1    0    0    0  501  0.00000000000E+00  0.00000000000E+00  0.15382112917E+04  0.15382112917E+04  0.50400001928E-02 0. -1.
        1   -1    0    0  501    0  0.00000000000E+00  0.00000000000E+00 -0.13477046129E+04  0.13477046129E+04  0.50400001928E-02 0.  1.
    10030    2    1    2    0    0  0.00000000000E+00  0.00000000000E+00  0.19050667878E+03  0.28859159046E+04  0.28796211233E+04 0.  0.
        4    1    3    3  502    0  0.40813206020E+03  0.11633358999E+04 -0.65009996552E+03  0.13937552772E+04  0.12699999809E+01 0.  1.
       -4    1    3    3    0  502 -0.40813206020E+03 -0.11633358999E+04  0.84060664430E+03  0.14921606274E+04  0.12699999809E+01 0. -1.
</event>
<event>
 5   0  0.9342133E-06  0.2621417E+04  0.7818609E-02  0.8360962E-01
        2   -1    0    0  501    0  0.00000000000E+00  0.00000000000E+00  0.17875082925E+04  0.17875082925E+04  0.25500000920E-02 0.  1.
       -2   -1    0    0    0  501  0.00000000000E+00  0.00000000000E+00 -0.96109039484E+03  0.96109039484E+03  0.25500000920E-02 0. -1.
    10030    2    1    2    0    0  0.00000000000E+00  0.00000000000E+00  0.82641789771E+03  0.27485986874E+04  0.26214172126E+04 0.  0.
        2    1    3    3  502    0 -0.36404365632E+03 -0.25659559709E+03  0.17057314457E+04  0.17629205453E+04  0.25500000920E-02 0.  1.
       -2    1    3    3    0  502  0.36404365632E+03  0.25659559709E+03 -0.87931354798E+03  0.98567814210E+03  0.25500000920E-02 0. -1.
</event>
<event>
 5   0  0.3600963E-06  0.2833119E+04  0.7818609E-02  0.8293059E-01
       -1   -1    0    0    0  501  0.00000000000E+00  0.00000000000E+00  0.99502651753E+03  0.99502651755E+03  0.50400001928E-02 0. -1.
        1   -1    0    0  501    0  0.00000000000E+00  0.00000000000E+00 -0.20166708012E+04  0.20166708012E+04  0.50400001928E-02 0.  1.
    10030    2    1    2    0    0  0.00000000000E+00  0.00000000000E+00 -0.10216442836E+04  0.30116973187E+04  0.28331190757E+04 0.  0.
        5    1    3    3  502    0  0.19640937188E+03  0.97794708660E+03  0.55839065001E+03  0.11431445025E+04  0.46999998093E+01 0. -1.
       -5    1    3    3    0  502 -0.19640937188E+03 -0.97794708660E+03 -0.15800349336E+04  0.18685528162E+04  0.46999998093E+01 0.  1.
</event>
<event>
 5   0  0.9342133E-06  0.2824406E+04  0.7818609E-02  0.8295731E-01
       -2   -1    0    0    0  501  0.00000000000E+00  0.00000000000E+00  0.18740058421E+04  0.18740058421E+04  0.25500000920E-02 0. -1.
        2   -1    0    0  501    0  0.00000000000E+00  0.00000000000E+00 -0.10642002937E+04  0.10642002937E+04  0.25500000920E-02 0.  1.
    10030    2    1    2    0    0  0.00000000000E+00  0.00000000000E+00  0.80980554842E+03  0.29382061358E+04  0.28244061801E+04 0.  0.
        2    1    3    3  502    0  0.40439563146E+03 -0.10318570147E+04 -0.50560670655E+03  0.12181555185E+04  0.25500000920E-02 0.  1.
       -2    1    3    3    0  502 -0.40439563146E+03  0.10318570147E+04  0.13154122550E+04  0.17200506173E+04  0.25500000920E-02 0. -1.
</event>
<event>
 5   0  0.3357244E-06  0.2812195E+04  0.7818609E-02  0.8299492E-01
       -1   -1    0    0    0  501  0.00000000000E+00  0.00000000000E+00  0.10466433579E+04  0.10466433579E+04  0.50400001928E-02 0.  1.
        1   -1    0    0  501    0  0.00000000000E+00  0.00000000000E+00 -0.18890006186E+04  0.18890006186E+04  0.50400001928E-02 0. -1.
    10030    2    1    2    0    0  0.00000000000E+00  0.00000000000E+00 -0.84235726070E+03  0.29356439765E+04  0.28121948372E+04 0.  0.
        4    1    3    3  502    0  0.71478143810E+03 -0.10902212973E+04 -0.97119821873E+03  0.16256452793E+04  0.12699999809E+01 0. -1.
       -4    1    3    3    0  502 -0.71478143810E+03  0.10902212973E+04  0.12884095803E+03  0.13099986972E+04  0.12699999809E+01 0.  1.
</event>
<event>
 5   0  0.3357244E-06  0.2975111E+04  0.7818609E-02  0.8250874E-01
       -1   -1    0    0    0  501  0.00000000000E+00  0.00000000000E+00  0.14354146934E+04  0.14354146934E+04  0.50400001928E-02 0. -1.
        1   -1    0    0  501    0  0.00000000000E+00  0.00000000000E+00 -0.15415897872E+04  0.15415897872E+04  0.50400001928E-02 0.  1.
    10030    2    1    2    0    0  0.00000000000E+00  0.00000000000E+00 -0.10617509386E+03  0.29770044806E+04  0.29751105067E+04 0.  0.
        4    1    3    3  502    0  0.24688314248E+03  0.78566796303E+03 -0.12926633091E+04  0.15327118052E+04  0.12699999809E+01 0.  1.
       -4    1    3    3    0  502 -0.24688314248E+03 -0.78566796303E+03  0.11864882153E+04  0.14442926754E+04  0.12699999809E+01 0. -1.
</event>
<event>
 5   0  0.3357244E-06  0.2353954E+04  0.7818609E-02  0.8456946E-01
        1   -1    0    0  501    0  0.00000000000E+00  0.00000000000E+00  0.15701936684E+04  0.15701936684E+04  0.50400001928E-02 0. -1.
       -1   -1    0    0    0  501  0.00000000000E+00  0.00000000000E+00 -0.88223212830E+03  0.88223212831E+03  0.50400001928E-02 0.  1.
    10030    2    1    2    0    0  0.00000000000E+00  0.00000000000E+00  0.68796154010E+03  0.24524257967E+04  0.23539543767E+04 0.  0.
        4    1    3    3  502    0 -0.78821173778E+03 -0.35624014205E+03 -0.48758739708E+03  0.99293900370E+03  0.12699999809E+01 0.  1.
       -4    1    3    3    0  502  0.78821173778E+03  0.35624014205E+03  0.11755489372E+04  0.14594867930E+04  0.12699999809E+01 0. -1.
</event>
<event>
 5   0  0.9426937E-06  0.2348689E+04  0.7818609E-02  0.8458968E-01
       -2   -1    0    0    0  501  0.00000000000E+00  0.00000000000E+00  0.71985354222E+03  0.71985354222E+03  0.25500000920E-02 0. -1.
        2   -1    0    0  501    0  0.00000000000E+00  0.00000000000E+00 -0.19157847977E+04  0.19157847977E+04  0.25500000920E-02 0.  1.
    10030    2    1    2    0    0  0.00000000000E+00  0.00000000000E+00 -0.11959312555E+04  0.26356383400E+04  0.23486885471E+04 0.  0.
        4    1    3    3  502    0 -0.40250365728E+03  0.96195778728E+03 -0.12040550452E+04  0.15928346252E+04  0.12699999809E+01 0.  1.
       -4    1    3    3    0  502  0.40250365728E+03 -0.96195778728E+03  0.81237896366E+01  0.10428037147E+04  0.12699999809E+01 0. -1.
</event>
<event>
 5   0  0.3006875E-06  0.2846318E+04  0.7818609E-02  0.8289031E-01
       -3   -1    0    0    0  501  0.00000000000E+00  0.00000000000E+00  0.11711530523E+04  0.11711530566E+04  0.10100000352E+00 0. -1.
        3   -1    0    0  501    0  0.00000000000E+00  0.00000000000E+00 -0.17293910728E+04  0.17293910757E+04  0.10100000352E+00 0.  1.
    10030    2    1    2    0    0  0.00000000000E+00  0.00000000000E+00 -0.55823802048E+03  0.29005441324E+04  0.28463180736E+04 0.  0.
        3    1    3    3  502    0  0.51577873613E+03  0.13131034579E+04 -0.88163810910E+02  0.14135208748E+04  0.10100000352E+00 0. -1.
       -3    1    3    3    0  502 -0.51577873613E+03 -0.13131034579E+04 -0.47007420957E+03  0.14870232575E+04  0.10100000352E+00 0.  1.
</event>
<event>
 5   0  0.9252359E-06  0.2809695E+04  0.7818609E-02  0.8300265E-01
        2   -1    0    0  501    0  0.00000000000E+00  0.00000000000E+00  0.11219010021E+04  0.11219010021E+04  0.25500000920E-02 0. -1.
       -2   -1    0    0    0  501  0.00000000000E+00  0.00000000000E+00 -0.17591532610E+04  0.17591532610E+04  0.25500000920E-02 0.  1.
    10030    2    1    2    0    0  0.00000000000E+00  0.00000000000E+00 -0.63725225891E+03  0.28810542631E+04  0.28096945075E+04 0.  0.
        5    1    3    3  502    0 -0.10528094571E+04 -0.67189605282E+03  0.34092195533E+03  0.12946435527E+04  0.46999998093E+01 0. -1.
       -5    1    3    3    0  502  0.10528094571E+04  0.67189605282E+03 -0.97817421424E+03  0.15864107105E+04  0.46999998093E+01 0.  1.
</event>
<event>
 5   0  0.9252359E-06  0.2805896E+04  0.7818609E-02  0.8301440E-01
       -2   -1    0    0    0  501  0.00000000000E+00  0.00000000000E+00  0.13293343701E+04  0.13293343701E+04  0.25500000920E-02 0. -1.
        2   -1    0    0  501    0  0.00000000000E+00  0.00000000000E+00 -0.14806383705E+04  0.14806383705E+04  0.25500000920E-02 0.  1.
    10030    2    1    2    0    0  0.00000000000E+00  0.00000000000E+00 -0.15130400038E+03  0.28099727405E+04  0.28058962743E+04 0.  0.
        5    1    3    3  502    0  0.13296596785E+04  0.20707527173E+03 -0.47292261236E+03  0.14263775503E+04  0.46999998093E+01 0.  1.
       -5    1    3    3    0  502 -0.13296596785E+04 -0.20707527173E+03  0.32161861198E+03  0.13835951902E+04  0.46999998093E+01 0. -1.
</event>
<event>
 5   0  0.9426937E-06  0.2811745E+04  0.7818609E-02  0.8299631E-01
       -2   -1    0    0    0  501  0.00000000000E+00  0.00000000000E+00  0.18466258797E+04  0.18466258797E+04  0.25500000920E-02 0.  1.
        2   -1    0    0  501    0  0.00000000000E+00  0.00000000000E+00 -0.10703181022E+04  0.10703181022E+04  0.25500000920E-02 0. -1.
    10030    2    1    2    0    0  0.00000000000E+00  0.00000000000E+00  0.77630777745E+03  0.29169439819E+04  0.28117447303E+04 0.  0.
        4    1    3    3  502    0 -0.84205804376E+03 -0.63312646239E+03  0.13538771176E+04  0.17154870238E+04  0.12699999809E+01 0.  1.
       -4    1    3    3    0  502  0.84205804376E+03  0.63312646239E+03 -0.57756934016E+03  0.12014569580E+04  0.12699999809E+01 0. -1.
</event>
<event>
 5   0  0.3357244E-06  0.2799390E+04  0.7818609E-02  0.8303458E-01
        1   -1    0    0  501    0  0.00000000000E+00  0.00000000000E+00  0.13200725209E+04  0.13200725209E+04  0.50400001928E-02 0. -1.
       -1   -1    0    0    0  501  0.00000000000E+00  0.00000000000E+00 -0.14841202115E+04  0.14841202115E+04  0.50400001928E-02 0.  1.
    10030    2    1    2    0    0  0.00000000000E+00  0.00000000000E+00 -0.16404769060E+03  0.28041927325E+04  0.27993901543E+04 0.  0.
        4    1    3    3  502    0 -0.11836703670E+04  0.66734964979E+03 -0.41832828093E+03  0.14217704654E+04  0.12699999809E+01 0.  1.
       -4    1    3    3    0  502  0.11836703670E+04 -0.66734964979E+03  0.25428059033E+03  0.13824222670E+04  0.12699999809E+01 0. -1.
</event>
<event>
 5   0  0.3397882E-06  0.2733276E+04  0.7818609E-02  0.8324288E-01
        1   -1    0    0  501    0  0.00000000000E+00  0.00000000000E+00  0.15787387486E+04  0.15787387487E+04  0.50400001928E-02 0. -1.
       -1   -1    0    0    0  501  0.00000000000E+00  0.00000000000E+00 -0.11830329868E+04  0.11830329868E+04  0.50400001928E-02 0.  1.
    10030    2    1    2    0    0  0.00000000000E+00  0.00000000000E+00  0.39570576182E+03  0.27617717355E+04  0.27332764348E+04 0.  0.
        2    1    3    3  502    0 -0.91607026565E+03 -0.84575116306E+03 -0.36764260636E+03  0.12998618571E+04  0.25500000920E-02 0.  1.
       -2    1    3    3    0  502  0.91607026565E+03  0.84575116306E+03  0.76334836818E+03  0.14619098784E+04  0.25500000920E-02 0. -1.
</event>
<event>
 5   0  0.9342133E-06  0.2814867E+04  0.7818609E-02  0.8298668E-01
        2   -1    0    0  501    0  0.00000000000E+00  0.00000000000E+00  0.20703327825E+04  0.20703327825E+04  0.25500000920E-02 0.  1.
       -2   -1    0    0    0  501  0.00000000000E+00  0.00000000000E+00 -0.95678762967E+03  0.95678762967E+03  0.25500000920E-02 0. -1.
    10030    2    1    2    0    0  0.00000000000E+00  0.00000000000E+00  0.11135451528E+04  0.30271204121E+04  0.28148668143E+04 0.  0.
        2    1    3    3  502    0  0.98057322281E+03 -0.87394464165E+03  0.11004272678E+04  0.17135469803E+04  0.25500000920E-02 0.  1.
       -2    1    3    3    0  502 -0.98057322281E+03  0.87394464165E+03  0.13117885021E+02  0.13135734319E+04  0.25500000920E-02 0. -1.
</event>
<event>
 5   0  0.3397882E-06  0.2593679E+04  0.7818609E-02  0.8370351E-01
       -1   -1    0    0    0  501  0.00000000000E+00  0.00000000000E+00  0.81019278696E+03  0.81019278698E+03  0.50400001928E-02 0.  1.
        1   -1    0    0  501    0  0.00000000000E+00  0.00000000000E+00 -0.20757937911E+04  0.20757937911E+04  0.50400001928E-02 0. -1.
    10030    2    1    2    0    0  0.00000000000E+00  0.00000000000E+00 -0.12656010042E+04  0.28859865781E+04  0.25936793609E+04 0.  0.
        2    1    3    3  502    0  0.79462400525E+03  0.80572147801E+03 -0.13375698050E+04  0.17520580450E+04  0.25500000920E-02 0. -1.
       -2    1    3    3    0  502 -0.79462400525E+03 -0.80572147801E+03  0.71968800850E+02  0.11339285331E+04  0.25500000920E-02 0.  1.
</event>
<event>
 5   0  0.9065579E-06  0.2781956E+04  0.7818609E-02  0.8308892E-01
        2   -1    0    0  501    0  0.00000000000E+00  0.00000000000E+00  0.16746998239E+04  0.16746998239E+04  0.25500000920E-02 0.  1.
       -2   -1    0    0    0  501  0.00000000000E+00  0.00000000000E+00 -0.11553231507E+04  0.11553231507E+04  0.25500000920E-02 0. -1.
    10030    2    1    2    0    0  0.00000000000E+00  0.00000000000E+00  0.51937667318E+03  0.28300229745E+04  0.27819557703E+04 0.  0.
        3    1    3    3  502    0  0.10129845273E+04  0.25416297051E+03 -0.67492573750E+03  0.12434875269E+04  0.10100000352E+00 0. -1.
       -3    1    3    3    0  502 -0.10129845273E+04 -0.25416297051E+03  0.11943024107E+04  0.15865354476E+04  0.10100000352E+00 0.  1.
</event>
<event>
 5   0  0.9252359E-06  0.2799275E+04  0.7818609E-02  0.8303493E-01
       -2   -1    0    0    0  501  0.00000000000E+00  0.00000000000E+00  0.81201054207E+03  0.81201054207E+03  0.25500000920E-02 0.  1.
        2   -1    0    0  501    0  0.00000000000E+00  0.00000000000E+00 -0.24125122846E+04  0.24125122846E+04  0.25500000920E-02 0. -1.
    10030    2    1    2    0    0  0.00000000000E+00  0.00000000000E+00 -0.16005017426E+04  0.32245228267E+04  0.27992751976E+04 0.  0.
        5    1    3    3  502    0 -0.44648679540E+02 -0.74027988998E+03  0.56706387472E+03  0.93359056770E+03  0.46999998093E+01 0.  1.
       -5    1    3    3    0  502  0.44648679540E+02  0.74027988998E+03 -0.21675656173E+04  0.22909322590E+04  0.46999998093E+01 0. -1.
</event>
<event>
 5   0  0.3600963E-06  0.2791543E+04  0.7818609E-02  0.8305899E-01
        1   -1    0    0  501    0  0.00000000000E+00  0.00000000000E+00  0.10356598277E+04  0.10356598277E+04  0.50400001928E-02 0. -1.
       -1   -1    0    0    0  501  0.00000000000E+00  0.00000000000E+00 -0.18810982093E+04  0.18810982093E+04  0.50400001928E-02 0.  1.
    10030    2    1    2    0    0  0.00000000000E+00  0.00000000000E+00 -0.84543838167E+03  0.29167580370E+04  0.27915428332E+04 0.  0.
        5    1    3    3  502    0 -0.10655059824E+03  0.48898348804E+02 -0.18759364930E+04  0.18796020574E+04  0.46999998093E+01 0.  1.
       -5    1    3    3    0  502  0.10655059824E+03 -0.48898348804E+02  0.10304981114E+04  0.10371559796E+04  0.46999998093E+01 0. -1.
</event>
<event>
 5   0  0.3438130E-06  0.2815974E+04  0.7818609E-02  0.8298326E-01
       -1   -1    0    0    0  501  0.00000000000E+00  0.00000000000E+00  0.15238518018E+04  0.15238518018E+04  0.50400001928E-02 0. -1.
        1   -1    0    0  501    0  0.00000000000E+00  0.00000000000E+00 -0.13009321269E+04  0.13009321269E+04  0.50400001928E-02 0.  1.
    10030    2    1    2    0    0  0.00000000000E+00  0.00000000000E+00  0.22291967495E+03  0.28247839287E+04  0.28159742652E+04 0.  0.
        3    1    3    3  502    0  0.26048149775E+03  0.12102182797E+04  0.78434062804E+03  0.14654927929E+04  0.10100000352E+00 0. -1.
       -3    1    3    3    0  502 -0.26048149775E+03 -0.12102182797E+04 -0.56142095309E+03  0.13592911358E+04  0.10100000352E+00 0.  1.
</event>
<event>
 5   0  0.9065579E-06  0.2885133E+04  0.7818609E-02  0.8277315E-01
       -2   -1    0    0    0  501  0.00000000000E+00  0.00000000000E+00  0.18760315653E+04  0.18760315653E+04  0.25500000920E-02 0. -1.
        2   -1    0    0  501    0  0.00000000000E+00  0.00000000000E+00 -0.11092554198E+04  0.11092554198E+04  0.25500000920E-02 0.  1.
    10030    2    1    2    0    0  0.00000000000E+00  0.00000000000E+00  0.76677614554E+03  0.29852869851E+04  0.28851330518E+04 0.  0.
        3    1    3    3  502    0 -0.37532646772E+03  0.13928829991E+04  0.38103657349E+03  0.14920395059E+04  0.10100000352E+00 0. -1.
       -3    1    3    3    0  502  0.37532646772E+03 -0.13928829991E+04  0.38573957205E+03  0.14932474792E+04  0.10100000352E+00 0.  1.
</event>
<event>
 5   0  0.9260173E-06  0.2777049E+04  0.7818609E-02  0.8310429E-01
        2   -1    0    0  501    0  0.00000000000E+00  0.00000000000E+00  0.29594746716E+04  0.29594746716E+04  0.25500000920E-02 0.  1.
       -2   -1    0    0    0  501  0.00000000000E+00  0.00000000000E+00 -0.65146720233E+03  0.65146720234E+03  0.25500000920E-02 0. -1.
    10030    2    1    2    0    0  0.00000000000E+00  0.00000000000E+00  0.23080074693E+04  0.36109418740E+04  0.27770492864E+04 0.  0.
        1    1    3    3  502    0  0.53109819649E+03 -0.11631641660E+04  0.45018756136E+03  0.13556124121E+04  0.50400001928E-02 0. -1.
       -1    1    3    3    0  502 -0.53109819649E+03  0.11631641660E+04  0.18578199079E+04  0.22553294619E+04  0.50400001928E-02 0.  1.
</event>
<event>
 5   0  0.9260173E-06  0.2818016E+04  0.7818609E-02  0.8297697E-01
        2   -1    0    0  501    0  0.00000000000E+00  0.00000000000E+00  0.15104529736E+04  0.15104529736E+04  0.25500000920E-02 0.  1.
       -2   -1    0    0    0  501  0.00000000000E+00  0.00000000000E+00 -0.13143758862E+04  0.13143758862E+04  0.25500000920E-02 0. -1.
    10030    2    1    2    0    0  0.00000000000E+00  0.00000000000E+00  0.19607708744E+03  0.28248288599E+04  0.28180155896E+04 0.  0.
        1    1    3    3  502    0 -0.37267750850E+03 -0.38745270579E+03  0.14036063154E+04  0.15030365309E+04  0.50400001928E-02 0.  1.
       -1    1    3    3    0  502  0.37267750850E+03  0.38745270579E+03 -0.12075292279E+04  0.13217923290E+04  0.50400001928E-02 0. -1.
</event>
<event>
 5   0  0.9342133E-06  0.2804007E+04  0.7818609E-02  0.8302025E-01
       -2   -1    0    0    0  501  0.00000000000E+00  0.00000000000E+00  0.10443022784E+04  0.10443022784E+04  0.25500000920E-02 0.  1.
        2   -1    0    0  501    0  0.00000000000E+00  0.00000000000E+00 -0.18822267701E+04  0.18822267701E+04  0.25500000920E-02 0. -1.
    10030    2    1    2    0    0  0.00000000000E+00  0.00000000000E+00 -0.83792449176E+03  0.29265290485E+04  0.28040069218E+04 0.  0.
        2    1    3    3  502    0  0.57526838895E+03  0.63585021012E+03  0.73872811651E+03  0.11317943449E+04  0.25500000920E-02 0.  1.
       -2    1    3    3    0  502 -0.57526838895E+03 -0.63585021012E+03 -0.15766526083E+04  0.17947347036E+04  0.25500000920E-02 0. -1.
</event>
<event>
 5   0  0.3371603E-06  0.2793290E+04  0.7818609E-02  0.8305355E-01
       -1   -1    0    0    0  501  0.00000000000E+00  0.00000000000E+00  0.13068619155E+04  0.13068619155E+04  0.50400001928E-02 0.  1.
        1   -1    0    0  501    0  0.00000000000E+00  0.00000000000E+00 -0.14925960499E+04  0.14925960499E+04  0.50400001928E-02 0. -1.
    10030    2    1    2    0    0  0.00000000000E+00  0.00000000000E+00 -0.18573413444E+03  0.27994579655E+04  0.27932897686E+04 0.  0.
        1    1    3    3  502    0  0.10898654459E+04  0.14679039354E+02  0.78232801974E+03  0.13416628842E+04  0.50400001928E-02 0.  1.
       -1    1    3    3    0  502 -0.10898654459E+04 -0.14679039354E+02 -0.96806215418E+03  0.14577950812E+04  0.50400001928E-02 0. -1.
</event>
<event>
 5   0  0.9260173E-06  0.2891313E+04  0.7818609E-02  0.8275467E-01
       -2   -1    0    0    0  501  0.00000000000E+00  0.00000000000E+00  0.10064701243E+04  0.10064701243E+04  0.25500000920E-02 0. -1.
        2   -1    0    0  501    0  0.00000000000E+00  0.00000000000E+00 -0.20764879842E+04  0.20764879842E+04  0.25500000920E-02 0.  1.
    10030    2    1    2    0    0  0.00000000000E+00  0.00000000000E+00 -0.10700178599E+04  0.30829581086E+04  0.28913132792E+04 0.  0.
        1    1    3    3  502    0 -0.31394894208E+02 -0.66019040391E+03 -0.19059544957E+04  0.20173000640E+04  0.50400001928E-02 0.  1.
       -1    1    3    3    0  502  0.31394894208E+02  0.66019040391E+03  0.83593663578E+03  0.10656580445E+04  0.50400001928E-02 0. -1.
</event>
<event>
 5   0  0.9426937E-06  0.2803016E+04  0.7818609E-02  0.8302332E-01
        2   -1    0    0  501    0  0.00000000000E+00  0.00000000000E+00  0.11426374369E+04  0.11426374369E+04  0.25500000920E-02 0.  1.
       -2   -1    0    0    0  501  0.00000000000E+00  0.00000000000E+00 -0.17190275923E+04  0.17190275923E+04  0.25500000920E-02 0. -1.
    10030    2    1    2    0    0  0.00000000000E+00  0.00000000000E+00 -0.57639015546E+03  0.28616650292E+04  0.28030164338E+04 0.  0.
        4    1    3    3  502    0  0.19140498825E+03 -0.46943995746E+03 -0.16221376239E+04  0.16995122321E+04  0.12699999809E+01 0. -1.
       -4    1    3    3    0  502 -0.19140498825E+03  0.46943995746E+03  0.10457474685E+04  0.11621527971E+04  0.12699999809E+01 0.  1.
</event>
<event>
 5   0  0.9065579E-06  0.2786014E+04  0.7818609E-02  0.8307624E-01
       -2   -1    0    0    0  501  0.00000000000E+00  0.00000000000E+00  0.74439022194E+03  0.74439022195E+03  0.25500000920E-02 0.  1.
        2   -1    0    0  501    0  0.00000000000E+00  0.00000000000E+00 -0.26067901256E+04  0.26067901256E+04  0.25500000920E-02 0. -1.
    10030    2    1    2    0    0  0.00000000000E+00  0.00000000000E+00 -0.18623999037E+04  0.33511803475E+04  0.27860144150E+04 0.  0.
        3    1    3    3  502    0 -0.91339706557E+03 -0.30451548821E+03 -0.21421175026E+04  0.23485508909E+04  0.10100000352E+00 0. -1.
       -3    1    3    3    0  502  0.91339706557E+03  0.30451548821E+03  0.27971759896E+03  0.10026294566E+04  0.10100000352E+00 0.  1.
</event>
<event>
 5   0  0.3600963E-06  0.2762319E+04  0.7818609E-02  0.8315063E-01
       -1   -1    0    0    0  501  0.00000000000E+00  0.00000000000E+00  0.25644195767E+04  0.25644195767E+04  0.50400001928E-02 0.  1.
        1   -1    0    0  501    0  0.00000000000E+00  0.00000000000E+00 -0.74387271683E+03  0.74387271684E+03  0.50400001928E-02 0. -1.
    10030    2    1    2    0    0  0.00000000000E+00  0.00000000000E+00  0.18205468599E+04  0.33082922936E+04  0.27623191399E+04 0.  0.
        5    1    3    3  502    0  0.26207406727E+03 -0.13496227760E+04  0.10683234017E+04  0.17411207410E+04  0.46999998093E+01 0.  1.
       -5    1    3    3    0  502 -0.26207406727E+03  0.13496227760E+04  0.75222345822E+03  0.15671715526E+04  0.46999998093E+01 0. -1.
</event>
<event>
 5   0  0.3397882E-06  0.2808589E+04  0.7818609E-02  0.8300607E-01
        1   -1    0    0  501    0  0.00000000000E+00  0.00000000000E+00  0.16240416516E+04  0.16240416516E+04  0.50400001928E-02 0. -1.
       -1   -1    0    0    0  501  0.00000000000E+00  0.00000000000E+00 -0.12142810663E+04  0.12142810663E+04  0.50400001928E-02 0.  1.
    10030    2    1    2    0    0  0.00000000000E+00  0.00000000000E+00  0.40976058530E+03  0.28383227179E+04  0.28085889898E+04 0.  0.
        2    1    3    3  502    0  0.35848293506E+03 -0.11550019675E+04 -0.51647156880E+03  0.13150218405E+04  0.25500000920E-02 0.  1.
       -2    1    3    3    0  502 -0.35848293506E+03  0.11550019675E+04  0.92623215410E+03  0.15233008774E+04  0.25500000920E-02 0. -1.
</event>
<event>
 5   0  0.9260173E-06  0.2811659E+04  0.7818609E-02  0.8299658E-01
        2   -1    0    0  501    0  0.00000000000E+00  0.00000000000E+00  0.16184782541E+04  0.16184782541E+04  0.25500000920E-02 0. -1.
       -2   -1    0    0    0  501  0.00000000000E+00  0.00000000000E+00 -0.12211200026E+04  0.12211200026E+04  0.25500000920E-02 0.  1.
    10030    2    1    2    0    0  0.00000000000E+00  0.00000000000E+00  0.39735825146E+03  0.28395982567E+04  0.28116587061E+04 0.  0.
        1    1    3    3  502    0 -0.20570639090E+03  0.13901327574E+04  0.15863709602E+03  0.14141958601E+04  0.50400001928E-02 0. -1.
       -1    1    3    3    0  502  0.20570639090E+03 -0.13901327574E+04  0.23872115544E+03  0.14254023967E+04  0.50400001928E-02 0.  1.
</event>
<event>
 5   0  0.9426937E-06  0.2786869E+04  0.7818609E-02  0.8307357E-01
       -2   -1    0    0    0  501  0.00000000000E+00  0.00000000000E+00  0.10246887453E+04  0.10246887453E+04  0.25500000920E-02 0. -1.
        2   -1    0    0  501    0  0.00000000000E+00  0.00000000000E+00 -0.18948772593E+04  0.18948772593E+04  0.25500000920E-02 0.  1.
    10030    2    1    2    0    0  0.00000000000E+00  0.00000000000E+00 -0.87018851396E+03  0.29195660045E+04  0.27868687815E+04 0.  0.
        4    1    3    3  502    0  0.11910143109E+04  0.21778904851E+03  0.28746456096E+03  0.12444214098E+04  0.12699999809E+01 0. -1.
       -4    1    3    3    0  502 -0.11910143109E+04 -0.21778904851E+03 -0.11576530749E+04  0.16751445947E+04  0.12699999809E+01 0.  1.
</event>
<event>
 5   0  0.9065579E-06  0.2807802E+04  0.7818609E-02  0.8300850E-01
       -2   -1    0    0    0  501  0.00000000000E+00  0.00000000000E+00  0.11130674866E+04  0.11130674866E+04  0.25500000920E-02 0.  1.
        2   -1    0    0  501    0  0.00000000000E+00  0.00000000000E+00 -0.17707270037E+04  0.17707270037E+04  0.25500000920E-02 0. -1.
    10030    2    1    2    0    0  0.00000000000E+00  0.00000000000E+00 -0.65765951703E+03  0.28837944903E+04  0.28078024542E+04 0.  0.
        3    1    3    3  502    0 -0.44674359128E+03  0.58067938809E+03  0.90115042424E+03  0.11613959210E+04  0.10100000352E+00 0.  1.
       -3    1    3    3    0  502  0.44674359128E+03 -0.58067938809E+03 -0.15588099413E+04  0.17223985692E+04  0.10100000352E+00 0. -1.
</event>
<event>
 5   0  0.3371603E-06  0.2804842E+04  0.7818609E-02  0.8301767E-01
        1   -1    0    0  501    0  0.00000000000E+00  0.00000000000E+00  0.24743127420E+04  0.24743127420E+04  0.50400001928E-02 0.  1.
       -1   -1    0    0    0  501  0.00000000000E+00  0.00000000000E+00 -0.79488128904E+03  0.79488128905E+03  0.50400001928E-02 0. -1.
    10030    2    1    2    0    0  0.00000000000E+00  0.00000000000E+00  0.16794314529E+04  0.32691940310E+04  0.28048421716E+04 0.  0.
        1    1    3    3  502    0 -0.22428030907E+03  0.50263076117E+03 -0.66373353191E+03  0.86225375646E+03  0.50400001928E-02 0. -1.
       -1    1    3    3    0  502  0.22428030907E+03 -0.50263076117E+03  0.23431649848E+04  0.24069402746E+04  0.50400001928E-02 0.  1.
</event>
<event>
 5   0  0.9342133E-06  0.2797126E+04  0.7818609E-02  0.8304161E-01
        2   -1    0    0  501    0  0.00000000000E+00  0.00000000000E+00  0.19549726674E+04  0.19549726674E+04  0.25500000920E-02 0. -1.
       -2   -1    0    0    0  501  0.00000000000E+00  0.00000000000E+00 -0.10005147767E+04  0.10005147767E+04  0.25500000920E-02 0.  1.
    10030    2    1    2    0    0  0.00000000000E+00  0.00000000000E+00  0.95445789072E+03  0.29554874441E+04  0.27971264124E+04 0.  0.
        2    1    3    3  502    0  0.80599557799E+03 -0.25018899556E+03 -0.70114886388E+03  0.10971932986E+04  0.25500000920E-02 0.  1.
       -2    1    3    3    0  502 -0.80599557799E+03  0.25018899556E+03  0.16556067546E+04  0.18582941455E+04  0.25500000920E-02 0. -1.
</event>
<event>
 5   0  0.3371603E-06  0.2792070E+04  0.7818609E-02  0.8305735E-01
        1   -1    0    0  501    0  0.00000000000E+00  0.00000000000E+00  0.16675617167E+04  0.16675617167E+04  0.50400001928E-02 0.  1.
       -1   -1    0    0    0  501  0.00000000000E+00  0.00000000000E+00 -0.11687203919E+04  0.11687203919E+04  0.50400001928E-02 0. -1.
    10030    2    1    2    0    0  0.00000000000E+00  0.00000000000E+00  0.49884132475E+03  0.28362821086E+04  0.27920697578E+04 0.  0.
        1    1    3    3  502    0  0.34139650367E+03 -0.81457969009E+03 -0.84881944767E+03  0.12249841219E+04  0.50400001928E-02 0. -1.
       -1    1    3    3    0  502 -0.34139650367E+03  0.81457969009E+03  0.13476607724E+04  0.16112979866E+04  0.50400001928E-02 0.  1.
</event>
<event>
 5   0  0.3397882E-06  0.2694887E+04  0.7818609E-02  0.8336666E-01
       -1   -1    0    0    0  501  0.00000000000E+00  0.00000000000E+00  0.10091790170E+04  0.10091790170E+04  0.50400001928E-02 0. -1.
        1   -1    0    0  501    0  0.00000000000E+00  0.00000000000E+00 -0.17990904944E+04  0.17990904944E+04  0.50400001928E-02 0.  1.
    10030    2    1    2    0    0  0.00000000000E+00  0.00000000000E+00 -0.78991147738E+03  0.28082695114E+04  0.26948872902E+04 0.  0.
        2    1    3    3  502    0 -0.28183135428E+03 -0.42756999339E+03 -0.16937314222E+04  0.17694550409E+04  0.25500000920E-02 0.  1.
       -2    1    3    3    0  502  0.28183135428E+03  0.42756999339E+03  0.90381994478E+03  0.10388144705E+04  0.25500000920E-02 0. -1.
</event>
<event>
 5   0  0.9252359E-06  0.2782373E+04  0.7818609E-02  0.8308762E-01
       -2   -1    0    0    0  501  0.00000000000E+00  0.00000000000E+00  0.13703566695E+04  0.13703566695E+04  0.25500000920E-02 0.  1.
        2   -1    0    0  501    0  0.00000000000E+00  0.00000000000E+00 -0.14123334007E+04  0.14123334007E+04  0.25500000920E-02 0. -1.
    10030    2    1    2    0    0  0.00000000000E+00  0.00000000000E+00 -0.41976731215E+02  0.27826900702E+04  0.27823734438E+04 0.  0.
        5    1    3    3  502    0 -0.19491724886E+01  0.81318096498E+03 -0.11498822142E+04  0.14083743386E+04  0.46999998093E+01 0. -1.
       -5    1    3    3    0  502  0.19491724886E+01 -0.81318096498E+03  0.11079054830E+04  0.13743157316E+04  0.46999998093E+01 0.  1.
</event>
<event>
 5   0  0.3371603E-06  0.2821239E+04  0.7818609E-02  0.8296705E-01
       -1   -1    0    0    0  501  0.00000000000E+00  0.00000000000E+00  0.12316679093E+04  0.12316679093E+04  0.50400001928E-02 0.  1.
        1   -1    0    0  501    0  0.00000000000E+00  0.00000000000E+00 -0.16155717940E+04  0.16155717940E+04  0.50400001928E-02 0. -1.
    10030    2    1    2    0    0  0.00000000000E+00  0.00000000000E+00 -0.38390388467E+03  0.28472397033E+04  0.28212393970E+04 0.  0.
        1    1    3    3  502    0 -0.13163913018E+04  0.34231007926E+03 -0.56927681912E+03  0.14744959636E+04  0.50400001928E-02 0.  1.
       -1    1    3    3    0  502  0.13163913018E+04 -0.34231007926E+03  0.18537293445E+03  0.13727437397E+04  0.50400001928E-02 0. -1.
</event>
<event>
 5   0  0.9426937E-06  0.2824998E+04  0.7818609E-02  0.8295549E-01
       -2   -1    0    0    0  501  0.00000000000E+00  0.00000000000E+00  0.66067290789E+03  0.66067290790E+03  0.25500000920E-02 0. -1.
        2   -1    0    0  501    0  0.00000000000E+00  0.00000000000E+00 -0.30198797642E+04  0.30198797642E+04  0.25500000920E-02 0.  1.
    10030    2    1    2    0    0  0.00000000000E+00  0.00000000000E+00 -0.23592068563E+04  0.36805526721E+04  0.28249975188E+04 0.  0.
        4    1    3    3  502    0 -0.11895408729E+04  0.72739702990E+03 -0.14739360561E+04  0.20289413589E+04  0.12699999809E+01 0. -1.
       -4    1    3    3    0  502  0.11895408729E+04 -0.72739702990E+03 -0.88527080025E+03  0.16516113133E+04  0.12699999809E+01 0.  1.
</event>
<event>
 5   0  0.3006875E-06  0.2857733E+04  0.7818609E-02  0.8285565E-01
        3   -1    0    0  501    0  0.00000000000E+00  0.00000000000E+00  0.15765584579E+04  0.15765584612E+04  0.10100000352E+00 0.  1.
       -3   -1    0    0    0  501  0.00000000000E+00  0.00000000000E+00 -0.12950102161E+04  0.12950102201E+04  0.10100000352E+00 0. -1.
    10030    2    1    2    0    0  0.00000000000E+00  0.00000000000E+00  0.28154824177E+03  0.28715686812E+04  0.28577328914E+04 0.  0.
        5    1    3    3  502    0  0.11730880007E+04 -0.58352113248E+03  0.71362621162E+03  0.14919506792E+04  0.46999998093E+01 0.  1.
       -5    1    3    3    0  502 -0.11730880007E+04  0.58352113248E+03 -0.43207796984E+03  0.13796180020E+04  0.46999998093E+01 0. -1.
</event>
<event>
 5   0  0.9065579E-06  0.2821928E+04  0.7818609E-02  0.8296493E-01
        2   -1    0    0  501    0  0.00000000000E+00  0.00000000000E+00  0.12922962364E+04  0.12922962364E+04  0.25500000920E-02 0.  1.
       -2   -1    0    0    0  501  0.00000000000E+00  0.00000000000E+00 -0.15405287680E+04  0.15405287680E+04  0.25500000920E-02 0. -1.
    10030    2    1    2    0    0  0.00000000000E+00  0.00000000000E+00 -0.24823253160E+03  0.28328250045E+04  0.28219280849E+04 0.  0.
        3    1    3    3  502    0  0.37404946964E+02  0.23288162025E+03  0.12723653497E+04  0.12940427243E+04  0.10100000352E+00 0.  1.
       -3    1    3    3    0  502 -0.37404946964E+02 -0.23288162025E+03 -0.15205978813E+04  0.15387822802E+04  0.10100000352E+00 0. -1.
</event>
<event>
 5   0  0.9252359E-06  0.2787860E+04  0.7818609E-02  0.8307047E-01
        2   -1    0    0  501    0  0.00000000000E+00  0.00000000000E+00  0.13911305176E+04  0.13911305176E+04  0.25500000920E-02 0. -1.
       -2   -1    0    0    0  501  0.00000000000E+00  0.00000000000E+00 -0.13967355067E+04  0.13967355068E+04  0.25500000920E-02 0.  1.
    10030    2    1    2    0    0  0.00000000000E+00  0.00000000000E+00 -0.56049891043E+01  0.27878660244E+04  0.27878603900E+04 0.  0.
        5    1    3    3  502    0 -0.25734488702E+03 -0.29284657025E+03  0.13354953174E+04  0.13912423719E+04  0.46999998093E+01 0. -1.
       -5    1    3    3    0  502  0.25734488702E+03  0.29284657025E+03 -0.13411003065E+04  0.13966236525E+04  0.46999998093E+01 0.  1.
</event>
<event>
 5   0  0.3438130E-06  0.2797736E+04  0.7818609E-02  0.8303972E-01
        1   -1    0    0  501    0  0.00000000000E+00  0.00000000000E+00  0.13280698479E+04  0.13280698479E+04  0.50400001928E-02 0. -1.
       -1   -1    0    0    0  501  0.00000000000E+00  0.00000000000E+00 -0.14734400321E+04  0.14734400321E+04  0.50400001928E-02 0.  1.
    10030    2    1    2    0    0  0.00000000000E+00  0.00000000000E+00 -0.14537018421E+03  0.28015098800E+04  0.27977357125E+04 0.  0.
        3    1    3    3  502    0  0.48918743775E+03  0.10786446154E+04  0.67266621073E+03  0.13620787044E+04  0.10100000352E+00 0. -1.
       -3    1    3    3    0  502 -0.48918743775E+03 -0.10786446154E+04 -0.81803639494E+03  0.14394311756E+04  0.10100000352E+00 0.  1.
</event>
<event>
 5   0  0.9342133E-06  0.2797435E+04  0.7818609E-02  0.8304065E-01
       -2   -1    0    0    0  501  0.00000000000E+00  0.00000000000E+00  0.12565740452E+04  0.12565740452E+04  0.25500000920E-02 0.  1.
        2   -1    0    0  501    0  0.00000000000E+00  0.00000000000E+00 -0.15569398023E+04  0.15569398023E+04  0.25500000920E-02 0. -1.
    10030    2    1    2    0    0  0.00000000000E+00  0.00000000000E+00 -0.30036575718E+03  0.28135138475E+04  0.27974346430E+04 0.  0.
        2    1    3    3  502    0  0.74578508215E+03  0.11563557811E+04  0.10237012490E+03  0.13797948122E+04  0.25500000920E-02 0. -1.
       -2    1    3    3    0  502 -0.74578508215E+03 -0.11563557811E+04 -0.40273588208E+03  0.14337190353E+04  0.25500000920E-02 0.  1.
</event>
<event>
 5   0  0.9426937E-06  0.2818388E+04  0.7818609E-02  0.8297582E-01
       -2   -1    0    0    0  501  0.00000000000E+00  0.00000000000E+00  0.89344989688E+03  0.89344989688E+03  0.25500000920E-02 0.  1.
        2   -1    0    0  501    0  0.00000000000E+00  0.00000000000E+00 -0.22226516595E+04  0.22226516595E+04  0.25500000920E-02 0. -1.
    10030    2    1    2    0    0  0.00000000000E+00  0.00000000000E+00 -0.13292017626E+04  0.31161015564E+04  0.28183881180E+04 0.  0.
        4    1    3    3  502    0  0.11198614983E+04 -0.77890011287E+03 -0.10555809333E+04  0.17248269133E+04  0.12699999809E+01 0. -1.
       -4    1    3    3    0  502 -0.11198614983E+04  0.77890011287E+03 -0.27362082931E+03  0.13912746430E+04  0.12699999809E+01 0.  1.
</event>
<event>
 5   0  0.9260173E-06  0.2770800E+04  0.7818609E-02  0.8312391E-01
        2   -1    0    0  501    0  0.00000000000E+00  0.00000000000E+00  0.16755825184E+04  0.16755825184E+04  0.25500000920E-02 0. -1.
       -2   -1    0    0    0  501  0.00000000000E+00  0.00000000000E+00 -0.11454724177E+04  0.11454724177E+04  0.25500000920E-02 0.  1.
    10030    2    1    2    0    0  0.00000000000E+00  0.00000000000E+00  0.53011010074E+03  0.28210549361E+04  0.27708002876E+04 0.  0.
        1    1    3    3  502    0  0.91368248646E+03  0.10452000840E+03 -0.78988126804E+03  0.12122922650E+04  0.50400001928E-02 0.  1.
       -1    1    3    3    0  502 -0.91368248646E+03 -0.10452000840E+03  0.13199913688E+04  0.16087626711E+04  0.50400001928E-02 0. -1.
</event>
<event>
 5   0  0.3357244E-06  0.2804387E+04  0.7818609E-02  0.8301908E-01
       -1   -1    0    0    0  501  0.00000000000E+00  0.00000000000E+00  0.19387230768E+04  0.19387230768E+04  0.50400001928E-02 0. -1.
        1   -1    0    0  501    0  0.00000000000E+00  0.00000000000E+00 -0.10141455023E+04  0.10141455024E+04  0.50400001928E-02 0.  1.
    10030    2    1    2    0    0  0.00000000000E+00  0.00000000000E+00  0.92457757441E+03  0.29528685791E+04  0.28043874829E+04 0.  0.
        4    1    3    3  502    0 -0.78109941882E+02  0.13244098177E+04 -0.15594611479E+02  0.13268034266E+04  0.12699999809E+01 0. -1.
       -4    1    3    3    0  502  0.78109941882E+02 -0.13244098177E+04  0.94017218589E+03  0.16260651525E+04  0.12699999809E+01 0.  1.
</event>
<event>
 5   0  0.3600963E-06  0.2811891E+04  0.7818609E-02  0.8299586E-01
        1   -1    0    0  501    0  0.00000000000E+00  0.00000000000E+00  0.10605068845E+04  0.10605068845E+04  0.50400001928E-02 0.  1.
       -1   -1    0    0    0  501  0.00000000000E+00  0.00000000000E+00 -0.18639031935E+04  0.18639031935E+04  0.50400001928E-02 0. -1.
    10030    2    1    2    0    0  0.00000000000E+00  0.00000000000E+00 -0.80339630908E+03  0.29244100780E+04  0.28118905873E+04 0.  0.
        5    1    3    3  502    0  0.63644409695E+03 -0.69976616815E+03 -0.14834775194E+04  0.17593923437E+04  0.46999998093E+01 0. -1.
       -5    1    3    3    0  502 -0.63644409695E+03  0.69976616815E+03  0.68008121029E+03  0.11650177343E+04  0.46999998093E+01 0.  1.
</event>
<event>
 5   0  0.3371603E-06  0.2893557E+04  0.7818609E-02  0.8274797E-01
       -1   -1    0    0    0  501  0.00000000000E+00  0.00000000000E+00  0.10105233557E+04  0.10105233557E+04  0.50400001928E-02 0.  1.
        1   -1    0    0  501    0  0.00000000000E+00  0.00000000000E+00 -0.20713706028E+04  0.20713706028E+04  0.50400001928E-02 0. -1.
    10030    2    1    2    0    0  0.00000000000E+00  0.00000000000E+00 -0.10608472471E+04  0.30818939584E+04  0.28935572380E+04 0.  0.
        1    1    3    3  502    0  0.13548198461E+03 -0.19263283047E+03  0.98997102733E+03  0.10175978629E+04  0.50400001928E-02 0.  1.
       -1    1    3    3    0  502 -0.13548198461E+03  0.19263283047E+03 -0.20508182744E+04  0.20642960956E+04  0.50400001928E-02 0. -1.
</event>
<event>
 5   0  0.3357244E-06  0.2835211E+04  0.7818609E-02  0.8292419E-01
        1   -1    0    0  501    0  0.00000000000E+00  0.00000000000E+00  0.24775819391E+04  0.24775819391E+04  0.50400001928E-02 0. -1.
       -1   -1    0    0    0  501  0.00000000000E+00  0.00000000000E+00 -0.81111571733E+03  0.81111571735E+03  0.50400001928E-02 0.  1.
    10030    2    1    2    0    0  0.00000000000E+00  0.00000000000E+00  0.16664662218E+04  0.32886976565E+04  0.28352112103E+04 0.  0.
        4    1    3    3  502    0  0.11178413515E+04  0.87121864537E+03  0.79631788973E+03  0.16256429527E+04  0.12699999809E+01 0.  1.
       -4    1    3    3    0  502 -0.11178413515E+04 -0.87121864537E+03  0.87014833204E+03  0.16630547038E+04  0.12699999809E+01 0. -1.
</event>
<event>
 5   0  0.3371603E-06  0.2769636E+04  0.7818609E-02  0.8312758E-01
        1   -1    0    0  501    0  0.00000000000E+00  0.00000000000E+00  0.13656440277E+04  0.13656440277E+04  0.50400001928E-02 0.  1.
       -1   -1    0    0    0  501  0.00000000000E+00  0.00000000000E+00 -0.14042610103E+04  0.14042610103E+04  0.50400001928E-02 0. -1.
    10030    2    1    2    0    0  0.00000000000E+00  0.00000000000E+00 -0.38616982562E+02  0.27699050381E+04  0.27696358332E+04 0.  0.
        1    1    3    3  502    0 -0.32310408412E+03  0.11819011220E+04 -0.66468830845E+03  0.13939501636E+04  0.50400001928E-02 0. -1.
       -1    1    3    3    0  502  0.32310408412E+03 -0.11819011220E+04  0.62607132589E+03  0.13759548744E+04  0.50400001928E-02 0.  1.
</event>
<event>
 5   0  0.9342133E-06  0.2819601E+04  0.7818609E-02  0.8297209E-01
        2   -1    0    0  501    0  0.00000000000E+00  0.00000000000E+00  0.17506133792E+04  0.17506133792E+04  0.25500000920E-02 0. -1.
       -2   -1    0    0    0  501  0.00000000000E+00  0.00000000000E+00 -0.11353374832E+04  0.11353374832E+04  0.25500000920E-02 0.  1.
    10030    2    1    2    0    0  0.00000000000E+00  0.00000000000E+00  0.61527589599E+03  0.28859508624E+04  0.28196006724E+04 0.  0.
        2    1    3    3  502    0  0.93695543841E+03 -0.12968267848E+02  0.13857445741E+04  0.16728244661E+04  0.25500000920E-02 0. -1.
       -2    1    3    3    0  502 -0.93695543841E+03  0.12968267848E+02 -0.77046867813E+03  0.12131263964E+04  0.25500000920E-02 0.  1.
</event>
<event>
 5   0  0.3357244E-06  0.2741774E+04  0.7818609E-02  0.8321577E-01
        1   -1    0    0  501    0  0.00000000000E+00  0.00000000000E+00  0.18641675126E+04  0.18641675126E+04  0.50400001928E-02 0. -1.
       -1   -1    0    0    0  501  0.00000000000E+00  0.00000000000E+00 -0.10081341881E+04  0.10081341881E+04  0.50400001928E-02 0.  1.
    10030    2    1    2    0    0  0.00000000000E+00  0.00000000000E+00  0.85603332452E+03  0.28723017007E+04  0.27417738796E+04 0.  0.
        4    1    3    3  502    0  0.11993260187E+04  0.53424485867E+03  0.14870236478E+02  0.13130206415E+04  0.12699999809E+01 0.  1.
       -4    1    3    3    0  502 -0.11993260187E+04 -0.53424485867E+03  0.84116308804E+03  0.15592810592E+04  0.12699999809E+01 0. -1.
</event>
<event>
 5   0  0.9426937E-06  0.2798740E+04  0.7818609E-02  0.8303660E-01
        2   -1    0    0  501    0  0.00000000000E+00  0.00000000000E+00  0.21231224457E+04  0.21231224457E+04  0.25500000920E-02 0. -1.
       -2   -1    0    0    0  501  0.00000000000E+00  0.00000000000E+00 -0.92233823660E+03  0.92233823661E+03  0.25500000920E-02 0.  1.
    10030    2    1    2    0    0  0.00000000000E+00  0.00000000000E+00  0.12007842091E+04  0.30454606824E+04  0.27987404401E+04 0.  0.
        4    1    3    3  502    0  0.52826964344E+03 -0.11954891698E+04  0.11444388979E+04  0.17372406785E+04  0.12699999809E+01 0. -1.
       -4    1    3    3    0  502 -0.52826964344E+03  0.11954891698E+04  0.56345311274E+02  0.13082200038E+04  0.12699999809E+01 0.  1.
</event>
<event>
 5   0  0.3371603E-06  0.2789739E+04  0.7818609E-02  0.8306461E-01
       -1   -1    0    0    0  501  0.00000000000E+00  0.00000000000E+00  0.16128279908E+04  0.16128279908E+04  0.50400001928E-02 0.  1.
        1   -1    0    0  501    0  0.00000000000E+00  0.00000000000E+00 -0.12063660416E+04  0.12063660416E+04  0.50400001928E-02 0. -1.
    10030    2    1    2    0    0  0.00000000000E+00  0.00000000000E+00  0.40646194920E+03  0.28191940324E+04  0.27897389978E+04 0.  0.
        1    1    3    3  502    0  0.12504689993E+04 -0.16648021201E+03  0.80472336777E+03  0.14963181740E+04  0.50400001928E-02 0.  1.
       -1    1    3    3    0  502 -0.12504689993E+04  0.16648021201E+03 -0.39826141858E+03  0.13228758584E+04  0.50400001928E-02 0. -1.
</event>
<event>
 5   0  0.3438130E-06  0.2801943E+04  0.7818609E-02  0.8302666E-01
        1   -1    0    0  501    0  0.00000000000E+00  0.00000000000E+00  0.17573868394E+04  0.17573868394E+04  0.50400001928E-02 0. -1.
       -1   -1    0    0    0  501  0.00000000000E+00  0.00000000000E+00 -0.11168403247E+04  0.11168403247E+04  0.50400001928E-02 0.  1.
    10030    2    1    2    0    0  0.00000000000E+00  0.00000000000E+00  0.64054651462E+03  0.28742271641E+04  0.28019425322E+04 0.  0.
        3    1    3    3  502    0 -0.47635326833E+02  0.51191717948E+03 -0.10165711191E+04  0.11391861891E+04  0.10100000352E+00 0.  1.
       -3    1    3    3    0  502  0.47635326833E+02 -0.51191717948E+03  0.16571176337E+04  0.17350409750E+04  0.10100000352E+00 0. -1.
</event>
<event>
 5   0  0.9342133E-06  0.2802281E+04  0.7818609E-02  0.8302561E-01
        2   -1    0    0  501    0  0.00000000000E+00  0.00000000000E+00  0.16588558288E+04  0.16588558288E+04  0.25500000920E-02 0.  1.
       -2   -1    0    0    0  501  0.00000000000E+00  0.00000000000E+00 -0.11834628130E+04  0.11834628130E+04  0.25500000920E-02 0. -1.
    10030    2    1    2    0    0  0.00000000000E+00  0.00000000000E+00  0.47539301589E+03  0.28423186418E+04  0.28022806323E+04 0.  0.
        2    1    3    3  502    0  0.74929820263E+03 -0.26609844059E+01  0.14385631038E+04  0.16220106907E+04  0.25500000920E-02 0.  1.
       -2    1    3    3    0  502 -0.74929820263E+03  0.26609844059E+01 -0.96317008787E+03  0.12203079511E+04  0.25500000920E-02 0. -1.
</event>
<event>
 5   0  0.9065579E-06  0.2879217E+04  0.7818609E-02  0.8279088E-01
        2   -1    0    0  501    0  0.00000000000E+00  0.00000000000E+00  0.12822288002E+04  0.12822288002E+04  0.25500000920E-02 0.  1.
       -2   -1    0    0    0  501  0.00000000000E+00  0.00000000000E+00 -0.16163051687E+04  0.16163051687E+04  0.25500000920E-02 0. -1.
    10030    2    1    2    0    0  0.00000000000E+00  0.00000000000E+00 -0.33407636847E+03  0.28985339689E+04  0.28792172806E+04 0.  0.
        3    1    3    3  502    0  0.36379588770E+03 -0.13005657923E+04 -0.66903602942E+03  0.15071257568E+04  0.10100000352E+00 0. -1.
       -3    1    3    3    0  502 -0.36379588770E+03  0.13005657923E+04  0.33495966095E+03  0.13914082121E+04  0.10100000352E+00 0.  1.
</event>
<event>
 5   0  0.9252359E-06  0.2814850E+04  0.7818609E-02  0.8298673E-01
        2   -1    0    0  501    0  0.00000000000E+00  0.00000000000E+00  0.15049252414E+04  0.15049252414E+04  0.25500000920E-02 0. -1.
       -2   -1    0    0    0  501  0.00000000000E+00  0.00000000000E+00 -0.13162413647E+04  0.13162413647E+04  0.25500000920E-02 0.  1.
    10030    2    1    2    0    0  0.00000000000E+00  0.00000000000E+00  0.18868387669E+03  0.28211666061E+04  0.28148498031E+04 0.  0.
        5    1    3    3  502    0  0.90429142253E+03 -0.10631698945E+04  0.27571645041E+03  0.14227139039E+04  0.46999998093E+01 0.  1.
       -5    1    3    3    0  502 -0.90429142253E+03  0.10631698945E+04 -0.87032573720E+02  0.13984527022E+04  0.46999998093E+01 0. -1.
</event>
<event>
 5   0  0.3357244E-06  0.2811500E+04  0.7818609E-02  0.8299707E-01
       -1   -1    0    0    0  501  0.00000000000E+00  0.00000000000E+00  0.13694755458E+04  0.13694755458E+04  0.50400001928E-02 0. -1.
        1   -1    0    0  501    0  0.00000000000E+00  0.00000000000E+00 -0.14429849057E+04  0.14429849057E+04  0.50400001928E-02 0.  1.
    10030    2    1    2    0    0  0.00000000000E+00  0.00000000000E+00 -0.73509359929E+02  0.28124604515E+04  0.28114996292E+04 0.  0.
        4    1    3    3  502    0 -0.57813123042E+03  0.62310913373E+03 -0.11567936132E+04  0.14355047156E+04  0.12699999809E+01 0.  1.
       -4    1    3    3    0  502  0.57813123042E+03 -0.62310913373E+03  0.10832842533E+04  0.13769557358E+04  0.12699999809E+01 0. -1.
</event>
<event>
 5   0  0.3371603E-06  0.2816088E+04  0.7818609E-02  0.8298291E-01
        1   -1    0    0  501    0  0.00000000000E+00  0.00000000000E+00  0.11482310107E+04  0.11482310107E+04  0.50400001928E-02 0.  1.
       -1   -1    0    0    0  501  0.00000000000E+00  0.00000000000E+00 -0.17266453477E+04  0.17266453477E+04  0.50400001928E-02 0. -1.
    10030    2    1    2    0    0  0.00000000000E+00  0.00000000000E+00 -0.57841433703E+03  0.28748763584E+04  0.28160878769E+04 0.  0.
        1    1    3    3  502    0 -0.97598124246E+03  0.95208619894E+03 -0.64808567163E+03  0.15096431875E+04  0.50400001928E-02 0. -1.
       -1    1    3    3    0  502  0.97598124246E+03 -0.95208619894E+03  0.69671334602E+02  0.13652331708E+04  0.50400001928E-02 0.  1.
</event>
<event>
 5   0  0.3600963E-06  0.2818014E+04  0.7818609E-02  0.8297698E-01
        1   -1    0    0  501    0  0.00000000000E+00  0.00000000000E+00  0.12656349901E+04  0.12656349901E+04  0.50400001928E-02 0.  1.
       -1   -1    0    0    0  501  0.00000000000E+00  0.00000000000E+00 -0.15686199753E+04  0.15686199753E+04  0.50400001928E-02 0. -1.
    10030    2    1    2    0    0  0.00000000000E+00  0.00000000000E+00 -0.30298498520E+03  0.28342549654E+04  0.28180137167E+04 0.  0.
        5    1    3    3  502    0  0.43026612287E+03  0.11005868889E+04  0.62030085271E+03  0.13346219219E+04  0.46999998093E+01 0. -1.
       -5    1    3    3    0  502 -0.43026612287E+03 -0.11005868889E+04 -0.92328583792E+03  0.14996330435E+04  0.46999998093E+01 0.  1.
</event>
<event>
 5   0  0.9065579E-06  0.2815996E+04  0.7818609E-02  0.8298319E-01
        2   -1    0    0  501    0  0.00000000000E+00  0.00000000000E+00  0.10760618428E+04  0.10760618429E+04  0.25500000920E-02 0.  1.
       -2   -1    0    0    0  501  0.00000000000E+00  0.00000000000E+00 -0.18423278218E+04  0.18423278218E+04  0.25500000920E-02 0. -1.
    10030    2    1    2    0    0  0.00000000000E+00  0.00000000000E+00 -0.76626597892E+03  0.29183896646E+04  0.28159962152E+04 0.  0.
        3    1    3    3  502    0  0.37294576788E+03 -0.35394287945E+03 -0.17415551017E+04  0.18158684672E+04  0.10100000352E+00 0. -1.
       -3    1    3    3    0  502 -0.37294576788E+03  0.35394287945E+03  0.97528912275E+03  0.11025211975E+04  0.10100000352E+00 0.  1.
</event>
<event>
 5   0  0.9342133E-06  0.2819038E+04  0.7818609E-02  0.8297382E-01
       -2   -1    0    0    0  501  0.00000000000E+00  0.00000000000E+00  0.14197019760E+04  0.14197019761E+04  0.25500000920E-02 0.  1.
        2   -1    0    0  501    0  0.00000000000E+00  0.00000000000E+00 -0.13994093210E+04  0.13994093210E+04  0.25500000920E-02 0. -1.
    10030    2    1    2    0    0  0.00000000000E+00  0.00000000000E+00  0.20292655007E+02  0.28191112971E+04  0.28190382604E+04 0.  0.
        2    1    3    3  502    0  0.23815918742E+03 -0.87840076203E+03  0.10864810841E+04  0.14173033703E+04  0.25500000920E-02 0.  1.
       -2    1    3    3    0  502 -0.23815918742E+03  0.87840076203E+03 -0.10661884291E+04  0.14018079268E+04  0.25500000920E-02 0. -1.
</event>
<event>
 5   0  0.3397882E-06  0.2810515E+04  0.7818609E-02  0.8300011E-01
       -1   -1    0    0    0  501  0.00000000000E+00  0.00000000000E+00  0.11415077485E+04  0.11415077485E+04  0.50400001928E-02 0.  1.
        1   -1    0    0  501    0  0.00000000000E+00  0.00000000000E+00 -0.17299470841E+04  0.17299470841E+04  0.50400001928E-02 0. -1.
    10030    2    1    2    0    0  0.00000000000E+00  0.00000000000E+00 -0.58843933552E+03  0.28714548326E+04  0.28105145444E+04 0.  0.
        2    1    3    3  502    0  0.56308618893E+03 -0.55626027277E+03  0.89210184542E+03  0.11926178138E+04  0.25500000920E-02 0.  1.
       -2    1    3    3    0  502 -0.56308618893E+03  0.55626027277E+03 -0.14805411809E+04  0.16788370188E+04  0.25500000920E-02 0. -1.
</event>
<event>
 5   0  0.3397882E-06  0.2790627E+04  0.7818609E-02  0.8306184E-01
       -1   -1    0    0    0  501  0.00000000000E+00  0.00000000000E+00  0.84953081573E+03  0.84953081575E+03  0.50400001928E-02 0.  1.
        1   -1    0    0  501    0  0.00000000000E+00  0.00000000000E+00 -0.22917356790E+04  0.22917356791E+04  0.50400001928E-02 0. -1.
    10030    2    1    2    0    0  0.00000000000E+00  0.00000000000E+00 -0.14422048633E+04  0.31412664948E+04  0.27906272276E+04 0.  0.
        2    1    3    3  502    0 -0.39839869518E+03 -0.50944820486E+03 -0.21128347714E+04  0.22095994580E+04  0.25500000920E-02 0. -1.
       -2    1    3    3    0  502  0.39839869518E+03  0.50944820486E+03  0.67062990808E+03  0.93166703676E+03  0.25500000920E-02 0.  1.
</event>
<event>
 5   0  0.9260173E-06  0.2826384E+04  0.7818609E-02  0.8295124E-01
        2   -1    0    0  501    0  0.00000000000E+00  0.00000000000E+00  0.16123564150E+04  0.16123564150E+04  0.25500000920E-02 0. -1.
       -2   -1    0    0    0  501  0.00000000000E+00  0.00000000000E+00 -0.12386287586E+04  0.12386287586E+04  0.25500000920E-02 0.  1.
    10030    2    1    2    0    0  0.00000000000E+00  0.00000000000E+00  0.37372765638E+03  0.28509851736E+04  0.28263835725E+04 0.  0.
        1    1    3    3  502    0 -0.28738469242E+03  0.16285565705E+03  0.15728686777E+04  0.16071800782E+04  0.50400001928E-02 0. -1.
       -1    1    3    3    0  502  0.28738469242E+03 -0.16285565705E+03 -0.11991410213E+04  0.12438050954E+04  0.50400001928E-02 0.  1.
</event>
<event>
 5   0  0.3438130E-06  0.2802203E+04  0.7818609E-02  0.8302585E-01
        1   -1    0    0  501    0  0.00000000000E+00  0.00000000000E+00  0.15380778268E+04  0.15380778268E+04  0.50400001928E-02 0.  1.
       -1   -1    0    0    0  501  0.00000000000E+00  0.00000000000E+00 -0.12763237086E+04  0.12763237087E+04  0.50400001928E-02 0. -1.
    10030    2    1    2    0    0  0.00000000000E+00  0.00000000000E+00  0.26175411811E+03  0.28144015354E+04  0.28022028449E+04 0.  0.
        3    1    3    3  502    0  0.60614177160E+03 -0.79216110727E+03 -0.85735658506E+03  0.13152898507E+04  0.10100000352E+00 0. -1.
       -3    1    3    3    0  502 -0.60614177160E+03  0.79216110727E+03  0.11191107032E+04  0.14991116847E+04  0.10100000352E+00 0.  1.
</event>
<event>
 5   0  0.9260173E-06  0.2818064E+04  0.7818609E-02  0.8297682E-01
        2   -1    0    0  501    0  0.00000000000E+00  0.00000000000E+00  0.18198616642E+04  0.18198616642E+04  0.25500000920E-02 0. -1.
       -2   -1    0    0    0  501  0.00000000000E+00  0.00000000000E+00 -0.10909462215E+04  0.10909462215E+04  0.25500000920E-02 0.  1.
    10030    2    1    2    0    0  0.00000000000E+00  0.00000000000E+00  0.72891544272E+03  0.29108078858E+04  0.28180640208E+04 0.  0.
        1    1    3    3  502    0 -0.11234100526E+04  0.39261778994E+03 -0.41480621419E+03  0.12602630958E+04  0.50400001928E-02 0.  1.
       -1    1    3    3    0  502  0.11234100526E+04 -0.39261778994E+03  0.11437216569E+04  0.16505447900E+04  0.50400001928E-02 0. -1.
</event>
<event>
 5   0  0.3397882E-06  0.2699614E+04  0.7818609E-02  0.8335130E-01
       -1   -1    0    0    0  501  0.00000000000E+00  0.00000000000E+00  0.90387793491E+03  0.90387793492E+03  0.50400001928E-02 0. -1.
        1   -1    0    0  501    0  0.00000000000E+00  0.00000000000E+00 -0.20157353310E+04  0.20157353311E+04  0.50400001928E-02 0.  1.
    10030    2    1    2    0    0  0.00000000000E+00  0.00000000000E+00 -0.11118573961E+04  0.29196132660E+04  0.26996138156E+04 0.  0.
        2    1    3    3  502    0  0.76240955883E+03  0.80545106482E+03 -0.13880171149E+04  0.17766854715E+04  0.25500000920E-02 0.  1.
       -2    1    3    3    0  502 -0.76240955883E+03 -0.80545106482E+03  0.27615971877E+03  0.11429277945E+04  0.25500000920E-02 0. -1.
</event>
<event>
 5   0  0.3357244E-06  0.2804908E+04  0.7818609E-02  0.8301746E-01
        1   -1    0    0  501    0  0.00000000000E+00  0.00000000000E+00  0.17919669312E+04  0.17919669313E+04  0.50400001928E-02 0.  1.
       -1   -1    0    0    0  501  0.00000000000E+00  0.00000000000E+00 -0.10976082659E+04  0.10976082659E+04  0.50400001928E-02 0. -1.
    10030    2    1    2    0    0  0.00000000000E+00  0.00000000000E+00  0.69435866535E+03  0.28895751972E+04  0.28049083521E+04 0.  0.
        4    1    3    3  502    0 -0.74173172119E+03  0.11479208490E+04  0.23058952496E+02  0.13669021728E+04  0.12699999809E+01 0.  1.
       -4    1    3    3    0  502  0.74173172119E+03 -0.11479208490E+04  0.67129971286E+03  0.15226730244E+04  0.12699999809E+01 0. -1.
</event>
<event>
 5   0  0.9426937E-06  0.2747557E+04  0.7818609E-02  0.8319737E-01
        2   -1    0    0  501    0  0.00000000000E+00  0.00000000000E+00  0.60601415113E+03  0.60601415114E+03  0.25500000920E-02 0. -1.
       -2   -1    0    0    0  501  0.00000000000E+00  0.00000000000E+00 -0.31142295766E+04  0.31142295766E+04  0.25500000920E-02 0.  1.
    10030    2    1    2    0    0  0.00000000000E+00  0.00000000000E+00 -0.25082154254E+04  0.37202437277E+04  0.27475568735E+04 0.  0.
        4    1    3    3  502    0  0.12885307477E+04 -0.30337828862E+03 -0.75676477154E+03  0.15248096295E+04  0.12699999809E+01 0. -1.
       -4    1    3    3    0  502 -0.12885307477E+04  0.30337828862E+03 -0.17514506539E+04  0.21954340982E+04  0.12699999809E+01 0.  1.
</event>
<event>
 5   0  0.9342133E-06  0.2796804E+04  0.7818609E-02  0.8304261E-01
        2   -1    0    0  501    0  0.00000000000E+00  0.00000000000E+00  0.98755843978E+03  0.98755843978E+03  0.25500000920E-02 0.  1.
       -2   -1    0    0    0  501  0.00000000000E+00  0.00000000000E+00 -0.19801641134E+04  0.19801641134E+04  0.25500000920E-02 0. -1.
    10030    2    1    2    0    0  0.00000000000E+00  0.00000000000E+00 -0.99260567361E+03  0.29677225532E+04  0.27968037345E+04 0.  0.
        2    1    3    3  502    0  0.86683386397E+02 -0.95970741679E+02  0.98119955103E+03  0.98968527911E+03  0.25500000920E-02 0.  1.
       -2    1    3    3    0  502 -0.86683386397E+02  0.95970741679E+02 -0.19738052246E+04  0.19780372741E+04  0.25500000920E-02 0. -1.
</event>
<event>
 5   0  0.3600963E-06  0.2770850E+04  0.7818609E-02  0.8312376E-01
       -1   -1    0    0    0  501  0.00000000000E+00  0.00000000000E+00  0.84635538604E+03  0.84635538606E+03  0.50400001928E-02 0. -1.
        1   -1    0    0  501    0  0.00000000000E+00  0.00000000000E+00 -0.22678450060E+04  0.22678450060E+04  0.50400001928E-02 0.  1.
    10030    2    1    2    0    0  0.00000000000E+00  0.00000000000E+00 -0.14214896199E+04  0.31142003920E+04  0.27708502923E+04 0.  0.
        5    1    3    3  502    0 -0.13554165405E+04  0.13630215683E+03 -0.99429338930E+03  0.16865271151E+04  0.46999998093E+01 0.  1.
       -5    1    3    3    0  502  0.13554165405E+04 -0.13630215683E+03 -0.42719623064E+03  0.14276732769E+04  0.46999998093E+01 0. -1.
</event>
<event>
 5   0  0.9252359E-06  0.2798207E+04  0.7818609E-02  0.8303825E-01
        2   -1    0    0  501    0  0.00000000000E+00  0.00000000000E+00  0.16099867614E+04  0.16099867614E+04  0.25500000920E-02 0. -1.
       -2   -1    0    0    0  501  0.00000000000E+00  0.00000000000E+00 -0.12158422940E+04  0.12158422940E+04  0.25500000920E-02 0.  1.
    10030    2    1    2    0    0  0.00000000000E+00  0.00000000000E+00  0.39414446741E+03  0.28258290553E+04  0.27982065665E+04 0.  0.
        5    1    3    3  502    0 -0.10360016343E+04 -0.38416271402E+03  0.10637911915E+04  0.15338038226E+04  0.46999998093E+01 0. -1.
       -5    1    3    3    0  502  0.10360016343E+04  0.38416271402E+03 -0.66964672408E+03  0.12920252328E+04  0.46999998093E+01 0.  1.
</event>
<event>
 5   0  0.9342133E-06  0.2800059E+04  0.7818609E-02  0.8303250E-01
       -2   -1    0    0    0  501  0.00000000000E+00  0.00000000000E+00  0.10410973731E+04  0.10410973731E+04  0.25500000920E-02 0. -1.
        2   -1    0    0  501    0  0.00000000000E+00  0.00000000000E+00 -0.18827076695E+04  0.18827076695E+04  0.25500000920E-02 0.  1.
    10030    2    1    2    0    0  0.00000000000E+00  0.00000000000E+00 -0.84161029642E+03  0.29238050426E+04  0.28000585772E+04 0.  0.
        2    1    3    3  502    0  0.55030406032E+03  0.91457642946E+02  0.92003253663E+03  0.10759455970E+04  0.25500000920E-02 0. -1.
       -2    1    3    3    0  502 -0.55030406032E+03 -0.91457642946E+02 -0.17616428330E+04  0.18478594455E+04  0.25500000920E-02 0.  1.
</event>
<event>
 5   0  0.3397882E-06  0.2777764E+04  0.7818609E-02  0.8310205E-01
       -1   -1    0    0    0  501  0.00000000000E+00  0.00000000000E+00  0.74888506230E+03  0.74888506232E+03  0.50400001928E-02 0.  1.
        1   -1    0    0  501    0  0.00000000000E+00  0.00000000000E+00 -0.25758207876E+04  0.25758207876E+04  0.50400001928E-02 0. -1.
    10030    2    1    2    0    0  0.00000000000E+00  0.00000000000E+00 -0.18269357253E+04  0.33247058500E+04  0.27777643608E+04 0.  0.
        2    1    3    3  502    0  0.12089184872E+04  0.19048972997E+03 -0.16994433807E+04  0.20942488033E+04  0.25500000920E-02 0. -1.
       -2    1    3    3    0  502 -0.12089184872E+04 -0.19048972997E+03 -0.12749234467E+03  0.12304570467E+04  0.25500000920E-02 0.  1.
</event>
<event>
 5   0  0.3438130E-06  0.2832663E+04  0.7818609E-02  0.8293199E-01
        1   -1    0    0  501    0  0.00000000000E+00  0.00000000000E+00  0.14355089648E+04  0.14355089648E+04  0.50400001928E-02 0. -1.
       -1   -1    0    0    0  501  0.00000000000E+00  0.00000000000E+00 -0.13974097497E+04  0.13974097497E+04  0.50400001928E-02 0.  1.
    10030    2    1    2    0    0  0.00000000000E+00  0.00000000000E+00  0.38099215067E+02  0.28329187145E+04  0.28326625095E+04 0.  0.
        3    1    3    3  502    0 -0.78444270363E+03 -0.94235309164E+03  0.72806683737E+03  0.14259947526E+04  0.10100000352E+00 0. -1.
       -3    1    3    3    0  502  0.78444270363E+03  0.94235309164E+03 -0.68996762230E+03  0.14069239619E+04  0.10100000352E+00 0.  1.
</event>
<event>
 5   0  0.9260173E-06  0.2798921E+04  0.7818609E-02  0.8303603E-01
        2   -1    0    0  501    0  0.00000000000E+00  0.00000000000E+00  0.22899787991E+04  0.22899787991E+04  0.25500000920E-02 0. -1.
       -2   -1    0    0    0  501  0.00000000000E+00  0.00000000000E+00 -0.85524380231E+03  0.85524380231E+03  0.25500000920E-02 0.  1.
    10030    2    1    2    0    0  0.00000000000E+00  0.00000000000E+00  0.14347349968E+04  0.31452226014E+04  0.27989213461E+04 0.  0.
        1    1    3    3  502    0 -0.10012597633E+04  0.66742727183E+03  0.15202699374E+04  0.19388658951E+04  0.50400001928E-02 0. -1.
       -1    1    3    3    0  502  0.10012597633E+04 -0.66742727183E+03 -0.85534940580E+02  0.12063567063E+04  0.50400001928E-02 0.  1.
</event>
<event>
 5   0  0.3438130E-06  0.2679294E+04  0.7818609E-02  0.8341755E-01
        1   -1    0    0  501    0  0.00000000000E+00  0.00000000000E+00  0.20375920535E+04  0.20375920535E+04  0.50400001928E-02 0.  1.
       -1   -1    0    0    0  501  0.00000000000E+00  0.00000000000E+00 -0.88077205949E+03  0.88077205950E+03  0.50400001928E-02 0. -1.
    10030    2    1    2    0    0  0.00000000000E+00  0.00000000000E+00  0.11568199940E+04  0.29183641130E+04  0.26792940484E+04 0.  0.
        3    1    3    3  502    0  0.86060278181E+03 -0.48311556940E+02 -0.53861147265E+03  0.10164022251E+04  0.10100000352E+00 0. -1.
       -3    1    3    3    0  502 -0.86060278181E+03  0.48311556940E+02  0.16954314667E+04  0.19019618879E+04  0.10100000352E+00 0.  1.
</event>
<event>
 5   0  0.9342133E-06  0.2851062E+04  0.7818609E-02  0.8287589E-01
       -2   -1    0    0    0  501  0.00000000000E+00  0.00000000000E+00  0.13670234808E+04  0.13670234808E+04  0.25500000920E-02 0.  1.
        2   -1    0    0  501    0  0.00000000000E+00  0.00000000000E+00 -0.14865422091E+04  0.14865422091E+04  0.25500000920E-02 0. -1.
    10030    2    1    2    0    0  0.00000000000E+00  0.00000000000E+00 -0.11951872835E+03  0.28535656900E+04  0.28510616304E+04 0.  0.
        2    1    3    3  502    0  0.10196503847E+04  0.76652463863E+02 -0.10538968589E+04  0.14684212939E+04  0.25500000920E-02 0. -1.
       -2    1    3    3    0  502 -0.10196503847E+04 -0.76652463863E+02  0.93437813053E+03  0.13851443961E+04  0.25500000920E-02 0.  1.
</event>
<event>
 5   0  0.9065579E-06  0.2933524E+04  0.7818609E-02  0.8262972E-01
       -2   -1    0    0    0  501  0.00000000000E+00  0.00000000000E+00  0.87177405279E+03  0.87177405279E+03  0.25500000920E-02 0. -1.
        2   -1    0    0  501    0  0.00000000000E+00  0.00000000000E+00 -0.24678303348E+04  0.24678303348E+04  0.25500000920E-02 0.  1.
    10030    2    1    2    0    0  0.00000000000E+00  0.00000000000E+00 -0.15960562820E+04  0.33396043876E+04  0.29335237872E+04 0.  0.
        3    1    3    3  502    0  0.44495125489E+03  0.22949592005E+03 -0.23675480062E+04  0.24199036279E+04  0.10100000352E+00 0.  1.
       -3    1    3    3    0  502 -0.44495125489E+03 -0.22949592005E+03  0.77149172422E+03  0.91970075964E+03  0.10100000352E+00 0. -1.
</event>
<event>
 5   0  0.9260173E-06  0.2849281E+04  0.7818609E-02  0.8288130E-01
       -2   -1    0    0    0  501  0.00000000000E+00  0.00000000000E+00  0.88353670438E+03  0.88353670439E+03  0.25500000920E-02 0. -1.
        2   -1    0    0  501    0  0.00000000000E+00  0.00000000000E+00 -0.22971325273E+04  0.22971325273E+04  0.25500000920E-02 0.  1.
    10030    2    1    2    0    0  0.00000000000E+00  0.00000000000E+00 -0.14135958230E+04  0.31806692317E+04  0.28492812446E+04 0.  0.
        1    1    3    3  502    0  0.88921521737E+03 -0.21370517977E+03 -0.19261939456E+04  0.21322750110E+04  0.50400001928E-02 0.  1.
       -1    1    3    3    0  502 -0.88921521737E+03  0.21370517977E+03  0.51259812261E+03  0.10483942207E+04  0.50400001928E-02 0. -1.
</event>
<event>
 5   0  0.9252359E-06  0.2785875E+04  0.7818609E-02  0.8307667E-01
       -2   -1    0    0    0  501  0.00000000000E+00  0.00000000000E+00  0.17867048234E+04  0.17867048234E+04  0.25500000920E-02 0. -1.
        2   -1    0    0  501    0  0.00000000000E+00  0.00000000000E+00 -0.10859515104E+04  0.10859515104E+04  0.25500000920E-02 0.  1.
    10030    2    1    2    0    0  0.00000000000E+00  0.00000000000E+00  0.70075331302E+03  0.28726563338E+04  0.27858749445E+04 0.  0.
        5    1    3    3  502    0 -0.25281854919E+03  0.89663911902E+03 -0.71743620978E+03  0.11758468156E+04  0.46999998093E+01 0.  1.
       -5    1    3    3    0  502  0.25281854919E+03 -0.89663911902E+03  0.14181895228E+04  0.16968095182E+04  0.46999998093E+01 0. -1.
</event>
<event>
 5   0  0.3357244E-06  0.2798045E+04  0.7818609E-02  0.8303876E-01
        1   -1    0    0  501    0  0.00000000000E+00  0.00000000000E+00  0.16668397374E+04  0.16668397374E+04  0.50400001928E-02 0. -1.
       -1   -1    0    0    0  501  0.00000000000E+00  0.00000000000E+00 -0.11742362932E+04  0.11742362932E+04  0.50400001928E-02 0.  1.
    10030    2    1    2    0    0  0.00000000000E+00  0.00000000000E+00  0.49260344424E+03  0.28410760306E+04  0.27980448278E+04 0.  0.
        4    1    3    3  502    0  0.31453040051E+03  0.53199226156E+03 -0.10281170580E+04  0.11995713556E+04  0.12699999809E+01 0.  1.
       -4    1    3    3    0  502 -0.31453040051E+03 -0.53199226156E+03  0.15207205023E+04  0.16415046750E+04  0.12699999809E+01 0. -1.
</event>
<event>
 5   0  0.3600963E-06  0.2805886E+04  0.7818609E-02  0.8301443E-01
       -1   -1    0    0    0  501  0.00000000000E+00  0.00000000000E+00  0.17395612226E+04  0.17395612226E+04  0.50400001928E-02 0.  1.
        1   -1    0    0  501    0  0.00000000000E+00  0.00000000000E+00 -0.11314629125E+04  0.11314629125E+04  0.50400001928E-02 0. -1.
    10030    2    1    2    0    0  0.00000000000E+00  0.00000000000E+00  0.60809831005E+03  0.28710241351E+04  0.28058859616E+04 0.  0.
        5    1    3    3  502    0 -0.58996967989E+02  0.77123445400E+03  0.15016667991E+04  0.16891739078E+04  0.46999998093E+01 0.  1.
       -5    1    3    3    0  502  0.58996967989E+02 -0.77123445400E+03 -0.89356848902E+03  0.11818502273E+04  0.46999998093E+01 0. -1.
</event>
<event>
 5   0  0.9426937E-06  0.2726264E+04  0.7818609E-02  0.8326533E-01
       -2   -1    0    0    0  501  0.00000000000E+00  0.00000000000E+00  0.14678107811E+04  0.14678107811E+04  0.25500000920E-02 0. -1.
        2   -1    0    0  501    0  0.00000000000E+00  0.00000000000E+00 -0.12659185834E+04  0.12659185834E+04  0.25500000920E-02 0.  1.
    10030    2    1    2    0    0  0.00000000000E+00  0.00000000000E+00  0.20189219767E+03  0.27337293646E+04  0.27262640700E+04 0.  0.
        4    1    3    3  502    0  0.13113773010E+04  0.28280335022E+03  0.34335000978E+03  0.13847667683E+04  0.12699999809E+01 0. -1.
       -4    1    3    3    0  502 -0.13113773010E+04 -0.28280335022E+03 -0.14145781211E+03  0.13489625962E+04  0.12699999809E+01 0.  1.
</event>
<event>
 5   0  0.3357244E-06  0.2832547E+04  0.7818609E-02  0.8293235E-01
        1   -1    0    0  501    0  0.00000000000E+00  0.00000000000E+00  0.13456089084E+04  0.13456089084E+04  0.50400001928E-02 0.  1.
       -1   -1    0    0    0  501  0.00000000000E+00  0.00000000000E+00 -0.14906486735E+04  0.14906486735E+04  0.50400001928E-02 0. -1.
    10030    2    1    2    0    0  0.00000000000E+00  0.00000000000E+00 -0.14503976514E+03  0.28362575819E+04  0.28325466523E+04 0.  0.
        4    1    3    3  502    0 -0.13467321306E+04 -0.40438770956E+03  0.96851566502E+02  0.14094675201E+04  0.12699999809E+01 0. -1.
       -4    1    3    3    0  502  0.13467321306E+04  0.40438770956E+03 -0.24189133164E+03  0.14267900618E+04  0.12699999809E+01 0.  1.
</event>
<event>
 5   0  0.3438130E-06  0.2357049E+04  0.7818609E-02  0.8455761E-01
       -1   -1    0    0    0  501  0.00000000000E+00  0.00000000000E+00  0.10614001376E+04  0.10614001376E+04  0.50400001928E-02 0. -1.
        1   -1    0    0  501    0  0.00000000000E+00  0.00000000000E+00 -0.13085730783E+04  0.13085730783E+04  0.50400001928E-02 0.  1.
    10030    2    1    2    0    0  0.00000000000E+00  0.00000000000E+00 -0.24717294073E+03  0.23699732160E+04  0.23570487016E+04 0.  0.
        3    1    3    3  502    0 -0.94738590561E+03  0.35534445481E+03  0.48397004995E+03  0.11216223764E+04  0.10100000352E+00 0. -1.
       -3    1    3    3    0  502  0.94738590561E+03 -0.35534445481E+03 -0.73114299068E+03  0.12483508396E+04  0.10100000352E+00 0.  1.
</event>
<event>
 5   0  0.9260173E-06  0.2818728E+04  0.7818609E-02  0.8297478E-01
        2   -1    0    0  501    0  0.00000000000E+00  0.00000000000E+00  0.88756148536E+03  0.88756148536E+03  0.25500000920E-02 0. -1.
       -2   -1    0    0    0  501  0.00000000000E+00  0.00000000000E+00 -0.22379367518E+04  0.22379367518E+04  0.25500000920E-02 0.  1.
    10030    2    1    2    0    0  0.00000000000E+00  0.00000000000E+00 -0.13503752665E+04  0.31254982372E+04  0.28187277042E+04 0.  0.
        1    1    3    3  502    0  0.23855800207E+03  0.12065545979E+04 -0.14382891556E+04  0.18924480476E+04  0.50400001928E-02 0.  1.
       -1    1    3    3    0  502 -0.23855800207E+03 -0.12065545979E+04  0.87913889119E+02  0.12330501895E+04  0.50400001928E-02 0. -1.
</event>
<event>
 5   0  0.3600963E-06  0.2818735E+04  0.7818609E-02  0.8297475E-01
       -1   -1    0    0    0  501  0.00000000000E+00  0.00000000000E+00  0.16703710782E+04  0.16703710782E+04  0.50400001928E-02 0. -1.
        1   -1    0    0  501    0  0.00000000000E+00  0.00000000000E+00 -0.11891473725E+04  0.11891473726E+04  0.50400001928E-02 0.  1.
    10030    2    1    2    0    0  0.00000000000E+00  0.00000000000E+00  0.48122370567E+03  0.28595184508E+04  0.28187354462E+04 0.  0.
        5    1    3    3  502    0  0.14074337540E+04 -0.71118385471E+02  0.26006459607E+03  0.14330328959E+04  0.46999998093E+01 0.  1.
       -5    1    3    3    0  502 -0.14074337540E+04  0.71118385471E+02  0.22115910960E+03  0.14264855549E+04  0.46999998093E+01 0. -1.
</event>
<event>
 5   0  0.9426937E-06  0.2784989E+04  0.7818609E-02  0.8307944E-01
        2   -1    0    0  501    0  0.00000000000E+00  0.00000000000E+00  0.95462029686E+03  0.95462029686E+03  0.25500000920E-02 0.  1.
       -2   -1    0    0    0  501  0.00000000000E+00  0.00000000000E+00 -0.20312176190E+04  0.20312176190E+04  0.25500000920E-02 0. -1.
    10030    2    1    2    0    0  0.00000000000E+00  0.00000000000E+00 -0.10765973221E+04  0.29858379159E+04  0.27849894552E+04 0.  0.
        4    1    3    3  502    0 -0.61963388235E+03 -0.70337365581E+03 -0.16422989818E+04  0.18909860407E+04  0.12699999809E+01 0. -1.
       -4    1    3    3    0  502  0.61963388235E+03  0.70337365581E+03  0.56570165963E+03  0.10948518751E+04  0.12699999809E+01 0.  1.
</event>
<event>
 5   0  0.9260173E-06  0.2803781E+04  0.7818609E-02  0.8302096E-01
        2   -1    0    0  501    0  0.00000000000E+00  0.00000000000E+00  0.15529695418E+04  0.15529695418E+04  0.25500000920E-02 0. -1.
       -2   -1    0    0    0  501  0.00000000000E+00  0.00000000000E+00 -0.12655087266E+04  0.12655087266E+04  0.25500000920E-02 0.  1.
    10030    2    1    2    0    0  0.00000000000E+00  0.00000000000E+00  0.28746081519E+03  0.28184782684E+04  0.28037806671E+04 0.  0.
        1    1    3    3  502    0  0.49944708935E+03  0.11657942030E+04 -0.45670547319E+03  0.13479997804E+04  0.50400001928E-02 0.  1.
       -1    1    3    3    0  502 -0.49944708935E+03 -0.11657942030E+04  0.74416628838E+03  0.14704784880E+04  0.50400001928E-02 0. -1.
</event>
<event>
 5   0  0.9065579E-06  0.2451074E+04  0.7818609E-02  0.8420626E-01
        2   -1    0    0  501    0  0.00000000000E+00  0.00000000000E+00  0.94992448191E+03  0.94992448191E+03  0.25500000920E-02 0. -1.
       -2   -1    0    0    0  501  0.00000000000E+00  0.00000000000E+00 -0.15811163230E+04  0.15811163230E+04  0.25500000920E-02 0.  1.
    10030    2    1    2    0    0  0.00000000000E+00  0.00000000000E+00 -0.63119184113E+03  0.25310408050E+04  0.24510741352E+04 0.  0.
        3    1    3    3  502    0 -0.40180985219E+03  0.32311878321E+03 -0.14636615763E+04  0.15518254172E+04  0.10100000352E+00 0.  1.
       -3    1    3    3    0  502  0.40180985219E+03 -0.32311878321E+03  0.83246973518E+03  0.97921538773E+03  0.10100000352E+00 0. -1.
</event>
<event>
 5   0  0.9342133E-06  0.2728356E+04  0.7818609E-02  0.8325863E-01
       -2   -1    0    0    0  501  0.00000000000E+00  0.00000000000E+00  0.97942818583E+03  0.97942818583E+03  0.25500000920E-02 0.  1.
        2   -1    0    0  501    0  0.00000000000E+00  0.00000000000E+00 -0.19000699465E+04  0.19000699465E+04  0.25500000920E-02 0. -1.
    10030    2    1    2    0    0  0.00000000000E+00  0.00000000000E+00 -0.92064176066E+03  0.28794981323E+04  0.27283563262E+04 0.  0.
        2    1    3    3  502    0  0.68416182391E+03 -0.11494613074E+04 -0.17783048180E+03  0.13494303905E+04  0.25500000920E-02 0.  1.
       -2    1    3    3    0  502 -0.68416182391E+03  0.11494613074E+04 -0.74281127886E+03  0.15300677418E+04  0.25500000920E-02 0. -1.
</event>
<event>
 5   0  0.9260173E-06  0.2797617E+04  0.7818609E-02  0.8304009E-01
        2   -1    0    0  501    0  0.00000000000E+00  0.00000000000E+00  0.23122603062E+04  0.23122603062E+04  0.25500000920E-02 0.  1.
       -2   -1    0    0    0  501  0.00000000000E+00  0.00000000000E+00 -0.84621297183E+03  0.84621297183E+03  0.25500000920E-02 0. -1.
    10030    2    1    2    0    0  0.00000000000E+00  0.00000000000E+00  0.14660473344E+04  0.31584732781E+04  0.27976166037E+04 0.  0.
        1    1    3    3  502    0  0.13220436291E+04  0.23452545812E+03  0.29017404967E+03  0.13736821055E+04  0.50400001928E-02 0. -1.
       -1    1    3    3    0  502 -0.13220436291E+04 -0.23452545812E+03  0.11758732847E+04  0.17847911726E+04  0.50400001928E-02 0.  1.
</event>
<event>
 5   0  0.9252359E-06  0.2788664E+04  0.7818609E-02  0.8306796E-01
        2   -1    0    0  501    0  0.00000000000E+00  0.00000000000E+00  0.15958835111E+04  0.15958835111E+04  0.25500000920E-02 0.  1.
       -2   -1    0    0    0  501  0.00000000000E+00  0.00000000000E+00 -0.12182355184E+04  0.12182355184E+04  0.25500000920E-02 0. -1.
    10030    2    1    2    0    0  0.00000000000E+00  0.00000000000E+00  0.37764799279E+03  0.28141190295E+04  0.27886641795E+04 0.  0.
        5    1    3    3  502    0  0.28994468943E+03  0.12119978597E+04 -0.44229108513E+03  0.13223653916E+04  0.46999998093E+01 0. -1.
       -5    1    3    3    0  502 -0.28994468943E+03 -0.12119978597E+04  0.81993907792E+03  0.14917536379E+04  0.46999998093E+01 0.  1.
</event>
<event>
 5   0  0.9342133E-06  0.2785680E+04  0.7818609E-02  0.8307728E-01
       -2   -1    0    0    0  501  0.00000000000E+00  0.00000000000E+00  0.13519301749E+04  0.13519301749E+04  0.25500000920E-02 0. -1.
        2   -1    0    0  501    0  0.00000000000E+00  0.00000000000E+00 -0.14349874753E+04  0.14349874753E+04  0.25500000920E-02 0.  1.
    10030    2    1    2    0    0  0.00000000000E+00  0.00000000000E+00 -0.83057300402E+02  0.27869176501E+04  0.27856797148E+04 0.  0.
        2    1    3    3  502    0 -0.39194021024E+03  0.88202990414E+03 -0.10461705994E+04  0.14233997342E+04  0.25500000920E-02 0.  1.
       -2    1    3    3    0  502  0.39194021024E+03 -0.88202990414E+03  0.96311329903E+03  0.13635179159E+04  0.25500000920E-02 0. -1.
</event>
<event>
 5   0  0.3438130E-06  0.2763330E+04  0.7818609E-02  0.8314744E-01
        1   -1    0    0  501    0  0.00000000000E+00  0.00000000000E+00  0.26947629007E+04  0.26947629007E+04  0.50400001928E-02 0. -1.
       -1   -1    0    0    0  501  0.00000000000E+00  0.00000000000E+00 -0.70841049895E+03  0.70841049896E+03  0.50400001928E-02 0.  1.
    10030    2    1    2    0    0  0.00000000000E+00  0.00000000000E+00  0.19863524017E+04  0.34031733996E+04  0.27633301149E+04 0.  0.
        3    1    3    3  502    0  0.94135363251E+00 -0.13813834055E+04  0.10275123608E+04  0.17216279101E+04  0.10100000352E+00 0. -1.
       -3    1    3    3    0  502 -0.94135363251E+00  0.13813834055E+04  0.95884004095E+03  0.16815454895E+04  0.10100000352E+00 0.  1.
</event>
<event>
 5   0  0.3371603E-06  0.2788340E+04  0.7818609E-02  0.8306897E-01
       -1   -1    0    0    0  501  0.00000000000E+00  0.00000000000E+00  0.11999654637E+04  0.11999654637E+04  0.50400001928E-02 0. -1.
        1   -1    0    0  501    0  0.00000000000E+00  0.00000000000E+00 -0.16198052913E+04  0.16198052913E+04  0.50400001928E-02 0.  1.
    10030    2    1    2    0    0  0.00000000000E+00  0.00000000000E+00 -0.41983982760E+03  0.28197707549E+04  0.27883403002E+04 0.  0.
        1    1    3    3  502    0  0.50278090151E+03  0.95016141775E+02  0.11015770782E+04  0.12146146555E+04  0.50400001928E-02 0. -1.
       -1    1    3    3    0  502 -0.50278090151E+03 -0.95016141775E+02 -0.15214169058E+04  0.16051560994E+04  0.50400001928E-02 0.  1.
</event>
<event>
 5   0  0.9426937E-06  0.2558024E+04  0.7818609E-02  0.8382601E-01
       -2   -1    0    0    0  501  0.00000000000E+00  0.00000000000E+00  0.72018664764E+03  0.72018664764E+03  0.25500000920E-02 0. -1.
        2   -1    0    0  501    0  0.00000000000E+00  0.00000000000E+00 -0.22714555142E+04  0.22714555142E+04  0.25500000920E-02 0.  1.
    10030    2    1    2    0    0  0.00000000000E+00  0.00000000000E+00 -0.15512688666E+04  0.29916421619E+04  0.25580241844E+04 0.  0.
        4    1    3    3  502    0  0.52748122658E+03 -0.11635907688E+04 -0.70458811479E+03  0.14589811328E+04  0.12699999809E+01 0.  1.
       -4    1    3    3    0  502 -0.52748122658E+03  0.11635907688E+04 -0.84668075179E+03  0.15326610290E+04  0.12699999809E+01 0. -1.
</event>
<event>
 5   0  0.9252359E-06  0.2752024E+04  0.7818609E-02  0.8318320E-01
        2   -1    0    0  501    0  0.00000000000E+00  0.00000000000E+00  0.30167184961E+04  0.30167184961E+04  0.25500000920E-02 0. -1.
       -2   -1    0    0    0  501  0.00000000000E+00  0.00000000000E+00 -0.62763862927E+03  0.62763862927E+03  0.25500000920E-02 0.  1.
    10030    2    1    2    0    0  0.00000000000E+00  0.00000000000E+00  0.23890798668E+04  0.36443571254E+04  0.27520240274E+04 0.  0.
        5    1    3    3  502    0  0.39942259906E+03 -0.84167781559E+03 -0.14643631158E+03  0.94309365454E+03  0.46999998093E+01 0.  1.
       -5    1    3    3    0  502 -0.39942259906E+03  0.84167781559E+03  0.25355161784E+04  0.27012634708E+04  0.46999998093E+01 0. -1.
</event>
<event>
 5   0  0.9252359E-06  0.2721793E+04  0.7818609E-02  0.8327968E-01
        2   -1    0    0  501    0  0.00000000000E+00  0.00000000000E+00  0.18944627698E+04  0.18944627698E+04  0.25500000920E-02 0.  1.
       -2   -1    0    0    0  501  0.00000000000E+00  0.00000000000E+00 -0.97760657153E+03  0.97760657153E+03  0.25500000920E-02 0. -1.
    10030    2    1    2    0    0  0.00000000000E+00  0.00000000000E+00  0.91685619828E+03  0.28720693413E+04  0.27217929776E+04 0.  0.
        5    1    3    3  502    0 -0.52906772650E+03 -0.90314557755E+03 -0.45932306022E+03  0.11430592098E+04  0.46999998093E+01 0. -1.
       -5    1    3    3    0  502  0.52906772650E+03  0.90314557755E+03  0.13761792585E+04  0.17290101315E+04  0.46999998093E+01 0.  1.
</event>
<event>
 5   0  0.3357244E-06  0.2794973E+04  0.7818609E-02  0.8304831E-01
        1   -1    0    0  501    0  0.00000000000E+00  0.00000000000E+00  0.20318626721E+04  0.20318626721E+04  0.50400001928E-02 0.  1.
       -1   -1    0    0    0  501  0.00000000000E+00  0.00000000000E+00 -0.96117139782E+03  0.96117139783E+03  0.50400001928E-02 0. -1.
    10030    2    1    2    0    0  0.00000000000E+00  0.00000000000E+00  0.10706912743E+04  0.29930340699E+04  0.27949728333E+04 0.  0.
        4    1    3    3  502    0  0.52418955123E+03 -0.11181356768E+04  0.12358937864E+04  0.17471225320E+04  0.12699999809E+01 0.  1.
       -4    1    3    3    0  502 -0.52418955123E+03  0.11181356768E+04 -0.16520251217E+03  0.12459115379E+04  0.12699999809E+01 0. -1.
</event>
<event>
 5   0  0.3006875E-06  0.2806913E+04  0.7818609E-02  0.8301126E-01
       -3   -1    0    0    0  501  0.00000000000E+00  0.00000000000E+00  0.10165691825E+04  0.10165691876E+04  0.10100000352E+00 0. -1.
        3   -1    0    0  501    0  0.00000000000E+00  0.00000000000E+00 -0.19375853037E+04  0.19375853063E+04  0.10100000352E+00 0.  1.
    10030    2    1    2    0    0  0.00000000000E+00  0.00000000000E+00 -0.92101612116E+03  0.29541544939E+04  0.28069125527E+04 0.  0.
        2    1    3    3  502    0  0.92955724897E+03 -0.10350214763E+04 -0.65554903805E+03  0.15378851312E+04  0.25500000920E-02 0.  1.
       -2    1    3    3    0  502 -0.92955724897E+03  0.10350214763E+04 -0.26546708310E+03  0.14162693627E+04  0.25500000920E-02 0. -1.
</event>
<event>
 5   0  0.9260173E-06  0.2797435E+04  0.7818609E-02  0.8304065E-01
       -2   -1    0    0    0  501  0.00000000000E+00  0.00000000000E+00  0.16248476161E+04  0.16248476161E+04  0.25500000920E-02 0.  1.
        2   -1    0    0  501    0  0.00000000000E+00  0.00000000000E+00 -0.12040583410E+04  0.12040583410E+04  0.25500000920E-02 0. -1.
    10030    2    1    2    0    0  0.00000000000E+00  0.00000000000E+00  0.42078927515E+03  0.28289059571E+04  0.27974354863E+04 0.  0.
        1    1    3    3  502    0  0.41677251189E+03  0.55530586735E+03  0.14382814737E+04  0.15970965940E+04  0.50400001928E-02 0.  1.
       -1    1    3    3    0  502 -0.41677251189E+03 -0.55530586735E+03 -0.10174921985E+04  0.12318093631E+04  0.50400001928E-02 0. -1.
</event>
<event>
 5   0  0.9426937E-06  0.2686918E+04  0.7818609E-02  0.8339262E-01
        2   -1    0    0  501    0  0.00000000000E+00  0.00000000000E+00  0.17429708554E+04  0.17429708554E+04  0.25500000920E-02 0. -1.
       -2   -1    0    0    0  501  0.00000000000E+00  0.00000000000E+00 -0.10355207607E+04  0.10355207607E+04  0.25500000920E-02 0.  1.
    10030    2    1    2    0    0  0.00000000000E+00  0.00000000000E+00  0.70745009470E+03  0.27784916161E+04  0.26869183137E+04 0.  0.
        4    1    3    3  502    0  0.61768258080E+03 -0.79431865691E+03  0.12742356120E+04  0.16236230804E+04  0.12699999809E+01 0. -1.
       -4    1    3    3    0  502 -0.61768258080E+03  0.79431865691E+03 -0.56678551730E+03  0.11548685358E+04  0.12699999809E+01 0.  1.
</event>
<event>
 5   0  0.9426937E-06  0.2806705E+04  0.7818609E-02  0.8301190E-01
       -2   -1    0    0    0  501  0.00000000000E+00  0.00000000000E+00  0.10390144931E+04  0.10390144931E+04  0.25500000920E-02 0.  1.
        2   -1    0    0  501    0  0.00000000000E+00  0.00000000000E+00 -0.18954486748E+04  0.18954486748E+04  0.25500000920E-02 0. -1.
    10030    2    1    2    0    0  0.00000000000E+00  0.00000000000E+00 -0.85643418164E+03  0.29344631679E+04  0.28067052885E+04 0.  0.
        4    1    3    3  502    0  0.13773708037E+04 -0.26156450499E+03 -0.49292710373E+03  0.14861174461E+04  0.12699999809E+01 0.  1.
       -4    1    3    3    0  502 -0.13773708037E+04  0.26156450499E+03 -0.36350707791E+03  0.14483457218E+04  0.12699999809E+01 0. -1.
</event>
<event>
 5   0  0.9342133E-06  0.2807012E+04  0.7818609E-02  0.8301095E-01
       -2   -1    0    0    0  501  0.00000000000E+00  0.00000000000E+00  0.93879857375E+03  0.93879857375E+03  0.25500000920E-02 0.  1.
        2   -1    0    0  501    0  0.00000000000E+00  0.00000000000E+00 -0.20982447146E+04  0.20982447146E+04  0.25500000920E-02 0. -1.
    10030    2    1    2    0    0  0.00000000000E+00  0.00000000000E+00 -0.11594461409E+04  0.30370432884E+04  0.28070120381E+04 0.  0.
        2    1    3    3  502    0  0.20694208993E+03  0.63455914983E+03  0.75609544685E+03  0.10085487931E+04  0.25500000920E-02 0.  1.
       -2    1    3    3    0  502 -0.20694208993E+03 -0.63455914983E+03 -0.19155415877E+04  0.20284944953E+04  0.25500000920E-02 0. -1.
</event>
<event>
 5   0  0.3397882E-06  0.2828246E+04  0.7818609E-02  0.8294552E-01
       -1   -1    0    0    0  501  0.00000000000E+00  0.00000000000E+00  0.11629188904E+04  0.11629188904E+04  0.50400001928E-02 0. -1.
        1   -1    0    0  501    0  0.00000000000E+00  0.00000000000E+00 -0.17195901948E+04  0.17195901948E+04  0.50400001928E-02 0.  1.
    10030    2    1    2    0    0  0.00000000000E+00  0.00000000000E+00 -0.55667130440E+03  0.28825090853E+04  0.28282460440E+04 0.  0.
        2    1    3    3  502    0  0.11054351969E+04 -0.64551648467E+03 -0.89075153014E+03  0.15595245413E+04  0.25500000920E-02 0.  1.
       -2    1    3    3    0  502 -0.11054351969E+04  0.64551648467E+03  0.33408022574E+03  0.13229845440E+04  0.25500000920E-02 0. -1.
</event>
<event>
 5   0  0.3438130E-06  0.2781000E+04  0.7818609E-02  0.8309192E-01
       -1   -1    0    0    0  501  0.00000000000E+00  0.00000000000E+00  0.11692885352E+04  0.11692885352E+04  0.50400001928E-02 0.  1.
        1   -1    0    0  501    0  0.00000000000E+00  0.00000000000E+00 -0.16535610612E+04  0.16535610613E+04  0.50400001928E-02 0. -1.
    10030    2    1    2    0    0  0.00000000000E+00  0.00000000000E+00 -0.48427252610E+03  0.28228495964E+04  0.27809998138E+04 0.  0.
        3    1    3    3  502    0 -0.19326215477E+03  0.73054249782E+03 -0.14269406358E+04  0.16146833095E+04  0.10100000352E+00 0. -1.
       -3    1    3    3    0  502  0.19326215477E+03 -0.73054249782E+03  0.94266810973E+03  0.12081662869E+04  0.10100000352E+00 0.  1.
</event>
<event>
 5   0  0.9252359E-06  0.2803539E+04  0.7818609E-02  0.8302170E-01
       -2   -1    0    0    0  501  0.00000000000E+00  0.00000000000E+00  0.95084901796E+03  0.95084901797E+03  0.25500000920E-02 0. -1.
        2   -1    0    0  501    0  0.00000000000E+00  0.00000000000E+00 -0.20665298218E+04  0.20665298218E+04  0.25500000920E-02 0.  1.
    10030    2    1    2    0    0  0.00000000000E+00  0.00000000000E+00 -0.11156808038E+04  0.30173788398E+04  0.28035390860E+04 0.  0.
        5    1    3    3  502    0 -0.46968989860E+03 -0.29097910504E+03  0.82870012822E+03  0.99601377146E+03  0.46999998093E+01 0. -1.
       -5    1    3    3    0  502  0.46968989860E+03  0.29097910504E+03 -0.19443809321E+04  0.20213650683E+04  0.46999998093E+01 0.  1.
</event>
<event>
 5   0  0.9260173E-06  0.2501413E+04  0.7818609E-02  0.8402482E-01
       -2   -1    0    0    0  501  0.00000000000E+00  0.00000000000E+00  0.11315536857E+04  0.11315536857E+04  0.25500000920E-02 0.  1.
        2   -1    0    0  501    0  0.00000000000E+00  0.00000000000E+00 -0.13824058810E+04  0.13824058810E+04  0.25500000920E-02 0. -1.
    10030    2    1    2    0    0  0.00000000000E+00  0.00000000000E+00 -0.25085219527E+03  0.25139595667E+04  0.25014127766E+04 0.  0.
        1    1    3    3  502    0  0.19781893890E+03  0.13806466509E+02 -0.13665061743E+04  0.13808193494E+04  0.50400001928E-02 0. -1.
       -1    1    3    3    0  502 -0.19781893890E+03 -0.13806466509E+02  0.11156539791E+04  0.11331402173E+04  0.50400001928E-02 0.  1.
</event>
<event>
 5   0  0.3357244E-06  0.3026273E+04  0.7818609E-02  0.8236268E-01
        1   -1    0    0  501    0  0.00000000000E+00  0.00000000000E+00  0.12892317630E+04  0.12892317631E+04  0.50400001928E-02 0.  1.
       -1   -1    0    0    0  501  0.00000000000E+00  0.00000000000E+00 -0.17759273578E+04  0.17759273578E+04  0.50400001928E-02 0. -1.
    10030    2    1    2    0    0  0.00000000000E+00  0.00000000000E+00 -0.48669559471E+03  0.30651591208E+04  0.30262729279E+04 0.  0.
        4    1    3    3  502    0 -0.71537710886E+03 -0.88054805145E+03  0.77074225660E+03  0.13715591558E+04  0.12699999809E+01 0.  1.
       -4    1    3    3    0  502  0.71537710886E+03  0.88054805145E+03 -0.12574378513E+04  0.16935999650E+04  0.12699999809E+01 0. -1.
</event>
<event>
 5   0  0.3438130E-06  0.2817538E+04  0.7818609E-02  0.8297844E-01
        1   -1    0    0  501    0  0.00000000000E+00  0.00000000000E+00  0.11331554707E+04  0.11331554707E+04  0.50400001928E-02 0. -1.
       -1   -1    0    0    0  501  0.00000000000E+00  0.00000000000E+00 -0.17514195602E+04  0.17514195602E+04  0.50400001928E-02 0.  1.
    10030    2    1    2    0    0  0.00000000000E+00  0.00000000000E+00 -0.61826408950E+03  0.28845750309E+04  0.28175383980E+04 0.  0.
        3    1    3    3  502    0  0.13162721140E+04  0.31428788162E+03 -0.70995894543E+03  0.15281985686E+04  0.10100000352E+00 0.  1.
       -3    1    3    3    0  502 -0.13162721140E+04 -0.31428788162E+03  0.91694855931E+02  0.13563764623E+04  0.10100000352E+00 0. -1.
</event>
<event>
 5   0  0.9252359E-06  0.2804628E+04  0.7818609E-02  0.8301833E-01
        2   -1    0    0  501    0  0.00000000000E+00  0.00000000000E+00  0.16456889058E+04  0.16456889058E+04  0.25500000920E-02 0.  1.
       -2   -1    0    0    0  501  0.00000000000E+00  0.00000000000E+00 -0.11949305274E+04  0.11949305274E+04  0.25500000920E-02 0. -1.
    10030    2    1    2    0    0  0.00000000000E+00  0.00000000000E+00  0.45075837836E+03  0.28406194331E+04  0.28046275418E+04 0.  0.
        5    1    3    3  502    0 -0.10383256170E+03  0.11836744135E+04 -0.52888941597E+03  0.13006200146E+04  0.46999998093E+01 0. -1.
       -5    1    3    3    0  502  0.10383256170E+03 -0.11836744135E+04  0.97964779433E+03  0.15399994185E+04  0.46999998093E+01 0.  1.
</event>
<event>
 5   0  0.3397882E-06  0.2816172E+04  0.7818609E-02  0.8298265E-01
        1   -1    0    0  501    0  0.00000000000E+00  0.00000000000E+00  0.15563813775E+04  0.15563813775E+04  0.50400001928E-02 0.  1.
       -1   -1    0    0    0  501  0.00000000000E+00  0.00000000000E+00 -0.12739209576E+04  0.12739209576E+04  0.50400001928E-02 0. -1.
    10030    2    1    2    0    0  0.00000000000E+00  0.00000000000E+00  0.28246041995E+03  0.28303023351E+04  0.28161724768E+04 0.  0.
        2    1    3    3  502    0  0.91298881978E+02 -0.72529488414E+03 -0.10682691671E+04  0.12944447336E+04  0.25500000920E-02 0. -1.
       -2    1    3    3    0  502 -0.91298881978E+02  0.72529488414E+03  0.13507295871E+04  0.15358576015E+04  0.25500000920E-02 0.  1.
</event>
<event>
 5   0  0.9342133E-06  0.2767380E+04  0.7818609E-02  0.8313468E-01
        2   -1    0    0  501    0  0.00000000000E+00  0.00000000000E+00  0.77290915182E+03  0.77290915183E+03  0.25500000920E-02 0.  1.
       -2   -1    0    0    0  501  0.00000000000E+00  0.00000000000E+00 -0.24771320575E+04  0.24771320575E+04  0.25500000920E-02 0. -1.
    10030    2    1    2    0    0  0.00000000000E+00  0.00000000000E+00 -0.17042229056E+04  0.32500412093E+04  0.27673800155E+04 0.  0.
        2    1    3    3  502    0 -0.47040573237E+03  0.78166714976E+03 -0.20739012526E+04  0.22656900696E+04  0.25500000920E-02 0. -1.
       -2    1    3    3    0  502  0.47040573237E+03 -0.78166714976E+03  0.36967834692E+03  0.98435113971E+03  0.25500000920E-02 0.  1.
</event>
<event>
 5   0  0.9426937E-06  0.2804070E+04  0.7818609E-02  0.8302006E-01
        2   -1    0    0  501    0  0.00000000000E+00  0.00000000000E+00  0.25423245157E+04  0.25423245157E+04  0.25500000920E-02 0.  1.
       -2   -1    0    0    0  501  0.00000000000E+00  0.00000000000E+00 -0.77319084316E+03  0.77319084317E+03  0.25500000920E-02 0. -1.
    10030    2    1    2    0    0  0.00000000000E+00  0.00000000000E+00  0.17691336726E+04  0.33155153589E+04  0.28040699249E+04 0.  0.
        4    1    3    3  502    0 -0.37481980300E+03 -0.34993764197E+03 -0.65833459840E+03  0.83447725813E+03  0.12699999809E+01 0. -1.
       -4    1    3    3    0  502  0.37481980300E+03  0.34993764197E+03  0.24274682710E+04  0.24810381008E+04  0.12699999809E+01 0.  1.
</event>
<event>
 5   0  0.3371603E-06  0.2882979E+04  0.7818609E-02  0.8277960E-01
       -1   -1    0    0    0  501  0.00000000000E+00  0.00000000000E+00  0.15074959242E+04  0.15074959243E+04  0.50400001928E-02 0.  1.
        1   -1    0    0  501    0  0.00000000000E+00  0.00000000000E+00 -0.13783733495E+04  0.13783733495E+04  0.50400001928E-02 0. -1.
    10030    2    1    2    0    0  0.00000000000E+00  0.00000000000E+00  0.12912257475E+03  0.28858692738E+04  0.28829791581E+04 0.  0.
        1    1    3    3  502    0 -0.97330985129E+03 -0.35439967116E+03 -0.93892110921E+03  0.13980357803E+04  0.50400001928E-02 0. -1.
       -1    1    3    3    0  502  0.97330985129E+03  0.35439967116E+03  0.10680436840E+04  0.14878334935E+04  0.50400001928E-02 0.  1.
</event>
<event>
 5   0  0.3371603E-06  0.2701808E+04  0.7818609E-02  0.8334419E-01
       -1   -1    0    0    0  501  0.00000000000E+00  0.00000000000E+00  0.10487963806E+04  0.10487963806E+04  0.50400001928E-02 0.  1.
        1   -1    0    0  501    0  0.00000000000E+00  0.00000000000E+00 -0.17400344322E+04  0.17400344322E+04  0.50400001928E-02 0. -1.
    10030    2    1    2    0    0  0.00000000000E+00  0.00000000000E+00 -0.69123805161E+03  0.27888308128E+04  0.27018081461E+04 0.  0.
        1    1    3    3  502    0  0.47000272217E+03 -0.12160197465E+04  0.19811014399E+02  0.13038401202E+04  0.50400001928E-02 0.  1.
       -1    1    3    3    0  502 -0.47000272217E+03  0.12160197465E+04 -0.71104906601E+03  0.14849906926E+04  0.50400001928E-02 0. -1.
</event>
<event>
 5   0  0.3600963E-06  0.2779175E+04  0.7818609E-02  0.8309763E-01
        1   -1    0    0  501    0  0.00000000000E+00  0.00000000000E+00  0.23037598884E+04  0.23037598884E+04  0.50400001928E-02 0. -1.
       -1   -1    0    0    0  501  0.00000000000E+00  0.00000000000E+00 -0.83817493667E+03  0.83817493669E+03  0.50400001928E-02 0.  1.
    10030    2    1    2    0    0  0.00000000000E+00  0.00000000000E+00  0.14655849518E+04  0.31419348251E+04  0.27791752724E+04 0.  0.
        5    1    3    3  502    0  0.27361812456E+03 -0.13033555765E+03 -0.80034552147E+03  0.85582082202E+03  0.46999998093E+01 0.  1.
       -5    1    3    3    0  502 -0.27361812456E+03  0.13033555765E+03  0.22659304732E+04  0.22861140031E+04  0.46999998093E+01 0. -1.
</event>
<event>
 5   0  0.9260173E-06  0.2794993E+04  0.7818609E-02  0.8304824E-01
        2   -1    0    0  501    0  0.00000000000E+00  0.00000000000E+00  0.14745619160E+04  0.14745619160E+04  0.25500000920E-02 0. -1.
       -2   -1    0    0    0  501  0.00000000000E+00  0.00000000000E+00 -0.13244589714E+04  0.13244589714E+04  0.25500000920E-02 0.  1.
    10030    2    1    2    0    0  0.00000000000E+00  0.00000000000E+00  0.15010294456E+03  0.27990208874E+04  0.27949932083E+04 0.  0.
        1    1    3    3  502    0 -0.81021597696E+03 -0.49876734321E+03  0.11001367902E+04  0.14544826397E+04  0.50400001928E-02 0. -1.
       -1    1    3    3    0  502  0.81021597696E+03  0.49876734321E+03 -0.95003384559E+03  0.13445382478E+04  0.50400001928E-02 0.  1.
</event>
<event>
 5   0  0.9426937E-06  0.2812235E+04  0.7818609E-02  0.8299480E-01
        2   -1    0    0  501    0  0.00000000000E+00  0.00000000000E+00  0.22907175310E+04  0.22907175310E+04  0.25500000920E-02 0. -1.
       -2   -1    0    0    0  501  0.00000000000E+00  0.00000000000E+00 -0.86312077987E+03  0.86312077988E+03  0.25500000920E-02 0.  1.
    10030    2    1    2    0    0  0.00000000000E+00  0.00000000000E+00  0.14275967511E+04  0.31538383108E+04  0.28122346288E+04 0.  0.
        4    1    3    3  502    0  0.72085600116E+03  0.11615191286E+04  0.34455646962E+03  0.14097804205E+04  0.12699999809E+01 0. -1.
       -4    1    3    3    0  502 -0.72085600116E+03 -0.11615191286E+04  0.10830402815E+04  0.17440578903E+04  0.12699999809E+01 0.  1.
</event>
<event>
 5   0  0.3357244E-06  0.2651523E+04  0.7818609E-02  0.8350908E-01
        1   -1    0    0  501    0  0.00000000000E+00  0.00000000000E+00  0.15396830784E+04  0.15396830785E+04  0.50400001928E-02 0.  1.
       -1   -1    0    0    0  501  0.00000000000E+00  0.00000000000E+00 -0.11415620943E+04  0.11415620943E+04  0.50400001928E-02 0. -1.
    10030    2    1    2    0    0  0.00000000000E+00  0.00000000000E+00  0.39812098419E+03  0.26812451727E+04  0.26515232147E+04 0.  0.
        4    1    3    3  502    0 -0.98734935532E+03 -0.26579047592E+03 -0.65428215075E+03  0.12139151833E+04  0.12699999809E+01 0. -1.
       -4    1    3    3    0  502  0.98734935532E+03  0.26579047592E+03  0.10524031349E+04  0.14673299894E+04  0.12699999809E+01 0.  1.
</event>
<event>
 5   0  0.3600963E-06  0.2802881E+04  0.7818609E-02  0.8302375E-01
       -1   -1    0    0    0  501  0.00000000000E+00  0.00000000000E+00  0.13204096765E+04  0.13204096765E+04  0.50400001928E-02 0.  1.
        1   -1    0    0  501    0  0.00000000000E+00  0.00000000000E+00 -0.14874437426E+04  0.14874437426E+04  0.50400001928E-02 0. -1.
    10030    2    1    2    0    0  0.00000000000E+00  0.00000000000E+00 -0.16703406611E+03  0.28078534191E+04  0.28028807403E+04 0.  0.
        5    1    3    3  502    0 -0.12237527281E+04  0.17326247403E+02 -0.76747430103E+03  0.14446140769E+04  0.46999998093E+01 0. -1.
       -5    1    3    3    0  502  0.12237527281E+04 -0.17326247403E+02  0.60044023492E+03  0.13632393422E+04  0.46999998093E+01 0.  1.
</event>
<event>
 5   0  0.9260173E-06  0.2803061E+04  0.7818609E-02  0.8302319E-01
       -2   -1    0    0    0  501  0.00000000000E+00  0.00000000000E+00  0.11926280671E+04  0.11926280671E+04  0.25500000920E-02 0. -1.
        2   -1    0    0  501    0  0.00000000000E+00  0.00000000000E+00 -0.16470242643E+04  0.16470242643E+04  0.25500000920E-02 0.  1.
    10030    2    1    2    0    0  0.00000000000E+00  0.00000000000E+00 -0.45439619722E+03  0.28396523314E+04  0.28030607306E+04 0.  0.
        1    1    3    3  502    0  0.11945681196E+04 -0.17323436485E+03 -0.94873466187E+03  0.15352851840E+04  0.50400001928E-02 0.  1.
       -1    1    3    3    0  502 -0.11945681196E+04  0.17323436485E+03  0.49433846465E+03  0.13043671474E+04  0.50400001928E-02 0. -1.
</event>
<event>
 5   0  0.3438130E-06  0.2761175E+04  0.7818609E-02  0.8315424E-01
        1   -1    0    0  501    0  0.00000000000E+00  0.00000000000E+00  0.20659213859E+04  0.20659213859E+04  0.50400001928E-02 0.  1.
       -1   -1    0    0    0  501  0.00000000000E+00  0.00000000000E+00 -0.92260113766E+03  0.92260113767E+03  0.50400001928E-02 0. -1.
    10030    2    1    2    0    0  0.00000000000E+00  0.00000000000E+00  0.11433202482E+04  0.29885225235E+04  0.27611746927E+04 0.  0.
        3    1    3    3  502    0  0.35610338976E+03 -0.33266863681E+03  0.19697381126E+04  0.20291245128E+04  0.10100000352E+00 0.  1.
       -3    1    3    3    0  502 -0.35610338976E+03  0.33266863681E+03 -0.82641786441E+03  0.95939801070E+03  0.10100000352E+00 0. -1.
</event>
<event>
 5   0  0.9342133E-06  0.2844272E+04  0.7818609E-02  0.8289654E-01
       -2   -1    0    0    0  501  0.00000000000E+00  0.00000000000E+00  0.19283076486E+04  0.19283076486E+04  0.25500000920E-02 0.  1.
        2   -1    0    0  501    0  0.00000000000E+00  0.00000000000E+00 -0.10488319133E+04  0.10488319133E+04  0.25500000920E-02 0. -1.
    10030    2    1    2    0    0  0.00000000000E+00  0.00000000000E+00  0.87947573524E+03  0.29771395619E+04  0.28442718580E+04 0.  0.
        2    1    3    3  502    0 -0.29006168663E+02  0.79542451957E+02 -0.10461915597E+04  0.10496118993E+04  0.25500000920E-02 0. -1.
       -2    1    3    3    0  502  0.29006168663E+02 -0.79542451957E+02  0.19256672949E+04  0.19275276626E+04  0.25500000920E-02 0.  1.
</event>
<event>
 5   0  0.9342133E-06  0.2809253E+04  0.7818609E-02  0.8300401E-01
       -2   -1    0    0    0  501  0.00000000000E+00  0.00000000000E+00  0.92347332847E+03  0.92347332848E+03  0.25500000920E-02 0.  1.
        2   -1    0    0  501    0  0.00000000000E+00  0.00000000000E+00 -0.21364729473E+04  0.21364729473E+04  0.25500000920E-02 0. -1.
    10030    2    1    2    0    0  0.00000000000E+00  0.00000000000E+00 -0.12129996189E+04  0.30599462758E+04  0.28092531277E+04 0.  0.
        2    1    3    3  502    0  0.38516465059E+03 -0.98543756672E+03  0.39981542634E+03  0.11310576383E+04  0.25500000920E-02 0.  1.
       -2    1    3    3    0  502 -0.38516465059E+03  0.98543756672E+03 -0.16128150452E+04  0.19288886375E+04  0.25500000920E-02 0. -1.
</event>
<event>
 5   0  0.9426937E-06  0.2829288E+04  0.7818609E-02  0.8294233E-01
       -2   -1    0    0    0  501  0.00000000000E+00  0.00000000000E+00  0.12148280904E+04  0.12148280904E+04  0.25500000920E-02 0. -1.
        2   -1    0    0  501    0  0.00000000000E+00  0.00000000000E+00 -0.16473256164E+04  0.16473256164E+04  0.25500000920E-02 0.  1.
    10030    2    1    2    0    0  0.00000000000E+00  0.00000000000E+00 -0.43249752599E+03  0.28621537068E+04  0.28292878488E+04 0.  0.
        4    1    3    3  502    0  0.10340581203E+04  0.14070512466E+03 -0.11824041328E+04  0.15770717404E+04  0.12699999809E+01 0.  1.
       -4    1    3    3    0  502 -0.10340581203E+04 -0.14070512466E+03  0.74990660683E+03  0.12850819663E+04  0.12699999809E+01 0. -1.
</event>
<event>
 5   0  0.9252359E-06  0.2779487E+04  0.7818609E-02  0.8309665E-01
        2   -1    0    0  501    0  0.00000000000E+00  0.00000000000E+00  0.18139992129E+04  0.18139992129E+04  0.25500000920E-02 0. -1.
       -2   -1    0    0    0  501  0.00000000000E+00  0.00000000000E+00 -0.10647118180E+04  0.10647118180E+04  0.25500000920E-02 0.  1.
    10030    2    1    2    0    0  0.00000000000E+00  0.00000000000E+00  0.74928739495E+03  0.28787110309E+04  0.27794865712E+04 0.  0.
        5    1    3    3  502    0 -0.57514139550E+03 -0.10767433225E+04  0.10625851691E+04  0.16184168619E+04  0.46999998093E+01 0.  1.
       -5    1    3    3    0  502  0.57514139550E+03  0.10767433225E+04 -0.31329777415E+03  0.12602941691E+04  0.46999998093E+01 0. -1.
</event>
<event>
 5   0  0.9260173E-06  0.2790844E+04  0.7818609E-02  0.8306117E-01
        2   -1    0    0  501    0  0.00000000000E+00  0.00000000000E+00  0.18857244732E+04  0.18857244732E+04  0.25500000920E-02 0. -1.
       -2   -1    0    0    0  501  0.00000000000E+00  0.00000000000E+00 -0.10326018905E+04  0.10326018905E+04  0.25500000920E-02 0.  1.
    10030    2    1    2    0    0  0.00000000000E+00  0.00000000000E+00  0.85312258270E+03  0.29183263636E+04  0.27908440701E+04 0.  0.
        1    1    3    3  502    0 -0.80746476220E+03 -0.87959090644E+03 -0.32859193494E+03  0.12384071078E+04  0.50400001928E-02 0.  1.
       -1    1    3    3    0  502  0.80746476220E+03  0.87959090644E+03  0.11817145176E+04  0.16799192558E+04  0.50400001928E-02 0. -1.
</event>
<event>
 5   0  0.9252359E-06  0.2877737E+04  0.7818609E-02  0.8279532E-01
        2   -1    0    0  501    0  0.00000000000E+00  0.00000000000E+00  0.18149672973E+04  0.18149672973E+04  0.25500000920E-02 0. -1.
       -2   -1    0    0    0  501  0.00000000000E+00  0.00000000000E+00 -0.11407047636E+04  0.11407047636E+04  0.25500000920E-02 0.  1.
    10030    2    1    2    0    0  0.00000000000E+00  0.00000000000E+00  0.67426253375E+03  0.29556720609E+04  0.28777365006E+04 0.  0.
        5    1    3    3  502    0  0.11763210179E+04 -0.52409490590E+03  0.99631737496E+03  0.16282128267E+04  0.46999998093E+01 0. -1.
       -5    1    3    3    0  502 -0.11763210179E+04  0.52409490590E+03 -0.32205484121E+03  0.13274592341E+04  0.46999998093E+01 0.  1.
</event>
<event>
 5   0  0.3357244E-06  0.2777585E+04  0.7818609E-02  0.8310261E-01
       -1   -1    0    0    0  501  0.00000000000E+00  0.00000000000E+00  0.72448816305E+03  0.72448816306E+03  0.50400001928E-02 0.  1.
        1   -1    0    0  501    0  0.00000000000E+00  0.00000000000E+00 -0.26622161035E+04  0.26622161035E+04  0.50400001928E-02 0. -1.
    10030    2    1    2    0    0  0.00000000000E+00  0.00000000000E+00 -0.19377279405E+04  0.33867042666E+04  0.27775846014E+04 0.  0.
        4    1    3    3  502    0  0.40879125680E+03  0.50833416573E+02  0.64828056801E+03  0.76809090324E+03  0.12699999809E+01 0.  1.
       -4    1    3    3    0  502 -0.40879125680E+03 -0.50833416573E+02 -0.25860085085E+04  0.26186133634E+04  0.12699999809E+01 0. -1.
</event>
<event>
 5   0  0.3600963E-06  0.2807665E+04  0.7818609E-02  0.8300893E-01
        1   -1    0    0  501    0  0.00000000000E+00  0.00000000000E+00  0.19314678677E+04  0.19314678677E+04  0.50400001928E-02 0.  1.
       -1   -1    0    0    0  501  0.00000000000E+00  0.00000000000E+00 -0.10203355803E+04  0.10203355803E+04  0.50400001928E-02 0. -1.
    10030    2    1    2    0    0  0.00000000000E+00  0.00000000000E+00  0.91113228741E+03  0.29518034481E+04  0.28076647861E+04 0.  0.
        5    1    3    3  502    0  0.67029462147E+03 -0.11780737023E+04  0.83980200495E+03  0.15945036924E+04  0.46999998093E+01 0.  1.
       -5    1    3    3    0  502 -0.67029462147E+03  0.11780737023E+04  0.71330282455E+02  0.13572997557E+04  0.46999998093E+01 0. -1.
</event>
<event>
 5   0  0.9426937E-06  0.2766867E+04  0.7818609E-02  0.8313629E-01
        2   -1    0    0  501    0  0.00000000000E+00  0.00000000000E+00  0.24109632124E+04  0.24109632124E+04  0.25500000920E-02 0. -1.
       -2   -1    0    0    0  501  0.00000000000E+00  0.00000000000E+00 -0.79382715506E+03  0.79382715506E+03  0.25500000920E-02 0.  1.
    10030    2    1    2    0    0  0.00000000000E+00  0.00000000000E+00  0.16171360573E+04  0.32047903675E+04  0.27668668691E+04 0.  0.
        4    1    3    3  502    0 -0.90847696994E+03 -0.10326535675E+04  0.63605648124E+03  0.15153459194E+04  0.12699999809E+01 0.  1.
       -4    1    3    3    0  502  0.90847696994E+03  0.10326535675E+04  0.98107957610E+03  0.16894444480E+04  0.12699999809E+01 0. -1.
</event>
<event>
 5   0  0.9342133E-06  0.2775454E+04  0.7818609E-02  0.8310930E-01
        2   -1    0    0  501    0  0.00000000000E+00  0.00000000000E+00  0.20387697832E+04  0.20387697832E+04  0.25500000920E-02 0.  1.
       -2   -1    0    0    0  501  0.00000000000E+00  0.00000000000E+00 -0.94458267661E+03  0.94458267661E+03  0.25500000920E-02 0. -1.
    10030    2    1    2    0    0  0.00000000000E+00  0.00000000000E+00  0.10941871066E+04  0.29833524598E+04  0.27754542827E+04 0.  0.
        2    1    3    3  502    0  0.94691023738E+02 -0.93410083152E+02  0.20319021016E+04  0.20362509629E+04  0.25500000920E-02 0.  1.
       -2    1    3    3    0  502 -0.94691023738E+02  0.93410083152E+02 -0.93771499498E+03  0.94710149690E+03  0.25500000920E-02 0. -1.
</event>
<event>
 5   0  0.3600963E-06  0.2774113E+04  0.7818609E-02  0.8311351E-01
       -1   -1    0    0    0  501  0.00000000000E+00  0.00000000000E+00  0.14687341169E+04  0.14687341169E+04  0.50400001928E-02 0. -1.
        1   -1    0    0  501    0  0.00000000000E+00  0.00000000000E+00 -0.13099210024E+04  0.13099210024E+04  0.50400001928E-02 0.  1.
    10030    2    1    2    0    0  0.00000000000E+00  0.00000000000E+00  0.15881311451E+03  0.27786551193E+04  0.27741129513E+04 0.  0.
        5    1    3    3  502    0  0.87978287237E+02  0.93894638689E+03  0.10981968461E+04  0.14475561817E+04  0.46999998093E+01 0. -1.
       -5    1    3    3    0  502 -0.87978287237E+02 -0.93894638689E+03 -0.93938373156E+03  0.13310989376E+04  0.46999998093E+01 0.  1.
</event>
<event>
 5   0  0.3357244E-06  0.2879343E+04  0.7818609E-02  0.8279050E-01
       -1   -1    0    0    0  501  0.00000000000E+00  0.00000000000E+00  0.13560476416E+04  0.13560476416E+04  0.50400001928E-02 0.  1.
        1   -1    0    0  501    0  0.00000000000E+00  0.00000000000E+00 -0.15284527379E+04  0.15284527379E+04  0.50400001928E-02 0. -1.
    10030    2    1    2    0    0  0.00000000000E+00  0.00000000000E+00 -0.17240509633E+03  0.28845003796E+04  0.28793434881E+04 0.  0.
        4    1    3    3  502    0 -0.10504131352E+04  0.18419572949E+03 -0.10550734055E+04  0.15001591000E+04  0.12699999809E+01 0. -1.
       -4    1    3    3    0  502  0.10504131352E+04 -0.18419572949E+03  0.88266830917E+03  0.13843412796E+04  0.12699999809E+01 0.  1.
</event>
<event>
 5   0  0.9252359E-06  0.2786200E+04  0.7818609E-02  0.8307566E-01
       -2   -1    0    0    0  501  0.00000000000E+00  0.00000000000E+00  0.83271561206E+03  0.83271561207E+03  0.25500000920E-02 0.  1.
        2   -1    0    0  501    0  0.00000000000E+00  0.00000000000E+00 -0.23306000971E+04  0.23306000971E+04  0.25500000920E-02 0. -1.
    10030    2    1    2    0    0  0.00000000000E+00  0.00000000000E+00 -0.14978844851E+04  0.31633157092E+04  0.27861996241E+04 0.  0.
        5    1    3    3  502    0  0.83358112307E+03 -0.63708560684E+03  0.29160559479E+03  0.10889405273E+04  0.46999998093E+01 0.  1.
       -5    1    3    3    0  502 -0.83358112307E+03  0.63708560684E+03 -0.17894900798E+04  0.20743751818E+04  0.46999998093E+01 0. -1.
</event>
<event>
 5   0  0.3397882E-06  0.2758148E+04  0.7818609E-02  0.8316381E-01
        1   -1    0    0  501    0  0.00000000000E+00  0.00000000000E+00  0.10499086739E+04  0.10499086740E+04  0.50400001928E-02 0. -1.
       -1   -1    0    0    0  501  0.00000000000E+00  0.00000000000E+00 -0.18114386783E+04  0.18114386783E+04  0.50400001928E-02 0.  1.
    10030    2    1    2    0    0  0.00000000000E+00  0.00000000000E+00 -0.76153000439E+03  0.28613473523E+04  0.27581480604E+04 0.  0.
        2    1    3    3  502    0  0.57027893751E+03  0.45740940684E+03  0.83234836793E+03  0.11078110117E+04  0.25500000920E-02 0. -1.
       -2    1    3    3    0  502 -0.57027893751E+03 -0.45740940684E+03 -0.15938783723E+04  0.17535363406E+04  0.25500000920E-02 0.  1.
</event>
<event>
 5   0  0.3438130E-06  0.2800773E+04  0.7818609E-02  0.8303028E-01
       -1   -1    0    0    0  501  0.00000000000E+00  0.00000000000E+00  0.92436816798E+03  0.92436816799E+03  0.50400001928E-02 0.  1.
        1   -1    0    0  501    0  0.00000000000E+00  0.00000000000E+00 -0.21215387947E+04  0.21215387947E+04  0.50400001928E-02 0. -1.
    10030    2    1    2    0    0  0.00000000000E+00  0.00000000000E+00 -0.11971706267E+04  0.30459069627E+04  0.28007734139E+04 0.  0.
        3    1    3    3  502    0 -0.53483188984E+03  0.10648542166E+04 -0.13985793724E+04  0.18373850778E+04  0.10100000352E+00 0. -1.
       -3    1    3    3    0  502  0.53483188984E+03 -0.10648542166E+04  0.20140874575E+03  0.12085218848E+04  0.10100000352E+00 0.  1.
</event>
<event>
 5   0  0.3371603E-06  0.2798155E+04  0.7818609E-02  0.8303841E-01
        1   -1    0    0  501    0  0.00000000000E+00  0.00000000000E+00  0.14076350355E+04  0.14076350355E+04  0.50400001928E-02 0. -1.
       -1   -1    0    0    0  501  0.00000000000E+00  0.00000000000E+00 -0.13905723203E+04  0.13905723203E+04  0.50400001928E-02 0.  1.
    10030    2    1    2    0    0  0.00000000000E+00  0.00000000000E+00  0.17062715194E+02  0.27982073558E+04  0.27981553334E+04 0.  0.
        1    1    3    3  502    0  0.61848865752E+03  0.12160202290E+04 -0.30161131446E+03  0.13972125114E+04  0.50400001928E-02 0. -1.
       -1    1    3    3    0  502 -0.61848865752E+03 -0.12160202290E+04  0.31867402966E+03  0.14009948444E+04  0.50400001928E-02 0.  1.
</event>
<event>
 5   0  0.9260173E-06  0.2858162E+04  0.7818609E-02  0.8285436E-01
       -2   -1    0    0    0  501  0.00000000000E+00  0.00000000000E+00  0.14982649248E+04  0.14982649248E+04  0.25500000920E-02 0.  1.
        2   -1    0    0  501    0  0.00000000000E+00  0.00000000000E+00 -0.13630913321E+04  0.13630913321E+04  0.25500000920E-02 0. -1.
    10030    2    1    2    0    0  0.00000000000E+00  0.00000000000E+00  0.13517359262E+03  0.28613562569E+04  0.28581615995E+04 0.  0.
        1    1    3    3  502    0  0.16702816493E+03 -0.14187783808E+04  0.29578185724E+02  0.14288825602E+04  0.50400001928E-02 0.  1.
       -1    1    3    3    0  502 -0.16702816493E+03  0.14187783808E+04  0.10559540690E+03  0.14324736967E+04  0.50400001928E-02 0. -1.
</event>
<event>
 5   0  0.9065579E-06  0.2786699E+04  0.7818609E-02  0.8307410E-01
        2   -1    0    0  501    0  0.00000000000E+00  0.00000000000E+00  0.16729952481E+04  0.16729952481E+04  0.25500000920E-02 0. -1.
       -2   -1    0    0    0  501  0.00000000000E+00  0.00000000000E+00 -0.11604475491E+04  0.11604475491E+04  0.25500000920E-02 0.  1.
    10030    2    1    2    0    0  0.00000000000E+00  0.00000000000E+00  0.51254769909E+03  0.28334427972E+04  0.27866992915E+04 0.  0.
        3    1    3    3  502    0  0.68447112250E+03  0.50639757255E+03 -0.86517002685E+03  0.12138609494E+04  0.10100000352E+00 0.  1.
       -3    1    3    3    0  502 -0.68447112250E+03 -0.50639757255E+03  0.13777177259E+04  0.16195818478E+04  0.10100000352E+00 0. -1.
</event>
<event>
 5   0  0.9252359E-06  0.2816320E+04  0.7818609E-02  0.8298219E-01
        2   -1    0    0  501    0  0.00000000000E+00  0.00000000000E+00  0.16011919452E+04  0.16011919452E+04  0.25500000920E-02 0. -1.
       -2   -1    0    0    0  501  0.00000000000E+00  0.00000000000E+00 -0.12383992806E+04  0.12383992806E+04  0.25500000920E-02 0.  1.
    10030    2    1    2    0    0  0.00000000000E+00  0.00000000000E+00  0.36279266463E+03  0.28395912258E+04  0.28163202609E+04 0.  0.
        5    1    3    3  502    0  0.13285334407E+03  0.78037424252E+03  0.13556044691E+04  0.15698151280E+04  0.46999998093E+01 0. -1.
       -5    1    3    3    0  502 -0.13285334407E+03 -0.78037424252E+03 -0.99281180447E+03  0.12697760978E+04  0.46999998093E+01 0.  1.
</event>
<event>
 5   0  0.9426937E-06  0.2794456E+04  0.7818609E-02  0.8304992E-01
       -2   -1    0    0    0  501  0.00000000000E+00  0.00000000000E+00  0.14970973406E+04  0.14970973406E+04  0.25500000920E-02 0.  1.
        2   -1    0    0  501    0  0.00000000000E+00  0.00000000000E+00 -0.13040203699E+04  0.13040203699E+04  0.25500000920E-02 0. -1.
    10030    2    1    2    0    0  0.00000000000E+00  0.00000000000E+00  0.19307697076E+03  0.28011177105E+04  0.27944555304E+04 0.  0.
        4    1    3    3  502    0 -0.15880032945E+03  0.74983021834E+03  0.12675620291E+04  0.14812758054E+04  0.12699999809E+01 0.  1.
       -4    1    3    3    0  502  0.15880032945E+03 -0.74983021834E+03 -0.10744850584E+04  0.13198419051E+04  0.12699999809E+01 0. -1.
</event>
<event>
 5   0  0.9260173E-06  0.2836903E+04  0.7818609E-02  0.8291902E-01
        2   -1    0    0  501    0  0.00000000000E+00  0.00000000000E+00  0.30559020865E+04  0.30559020865E+04  0.25500000920E-02 0. -1.
       -2   -1    0    0    0  501  0.00000000000E+00  0.00000000000E+00 -0.65839967183E+03  0.65839967183E+03  0.25500000920E-02 0.  1.
    10030    2    1    2    0    0  0.00000000000E+00  0.00000000000E+00  0.23975024147E+04  0.37143017583E+04  0.28369031925E+04 0.  0.
        1    1    3    3  502    0 -0.89916086175E+03 -0.80392172034E+02  0.26312330811E+04  0.27817873182E+04  0.50400001928E-02 0. -1.
       -1    1    3    3    0  502  0.89916086175E+03  0.80392172034E+02 -0.23373066641E+03  0.93251444014E+03  0.50400001928E-02 0.  1.
</event>
<event>
 5   0  0.3357244E-06  0.2815724E+04  0.7818609E-02  0.8298403E-01
        1   -1    0    0  501    0  0.00000000000E+00  0.00000000000E+00  0.97542125216E+03  0.97542125217E+03  0.50400001928E-02 0.  1.
       -1   -1    0    0    0  501  0.00000000000E+00  0.00000000000E+00 -0.20320205558E+04  0.20320205558E+04  0.50400001928E-02 0. -1.
    10030    2    1    2    0    0  0.00000000000E+00  0.00000000000E+00 -0.10565993036E+04  0.30074418079E+04  0.28157244432E+04 0.  0.
        4    1    3    3  502    0  0.23051775973E+03  0.13855090798E+04 -0.63130551934E+03  0.15399097764E+04  0.12699999809E+01 0. -1.
       -4    1    3    3    0  502 -0.23051775973E+03 -0.13855090798E+04 -0.42529378426E+03  0.14675320315E+04  0.12699999809E+01 0.  1.
</event>
<event>
 5   0  0.3438130E-06  0.2794890E+04  0.7818609E-02  0.8304857E-01
       -1   -1    0    0    0  501  0.00000000000E+00  0.00000000000E+00  0.91210199490E+03  0.91210199492E+03  0.50400001928E-02 0. -1.
        1   -1    0    0  501    0  0.00000000000E+00  0.00000000000E+00 -0.21410463977E+04  0.21410463977E+04  0.50400001928E-02 0.  1.
    10030    2    1    2    0    0  0.00000000000E+00  0.00000000000E+00 -0.12289444028E+04  0.30531483927E+04  0.27948901163E+04 0.  0.
        3    1    3    3  502    0  0.12571307688E+04 -0.53921593451E+03 -0.30218783662E+03  0.14008744029E+04  0.10100000352E+00 0.  1.
       -3    1    3    3    0  502 -0.12571307688E+04  0.53921593451E+03 -0.92675656620E+03  0.16522739897E+04  0.10100000352E+00 0. -1.
</event>
<event>
 5   0  0.9252359E-06  0.2763949E+04  0.7818609E-02  0.8314549E-01
       -2   -1    0    0    0  501  0.00000000000E+00  0.00000000000E+00  0.73879123939E+03  0.73879123939E+03  0.25500000920E-02 0.  1.
        2   -1    0    0  501    0  0.00000000000E+00  0.00000000000E+00 -0.25851058545E+04  0.25851058545E+04  0.25500000920E-02 0. -1.
    10030    2    1    2    0    0  0.00000000000E+00  0.00000000000E+00 -0.18463146151E+04  0.33238970939E+04  0.27639490286E+04 0.  0.
        5    1    3    3  502    0 -0.87414248648E+03  0.10153074608E+04 -0.13307219890E+04  0.18883372126E+04  0.46999998093E+01 0. -1.
       -5    1    3    3    0  502  0.87414248648E+03 -0.10153074608E+04 -0.51559262611E+03  0.14355598813E+04  0.46999998093E+01 0.  1.
</event>
<event>
 5   0  0.9065579E-06  0.2804275E+04  0.7818609E-02  0.8301942E-01
        2   -1    0    0  501    0  0.00000000000E+00  0.00000000000E+00  0.17789928423E+04  0.17789928423E+04  0.25500000920E-02 0.  1.
       -2   -1    0    0    0  501  0.00000000000E+00  0.00000000000E+00 -0.11051138730E+04  0.11051138730E+04  0.25500000920E-02 0. -1.
    10030    2    1    2    0    0  0.00000000000E+00  0.00000000000E+00  0.67387896932E+03  0.28841067153E+04  0.28042750721E+04 0.  0.
        3    1    3    3  502    0  0.10702725484E+04  0.58689954062E+03  0.10465489485E+04  0.16078554383E+04  0.10100000352E+00 0.  1.
       -3    1    3    3    0  502 -0.10702725484E+04 -0.58689954062E+03 -0.37266997920E+03  0.12762512771E+04  0.10100000352E+00 0. -1.
</event>
<event>
 5   0  0.3357244E-06  0.2777090E+04  0.7818609E-02  0.8310417E-01
       -1   -1    0    0    0  501  0.00000000000E+00  0.00000000000E+00  0.58399715659E+03  0.58399715661E+03  0.50400001928E-02 0. -1.
        1   -1    0    0  501    0  0.00000000000E+00  0.00000000000E+00 -0.33014836773E+04  0.33014836773E+04  0.50400001928E-02 0.  1.
    10030    2    1    2    0    0  0.00000000000E+00  0.00000000000E+00 -0.27174865207E+04  0.38854808339E+04  0.27770899014E+04 0.  0.
        4    1    3    3  502    0 -0.84922980192E+03 -0.45784070909E+03  0.38448462731E+02  0.96555127702E+03  0.12699999809E+01 0. -1.
       -4    1    3    3    0  502  0.84922980192E+03  0.45784070909E+03 -0.27559349834E+04  0.29199295569E+04  0.12699999809E+01 0.  1.
</event>
<event>
 5   0  0.3371603E-06  0.2788243E+04  0.7818609E-02  0.8306928E-01
        1   -1    0    0  501    0  0.00000000000E+00  0.00000000000E+00  0.16510911365E+04  0.16510911365E+04  0.50400001928E-02 0.  1.
       -1   -1    0    0    0  501  0.00000000000E+00  0.00000000000E+00 -0.11771456979E+04  0.11771456979E+04  0.50400001928E-02 0. -1.
    10030    2    1    2    0    0  0.00000000000E+00  0.00000000000E+00  0.47394543865E+03  0.28282368344E+04  0.27882430513E+04 0.  0.
        1    1    3    3  502    0 -0.23779395435E+02 -0.10882588759E+04 -0.64655617407E+03  0.12660599223E+04  0.50400001928E-02 0. -1.
       -1    1    3    3    0  502  0.23779395435E+02  0.10882588759E+04  0.11205016127E+04  0.15621769121E+04  0.50400001928E-02 0.  1.
</event>
<event>
 5   0  0.9252359E-06  0.2801893E+04  0.7818609E-02  0.8302681E-01
        2   -1    0    0  501    0  0.00000000000E+00  0.00000000000E+00  0.14912798773E+04  0.14912798773E+04  0.25500000920E-02 0.  1.
       -2   -1    0    0    0  501  0.00000000000E+00  0.00000000000E+00 -0.13160853696E+04  0.13160853696E+04  0.25500000920E-02 0. -1.
    10030    2    1    2    0    0  0.00000000000E+00  0.00000000000E+00  0.17519450768E+03  0.28073652468E+04  0.28018933801E+04 0.  0.
        5    1    3    3  502    0  0.45851986096E+03  0.66215636269E+03 -0.10609126779E+04  0.13320095013E+04  0.46999998093E+01 0. -1.
       -5    1    3    3    0  502 -0.45851986096E+03 -0.66215636269E+03  0.12361071856E+04  0.14753557455E+04  0.46999998093E+01 0.  1.
</event>
<event>
 5   0  0.3371603E-06  0.2814250E+04  0.7818609E-02  0.8298858E-01
       -1   -1    0    0    0  501  0.00000000000E+00  0.00000000000E+00  0.89266515428E+03  0.89266515430E+03  0.50400001928E-02 0.  1.
        1   -1    0    0  501    0  0.00000000000E+00  0.00000000000E+00 -0.22180770440E+04  0.22180770440E+04  0.50400001928E-02 0. -1.
    10030    2    1    2    0    0  0.00000000000E+00  0.00000000000E+00 -0.13254118897E+04  0.31107421983E+04  0.28142495175E+04 0.  0.
        1    1    3    3  502    0 -0.11673520926E+04  0.73883257640E+03 -0.95809743053E+03  0.16812302550E+04  0.50400001928E-02 0. -1.
       -1    1    3    3    0  502  0.11673520926E+04 -0.73883257640E+03 -0.36731445920E+03  0.14295119433E+04  0.50400001928E-02 0.  1.
</event>
<event>
 5   0  0.3371603E-06  0.2759227E+04  0.7818609E-02  0.8316040E-01
        1   -1    0    0  501    0  0.00000000000E+00  0.00000000000E+00  0.17445814368E+04  0.17445814368E+04  0.50400001928E-02 0.  1.
       -1   -1    0    0    0  501  0.00000000000E+00  0.00000000000E+00 -0.10909971247E+04  0.10909971247E+04  0.50400001928E-02 0. -1.
    10030    2    1    2    0    0  0.00000000000E+00  0.00000000000E+00  0.65358431210E+03  0.28355785615E+04  0.27592269434E+04 0.  0.
        1    1    3    3  502    0 -0.41808629725E+03 -0.83733955935E+02  0.16751682074E+04  0.17285820925E+04  0.50400001928E-02 0.  1.
       -1    1    3    3    0  502  0.41808629725E+03  0.83733955935E+02 -0.10215838953E+04  0.11069964690E+04  0.50400001928E-02 0. -1.
</event>
<event>
 5   0  0.9426937E-06  0.2803651E+04  0.7818609E-02  0.8302136E-01
        2   -1    0    0  501    0  0.00000000000E+00  0.00000000000E+00  0.68188258188E+03  0.68188258189E+03  0.25500000920E-02 0.  1.
       -2   -1    0    0    0  501  0.00000000000E+00  0.00000000000E+00 -0.28818961997E+04  0.28818961997E+04  0.25500000920E-02 0. -1.
    10030    2    1    2    0    0  0.00000000000E+00  0.00000000000E+00 -0.22000136178E+04  0.35637787815E+04  0.28036510634E+04 0.  0.
        4    1    3    3  502    0 -0.41203350003E+03 -0.89005810725E+03 -0.23731203992E+04  0.25678156245E+04  0.12699999809E+01 0. -1.
       -4    1    3    3    0  502  0.41203350003E+03  0.89005810725E+03  0.17310678147E+03  0.99596315701E+03  0.12699999809E+01 0.  1.
</event>
<event>
 5   0  0.3438130E-06  0.2811655E+04  0.7818609E-02  0.8299659E-01
        1   -1    0    0  501    0  0.00000000000E+00  0.00000000000E+00  0.14850286481E+04  0.14850286481E+04  0.50400001928E-02 0. -1.
       -1   -1    0    0    0  501  0.00000000000E+00  0.00000000000E+00 -0.13308500226E+04  0.13308500226E+04  0.50400001928E-02 0.  1.
    10030    2    1    2    0    0  0.00000000000E+00  0.00000000000E+00  0.15417862555E+03  0.28158786707E+04  0.28116546089E+04 0.  0.
        3    1    3    3  502    0  0.47446799072E+03 -0.97889148309E+03  0.96893374834E+03  0.14567707537E+04  0.10100000352E+00 0. -1.
       -3    1    3    3    0  502 -0.47446799072E+03  0.97889148309E+03 -0.81475512278E+03  0.13591079171E+04  0.10100000352E+00 0.  1.
</event>
<event>
 5   0  0.3438130E-06  0.2683796E+04  0.7818609E-02  0.8340282E-01
        1   -1    0    0  501    0  0.00000000000E+00  0.00000000000E+00  0.25016086166E+04  0.25016086166E+04  0.50400001928E-02 0.  1.
       -1   -1    0    0    0  501  0.00000000000E+00  0.00000000000E+00 -0.71981273468E+03  0.71981273470E+03  0.50400001928E-02 0. -1.
    10030    2    1    2    0    0  0.00000000000E+00  0.00000000000E+00  0.17817958820E+04  0.32214213513E+04  0.26837956252E+04 0.  0.
        3    1    3    3  502    0 -0.90467261323E+03 -0.79636081745E+03  0.15990545180E+04  0.20023981748E+04  0.10100000352E+00 0. -1.
       -3    1    3    3    0  502  0.90467261323E+03  0.79636081745E+03  0.18274136397E+03  0.12190231766E+04  0.10100000352E+00 0.  1.
</event>
<event>
 5   0  0.3371603E-06  0.2785192E+04  0.7818609E-02  0.8307880E-01
       -1   -1    0    0    0  501  0.00000000000E+00  0.00000000000E+00  0.14750631794E+04  0.14750631795E+04  0.50400001928E-02 0.  1.
        1   -1    0    0  501    0  0.00000000000E+00  0.00000000000E+00 -0.13147396143E+04  0.13147396144E+04  0.50400001928E-02 0. -1.
    10030    2    1    2    0    0  0.00000000000E+00  0.00000000000E+00  0.16032356510E+03  0.27898027938E+04  0.27851922703E+04 0.  0.
        1    1    3    3  502    0  0.10850902395E+04  0.78800826822E+03 -0.29588762799E+03  0.13732907002E+04  0.50400001928E-02 0.  1.
       -1    1    3    3    0  502 -0.10850902395E+04 -0.78800826822E+03  0.45621119309E+03  0.14165120936E+04  0.50400001928E-02 0. -1.
</event>
<event>
 5   0  0.3600963E-06  0.2783244E+04  0.7818609E-02  0.8308489E-01
        1   -1    0    0  501    0  0.00000000000E+00  0.00000000000E+00  0.21101213523E+04  0.21101213523E+04  0.50400001928E-02 0.  1.
       -1   -1    0    0    0  501  0.00000000000E+00  0.00000000000E+00 -0.91777263438E+03  0.91777263439E+03  0.50400001928E-02 0. -1.
    10030    2    1    2    0    0  0.00000000000E+00  0.00000000000E+00  0.11923487179E+04  0.30278939867E+04  0.27832438861E+04 0.  0.
        5    1    3    3  502    0 -0.23898072434E+03 -0.65269942057E+02  0.20859306768E+04  0.21005953514E+04  0.46999998093E+01 0.  1.
       -5    1    3    3    0  502  0.23898072434E+03  0.65269942057E+02 -0.89358195884E+03  0.92729863534E+03  0.46999998093E+01 0. -1.
</event>
<event>
 5   0  0.3600963E-06  0.2815445E+04  0.7818609E-02  0.8298489E-01
        1   -1    0    0  501    0  0.00000000000E+00  0.00000000000E+00  0.11223473636E+04  0.11223473637E+04  0.50400001928E-02 0. -1.
       -1   -1    0    0    0  501  0.00000000000E+00  0.00000000000E+00 -0.17656592730E+04  0.17656592730E+04  0.50400001928E-02 0.  1.
    10030    2    1    2    0    0  0.00000000000E+00  0.00000000000E+00 -0.64331190936E+03  0.28880066367E+04  0.28154452793E+04 0.  0.
        5    1    3    3  502    0  0.10761470527E+04  0.55480627478E+03  0.41501623626E+03  0.12799074372E+04  0.46999998093E+01 0. -1.
       -5    1    3    3    0  502 -0.10761470527E+04 -0.55480627478E+03 -0.10583281456E+04  0.16080991995E+04  0.46999998093E+01 0.  1.
</event>
<event>
 5   0  0.3397882E-06  0.2796335E+04  0.7818609E-02  0.8304407E-01
       -1   -1    0    0    0  501  0.00000000000E+00  0.00000000000E+00  0.14641133387E+04  0.14641133387E+04  0.50400001928E-02 0. -1.
        1   -1    0    0  501    0  0.00000000000E+00  0.00000000000E+00 -0.13351919362E+04  0.13351919362E+04  0.50400001928E-02 0.  1.
    10030    2    1    2    0    0  0.00000000000E+00  0.00000000000E+00  0.12892140245E+03  0.27993052749E+04  0.27963349753E+04 0.  0.
        2    1    3    3  502    0 -0.10958232277E+04 -0.73976679647E+03  0.51968416771E+03  0.14206178563E+04  0.25500000920E-02 0. -1.
       -2    1    3    3    0  502  0.10958232277E+04  0.73976679647E+03 -0.39076276526E+03  0.13786874186E+04  0.25500000920E-02 0.  1.
</event>
<event>
 5   0  0.3397882E-06  0.2802862E+04  0.7818609E-02  0.8302380E-01
       -1   -1    0    0    0  501  0.00000000000E+00  0.00000000000E+00  0.91681103998E+03  0.91681104000E+03  0.50400001928E-02 0.  1.
        1   -1    0    0  501    0  0.00000000000E+00  0.00000000000E+00 -0.21422172618E+04  0.21422172618E+04  0.50400001928E-02 0. -1.
    10030    2    1    2    0    0  0.00000000000E+00  0.00000000000E+00 -0.12254062218E+04  0.30590283018E+04  0.28028617060E+04 0.  0.
        2    1    3    3  502    0  0.58125384869E+03 -0.10577488243E+04  0.16465787657E+03  0.12181136352E+04  0.25500000920E-02 0.  1.
       -2    1    3    3    0  502 -0.58125384869E+03  0.10577488243E+04 -0.13900640984E+04  0.18409146666E+04  0.25500000920E-02 0. -1.
</event>
<event>
 5   0  0.3397882E-06  0.2795106E+04  0.7818609E-02  0.8304789E-01
       -1   -1    0    0    0  501  0.00000000000E+00  0.00000000000E+00  0.10358477234E+04  0.10358477234E+04  0.50400001928E-02 0.  1.
        1   -1    0    0  501    0  0.00000000000E+00  0.00000000000E+00 -0.18855618555E+04  0.18855618555E+04  0.50400001928E-02 0. -1.
    10030    2    1    2    0    0  0.00000000000E+00  0.00000000000E+00 -0.84971413206E+03  0.29214095789E+04  0.27951064061E+04 0.  0.
        2    1    3    3  502    0  0.68907776832E+03 -0.44996489530E+03 -0.16054368391E+04  0.18040853700E+04  0.25500000920E-02 0. -1.
       -2    1    3    3    0  502 -0.68907776832E+03  0.44996489530E+03  0.75572270707E+03  0.11173242089E+04  0.25500000920E-02 0.  1.
</event>
<event>
 5   0  0.9252359E-06  0.2781887E+04  0.7818609E-02  0.8308914E-01
       -2   -1    0    0    0  501  0.00000000000E+00  0.00000000000E+00  0.13834514254E+04  0.13834514254E+04  0.25500000920E-02 0. -1.
        2   -1    0    0  501    0  0.00000000000E+00  0.00000000000E+00 -0.13984765239E+04  0.13984765240E+04  0.25500000920E-02 0.  1.
    10030    2    1    2    0    0  0.00000000000E+00  0.00000000000E+00 -0.15025098585E+02  0.27819279493E+04  0.27818873740E+04 0.  0.
        5    1    3    3  502    0  0.18557387401E+03  0.11543651550E+04 -0.76098599757E+03  0.13950334592E+04  0.46999998093E+01 0.  1.
       -5    1    3    3    0  502 -0.18557387401E+03 -0.11543651550E+04  0.74596089899E+03  0.13868944901E+04  0.46999998093E+01 0. -1.
</event>
<event>
 5   0  0.3371603E-06  0.2779990E+04  0.7818609E-02  0.8309508E-01
        1   -1    0    0  501    0  0.00000000000E+00  0.00000000000E+00  0.12005446368E+04  0.12005446369E+04  0.50400001928E-02 0. -1.
       -1   -1    0    0    0  501  0.00000000000E+00  0.00000000000E+00 -0.16093412620E+04  0.16093412620E+04  0.50400001928E-02 0.  1.
    10030    2    1    2    0    0  0.00000000000E+00  0.00000000000E+00 -0.40879662514E+03  0.28098858988E+04  0.27799899431E+04 0.  0.
        1    1    3    3  502    0  0.32738127923E+03 -0.13398429124E+04 -0.37867202357E+03  0.14302971835E+04  0.50400001928E-02 0. -1.
       -1    1    3    3    0  502 -0.32738127923E+03  0.13398429124E+04 -0.30124601566E+02  0.13795887153E+04  0.50400001928E-02 0.  1.
</event>
<event>
 5   0  0.9252359E-06  0.2804220E+04  0.7818609E-02  0.8301959E-01
       -2   -1    0    0    0  501  0.00000000000E+00  0.00000000000E+00  0.79555912799E+03  0.79555912799E+03  0.25500000920E-02 0. -1.
        2   -1    0    0  501    0  0.00000000000E+00  0.00000000000E+00 -0.24711079271E+04  0.24711079271E+04  0.25500000920E-02 0.  1.
    10030    2    1    2    0    0  0.00000000000E+00  0.00000000000E+00 -0.16755487991E+04  0.32666670551E+04  0.28042200111E+04 0.  0.
        5    1    3    3  502    0  0.61738398144E+02  0.54750699301E+03  0.66415469235E+03  0.86295949069E+03  0.46999998093E+01 0. -1.
       -5    1    3    3    0  502 -0.61738398144E+02 -0.54750699301E+03 -0.23397034915E+04  0.24037075644E+04  0.46999998093E+01 0.  1.
</event>
<event>
 5   0  0.3357244E-06  0.2785108E+04  0.7818609E-02  0.8307907E-01
       -1   -1    0    0    0  501  0.00000000000E+00  0.00000000000E+00  0.15967814273E+04  0.15967814273E+04  0.50400001928E-02 0. -1.
        1   -1    0    0  501    0  0.00000000000E+00  0.00000000000E+00 -0.12144473472E+04  0.12144473472E+04  0.50400001928E-02 0.  1.
    10030    2    1    2    0    0  0.00000000000E+00  0.00000000000E+00  0.38233408007E+03  0.28112287745E+04  0.27851082337E+04 0.  0.
        4    1    3    3  502    0  0.67007857665E+03 -0.13634090230E+03  0.14156441096E+04  0.15721463032E+04  0.12699999809E+01 0. -1.
       -4    1    3    3    0  502 -0.67007857665E+03  0.13634090230E+03 -0.10333100296E+04  0.12390824713E+04  0.12699999809E+01 0.  1.
</event>
<event>
 5   0  0.9426937E-06  0.2794473E+04  0.7818609E-02  0.8304986E-01
        2   -1    0    0  501    0  0.00000000000E+00  0.00000000000E+00  0.90657160723E+03  0.90657160723E+03  0.25500000920E-02 0.  1.
       -2   -1    0    0    0  501  0.00000000000E+00  0.00000000000E+00 -0.21534638575E+04  0.21534638575E+04  0.25500000920E-02 0. -1.
    10030    2    1    2    0    0  0.00000000000E+00  0.00000000000E+00 -0.12468922502E+04  0.30600354647E+04  0.27944725373E+04 0.  0.
        4    1    3    3  502    0  0.32249138175E+02  0.26627335454E+03  0.87811562826E+03  0.91816674724E+03  0.12699999809E+01 0.  1.
       -4    1    3    3    0  502 -0.32249138175E+02 -0.26627335454E+03 -0.21250078785E+04  0.21418687175E+04  0.12699999809E+01 0. -1.
</event>
<event>
 5   0  0.9260173E-06  0.2813720E+04  0.7818609E-02  0.8299021E-01
       -2   -1    0    0    0  501  0.00000000000E+00  0.00000000000E+00  0.11448165777E+04  0.11448165777E+04  0.25500000920E-02 0.  1.
        2   -1    0    0  501    0  0.00000000000E+00  0.00000000000E+00 -0.17288844574E+04  0.17288844574E+04  0.25500000920E-02 0. -1.
    10030    2    1    2    0    0  0.00000000000E+00  0.00000000000E+00 -0.58406787966E+03  0.28737010351E+04  0.28137203755E+04 0.  0.
        1    1    3    3  502    0  0.40480625311E+03 -0.97383601296E+03 -0.12430282925E+04  0.16301361963E+04  0.50400001928E-02 0.  1.
       -1    1    3    3    0  502 -0.40480625311E+03  0.97383601296E+03  0.65896041280E+03  0.12435648388E+04  0.50400001928E-02 0. -1.
</event>
<event>
 5   0  0.3438130E-06  0.2833407E+04  0.7818609E-02  0.8292971E-01
        1   -1    0    0  501    0  0.00000000000E+00  0.00000000000E+00  0.12584951925E+04  0.12584951925E+04  0.50400001928E-02 0. -1.
       -1   -1    0    0    0  501  0.00000000000E+00  0.00000000000E+00 -0.15948006985E+04  0.15948006985E+04  0.50400001928E-02 0.  1.
    10030    2    1    2    0    0  0.00000000000E+00  0.00000000000E+00 -0.33630550598E+03  0.28532958910E+04  0.28334071448E+04 0.  0.
        3    1    3    3  502    0  0.32514147287E+03  0.84203045322E+03 -0.12677500081E+04  0.15562526642E+04  0.10100000352E+00 0.  1.
       -3    1    3    3    0  502 -0.32514147287E+03 -0.84203045322E+03  0.93144450209E+03  0.12970432268E+04  0.10100000352E+00 0. -1.
</event>
<event>
 5   0  0.9065579E-06  0.2770099E+04  0.7818609E-02  0.8312612E-01
       -2   -1    0    0    0  501  0.00000000000E+00  0.00000000000E+00  0.12502124441E+04  0.12502124441E+04  0.25500000920E-02 0.  1.
        2   -1    0    0  501    0  0.00000000000E+00  0.00000000000E+00 -0.15344290956E+04  0.15344290956E+04  0.25500000920E-02 0. -1.
    10030    2    1    2    0    0  0.00000000000E+00  0.00000000000E+00 -0.28421665143E+03  0.27846415397E+04  0.27700991678E+04 0.  0.
        3    1    3    3  502    0  0.63271962328E+03 -0.12049718691E+04 -0.40050056304E+03  0.14186937789E+04  0.10100000352E+00 0. -1.
       -3    1    3    3    0  502 -0.63271962328E+03  0.12049718691E+04  0.11628391162E+03  0.13659477608E+04  0.10100000352E+00 0.  1.
</event>
<event>
 5   0  0.3357244E-06  0.2594120E+04  0.7818609E-02  0.8370201E-01
       -1   -1    0    0    0  501  0.00000000000E+00  0.00000000000E+00  0.10525030172E+04  0.10525030172E+04  0.50400001928E-02 0.  1.
        1   -1    0    0  501    0  0.00000000000E+00  0.00000000000E+00 -0.15984418524E+04  0.15984418524E+04  0.50400001928E-02 0. -1.
    10030    2    1    2    0    0  0.00000000000E+00  0.00000000000E+00 -0.54593883521E+03  0.26509448696E+04  0.25941201764E+04 0.  0.
        4    1    3    3  502    0  0.93057767838E+03  0.71751586118E+03  0.28820396495E+03  0.12099037007E+04  0.12699999809E+01 0.  1.
       -4    1    3    3    0  502 -0.93057767838E+03 -0.71751586118E+03 -0.83414280015E+03  0.14410411689E+04  0.12699999809E+01 0. -1.
</event>
<event>
 5   0  0.9342133E-06  0.2776995E+04  0.7818609E-02  0.8310446E-01
       -2   -1    0    0    0  501  0.00000000000E+00  0.00000000000E+00  0.14548846003E+04  0.14548846003E+04  0.25500000920E-02 0. -1.
        2   -1    0    0  501    0  0.00000000000E+00  0.00000000000E+00 -0.13251392475E+04  0.13251392475E+04  0.25500000920E-02 0.  1.
    10030    2    1    2    0    0  0.00000000000E+00  0.00000000000E+00  0.12974535274E+03  0.27800238478E+04  0.27769945513E+04 0.  0.
        2    1    3    3  502    0  0.66450627247E+03  0.71776191004E+03 -0.92168391757E+03  0.13439687458E+04  0.25500000920E-02 0.  1.
       -2    1    3    3    0  502 -0.66450627247E+03 -0.71776191004E+03  0.10514292703E+04  0.14360551021E+04  0.25500000920E-02 0. -1.
</event>
<event>
 5   0  0.3357244E-06  0.2801614E+04  0.7818609E-02  0.8302768E-01
        1   -1    0    0  501    0  0.00000000000E+00  0.00000000000E+00  0.26734330368E+04  0.26734330368E+04  0.50400001928E-02 0.  1.
       -1   -1    0    0    0  501  0.00000000000E+00  0.00000000000E+00 -0.73398494196E+03  0.73398494198E+03  0.50400001928E-02 0. -1.
    10030    2    1    2    0    0  0.00000000000E+00  0.00000000000E+00  0.19394480948E+04  0.34074179788E+04  0.28016135297E+04 0.  0.
        4    1    3    3  502    0 -0.10969565776E+03  0.22246188622E+02  0.26679849678E+04  0.26703320826E+04  0.12699999809E+01 0.  1.
       -4    1    3    3    0  502  0.10969565776E+03 -0.22246188622E+02 -0.72853687293E+03  0.73708589618E+03  0.12699999809E+01 0. -1.
</event>
<event>
 5   0  0.3371603E-06  0.2846154E+04  0.7818609E-02  0.8289081E-01
       -1   -1    0    0    0  501  0.00000000000E+00  0.00000000000E+00  0.14161028766E+04  0.14161028766E+04  0.50400001928E-02 0. -1.
        1   -1    0    0  501    0  0.00000000000E+00  0.00000000000E+00 -0.14300850890E+04  0.14300850891E+04  0.50400001928E-02 0.  1.
    10030    2    1    2    0    0  0.00000000000E+00  0.00000000000E+00 -0.13982212458E+02  0.28461879657E+04  0.28461536209E+04 0.  0.
        1    1    3    3  502    0  0.86544878780E+03 -0.59362796016E+03 -0.96812280538E+03  0.14278156484E+04  0.50400001928E-02 0.  1.
       -1    1    3    3    0  502 -0.86544878780E+03  0.59362796016E+03  0.95414059292E+03  0.14183723173E+04  0.50400001928E-02 0. -1.
</event>
<event>
 5   0  0.3397882E-06  0.2789111E+04  0.7818609E-02  0.8306657E-01
       -1   -1    0    0    0  501  0.00000000000E+00  0.00000000000E+00  0.69455724531E+03  0.69455724533E+03  0.50400001928E-02 0. -1.
        1   -1    0    0  501    0  0.00000000000E+00  0.00000000000E+00 -0.28000360298E+04  0.28000360298E+04  0.50400001928E-02 0.  1.
    10030    2    1    2    0    0  0.00000000000E+00  0.00000000000E+00 -0.21054787845E+04  0.34945932752E+04  0.27891111930E+04 0.  0.
        2    1    3    3  502    0 -0.68221066139E+03  0.27379317035E+03 -0.25375735658E+04  0.26419034215E+04  0.25500000920E-02 0.  1.
       -2    1    3    3    0  502  0.68221066139E+03 -0.27379317035E+03  0.43209478123E+03  0.85268985371E+03  0.25500000920E-02 0. -1.
</event>
<event>
 5   0  0.9342133E-06  0.2812498E+04  0.7818609E-02  0.8299399E-01
       -2   -1    0    0    0  501  0.00000000000E+00  0.00000000000E+00  0.20286008011E+04  0.20286008011E+04  0.25500000920E-02 0. -1.
        2   -1    0    0  501    0  0.00000000000E+00  0.00000000000E+00 -0.97482759907E+03  0.97482759908E+03  0.25500000920E-02 0.  1.
    10030    2    1    2    0    0  0.00000000000E+00  0.00000000000E+00  0.10537732020E+04  0.30034284002E+04  0.28124978566E+04 0.  0.
        2    1    3    3  502    0 -0.10540311656E+04 -0.89037190822E+03  0.81697499733E+03  0.16034936792E+04  0.25500000920E-02 0. -1.
       -2    1    3    3    0  502  0.10540311656E+04  0.89037190822E+03  0.23679820468E+03  0.13999347209E+04  0.25500000920E-02 0.  1.
</event>
<event>
 5   0  0.9260173E-06  0.2807955E+04  0.7818609E-02  0.8300803E-01
        2   -1    0    0  501    0  0.00000000000E+00  0.00000000000E+00  0.16435789630E+04  0.16435789630E+04  0.25500000920E-02 0. -1.
       -2   -1    0    0    0  501  0.00000000000E+00  0.00000000000E+00 -0.11993048236E+04  0.11993048236E+04  0.25500000920E-02 0.  1.
    10030    2    1    2    0    0  0.00000000000E+00  0.00000000000E+00  0.44427413944E+03  0.28428837866E+04  0.28079545426E+04 0.  0.
        1    1    3    3  502    0 -0.62312055079E+03  0.11987898885E+04  0.60869242289E+03  0.14818511678E+04  0.50400001928E-02 0. -1.
       -1    1    3    3    0  502  0.62312055079E+03 -0.11987898885E+04 -0.16441828344E+03  0.13610326189E+04  0.50400001928E-02 0.  1.
</event>
<event>
 5   0  0.3397882E-06  0.2805195E+04  0.7818609E-02  0.8301657E-01
        1   -1    0    0  501    0  0.00000000000E+00  0.00000000000E+00  0.12287639250E+04  0.12287639250E+04  0.50400001928E-02 0.  1.
       -1   -1    0    0    0  501  0.00000000000E+00  0.00000000000E+00 -0.16010234927E+04  0.16010234928E+04  0.50400001928E-02 0. -1.
    10030    2    1    2    0    0  0.00000000000E+00  0.00000000000E+00 -0.37225956773E+03  0.28297874178E+04  0.28051951169E+04 0.  0.
        2    1    3    3  502    0  0.28879792275E+03 -0.13604727455E+04 -0.29071474787E+01  0.13907907042E+04  0.25500000920E-02 0.  1.
       -2    1    3    3    0  502 -0.28879792275E+03  0.13604727455E+04 -0.36935242025E+03  0.14389967136E+04  0.25500000920E-02 0. -1.
</event>
<event>
 5   0  0.9260173E-06  0.2821070E+04  0.7818609E-02  0.8296757E-01
        2   -1    0    0  501    0  0.00000000000E+00  0.00000000000E+00  0.11100088757E+04  0.11100088758E+04  0.25500000920E-02 0.  1.
       -2   -1    0    0    0  501  0.00000000000E+00  0.00000000000E+00 -0.17924260328E+04  0.17924260328E+04  0.25500000920E-02 0. -1.
    10030    2    1    2    0    0  0.00000000000E+00  0.00000000000E+00 -0.68241715704E+03  0.29024349085E+04  0.28210698719E+04 0.  0.
        1    1    3    3  502    0  0.99842608307E+03  0.58072208095E+03 -0.11741995670E+04  0.16470693373E+04  0.50400001928E-02 0. -1.
       -1    1    3    3    0  502 -0.99842608307E+03 -0.58072208095E+03  0.49178240999E+03  0.12553655712E+04  0.50400001928E-02 0.  1.
</event>
<event>
 5   0  0.3371603E-06  0.2769730E+04  0.7818609E-02  0.8312728E-01
        1   -1    0    0  501    0  0.00000000000E+00  0.00000000000E+00  0.14901049707E+04  0.14901049707E+04  0.50400001928E-02 0. -1.
       -1   -1    0    0    0  501  0.00000000000E+00  0.00000000000E+00 -0.12870580087E+04  0.12870580087E+04  0.50400001928E-02 0.  1.
    10030    2    1    2    0    0  0.00000000000E+00  0.00000000000E+00  0.20304696196E+03  0.27771629794E+04  0.27697303381E+04 0.  0.
        1    1    3    3  502    0 -0.96843879155E+02  0.39410170867E+03  0.14291448683E+04  0.14856479893E+04  0.50400001928E-02 0. -1.
       -1    1    3    3    0  502  0.96843879155E+02 -0.39410170867E+03 -0.12260979063E+04  0.12915149901E+04  0.50400001928E-02 0.  1.
</event>
<event>
 5   0  0.9252359E-06  0.2798091E+04  0.7818609E-02  0.8303861E-01
        2   -1    0    0  501    0  0.00000000000E+00  0.00000000000E+00  0.22211423427E+04  0.22211423427E+04  0.25500000920E-02 0. -1.
       -2   -1    0    0    0  501  0.00000000000E+00  0.00000000000E+00 -0.88122606178E+03  0.88122606178E+03  0.25500000920E-02 0.  1.
    10030    2    1    2    0    0  0.00000000000E+00  0.00000000000E+00  0.13399162809E+04  0.31023684044E+04  0.27980911488E+04 0.  0.
        5    1    3    3  502    0 -0.81844064241E+03  0.51581855390E+03  0.17904994116E+04  0.20351471934E+04  0.46999998093E+01 0. -1.
       -5    1    3    3    0  502  0.81844064241E+03 -0.51581855390E+03 -0.45058313072E+03  0.10672212111E+04  0.46999998093E+01 0.  1.
</event>
<event>
 5   0  0.9426937E-06  0.2792591E+04  0.7818609E-02  0.8305572E-01
       -2   -1    0    0    0  501  0.00000000000E+00  0.00000000000E+00  0.14297634519E+04  0.14297634519E+04  0.25500000920E-02 0.  1.
        2   -1    0    0  501    0  0.00000000000E+00  0.00000000000E+00 -0.13636108266E+04  0.13636108266E+04  0.25500000920E-02 0. -1.
    10030    2    1    2    0    0  0.00000000000E+00  0.00000000000E+00  0.66152625345E+02  0.27933742785E+04  0.27925908562E+04 0.  0.
        4    1    3    3  502    0 -0.25079420297E+03 -0.57266824893E+03 -0.12157901220E+04  0.13671115131E+04  0.12699999809E+01 0. -1.
       -4    1    3    3    0  502  0.25079420297E+03  0.57266824893E+03  0.12819427474E+04  0.14262627654E+04  0.12699999809E+01 0.  1.
</event>
<event>
 5   0  0.9426937E-06  0.2800534E+04  0.7818609E-02  0.8303103E-01
       -2   -1    0    0    0  501  0.00000000000E+00  0.00000000000E+00  0.23791925522E+04  0.23791925522E+04  0.25500000920E-02 0.  1.
        2   -1    0    0  501    0  0.00000000000E+00  0.00000000000E+00 -0.82412302194E+03  0.82412302195E+03  0.25500000920E-02 0. -1.
    10030    2    1    2    0    0  0.00000000000E+00  0.00000000000E+00  0.15550695302E+04  0.32033155741E+04  0.28005337748E+04 0.  0.
        4    1    3    3  502    0  0.13195346066E+04 -0.26627546837E+03  0.12185695363E+04  0.18157608682E+04  0.12699999809E+01 0.  1.
       -4    1    3    3    0  502 -0.13195346066E+04  0.26627546837E+03  0.33649999397E+03  0.13875547059E+04  0.12699999809E+01 0. -1.
</event>
<event>
 5   0  0.3397882E-06  0.2786985E+04  0.7818609E-02  0.8307320E-01
       -1   -1    0    0    0  501  0.00000000000E+00  0.00000000000E+00  0.17524053879E+04  0.17524053879E+04  0.50400001928E-02 0. -1.
        1   -1    0    0  501    0  0.00000000000E+00  0.00000000000E+00 -0.11080891614E+04  0.11080891614E+04  0.50400001928E-02 0.  1.
    10030    2    1    2    0    0  0.00000000000E+00  0.00000000000E+00  0.64431622654E+03  0.28604945493E+04  0.27869850496E+04 0.  0.
        2    1    3    3  502    0 -0.87578726195E+03  0.10103489864E+04  0.72495415667E+03  0.15209756513E+04  0.25500000920E-02 0.  1.
       -2    1    3    3    0  502  0.87578726195E+03 -0.10103489864E+04 -0.80637930131E+02  0.13395188981E+04  0.25500000920E-02 0. -1.
</event>
<event>
 5   0  0.3438130E-06  0.2840144E+04  0.7818609E-02  0.8290913E-01
       -1   -1    0    0    0  501  0.00000000000E+00  0.00000000000E+00  0.12376765377E+04  0.12376765377E+04  0.50400001928E-02 0.  1.
        1   -1    0    0  501    0  0.00000000000E+00  0.00000000000E+00 -0.16293466602E+04  0.16293466602E+04  0.50400001928E-02 0. -1.
    10030    2    1    2    0    0  0.00000000000E+00  0.00000000000E+00 -0.39167012247E+03  0.28670231979E+04  0.28401437521E+04 0.  0.
        3    1    3    3  502    0 -0.11978321767E+04 -0.74618721811E+03 -0.35546716882E+03  0.14553192799E+04  0.10100000352E+00 0.  1.
       -3    1    3    3    0  502  0.11978321767E+04  0.74618721811E+03 -0.36202953652E+02  0.14117039180E+04  0.10100000352E+00 0. -1.
</event>
<event>
 5   0  0.3600963E-06  0.2818498E+04  0.7818609E-02  0.8297548E-01
        1   -1    0    0  501    0  0.00000000000E+00  0.00000000000E+00  0.27659511635E+04  0.27659511635E+04  0.50400001928E-02 0. -1.
       -1   -1    0    0    0  501  0.00000000000E+00  0.00000000000E+00 -0.71801083185E+03  0.71801083186E+03  0.50400001928E-02 0.  1.
    10030    2    1    2    0    0  0.00000000000E+00  0.00000000000E+00  0.20479403317E+04  0.34839619954E+04  0.28184981077E+04 0.  0.
        5    1    3    3  502    0  0.63931780411E+03 -0.36116434256E+03 -0.46285187713E+03  0.86799820688E+03  0.46999998093E+01 0.  1.
       -5    1    3    3    0  502 -0.63931780411E+03  0.36116434256E+03  0.25107922088E+04  0.26159637885E+04  0.46999998093E+01 0. -1.
</event>
<event>
 5   0  0.9426937E-06  0.2806626E+04  0.7818609E-02  0.8301214E-01
       -2   -1    0    0    0  501  0.00000000000E+00  0.00000000000E+00  0.85817438756E+03  0.85817438756E+03  0.25500000920E-02 0. -1.
        2   -1    0    0  501    0  0.00000000000E+00  0.00000000000E+00 -0.22947397405E+04  0.22947397405E+04  0.25500000920E-02 0.  1.
    10030    2    1    2    0    0  0.00000000000E+00  0.00000000000E+00 -0.14365653530E+04  0.31529141281E+04  0.28066256405E+04 0.  0.
        4    1    3    3  502    0  0.12507407080E+04  0.54214704560E+03 -0.10925722836E+04  0.17469950044E+04  0.12699999809E+01 0.  1.
       -4    1    3    3    0  502 -0.12507407080E+04 -0.54214704560E+03 -0.34399306932E+03  0.14059191237E+04  0.12699999809E+01 0. -1.
</event>
<event>
 5   0  0.9252359E-06  0.2832123E+04  0.7818609E-02  0.8293364E-01
        2   -1    0    0  501    0  0.00000000000E+00  0.00000000000E+00  0.21992817587E+04  0.21992817587E+04  0.25500000920E-02 0. -1.
       -2   -1    0    0    0  501  0.00000000000E+00  0.00000000000E+00 -0.91176611464E+03  0.91176611464E+03  0.25500000920E-02 0.  1.
    10030    2    1    2    0    0  0.00000000000E+00  0.00000000000E+00  0.12875156440E+04  0.31110478733E+04  0.28321232912E+04 0.  0.
        5    1    3    3  502    0  0.22767788109E+03 -0.13853348169E+04  0.44055654668E+03  0.14714285349E+04  0.46999998093E+01 0. -1.
       -5    1    3    3    0  502 -0.22767788109E+03  0.13853348169E+04  0.84695909735E+03  0.16396193384E+04  0.46999998093E+01 0.  1.
</event>
<event>
 5   0  0.9260173E-06  0.2835242E+04  0.7818609E-02  0.8292410E-01
       -2   -1    0    0    0  501  0.00000000000E+00  0.00000000000E+00  0.13824605365E+04  0.13824605365E+04  0.25500000920E-02 0.  1.
        2   -1    0    0  501    0  0.00000000000E+00  0.00000000000E+00 -0.14536755146E+04  0.14536755146E+04  0.25500000920E-02 0. -1.
    10030    2    1    2    0    0  0.00000000000E+00  0.00000000000E+00 -0.71214978014E+02  0.28361360511E+04  0.28352418111E+04 0.  0.
        1    1    3    3  502    0 -0.14150497942E+04 -0.32911962872E+02 -0.11437185848E+03  0.14200457878E+04  0.50400001928E-02 0. -1.
       -1    1    3    3    0  502  0.14150497942E+04  0.32911962872E+02  0.43156880463E+02  0.14160902633E+04  0.50400001928E-02 0.  1.
</event>
<event>
 5   0  0.9260173E-06  0.2773065E+04  0.7818609E-02  0.8311680E-01
        2   -1    0    0  501    0  0.00000000000E+00  0.00000000000E+00  0.18422971120E+04  0.18422971120E+04  0.25500000920E-02 0. -1.
       -2   -1    0    0    0  501  0.00000000000E+00  0.00000000000E+00 -0.10435194444E+04  0.10435194444E+04  0.25500000920E-02 0.  1.
    10030    2    1    2    0    0  0.00000000000E+00  0.00000000000E+00  0.79877766760E+03  0.28858165564E+04  0.27730653500E+04 0.  0.
        1    1    3    3  502    0  0.35249131289E+03 -0.74112403999E+03 -0.76361866367E+03  0.11209943942E+04  0.50400001928E-02 0.  1.
       -1    1    3    3    0  502 -0.35249131289E+03  0.74112403999E+03  0.15623963313E+04  0.17648221622E+04  0.50400001928E-02 0. -1.
</event>
<event>
 5   0  0.3006875E-06  0.3148980E+04  0.7818609E-02  0.8202423E-01
        3   -1    0    0  501    0  0.00000000000E+00  0.00000000000E+00  0.84303803313E+03  0.84303803918E+03  0.10100000352E+00 0.  1.
       -3   -1    0    0    0  501  0.00000000000E+00  0.00000000000E+00 -0.29405776309E+04  0.29405776327E+04  0.10100000352E+00 0. -1.
    10030    2    1    2    0    0  0.00000000000E+00  0.00000000000E+00 -0.20975395978E+04  0.37836156718E+04  0.31489800234E+04 0.  0.
        1    1    3    3  502    0  0.19576637933E+03 -0.38326835422E+03  0.77099330341E+03  0.88297779165E+03  0.50400001928E-02 0.  1.
       -1    1    3    3    0  502 -0.19576637933E+03  0.38326835422E+03 -0.28685329012E+04  0.29006378802E+04  0.50400001928E-02 0. -1.
</event>
<event>
 5   0  0.3006875E-06  0.2737227E+04  0.7818609E-02  0.8323026E-01
        3   -1    0    0  501    0  0.00000000000E+00  0.00000000000E+00  0.15003895222E+04  0.15003895256E+04  0.10100000352E+00 0. -1.
       -3   -1    0    0    0  501  0.00000000000E+00  0.00000000000E+00 -0.12484109551E+04  0.12484109592E+04  0.10100000352E+00 0.  1.
    10030    2    1    2    0    0  0.00000000000E+00  0.00000000000E+00  0.25197856710E+03  0.27488004848E+04  0.27372268643E+04 0.  0.
        3    1    3    3  502    0 -0.11792772883E+04  0.24364074812E+03  0.77916002801E+03  0.14342754604E+04  0.10100000352E+00 0. -1.
       -3    1    3    3    0  502  0.11792772883E+04 -0.24364074812E+03 -0.52718146092E+03  0.13145250244E+04  0.10100000352E+00 0.  1.
</event>
<event>
 5   0  0.9426937E-06  0.2807762E+04  0.7818609E-02  0.8300863E-01
       -2   -1    0    0    0  501  0.00000000000E+00  0.00000000000E+00  0.17977634152E+04  0.17977634152E+04  0.25500000920E-02 0.  1.
        2   -1    0    0  501    0  0.00000000000E+00  0.00000000000E+00 -0.10962965882E+04  0.10962965882E+04  0.25500000920E-02 0. -1.
    10030    2    1    2    0    0  0.00000000000E+00  0.00000000000E+00  0.70146682702E+03  0.28940600034E+04  0.28077620259E+04 0.  0.
        4    1    3    3  502    0 -0.74050337724E+03  0.20683944258E+02 -0.87844069624E+03  0.11491008428E+04  0.12699999809E+01 0. -1.
       -4    1    3    3    0  502  0.74050337724E+03 -0.20683944258E+02  0.15799075233E+04  0.17449591606E+04  0.12699999809E+01 0.  1.
</event>
<event>
 5   0  0.3357244E-06  0.2792703E+04  0.7818609E-02  0.8305537E-01
       -1   -1    0    0    0  501  0.00000000000E+00  0.00000000000E+00  0.11645635137E+04  0.11645635137E+04  0.50400001928E-02 0.  1.
        1   -1    0    0  501    0  0.00000000000E+00  0.00000000000E+00 -0.16742731802E+04  0.16742731803E+04  0.50400001928E-02 0. -1.
    10030    2    1    2    0    0  0.00000000000E+00  0.00000000000E+00 -0.50970966652E+03  0.28388366940E+04  0.27927029615E+04 0.  0.
        4    1    3    3  502    0 -0.10079152006E+02 -0.18396422012E+03 -0.16618628675E+04  0.16720449237E+04  0.12699999809E+01 0. -1.
       -4    1    3    3    0  502  0.10079152006E+02  0.18396422012E+03  0.11521532010E+04  0.11667917703E+04  0.12699999809E+01 0.  1.
</event>
<event>
 5   0  0.9426937E-06  0.2653951E+04  0.7818609E-02  0.8350103E-01
       -2   -1    0    0    0  501  0.00000000000E+00  0.00000000000E+00  0.90960900720E+03  0.90960900721E+03  0.25500000920E-02 0. -1.
        2   -1    0    0  501    0  0.00000000000E+00  0.00000000000E+00 -0.19358465465E+04  0.19358465465E+04  0.25500000920E-02 0.  1.
    10030    2    1    2    0    0  0.00000000000E+00  0.00000000000E+00 -0.10262375393E+04  0.28454555537E+04  0.26539506064E+04 0.  0.
        4    1    3    3  502    0  0.36623441231E+03 -0.14454453122E+03  0.84553954778E+03  0.93271619801E+03  0.12699999809E+01 0. -1.
       -4    1    3    3    0  502 -0.36623441231E+03  0.14454453122E+03 -0.18717770871E+04  0.19127393557E+04  0.12699999809E+01 0.  1.
</event>
<event>
 5   0  0.3438130E-06  0.2701716E+04  0.7818609E-02  0.8334448E-01
        1   -1    0    0  501    0  0.00000000000E+00  0.00000000000E+00  0.15659060584E+04  0.15659060584E+04  0.50400001928E-02 0. -1.
       -1   -1    0    0    0  501  0.00000000000E+00  0.00000000000E+00 -0.11653427753E+04  0.11653427754E+04  0.50400001928E-02 0.  1.
    10030    2    1    2    0    0  0.00000000000E+00  0.00000000000E+00  0.40056328308E+03  0.27312488338E+04  0.27017159822E+04 0.  0.
        3    1    3    3  502    0  0.54131969274E+03  0.12339744889E+04  0.29670376910E+03  0.13797656271E+04  0.10100000352E+00 0.  1.
       -3    1    3    3    0  502 -0.54131969274E+03 -0.12339744889E+04  0.10385951398E+03  0.13514832067E+04  0.10100000352E+00 0. -1.
</event>
<event>
 5   0  0.3357244E-06  0.2464446E+04  0.7818609E-02  0.8415762E-01
        1   -1    0    0  501    0  0.00000000000E+00  0.00000000000E+00  0.13812460869E+04  0.13812460869E+04  0.50400001928E-02 0.  1.
       -1   -1    0    0    0  501  0.00000000000E+00  0.00000000000E+00 -0.10992780415E+04  0.10992780415E+04  0.50400001928E-02 0. -1.
    10030    2    1    2    0    0  0.00000000000E+00  0.00000000000E+00  0.28196804544E+03  0.24805241284E+04  0.24644459769E+04 0.  0.
        4    1    3    3  502    0 -0.74211269591E+03  0.91658950760E+03  0.50039105597E+03  0.12811168568E+04  0.12699999809E+01 0.  1.
       -4    1    3    3    0  502  0.74211269591E+03 -0.91658950760E+03 -0.21842301054E+03  0.11994072717E+04  0.12699999809E+01 0. -1.
</event>
<event>
 5   0  0.3397882E-06  0.2781566E+04  0.7818609E-02  0.8309014E-01
       -1   -1    0    0    0  501  0.00000000000E+00  0.00000000000E+00  0.11484860395E+04  0.11484860395E+04  0.50400001928E-02 0. -1.
        1   -1    0    0  501    0  0.00000000000E+00  0.00000000000E+00 -0.16841972333E+04  0.16841972333E+04  0.50400001928E-02 0.  1.
    10030    2    1    2    0    0  0.00000000000E+00  0.00000000000E+00 -0.53571119385E+03  0.28326832728E+04  0.27815657534E+04 0.  0.
        2    1    3    3  502    0 -0.28673195683E+03  0.99013300311E+03  0.68295019701E+03  0.12365272138E+04  0.25500000920E-02 0. -1.
       -2    1    3    3    0  502  0.28673195683E+03 -0.99013300311E+03 -0.12186613909E+04  0.15961560589E+04  0.25500000920E-02 0.  1.
</event>
<event>
 5   0  0.9260173E-06  0.2828542E+04  0.7818609E-02  0.8294462E-01
       -2   -1    0    0    0  501  0.00000000000E+00  0.00000000000E+00  0.13729143243E+04  0.13729143243E+04  0.25500000920E-02 0.  1.
        2   -1    0    0  501    0  0.00000000000E+00  0.00000000000E+00 -0.14568733163E+04  0.14568733163E+04  0.25500000920E-02 0. -1.
    10030    2    1    2    0    0  0.00000000000E+00  0.00000000000E+00 -0.83958992001E+02  0.28297876406E+04  0.28285418467E+04 0.  0.
        1    1    3    3  502    0 -0.82112205436E+03 -0.53203027458E+03  0.97967770562E+03  0.13845815426E+04  0.50400001928E-02 0.  1.
       -1    1    3    3    0  502  0.82112205436E+03  0.53203027458E+03 -0.10636366976E+04  0.14452060980E+04  0.50400001928E-02 0. -1.
</event>
<event>
 5   0  0.3438130E-06  0.2792627E+04  0.7818609E-02  0.8305561E-01
       -1   -1    0    0    0  501  0.00000000000E+00  0.00000000000E+00  0.13808123854E+04  0.13808123854E+04  0.50400001928E-02 0. -1.
        1   -1    0    0  501    0  0.00000000000E+00  0.00000000000E+00 -0.14119890485E+04  0.14119890485E+04  0.50400001928E-02 0.  1.
    10030    2    1    2    0    0  0.00000000000E+00  0.00000000000E+00 -0.31176663060E+02  0.27928014339E+04  0.27926274125E+04 0.  0.
        3    1    3    3  502    0 -0.83808397088E+03 -0.56793972637E+03  0.94611169218E+03  0.13856650459E+04  0.10100000352E+00 0. -1.
       -3    1    3    3    0  502  0.83808397088E+03  0.56793972637E+03 -0.97728835524E+03  0.14071363880E+04  0.10100000352E+00 0.  1.
</event>
<event>
 5   0  0.9065579E-06  0.2250210E+04  0.7818609E-02  0.8497816E-01
       -2   -1    0    0    0  501  0.00000000000E+00  0.00000000000E+00  0.44703424830E+03  0.44703424831E+03  0.25500000920E-02 0.  1.
        2   -1    0    0  501    0  0.00000000000E+00  0.00000000000E+00 -0.28316870205E+04  0.28316870205E+04  0.25500000920E-02 0. -1.
    10030    2    1    2    0    0  0.00000000000E+00  0.00000000000E+00 -0.23846527722E+04  0.32787212689E+04  0.22502098379E+04 0.  0.
        3    1    3    3  502    0  0.10901319640E+04  0.20037443176E+03 -0.91083026967E+03  0.14346251783E+04  0.10100000352E+00 0.  1.
       -3    1    3    3    0  502 -0.10901319640E+04 -0.20037443176E+03 -0.14738225026E+04  0.18440960906E+04  0.10100000352E+00 0. -1.
</event>
<event>
 5   0  0.9342133E-06  0.2790150E+04  0.7818609E-02  0.8306333E-01
       -2   -1    0    0    0  501  0.00000000000E+00  0.00000000000E+00  0.18562813206E+04  0.18562813206E+04  0.25500000920E-02 0. -1.
        2   -1    0    0  501    0  0.00000000000E+00  0.00000000000E+00 -0.10484590340E+04  0.10484590340E+04  0.25500000920E-02 0.  1.
    10030    2    1    2    0    0  0.00000000000E+00  0.00000000000E+00  0.80782228656E+03  0.29047403545E+04  0.27901504764E+04 0.  0.
        2    1    3    3  502    0 -0.87077459395E+03 -0.35031960354E+02 -0.73021408700E+03  0.11369644869E+04  0.25500000920E-02 0.  1.
       -2    1    3    3    0  502  0.87077459395E+03  0.35031960354E+02  0.15380363736E+04  0.17677758676E+04  0.25500000920E-02 0. -1.
</event>
<event>
 5   0  0.9426937E-06  0.2799160E+04  0.7818609E-02  0.8303529E-01
        2   -1    0    0  501    0  0.00000000000E+00  0.00000000000E+00  0.15657096110E+04  0.15657096110E+04  0.25500000920E-02 0. -1.
       -2   -1    0    0    0  501  0.00000000000E+00  0.00000000000E+00 -0.12510776693E+04  0.12510776693E+04  0.25500000920E-02 0.  1.
    10030    2    1    2    0    0  0.00000000000E+00  0.00000000000E+00  0.31463194171E+03  0.28167872804E+04  0.27991601105E+04 0.  0.
        4    1    3    3  502    0  0.57768536032E+03  0.11178721028E+04 -0.45929413414E+03  0.13395189914E+04  0.12699999809E+01 0.  1.
       -4    1    3    3    0  502 -0.57768536032E+03 -0.11178721028E+04  0.77392607584E+03  0.14772682890E+04  0.12699999809E+01 0. -1.
</event>
<event>
 5   0  0.3357244E-06  0.2759699E+04  0.7818609E-02  0.8315890E-01
       -1   -1    0    0    0  501  0.00000000000E+00  0.00000000000E+00  0.13337239905E+04  0.13337239905E+04  0.50400001928E-02 0.  1.
        1   -1    0    0  501    0  0.00000000000E+00  0.00000000000E+00 -0.14275704841E+04  0.14275704841E+04  0.50400001928E-02 0. -1.
    10030    2    1    2    0    0  0.00000000000E+00  0.00000000000E+00 -0.93846493670E+02  0.27612944746E+04  0.27596992610E+04 0.  0.
        4    1    3    3  502    0 -0.89088711702E+03  0.78805531563E+03 -0.74680763337E+03  0.14044337969E+04  0.12699999809E+01 0. -1.
       -4    1    3    3    0  502  0.89088711702E+03 -0.78805531563E+03  0.65296113970E+03  0.13568606777E+04  0.12699999809E+01 0.  1.
</event>
<event>
 5   0  0.3371603E-06  0.2823324E+04  0.7818609E-02  0.8296064E-01
       -1   -1    0    0    0  501  0.00000000000E+00  0.00000000000E+00  0.20862643396E+04  0.20862643396E+04  0.50400001928E-02 0.  1.
        1   -1    0    0  501    0  0.00000000000E+00  0.00000000000E+00 -0.95519495132E+03  0.95519495133E+03  0.50400001928E-02 0. -1.
    10030    2    1    2    0    0  0.00000000000E+00  0.00000000000E+00  0.11310693883E+04  0.30414592909E+04  0.28233236898E+04 0.  0.
        1    1    3    3  502    0  0.62028610740E+03 -0.15066996516E+03 -0.79084590104E+03  0.10163136980E+04  0.50400001928E-02 0. -1.
       -1    1    3    3    0  502 -0.62028610740E+03  0.15066996516E+03  0.19219152893E+04  0.20251455930E+04  0.50400001928E-02 0.  1.
</event>
<event>
 5   0  0.9426937E-06  0.2786194E+04  0.7818609E-02  0.8307568E-01
        2   -1    0    0  501    0  0.00000000000E+00  0.00000000000E+00  0.23615596194E+04  0.23615596194E+04  0.25500000920E-02 0. -1.
       -2   -1    0    0    0  501  0.00000000000E+00  0.00000000000E+00 -0.82179535047E+03  0.82179535047E+03  0.25500000920E-02 0.  1.
    10030    2    1    2    0    0  0.00000000000E+00  0.00000000000E+00  0.15397642690E+04  0.31833549699E+04  0.27861936150E+04 0.  0.
        4    1    3    3  502    0  0.41164969801E+03  0.54544602277E+03  0.21569117179E+04  0.22625730064E+04  0.12699999809E+01 0. -1.
       -4    1    3    3    0  502 -0.41164969801E+03 -0.54544602277E+03 -0.61714744895E+03  0.92078196348E+03  0.12699999809E+01 0.  1.
</event>
<event>
 5   0  0.9252359E-06  0.2795752E+04  0.7818609E-02  0.8304588E-01
       -2   -1    0    0    0  501  0.00000000000E+00  0.00000000000E+00  0.21007144859E+04  0.21007144859E+04  0.25500000920E-02 0.  1.
        2   -1    0    0  501    0  0.00000000000E+00  0.00000000000E+00 -0.93018703336E+03  0.93018703336E+03  0.25500000920E-02 0. -1.
    10030    2    1    2    0    0  0.00000000000E+00  0.00000000000E+00  0.11705274526E+04  0.30309015193E+04  0.27957520459E+04 0.  0.
        5    1    3    3  502    0  0.13376277994E+04 -0.39176989532E+03  0.47000342744E+03  0.14709374876E+04  0.46999998093E+01 0.  1.
       -5    1    3    3    0  502 -0.13376277994E+04  0.39176989532E+03  0.70052402514E+03  0.15599640317E+04  0.46999998093E+01 0. -1.
</event>
<event>
 5   0  0.3397882E-06  0.2349412E+04  0.7818609E-02  0.8458689E-01
        1   -1    0    0  501    0  0.00000000000E+00  0.00000000000E+00  0.18960940819E+04  0.18960940819E+04  0.50400001928E-02 0.  1.
       -1   -1    0    0    0  501  0.00000000000E+00  0.00000000000E+00 -0.72777733989E+03  0.72777733991E+03  0.50400001928E-02 0. -1.
    10030    2    1    2    0    0  0.00000000000E+00  0.00000000000E+00  0.11683167420E+04  0.26238714218E+04  0.23494121028E+04 0.  0.
        2    1    3    3  502    0  0.18677598621E+03 -0.11595477683E+04  0.60908151856E+03  0.13230331032E+04  0.25500000920E-02 0.  1.
       -2    1    3    3    0  502 -0.18677598621E+03  0.11595477683E+04  0.55923522344E+03  0.13008383186E+04  0.25500000920E-02 0. -1.
</event>
<event>
 5   0  0.3438130E-06  0.2791709E+04  0.7818609E-02  0.8305847E-01
       -1   -1    0    0    0  501  0.00000000000E+00  0.00000000000E+00  0.12186313454E+04  0.12186313454E+04  0.50400001928E-02 0. -1.
        1   -1    0    0  501    0  0.00000000000E+00  0.00000000000E+00 -0.15988510890E+04  0.15988510890E+04  0.50400001928E-02 0.  1.
    10030    2    1    2    0    0  0.00000000000E+00  0.00000000000E+00 -0.38021974362E+03  0.28174824344E+04  0.27917091924E+04 0.  0.
        3    1    3    3  502    0  0.13850321191E+04  0.16276853833E+03 -0.25068461242E+03  0.14169157890E+04  0.10100000352E+00 0. -1.
       -3    1    3    3    0  502 -0.13850321191E+04 -0.16276853833E+03 -0.12953513121E+03  0.14005666455E+04  0.10100000352E+00 0.  1.
</event>
<event>
 5   0  0.9342133E-06  0.2811128E+04  0.7818609E-02  0.8299822E-01
       -2   -1    0    0    0  501  0.00000000000E+00  0.00000000000E+00  0.57930563647E+03  0.57930563648E+03  0.25500000920E-02 0. -1.
        2   -1    0    0  501    0  0.00000000000E+00  0.00000000000E+00 -0.34103074750E+04  0.34103074750E+04  0.25500000920E-02 0.  1.
    10030    2    1    2    0    0  0.00000000000E+00  0.00000000000E+00 -0.28310018385E+04  0.39896131115E+04  0.28111281311E+04 0.  0.
        2    1    3    3  502    0  0.24622023052E+03 -0.10807335105E+04 -0.18887895042E+03  0.11244041002E+04  0.25500000920E-02 0. -1.
       -2    1    3    3    0  502 -0.24622023052E+03  0.10807335105E+04 -0.26421228881E+04  0.28652090113E+04  0.25500000920E-02 0.  1.
</event>
<event>
 5   0  0.9426937E-06  0.2767412E+04  0.7818609E-02  0.8313458E-01
       -2   -1    0    0    0  501  0.00000000000E+00  0.00000000000E+00  0.16115083712E+04  0.16115083712E+04  0.25500000920E-02 0.  1.
        2   -1    0    0  501    0  0.00000000000E+00  0.00000000000E+00 -0.11881057869E+04  0.11881057869E+04  0.25500000920E-02 0. -1.
    10030    2    1    2    0    0  0.00000000000E+00  0.00000000000E+00  0.42340258430E+03  0.27996141581E+04  0.27674120918E+04 0.  0.
        4    1    3    3  502    0 -0.77794178866E+03  0.11403247551E+04  0.11516111819E+03  0.13852067246E+04  0.12699999809E+01 0.  1.
       -4    1    3    3    0  502  0.77794178866E+03 -0.11403247551E+04  0.30824146611E+03  0.14144074335E+04  0.12699999809E+01 0. -1.
</event>
<event>
 5   0  0.3371603E-06  0.2636116E+04  0.7818609E-02  0.8356036E-01
       -1   -1    0    0    0  501  0.00000000000E+00  0.00000000000E+00  0.13570547839E+04  0.13570547839E+04  0.50400001928E-02 0.  1.
        1   -1    0    0  501    0  0.00000000000E+00  0.00000000000E+00 -0.12801818476E+04  0.12801818476E+04  0.50400001928E-02 0. -1.
    10030    2    1    2    0    0  0.00000000000E+00  0.00000000000E+00  0.76872936298E+02  0.26372366316E+04  0.26361160070E+04 0.  0.
        1    1    3    3  502    0  0.12135714249E+04 -0.29315723388E+03 -0.38433060273E+03  0.13062950583E+04  0.50400001928E-02 0. -1.
       -1    1    3    3    0  502 -0.12135714249E+04  0.29315723388E+03  0.46120353903E+03  0.13309415733E+04  0.50400001928E-02 0.  1.
</event>
<event>
 5   0  0.3371603E-06  0.2811012E+04  0.7818609E-02  0.8299858E-01
        1   -1    0    0  501    0  0.00000000000E+00  0.00000000000E+00  0.16542761187E+04  0.16542761187E+04  0.50400001928E-02 0.  1.
       -1   -1    0    0    0  501  0.00000000000E+00  0.00000000000E+00 -0.11941456921E+04  0.11941456921E+04  0.50400001928E-02 0. -1.
    10030    2    1    2    0    0  0.00000000000E+00  0.00000000000E+00  0.46013042655E+03  0.28484218108E+04  0.28110117045E+04 0.  0.
        1    1    3    3  502    0  0.15246851992E+02 -0.92591166579E+03  0.13014450790E+04  0.15972802425E+04  0.50400001928E-02 0.  1.
       -1    1    3    3    0  502 -0.15246851992E+02  0.92591166579E+03 -0.84131465250E+03  0.12511415683E+04  0.50400001928E-02 0. -1.
</event>
<event>
 5   0  0.9065579E-06  0.2794514E+04  0.7818609E-02  0.8304973E-01
        2   -1    0    0  501    0  0.00000000000E+00  0.00000000000E+00  0.18949123845E+04  0.18949123845E+04  0.25500000920E-02 0. -1.
       -2   -1    0    0    0  501  0.00000000000E+00  0.00000000000E+00 -0.10302996769E+04  0.10302996769E+04  0.25500000920E-02 0.  1.
    10030    2    1    2    0    0  0.00000000000E+00  0.00000000000E+00  0.86461270758E+03  0.29252120613E+04  0.27945143531E+04 0.  0.
        3    1    3    3  502    0 -0.25197819129E+03 -0.11168229291E+04  0.12707295163E+04  0.17104209943E+04  0.10100000352E+00 0. -1.
       -3    1    3    3    0  502  0.25197819129E+03  0.11168229291E+04 -0.40611680877E+03  0.12147910670E+04  0.10100000352E+00 0.  1.
</event>
<event>
 5   0  0.3357244E-06  0.2831584E+04  0.7818609E-02  0.8293529E-01
        1   -1    0    0  501    0  0.00000000000E+00  0.00000000000E+00  0.12369979167E+04  0.12369979168E+04  0.50400001928E-02 0. -1.
       -1   -1    0    0    0  501  0.00000000000E+00  0.00000000000E+00 -0.16204285941E+04  0.16204285941E+04  0.50400001928E-02 0.  1.
    10030    2    1    2    0    0  0.00000000000E+00  0.00000000000E+00 -0.38343067733E+03  0.28574265108E+04  0.28315838643E+04 0.  0.
        4    1    3    3  502    0 -0.25739797943E+03 -0.13707804095E+04 -0.43718946073E+03  0.14616527933E+04  0.12699999809E+01 0. -1.
       -4    1    3    3    0  502  0.25739797943E+03  0.13707804095E+04  0.53758783406E+02  0.13957737175E+04  0.12699999809E+01 0.  1.
</event>
<event>
 5   0  0.3438130E-06  0.2807968E+04  0.7818609E-02  0.8300799E-01
       -1   -1    0    0    0  501  0.00000000000E+00  0.00000000000E+00  0.10892926263E+04  0.10892926263E+04  0.50400001928E-02 0. -1.
        1   -1    0    0  501    0  0.00000000000E+00  0.00000000000E+00 -0.18095887889E+04  0.18095887889E+04  0.50400001928E-02 0.  1.
    10030    2    1    2    0    0  0.00000000000E+00  0.00000000000E+00 -0.72029616261E+03  0.28988814153E+04  0.28079684646E+04 0.  0.
        3    1    3    3  502    0 -0.13614566729E+04 -0.26157590945E+02 -0.71367776240E+01  0.13617266376E+04  0.10100000352E+00 0. -1.
       -3    1    3    3    0  502  0.13614566729E+04  0.26157590945E+02 -0.71315938498E+03  0.15371547776E+04  0.10100000352E+00 0.  1.
</event>
<event>
 5   0  0.3371603E-06  0.2871240E+04  0.7818609E-02  0.8281486E-01
        1   -1    0    0  501    0  0.00000000000E+00  0.00000000000E+00  0.16187463968E+04  0.16187463968E+04  0.50400001928E-02 0. -1.
       -1   -1    0    0    0  501  0.00000000000E+00  0.00000000000E+00 -0.12732104664E+04  0.12732104664E+04  0.50400001928E-02 0.  1.
    10030    2    1    2    0    0  0.00000000000E+00  0.00000000000E+00  0.34553593041E+03  0.28919568632E+04  0.28712400491E+04 0.  0.
        1    1    3    3  502    0  0.99524063435E+03  0.59576724980E+03 -0.67924467708E+03  0.13441785103E+04  0.50400001928E-02 0.  1.
       -1    1    3    3    0  502 -0.99524063435E+03 -0.59576724980E+03  0.10247806075E+04  0.15477783529E+04  0.50400001928E-02 0. -1.
</event>
<event>
 5   0  0.3438130E-06  0.2728584E+04  0.7818609E-02  0.8325790E-01
       -1   -1    0    0    0  501  0.00000000000E+00  0.00000000000E+00  0.14372132445E+04  0.14372132445E+04  0.50400001928E-02 0. -1.
        1   -1    0    0  501    0  0.00000000000E+00  0.00000000000E+00 -0.12950702395E+04  0.12950702395E+04  0.50400001928E-02 0.  1.
    10030    2    1    2    0    0  0.00000000000E+00  0.00000000000E+00  0.14214300500E+03  0.27322834841E+04  0.27285835892E+04 0.  0.
        3    1    3    3  502    0  0.85400609737E+03 -0.28132225691E+03  0.10985346928E+04  0.14195939941E+04  0.10100000352E+00 0. -1.
       -3    1    3    3    0  502 -0.85400609737E+03  0.28132225691E+03 -0.95639168776E+03  0.13126894900E+04  0.10100000352E+00 0.  1.
</event>
<event>
 5   0  0.3397882E-06  0.2772022E+04  0.7818609E-02  0.8312007E-01
       -1   -1    0    0    0  501  0.00000000000E+00  0.00000000000E+00  0.21462001737E+04  0.21462001737E+04  0.50400001928E-02 0. -1.
        1   -1    0    0  501    0  0.00000000000E+00  0.00000000000E+00 -0.89508290392E+03  0.89508290393E+03  0.50400001928E-02 0.  1.
    10030    2    1    2    0    0  0.00000000000E+00  0.00000000000E+00  0.12511172698E+04  0.30412830777E+04  0.27720224270E+04 0.  0.
        2    1    3    3  502    0  0.10281811788E+02  0.22083878677E+03 -0.87561390799E+03  0.90309202259E+03  0.25500000920E-02 0.  1.
       -2    1    3    3    0  502 -0.10281811788E+02 -0.22083878677E+03  0.21267311778E+04  0.21381910551E+04  0.25500000920E-02 0. -1.
</event>
<event>
 5   0  0.3357244E-06  0.2776963E+04  0.7818609E-02  0.8310456E-01
        1   -1    0    0  501    0  0.00000000000E+00  0.00000000000E+00  0.85467976270E+03  0.85467976271E+03  0.50400001928E-02 0.  1.
       -1   -1    0    0    0  501  0.00000000000E+00  0.00000000000E+00 -0.22556761778E+04  0.22556761778E+04  0.50400001928E-02 0. -1.
    10030    2    1    2    0    0  0.00000000000E+00  0.00000000000E+00 -0.14009964151E+04  0.31103559405E+04  0.27769629313E+04 0.  0.
        4    1    3    3  502    0  0.68500391530E+03  0.27198027642E+03 -0.20184939821E+04  0.21488422938E+04  0.12699999809E+01 0. -1.
       -4    1    3    3    0  502 -0.68500391530E+03 -0.27198027642E+03  0.61749756701E+03  0.96151364676E+03  0.12699999809E+01 0.  1.
</event>
<event>
 5   0  0.3371603E-06  0.2754400E+04  0.7818609E-02  0.8317567E-01
       -1   -1    0    0    0  501  0.00000000000E+00  0.00000000000E+00  0.98316717198E+03  0.98316717199E+03  0.50400001928E-02 0. -1.
        1   -1    0    0  501    0  0.00000000000E+00  0.00000000000E+00 -0.19291535811E+04  0.19291535811E+04  0.50400001928E-02 0.  1.
    10030    2    1    2    0    0  0.00000000000E+00  0.00000000000E+00 -0.94598640914E+03  0.29123207531E+04  0.27544004580E+04 0.  0.
        1    1    3    3  502    0  0.58977885387E+03 -0.85472671323E+03  0.48346071654E+03  0.11454829179E+04  0.50400001928E-02 0. -1.
       -1    1    3    3    0  502 -0.58977885387E+03  0.85472671323E+03 -0.14294471257E+04  0.17668378352E+04  0.50400001928E-02 0.  1.
</event>
<event>
 5   0  0.3438130E-06  0.2738388E+04  0.7818609E-02  0.8322656E-01
        1   -1    0    0  501    0  0.00000000000E+00  0.00000000000E+00  0.21136797353E+04  0.21136797353E+04  0.50400001928E-02 0.  1.
       -1   -1    0    0    0  501  0.00000000000E+00  0.00000000000E+00 -0.88693316177E+03  0.88693316179E+03  0.50400001928E-02 0. -1.
    10030    2    1    2    0    0  0.00000000000E+00  0.00000000000E+00  0.12267465735E+04  0.30006128970E+04  0.27383883221E+04 0.  0.
        3    1    3    3  502    0 -0.67203361449E+03  0.82283319271E+02 -0.69066841272E+03  0.96717247178E+03  0.10100000352E+00 0. -1.
       -3    1    3    3    0  502  0.67203361449E+03 -0.82283319271E+02  0.19174149862E+04  0.20334404253E+04  0.10100000352E+00 0.  1.
</event>
<event>
 5   0  0.9252359E-06  0.2785556E+04  0.7818609E-02  0.8307767E-01
        2   -1    0    0  501    0  0.00000000000E+00  0.00000000000E+00  0.20371696665E+04  0.20371696665E+04  0.25500000920E-02 0. -1.
       -2   -1    0    0    0  501  0.00000000000E+00  0.00000000000E+00 -0.95221854998E+03  0.95221854998E+03  0.25500000920E-02 0.  1.
    10030    2    1    2    0    0  0.00000000000E+00  0.00000000000E+00  0.10849511165E+04  0.29893882165E+04  0.27855561354E+04 0.  0.
        5    1    3    3  502    0 -0.94659829200E+02  0.52726604906E+03 -0.83722753521E+03  0.99395271792E+03  0.46999998093E+01 0.  1.
       -5    1    3    3    0  502  0.94659829200E+02 -0.52726604906E+03  0.19221786517E+04  0.19954354986E+04  0.46999998093E+01 0. -1.
</event>
<event>
 5   0  0.9426937E-06  0.2779484E+04  0.7818609E-02  0.8309666E-01
       -2   -1    0    0    0  501  0.00000000000E+00  0.00000000000E+00  0.14747726227E+04  0.14747726227E+04  0.25500000920E-02 0.  1.
        2   -1    0    0  501    0  0.00000000000E+00  0.00000000000E+00 -0.13096141841E+04  0.13096141841E+04  0.25500000920E-02 0. -1.
    10030    2    1    2    0    0  0.00000000000E+00  0.00000000000E+00  0.16515843867E+03  0.27843868068E+04  0.27794842291E+04 0.  0.
        4    1    3    3  502    0  0.92002047343E+02 -0.20282341655E+03  0.14567786245E+04  0.14737052923E+04  0.12699999809E+01 0.  1.
       -4    1    3    3    0  502 -0.92002047343E+02  0.20282341655E+03 -0.12916201858E+04  0.13106815144E+04  0.12699999809E+01 0. -1.
</event>
<event>
 5   0  0.3600963E-06  0.2795587E+04  0.7818609E-02  0.8304640E-01
        1   -1    0    0  501    0  0.00000000000E+00  0.00000000000E+00  0.11408382273E+04  0.11408382273E+04  0.50400001928E-02 0. -1.
       -1   -1    0    0    0  501  0.00000000000E+00  0.00000000000E+00 -0.17126235496E+04  0.17126235496E+04  0.50400001928E-02 0.  1.
    10030    2    1    2    0    0  0.00000000000E+00  0.00000000000E+00 -0.57178532231E+03  0.28534617770E+04  0.27955868182E+04 0.  0.
        5    1    3    3  502    0  0.92161865564E+03  0.51903927506E+03 -0.12186054522E+04  0.16136307055E+04  0.46999998093E+01 0.  1.
       -5    1    3    3    0  502 -0.92161865564E+03 -0.51903927506E+03  0.64682012988E+03  0.12398310715E+04  0.46999998093E+01 0. -1.
</event>
<event>
 5   0  0.9426937E-06  0.2808624E+04  0.7818609E-02  0.8300596E-01
       -2   -1    0    0    0  501  0.00000000000E+00  0.00000000000E+00  0.12347776254E+04  0.12347776254E+04  0.25500000920E-02 0.  1.
        2   -1    0    0  501    0  0.00000000000E+00  0.00000000000E+00 -0.15971230847E+04  0.15971230847E+04  0.25500000920E-02 0. -1.
    10030    2    1    2    0    0  0.00000000000E+00  0.00000000000E+00 -0.36234545926E+03  0.28319007101E+04  0.28086237555E+04 0.  0.
        4    1    3    3  502    0 -0.49033739786E+03 -0.62264981683E+03  0.98773090287E+03  0.12663875819E+04  0.12699999809E+01 0.  1.
       -4    1    3    3    0  502  0.49033739786E+03  0.62264981683E+03 -0.13500763621E+04  0.15655131282E+04  0.12699999809E+01 0. -1.
</event>
<event>
 5   0  0.3438130E-06  0.2795497E+04  0.7818609E-02  0.8304668E-01
       -1   -1    0    0    0  501  0.00000000000E+00  0.00000000000E+00  0.77460364753E+03  0.77460364755E+03  0.50400001928E-02 0. -1.
        1   -1    0    0  501    0  0.00000000000E+00  0.00000000000E+00 -0.25221936599E+04  0.25221936599E+04  0.50400001928E-02 0.  1.
    10030    2    1    2    0    0  0.00000000000E+00  0.00000000000E+00 -0.17475900124E+04  0.32967973075E+04  0.27954966706E+04 0.  0.
        3    1    3    3  502    0  0.11296540917E+04 -0.88510619925E+02  0.91341956233E+02  0.11367919158E+04  0.10100000352E+00 0. -1.
       -3    1    3    3    0  502 -0.11296540917E+04  0.88510619925E+02 -0.18389319686E+04  0.21600053917E+04  0.10100000352E+00 0.  1.
</event>
<event>
 5   0  0.9342133E-06  0.2808239E+04  0.7818609E-02  0.8300715E-01
       -2   -1    0    0    0  501  0.00000000000E+00  0.00000000000E+00  0.14040461773E+04  0.14040461773E+04  0.25500000920E-02 0.  1.
        2   -1    0    0  501    0  0.00000000000E+00  0.00000000000E+00 -0.14041923425E+04  0.14041923425E+04  0.25500000920E-02 0. -1.
    10030    2    1    2    0    0  0.00000000000E+00  0.00000000000E+00 -0.14616511053E+00  0.28082385198E+04  0.28082385160E+04 0.  0.
        2    1    3    3  502    0  0.11083182104E+04 -0.41061811396E+03 -0.75807994344E+03  0.14041587132E+04  0.25500000920E-02 0. -1.
       -2    1    3    3    0  502 -0.11083182104E+04  0.41061811396E+03  0.75793377833E+03  0.14040798066E+04  0.25500000920E-02 0.  1.
</event>
<event>
 5   0  0.9260173E-06  0.2751278E+04  0.7818609E-02  0.8318556E-01
       -2   -1    0    0    0  501  0.00000000000E+00  0.00000000000E+00  0.10384307599E+04  0.10384307599E+04  0.25500000920E-02 0.  1.
        2   -1    0    0  501    0  0.00000000000E+00  0.00000000000E+00 -0.18223477700E+04  0.18223477700E+04  0.25500000920E-02 0. -1.
    10030    2    1    2    0    0  0.00000000000E+00  0.00000000000E+00 -0.78391701011E+03  0.28607785299E+04  0.27512775066E+04 0.  0.
        1    1    3    3  502    0 -0.81897744835E+03 -0.99754542636E+03  0.10296998693E+03  0.12947678390E+04  0.50400001928E-02 0.  1.
       -1    1    3    3    0  502  0.81897744835E+03  0.99754542636E+03 -0.88688699704E+03  0.15660106909E+04  0.50400001928E-02 0. -1.
</event>
<event>
 5   0  0.3357244E-06  0.2806517E+04  0.7818609E-02  0.8301248E-01
        1   -1    0    0  501    0  0.00000000000E+00  0.00000000000E+00  0.16897877264E+04  0.16897877264E+04  0.50400001928E-02 0. -1.
       -1   -1    0    0    0  501  0.00000000000E+00  0.00000000000E+00 -0.11653147672E+04  0.11653147672E+04  0.50400001928E-02 0.  1.
    10030    2    1    2    0    0  0.00000000000E+00  0.00000000000E+00  0.52447295918E+03  0.28551024936E+04  0.28065171235E+04 0.  0.
        4    1    3    3  502    0  0.73168544444E+03 -0.11322120383E+04 -0.13420881474E+03  0.13547255472E+04  0.12699999809E+01 0.  1.
       -4    1    3    3    0  502 -0.73168544444E+03  0.11322120383E+04  0.65868177392E+03  0.15003769465E+04  0.12699999809E+01 0. -1.
</event>
<event>
 5   0  0.9260173E-06  0.2764524E+04  0.7818609E-02  0.8314368E-01
        2   -1    0    0  501    0  0.00000000000E+00  0.00000000000E+00  0.22996670663E+04  0.22996670663E+04  0.25500000920E-02 0.  1.
       -2   -1    0    0    0  501  0.00000000000E+00  0.00000000000E+00 -0.83083705097E+03  0.83083705097E+03  0.25500000920E-02 0. -1.
    10030    2    1    2    0    0  0.00000000000E+00  0.00000000000E+00  0.14688300154E+04  0.31305041173E+04  0.27645242655E+04 0.  0.
        1    1    3    3  502    0  0.99178972059E+03 -0.95633182321E+03  0.60815949244E+03  0.15060130724E+04  0.50400001928E-02 0.  1.
       -1    1    3    3    0  502 -0.99178972059E+03  0.95633182321E+03  0.86067052294E+03  0.16244910449E+04  0.50400001928E-02 0. -1.
</event>
<event>
 5   0  0.3397882E-06  0.2678681E+04  0.7818609E-02  0.8341955E-01
       -1   -1    0    0    0  501  0.00000000000E+00  0.00000000000E+00  0.12971769421E+04  0.12971769421E+04  0.50400001928E-02 0. -1.
        1   -1    0    0  501    0  0.00000000000E+00  0.00000000000E+00 -0.13828750270E+04  0.13828750270E+04  0.50400001928E-02 0.  1.
    10030    2    1    2    0    0  0.00000000000E+00  0.00000000000E+00 -0.85698084935E+02  0.26800519692E+04  0.26786814659E+04 0.  0.
        2    1    3    3  502    0 -0.18134001809E+03  0.53522782004E+03 -0.12577522282E+04  0.13788740657E+04  0.25500000920E-02 0.  1.
       -2    1    3    3    0  502  0.18134001809E+03 -0.53522782004E+03  0.11720541433E+04  0.13011779034E+04  0.25500000920E-02 0. -1.
</event>
<event>
 5   0  0.9426937E-06  0.2806478E+04  0.7818609E-02  0.8301260E-01
        2   -1    0    0  501    0  0.00000000000E+00  0.00000000000E+00  0.21369769456E+04  0.21369769456E+04  0.25500000920E-02 0.  1.
       -2   -1    0    0    0  501  0.00000000000E+00  0.00000000000E+00 -0.92143227444E+03  0.92143227445E+03  0.25500000920E-02 0. -1.
    10030    2    1    2    0    0  0.00000000000E+00  0.00000000000E+00  0.12155446711E+04  0.30584092200E+04  0.28064778833E+04 0.  0.
        4    1    3    3  502    0  0.31196957548E+03  0.17807759218E+03  0.20860218740E+04  0.21167251868E+04  0.12699999809E+01 0.  1.
       -4    1    3    3    0  502 -0.31196957548E+03 -0.17807759218E+03 -0.87047720284E+03  0.94168403322E+03  0.12699999809E+01 0. -1.
</event>
<event>
 5   0  0.9065579E-06  0.2796080E+04  0.7818609E-02  0.8304486E-01
       -2   -1    0    0    0  501  0.00000000000E+00  0.00000000000E+00  0.93874782507E+03  0.93874782508E+03  0.25500000920E-02 0. -1.
        2   -1    0    0  501    0  0.00000000000E+00  0.00000000000E+00 -0.20820452081E+04  0.20820452081E+04  0.25500000920E-02 0.  1.
    10030    2    1    2    0    0  0.00000000000E+00  0.00000000000E+00 -0.11432973830E+04  0.30207930332E+04  0.27960796919E+04 0.  0.
        3    1    3    3  502    0 -0.37252838084E+03  0.76122669996E+03 -0.17728849369E+04  0.19650354940E+04  0.10100000352E+00 0.  1.
       -3    1    3    3    0  502  0.37252838084E+03 -0.76122669996E+03  0.62958755385E+03  0.10557575391E+04  0.10100000352E+00 0. -1.
</event>
<event>
 5   0  0.3397882E-06  0.2803035E+04  0.7818609E-02  0.8302327E-01
       -1   -1    0    0    0  501  0.00000000000E+00  0.00000000000E+00  0.13244110107E+04  0.13244110108E+04  0.50400001928E-02 0. -1.
        1   -1    0    0  501    0  0.00000000000E+00  0.00000000000E+00 -0.14831133884E+04  0.14831133884E+04  0.50400001928E-02 0.  1.
    10030    2    1    2    0    0  0.00000000000E+00  0.00000000000E+00 -0.15870237767E+03  0.28075243992E+04  0.28030352847E+04 0.  0.
        2    1    3    3  502    0  0.13441182584E+04 -0.12764505756E+02  0.31806490343E+03  0.13812972555E+04  0.25500000920E-02 0. -1.
       -2    1    3    3    0  502 -0.13441182584E+04  0.12764505756E+02 -0.47676728111E+03  0.14262271437E+04  0.25500000920E-02 0.  1.
</event>
<event>
 5   0  0.3357244E-06  0.2766715E+04  0.7818609E-02  0.8313677E-01
        1   -1    0    0  501    0  0.00000000000E+00  0.00000000000E+00  0.12498337843E+04  0.12498337843E+04  0.50400001928E-02 0. -1.
       -1   -1    0    0    0  501  0.00000000000E+00  0.00000000000E+00 -0.15311455584E+04  0.15311455584E+04  0.50400001928E-02 0.  1.
    10030    2    1    2    0    0  0.00000000000E+00  0.00000000000E+00 -0.28131177407E+03  0.27809793427E+04  0.27667146203E+04 0.  0.
        4    1    3    3  502    0  0.12835898516E+04  0.24535331531E+03 -0.59672941439E+03  0.14366240856E+04  0.12699999809E+01 0.  1.
       -4    1    3    3    0  502 -0.12835898516E+04 -0.24535331531E+03  0.31541764031E+03  0.13443552571E+04  0.12699999809E+01 0. -1.
</event>
<event>
 5   0  0.3438130E-06  0.2807185E+04  0.7818609E-02  0.8301041E-01
       -1   -1    0    0    0  501  0.00000000000E+00  0.00000000000E+00  0.12284868074E+04  0.12284868074E+04  0.50400001928E-02 0. -1.
        1   -1    0    0  501    0  0.00000000000E+00  0.00000000000E+00 -0.16036576575E+04  0.16036576576E+04  0.50400001928E-02 0.  1.
    10030    2    1    2    0    0  0.00000000000E+00  0.00000000000E+00 -0.37517085011E+03  0.28321444650E+04  0.28071852635E+04 0.  0.
        3    1    3    3  502    0  0.57175132253E+03 -0.81606585313E+03  0.80974278580E+03  0.12839573361E+04  0.10100000352E+00 0. -1.
       -3    1    3    3    0  502 -0.57175132253E+03  0.81606585313E+03 -0.11849136359E+04  0.15481871289E+04  0.10100000352E+00 0.  1.
</event>
<event>
 5   0  0.3438130E-06  0.2811314E+04  0.7818609E-02  0.8299764E-01
       -1   -1    0    0    0  501  0.00000000000E+00  0.00000000000E+00  0.20064193234E+04  0.20064193234E+04  0.50400001928E-02 0.  1.
        1   -1    0    0  501    0  0.00000000000E+00  0.00000000000E+00 -0.98477483646E+03  0.98477483648E+03  0.50400001928E-02 0. -1.
    10030    2    1    2    0    0  0.00000000000E+00  0.00000000000E+00  0.10216444869E+04  0.29911941599E+04  0.28113137577E+04 0.  0.
        3    1    3    3  502    0  0.12805996302E+04  0.14852743416E+03  0.11069151490E+04  0.16991930346E+04  0.10100000352E+00 0.  1.
       -3    1    3    3    0  502 -0.12805996302E+04 -0.14852743416E+03 -0.85270662091E+02  0.12920011252E+04  0.10100000352E+00 0. -1.
</event>
<event>
 5   0  0.9065579E-06  0.2805958E+04  0.7818609E-02  0.8301421E-01
        2   -1    0    0  501    0  0.00000000000E+00  0.00000000000E+00  0.19488475487E+04  0.19488475487E+04  0.25500000920E-02 0.  1.
       -2   -1    0    0    0  501  0.00000000000E+00  0.00000000000E+00 -0.10100074627E+04  0.10100074627E+04  0.25500000920E-02 0. -1.
    10030    2    1    2    0    0  0.00000000000E+00  0.00000000000E+00  0.93884008600E+03  0.29588550113E+04  0.28059583516E+04 0.  0.
        3    1    3    3  502    0  0.51062441546E+03 -0.28806160447E+03 -0.87464474314E+03  0.10529578427E+04  0.10100000352E+00 0. -1.
       -3    1    3    3    0  502 -0.51062441546E+03  0.28806160447E+03  0.18134848291E+04  0.19058971686E+04  0.10100000352E+00 0.  1.
</event>
<event>
 5   0  0.9252359E-06  0.2787637E+04  0.7818609E-02  0.8307117E-01
        2   -1    0    0  501    0  0.00000000000E+00  0.00000000000E+00  0.79760699049E+03  0.79760699050E+03  0.25500000920E-02 0.  1.
       -2   -1    0    0    0  501  0.00000000000E+00  0.00000000000E+00 -0.24356991851E+04  0.24356991851E+04  0.25500000920E-02 0. -1.
    10030    2    1    2    0    0  0.00000000000E+00  0.00000000000E+00 -0.16380921946E+04  0.32333061756E+04  0.27876374921E+04 0.  0.
        5    1    3    3  502    0 -0.79793242853E+03 -0.38730340721E+03 -0.20661167290E+04  0.22484573640E+04  0.46999998093E+01 0. -1.
       -5    1    3    3    0  502  0.79793242853E+03  0.38730340721E+03  0.42802453439E+03  0.98484881163E+03  0.46999998093E+01 0.  1.
</event>
<event>
 5   0  0.9342133E-06  0.2755592E+04  0.7818609E-02  0.8317189E-01
       -2   -1    0    0    0  501  0.00000000000E+00  0.00000000000E+00  0.12556788089E+04  0.12556788089E+04  0.25500000920E-02 0. -1.
        2   -1    0    0  501    0  0.00000000000E+00  0.00000000000E+00 -0.15117893817E+04  0.15117893817E+04  0.25500000920E-02 0.  1.
    10030    2    1    2    0    0  0.00000000000E+00  0.00000000000E+00 -0.25611057287E+03  0.27674681906E+04  0.27555920526E+04 0.  0.
        2    1    3    3  502    0 -0.69868053750E+03  0.10655140591E+04  0.39846288228E+03  0.13350083790E+04  0.25500000920E-02 0. -1.
       -2    1    3    3    0  502  0.69868053750E+03 -0.10655140591E+04 -0.65457345515E+03  0.14324598116E+04  0.25500000920E-02 0.  1.
</event>
<event>
 5   0  0.3438130E-06  0.2800517E+04  0.7818609E-02  0.8303108E-01
       -1   -1    0    0    0  501  0.00000000000E+00  0.00000000000E+00  0.16086483611E+04  0.16086483611E+04  0.50400001928E-02 0.  1.
        1   -1    0    0  501    0  0.00000000000E+00  0.00000000000E+00 -0.12188640618E+04  0.12188640618E+04  0.50400001928E-02 0. -1.
    10030    2    1    2    0    0  0.00000000000E+00  0.00000000000E+00  0.38978429931E+03  0.28275124229E+04  0.28005168634E+04 0.  0.
        3    1    3    3  502    0 -0.11720462232E+04 -0.64570144115E+03 -0.22151647693E+03  0.13563525575E+04  0.10100000352E+00 0. -1.
       -3    1    3    3    0  502  0.11720462232E+04  0.64570144115E+03  0.61130077624E+03  0.14711598654E+04  0.10100000352E+00 0.  1.
</event>
<event>
 5   0  0.9342133E-06  0.2779656E+04  0.7818609E-02  0.8309612E-01
       -2   -1    0    0    0  501  0.00000000000E+00  0.00000000000E+00  0.19420826341E+04  0.19420826341E+04  0.25500000920E-02 0.  1.
        2   -1    0    0  501    0  0.00000000000E+00  0.00000000000E+00 -0.99461397331E+03  0.99461397331E+03  0.25500000920E-02 0. -1.
    10030    2    1    2    0    0  0.00000000000E+00  0.00000000000E+00  0.94746866080E+03  0.29366966074E+04  0.27796564717E+04 0.  0.
        2    1    3    3  502    0 -0.11292436606E+04 -0.80516628362E+03  0.37842375305E+03  0.14375981796E+04  0.25500000920E-02 0.  1.
       -2    1    3    3    0  502  0.11292436606E+04  0.80516628362E+03  0.56904490774E+03  0.14990984278E+04  0.25500000920E-02 0. -1.
</event>
<event>
 5   0  0.3371603E-06  0.2856598E+04  0.7818609E-02  0.8285909E-01
        1   -1    0    0  501    0  0.00000000000E+00  0.00000000000E+00  0.21606966173E+04  0.21606966173E+04  0.50400001928E-02 0. -1.
       -1   -1    0    0    0  501  0.00000000000E+00  0.00000000000E+00 -0.94415784021E+03  0.94415784022E+03  0.50400001928E-02 0.  1.
    10030    2    1    2    0    0  0.00000000000E+00  0.00000000000E+00  0.12165387771E+04  0.31048544576E+04  0.28565984328E+04 0.  0.
        1    1    3    3  502    0 -0.40144689069E+03 -0.36307643424E+03  0.20449005625E+04  0.21153256047E+04  0.50400001928E-02 0. -1.
       -1    1    3    3    0  502  0.40144689069E+03  0.36307643424E+03 -0.82836178540E+03  0.98952885288E+03  0.50400001928E-02 0.  1.
</event>
<event>
 5   0  0.3600963E-06  0.2782924E+04  0.7818609E-02  0.8308590E-01
        1   -1    0    0  501    0  0.00000000000E+00  0.00000000000E+00  0.14205613746E+04  0.14205613746E+04  0.50400001928E-02 0. -1.
       -1   -1    0    0    0  501  0.00000000000E+00  0.00000000000E+00 -0.13629582639E+04  0.13629582639E+04  0.50400001928E-02 0.  1.
    10030    2    1    2    0    0  0.00000000000E+00  0.00000000000E+00  0.57603110747E+02  0.27835196385E+04  0.27829235454E+04 0.  0.
        5    1    3    3  502    0 -0.11800176987E+04 -0.71347274666E+03 -0.15740664681E+03  0.13879063628E+04  0.46999998093E+01 0.  1.
       -5    1    3    3    0  502  0.11800176987E+04  0.71347274666E+03  0.21500975756E+03  0.13956132757E+04  0.46999998093E+01 0. -1.
</event>
<event>
 5   0  0.9426937E-06  0.2786934E+04  0.7818609E-02  0.8307336E-01
       -2   -1    0    0    0  501  0.00000000000E+00  0.00000000000E+00  0.94341282101E+03  0.94341282101E+03  0.25500000920E-02 0.  1.
        2   -1    0    0  501    0  0.00000000000E+00  0.00000000000E+00 -0.20582197931E+04  0.20582197931E+04  0.25500000920E-02 0. -1.
    10030    2    1    2    0    0  0.00000000000E+00  0.00000000000E+00 -0.11148069721E+04  0.30016326141E+04  0.27869344745E+04 0.  0.
        4    1    3    3  502    0  0.12206555759E+04  0.32473131639E+03  0.76402464286E+02  0.12654206463E+04  0.12699999809E+01 0.  1.
       -4    1    3    3    0  502 -0.12206555759E+04 -0.32473131639E+03 -0.11912094363E+04  0.17362119677E+04  0.12699999809E+01 0. -1.
</event>
<event>
 5   0  0.3438130E-06  0.2851256E+04  0.7818609E-02  0.8287530E-01
        1   -1    0    0  501    0  0.00000000000E+00  0.00000000000E+00  0.20524857037E+04  0.20524857037E+04  0.50400001928E-02 0. -1.
       -1   -1    0    0    0  501  0.00000000000E+00  0.00000000000E+00 -0.99022130676E+03  0.99022130677E+03  0.50400001928E-02 0.  1.
    10030    2    1    2    0    0  0.00000000000E+00  0.00000000000E+00  0.10622643969E+04  0.30427070104E+04  0.28512559167E+04 0.  0.
        3    1    3    3  502    0  0.83389534166E+03  0.10722243679E+04  0.99305804125E+03  0.16826202243E+04  0.10100000352E+00 0. -1.
       -3    1    3    3    0  502 -0.83389534166E+03 -0.10722243679E+04  0.69206355660E+02  0.13600867861E+04  0.10100000352E+00 0.  1.
</event>
<event>
 5   0  0.3371603E-06  0.2844380E+04  0.7818609E-02  0.8289621E-01
        1   -1    0    0  501    0  0.00000000000E+00  0.00000000000E+00  0.97036176130E+03  0.97036176132E+03  0.50400001928E-02 0. -1.
       -1   -1    0    0    0  501  0.00000000000E+00  0.00000000000E+00 -0.20844018692E+04  0.20844018692E+04  0.50400001928E-02 0.  1.
    10030    2    1    2    0    0  0.00000000000E+00  0.00000000000E+00 -0.11140401079E+04  0.30547636305E+04  0.28443796294E+04 0.  0.
        1    1    3    3  502    0  0.68862591716E+03 -0.10489047905E+04  0.16198872387E+03  0.12651668902E+04  0.50400001928E-02 0. -1.
       -1    1    3    3    0  502 -0.68862591716E+03  0.10489047905E+04 -0.12760288317E+04  0.17895967403E+04  0.50400001928E-02 0.  1.
</event>
<event>
 5   0  0.3397882E-06  0.2792648E+04  0.7818609E-02  0.8305554E-01
       -1   -1    0    0    0  501  0.00000000000E+00  0.00000000000E+00  0.12200683307E+04  0.12200683307E+04  0.50400001928E-02 0. -1.
        1   -1    0    0  501    0  0.00000000000E+00  0.00000000000E+00 -0.15980422852E+04  0.15980422852E+04  0.50400001928E-02 0.  1.
    10030    2    1    2    0    0  0.00000000000E+00  0.00000000000E+00 -0.37797395445E+03  0.28181106159E+04  0.27926480504E+04 0.  0.
        2    1    3    3  502    0 -0.11537070207E+04 -0.56649418043E+03 -0.73964101356E+03  0.14829107778E+04  0.25500000920E-02 0. -1.
       -2    1    3    3    0  502  0.11537070207E+04  0.56649418043E+03  0.36166705910E+03  0.13351998381E+04  0.25500000920E-02 0.  1.
</event>
<event>
 5   0  0.3357244E-06  0.2841792E+04  0.7818609E-02  0.8290410E-01
       -1   -1    0    0    0  501  0.00000000000E+00  0.00000000000E+00  0.75565654382E+03  0.75565654383E+03  0.50400001928E-02 0.  1.
        1   -1    0    0  501    0  0.00000000000E+00  0.00000000000E+00 -0.26717772503E+04  0.26717772503E+04  0.50400001928E-02 0. -1.
    10030    2    1    2    0    0  0.00000000000E+00  0.00000000000E+00 -0.19161207064E+04  0.34274337941E+04  0.28417923660E+04 0.  0.
        4    1    3    3  502    0  0.51073408105E+03  0.75619246243E+03 -0.22716754786E+04  0.24480987387E+04  0.12699999809E+01 0. -1.
       -4    1    3    3    0  502 -0.51073408105E+03 -0.75619246243E+03  0.35555477212E+03  0.97933505536E+03  0.12699999809E+01 0.  1.
</event>
<event>
 5   0  0.3006875E-06  0.2777594E+04  0.7818609E-02  0.8310258E-01
        3   -1    0    0  501    0  0.00000000000E+00  0.00000000000E+00  0.11967609435E+04  0.11967609477E+04  0.10100000352E+00 0. -1.
       -3   -1    0    0    0  501  0.00000000000E+00  0.00000000000E+00 -0.16116480875E+04  0.16116480907E+04  0.10100000352E+00 0.  1.
    10030    2    1    2    0    0  0.00000000000E+00  0.00000000000E+00 -0.41488714404E+03  0.28084090384E+04  0.27775942801E+04 0.  0.
        1    1    3    3  502    0  0.10240568017E+04 -0.18132823926E+03 -0.11380814856E+04  0.15416879487E+04  0.50400001928E-02 0.  1.
       -1    1    3    3    0  502 -0.10240568017E+04  0.18132823926E+03  0.72319434151E+03  0.12667210897E+04  0.50400001928E-02 0. -1.
</event>
<event>
 5   0  0.9260173E-06  0.2826646E+04  0.7818609E-02  0.8295043E-01
        2   -1    0    0  501    0  0.00000000000E+00  0.00000000000E+00  0.75593734882E+03  0.75593734883E+03  0.25500000920E-02 0.  1.
       -2   -1    0    0    0  501  0.00000000000E+00  0.00000000000E+00 -0.26423906795E+04  0.26423906795E+04  0.25500000920E-02 0. -1.
    10030    2    1    2    0    0  0.00000000000E+00  0.00000000000E+00 -0.18864533306E+04  0.33983280283E+04  0.28266459310E+04 0.  0.
        1    1    3    3  502    0  0.11010957364E+04  0.54810132219E+03 -0.17801972612E+04  0.21637765987E+04  0.50400001928E-02 0. -1.
       -1    1    3    3    0  502 -0.11010957364E+04 -0.54810132219E+03 -0.10625606945E+03  0.12345514296E+04  0.50400001928E-02 0.  1.
</event>
<event>
 5   0  0.3397882E-06  0.2836399E+04  0.7818609E-02  0.8292056E-01
        1   -1    0    0  501    0  0.00000000000E+00  0.00000000000E+00  0.24484899044E+04  0.24484899044E+04  0.50400001928E-02 0. -1.
       -1   -1    0    0    0  501  0.00000000000E+00  0.00000000000E+00 -0.82144090837E+03  0.82144090838E+03  0.50400001928E-02 0.  1.
    10030    2    1    2    0    0  0.00000000000E+00  0.00000000000E+00  0.16270489960E+04  0.32699308128E+04  0.28363989643E+04 0.  0.
        2    1    3    3  502    0 -0.13481871009E+04 -0.44004424856E+03  0.80602022186E+03  0.16312314360E+04  0.25500000920E-02 0. -1.
       -2    1    3    3    0  502  0.13481871009E+04  0.44004424856E+03  0.82102877419E+03  0.16386993768E+04  0.25500000920E-02 0.  1.
</event>
<event>
 5   0  0.9065579E-06  0.2794744E+04  0.7818609E-02  0.8304902E-01
       -2   -1    0    0    0  501  0.00000000000E+00  0.00000000000E+00  0.13157580869E+04  0.13157580869E+04  0.25500000920E-02 0.  1.
        2   -1    0    0  501    0  0.00000000000E+00  0.00000000000E+00 -0.14840483105E+04  0.14840483105E+04  0.25500000920E-02 0. -1.
    10030    2    1    2    0    0  0.00000000000E+00  0.00000000000E+00 -0.16829022357E+03  0.27998063973E+04  0.27947440425E+04 0.  0.
        3    1    3    3  502    0 -0.72373307584E+02  0.82830298829E+03  0.10409764130E+04  0.13322746108E+04  0.10100000352E+00 0.  1.
       -3    1    3    3    0  502  0.72373307584E+02 -0.82830298829E+03 -0.12092666365E+04  0.14675317865E+04  0.10100000352E+00 0. -1.
</event>
<event>
 5   0  0.3357244E-06  0.2823240E+04  0.7818609E-02  0.8296089E-01
       -1   -1    0    0    0  501  0.00000000000E+00  0.00000000000E+00  0.14134046820E+04  0.14134046821E+04  0.50400001928E-02 0.  1.
        1   -1    0    0  501    0  0.00000000000E+00  0.00000000000E+00 -0.14098376885E+04  0.14098376885E+04  0.50400001928E-02 0. -1.
    10030    2    1    2    0    0  0.00000000000E+00  0.00000000000E+00  0.35669935674E+01  0.28232423705E+04  0.28232401172E+04 0.  0.
        4    1    3    3  502    0 -0.17034692586E+03 -0.78232884622E+03  0.11643733796E+04  0.14130900463E+04  0.12699999809E+01 0.  1.
       -4    1    3    3    0  502  0.17034692586E+03  0.78232884622E+03 -0.11608063861E+04  0.14101523243E+04  0.12699999809E+01 0. -1.
</event>
<event>
 5   0  0.9260173E-06  0.2736313E+04  0.7818609E-02  0.8323318E-01
        2   -1    0    0  501    0  0.00000000000E+00  0.00000000000E+00  0.24062551958E+04  0.24062551958E+04  0.25500000920E-02 0. -1.
       -2   -1    0    0    0  501  0.00000000000E+00  0.00000000000E+00 -0.77791076536E+03  0.77791076536E+03  0.25500000920E-02 0.  1.
    10030    2    1    2    0    0  0.00000000000E+00  0.00000000000E+00  0.16283444304E+04  0.31841659611E+04  0.27363127168E+04 0.  0.
        1    1    3    3  502    0  0.62983768584E+03 -0.30756414318E+03  0.21814529839E+04  0.22912940304E+04  0.50400001928E-02 0. -1.
       -1    1    3    3    0  502 -0.62983768584E+03  0.30756414318E+03 -0.55310855351E+03  0.89287193072E+03  0.50400001928E-02 0.  1.
</event>
<event>
 5   0  0.3438130E-06  0.2799986E+04  0.7818609E-02  0.8303273E-01
        1   -1    0    0  501    0  0.00000000000E+00  0.00000000000E+00  0.11662599357E+04  0.11662599357E+04  0.50400001928E-02 0.  1.
       -1   -1    0    0    0  501  0.00000000000E+00  0.00000000000E+00 -0.16805688040E+04  0.16805688040E+04  0.50400001928E-02 0. -1.
    10030    2    1    2    0    0  0.00000000000E+00  0.00000000000E+00 -0.51430886838E+03  0.28468287397E+04  0.27999857609E+04 0.  0.
        3    1    3    3  502    0 -0.73868670224E+03 -0.11246074581E+04  0.13607171805E+03  0.13523740243E+04  0.10100000352E+00 0.  1.
       -3    1    3    3    0  502  0.73868670224E+03  0.11246074581E+04 -0.65038058643E+03  0.14944547154E+04  0.10100000352E+00 0. -1.
</event>
<event>
 5   0  0.9426937E-06  0.2817891E+04  0.7818609E-02  0.8297736E-01
        2   -1    0    0  501    0  0.00000000000E+00  0.00000000000E+00  0.11111683584E+04  0.11111683584E+04  0.25500000920E-02 0. -1.
       -2   -1    0    0    0  501  0.00000000000E+00  0.00000000000E+00 -0.17865220233E+04  0.17865220233E+04  0.25500000920E-02 0.  1.
    10030    2    1    2    0    0  0.00000000000E+00  0.00000000000E+00 -0.67535366488E+03  0.28976903817E+04  0.28178905187E+04 0.  0.
        4    1    3    3  502    0  0.29529160999E+03  0.53576401921E+03  0.96747224376E+03  0.11446590648E+04  0.12699999809E+01 0. -1.
       -4    1    3    3    0  502 -0.29529160999E+03 -0.53576401921E+03 -0.16428259086E+04  0.17530313169E+04  0.12699999809E+01 0.  1.
</event>
<event>
 5   0  0.9426937E-06  0.2700873E+04  0.7818609E-02  0.8334722E-01
       -2   -1    0    0    0  501  0.00000000000E+00  0.00000000000E+00  0.89789177115E+03  0.89789177116E+03  0.25500000920E-02 0. -1.
        2   -1    0    0  501    0  0.00000000000E+00  0.00000000000E+00 -0.20310679522E+04  0.20310679522E+04  0.25500000920E-02 0.  1.
    10030    2    1    2    0    0  0.00000000000E+00  0.00000000000E+00 -0.11331761811E+04  0.29289597234E+04  0.27008733409E+04 0.  0.
        4    1    3    3  502    0 -0.93351676669E+02 -0.52267449725E+03  0.77995296613E+03  0.94352075117E+03  0.12699999809E+01 0. -1.
       -4    1    3    3    0  502  0.93351676669E+02  0.52267449725E+03 -0.19131291472E+04  0.19854389722E+04  0.12699999809E+01 0.  1.
</event>
<event>
 5   0  0.9252359E-06  0.2831766E+04  0.7818609E-02  0.8293474E-01
       -2   -1    0    0    0  501  0.00000000000E+00  0.00000000000E+00  0.84407469389E+03  0.84407469389E+03  0.25500000920E-02 0.  1.
        2   -1    0    0  501    0  0.00000000000E+00  0.00000000000E+00 -0.23750556461E+04  0.23750556461E+04  0.25500000920E-02 0. -1.
    10030    2    1    2    0    0  0.00000000000E+00  0.00000000000E+00 -0.15309809522E+04  0.32191303400E+04  0.28317657865E+04 0.  0.
        5    1    3    3  502    0  0.68087578748E+02  0.20462732058E+03  0.82528574606E+03  0.85301049897E+03  0.46999998093E+01 0.  1.
       -5    1    3    3    0  502 -0.68087578748E+02 -0.20462732058E+03 -0.23562666983E+04  0.23661198410E+04  0.46999998093E+01 0. -1.
</event>
<event>
 5   0  0.9342133E-06  0.2791149E+04  0.7818609E-02  0.8306022E-01
       -2   -1    0    0    0  501  0.00000000000E+00  0.00000000000E+00  0.18264190322E+04  0.18264190322E+04  0.25500000920E-02 0. -1.
        2   -1    0    0  501    0  0.00000000000E+00  0.00000000000E+00 -0.10663641272E+04  0.10663641272E+04  0.25500000920E-02 0.  1.
    10030    2    1    2    0    0  0.00000000000E+00  0.00000000000E+00  0.76005490499E+03  0.28927831594E+04  0.27911486790E+04 0.  0.
        2    1    3    3  502    0 -0.10648114466E+04  0.73530784590E+03 -0.16161785093E+03  0.13040787457E+04  0.25500000920E-02 0. -1.
       -2    1    3    3    0  502  0.10648114466E+04 -0.73530784590E+03  0.92167275592E+03  0.15887044137E+04  0.25500000920E-02 0.  1.
</event>
<event>
 5   0  0.9065579E-06  0.2798486E+04  0.7818609E-02  0.8303739E-01
       -2   -1    0    0    0  501  0.00000000000E+00  0.00000000000E+00  0.12649610635E+04  0.12649610635E+04  0.25500000920E-02 0.  1.
        2   -1    0    0  501    0  0.00000000000E+00  0.00000000000E+00 -0.15477795583E+04  0.15477795583E+04  0.25500000920E-02 0. -1.
    10030    2    1    2    0    0  0.00000000000E+00  0.00000000000E+00 -0.28281849478E+03  0.28127406218E+04  0.27984859308E+04 0.  0.
        3    1    3    3  502    0  0.34451577637E+03 -0.12963678783E+04 -0.54170928035E+03  0.14466201128E+04  0.10100000352E+00 0.  1.
       -3    1    3    3    0  502 -0.34451577637E+03  0.12963678783E+04  0.25889078558E+03  0.13661205090E+04  0.10100000352E+00 0. -1.
</event>
<event>
 5   0  0.9065579E-06  0.2782929E+04  0.7818609E-02  0.8308588E-01
        2   -1    0    0  501    0  0.00000000000E+00  0.00000000000E+00  0.13874110991E+04  0.13874110991E+04  0.25500000920E-02 0.  1.
       -2   -1    0    0    0  501  0.00000000000E+00  0.00000000000E+00 -0.13955295633E+04  0.13955295633E+04  0.25500000920E-02 0. -1.
    10030    2    1    2    0    0  0.00000000000E+00  0.00000000000E+00 -0.81184642491E+01  0.27829406624E+04  0.27829288207E+04 0.  0.
        3    1    3    3  502    0 -0.67164177137E+03  0.80021754134E+02  0.12119504836E+04  0.13879229572E+04  0.10100000352E+00 0.  1.
       -3    1    3    3    0  502  0.67164177137E+03 -0.80021754134E+02 -0.12200689478E+04  0.13950177052E+04  0.10100000352E+00 0. -1.
</event>
<event>
 5   0  0.9342133E-06  0.2807565E+04  0.7818609E-02  0.8300924E-01
       -2   -1    0    0    0  501  0.00000000000E+00  0.00000000000E+00  0.10574454558E+04  0.10574454558E+04  0.25500000920E-02 0. -1.
        2   -1    0    0  501    0  0.00000000000E+00  0.00000000000E+00 -0.18635521624E+04  0.18635521624E+04  0.25500000920E-02 0.  1.
    10030    2    1    2    0    0  0.00000000000E+00  0.00000000000E+00 -0.80610670658E+03  0.29209976182E+04  0.28075646143E+04 0.  0.
        2    1    3    3  502    0 -0.90747428844E+03 -0.16534789842E+03 -0.15039916959E+04  0.17643243843E+04  0.25500000920E-02 0.  1.
       -2    1    3    3    0  502  0.90747428844E+03  0.16534789842E+03  0.69788498933E+03  0.11566732339E+04  0.25500000920E-02 0. -1.
</event>
<event>
 5   0  0.3397882E-06  0.2816467E+04  0.7818609E-02  0.8298174E-01
       -1   -1    0    0    0  501  0.00000000000E+00  0.00000000000E+00  0.11638737008E+04  0.11638737008E+04  0.50400001928E-02 0. -1.
        1   -1    0    0  501    0  0.00000000000E+00  0.00000000000E+00 -0.17038980187E+04  0.17038980187E+04  0.50400001928E-02 0.  1.
    10030    2    1    2    0    0  0.00000000000E+00  0.00000000000E+00 -0.54002431792E+03  0.28677717195E+04  0.28164673566E+04 0.  0.
        2    1    3    3  502    0  0.56154342618E+03 -0.98230777580E+03 -0.11236527231E+04  0.15946331955E+04  0.25500000920E-02 0.  1.
       -2    1    3    3    0  502 -0.56154342618E+03  0.98230777580E+03  0.58362840521E+03  0.12731385240E+04  0.25500000920E-02 0. -1.
</event>
<event>
 5   0  0.9065579E-06  0.2813607E+04  0.7818609E-02  0.8299056E-01
        2   -1    0    0  501    0  0.00000000000E+00  0.00000000000E+00  0.12941008557E+04  0.12941008557E+04  0.25500000920E-02 0. -1.
       -2   -1    0    0    0  501  0.00000000000E+00  0.00000000000E+00 -0.15293213602E+04  0.15293213602E+04  0.25500000920E-02 0.  1.
    10030    2    1    2    0    0  0.00000000000E+00  0.00000000000E+00 -0.23522050452E+03  0.28234222159E+04  0.28136069952E+04 0.  0.
        3    1    3    3  502    0  0.44506177446E+03  0.93421410263E+03  0.83874117440E+03  0.13320370642E+04  0.10100000352E+00 0. -1.
       -3    1    3    3    0  502 -0.44506177446E+03 -0.93421410263E+03 -0.10739616789E+04  0.14913851517E+04  0.10100000352E+00 0.  1.
</event>
<event>
 5   0  0.3371603E-06  0.2802892E+04  0.7818609E-02  0.8302371E-01
        1   -1    0    0  501    0  0.00000000000E+00  0.00000000000E+00  0.20064643921E+04  0.20064643921E+04  0.50400001928E-02 0.  1.
       -1   -1    0    0    0  501  0.00000000000E+00  0.00000000000E+00 -0.97886170628E+03  0.97886170629E+03  0.50400001928E-02 0. -1.
    10030    2    1    2    0    0  0.00000000000E+00  0.00000000000E+00  0.10276026858E+04  0.29853260984E+04  0.28028921909E+04 0.  0.
        1    1    3    3  502    0 -0.68075852280E+03  0.97578305050E+03  0.13025895513E+04  0.17641780713E+04  0.50400001928E-02 0.  1.
       -1    1    3    3    0  502  0.68075852280E+03 -0.97578305050E+03 -0.27498686544E+03  0.12211480271E+04  0.50400001928E-02 0. -1.
</event>
<event>
 5   0  0.9260173E-06  0.2795886E+04  0.7818609E-02  0.8304547E-01
        2   -1    0    0  501    0  0.00000000000E+00  0.00000000000E+00  0.20229508669E+04  0.20229508669E+04  0.25500000920E-02 0.  1.
       -2   -1    0    0    0  501  0.00000000000E+00  0.00000000000E+00 -0.96603641051E+03  0.96603641052E+03  0.25500000920E-02 0. -1.
    10030    2    1    2    0    0  0.00000000000E+00  0.00000000000E+00  0.10569144563E+04  0.29889872774E+04  0.27958856873E+04 0.  0.
        1    1    3    3  502    0 -0.22212870443E+03 -0.12854044146E+04 -0.88892948584E+01  0.13044863702E+04  0.50400001928E-02 0. -1.
       -1    1    3    3    0  502  0.22212870443E+03  0.12854044146E+04  0.10658037512E+04  0.16845009072E+04  0.50400001928E-02 0.  1.
</event>
<event>
 5   0  0.9342133E-06  0.2772943E+04  0.7818609E-02  0.8311718E-01
        2   -1    0    0  501    0  0.00000000000E+00  0.00000000000E+00  0.72600994105E+03  0.72600994105E+03  0.25500000920E-02 0. -1.
       -2   -1    0    0    0  501  0.00000000000E+00  0.00000000000E+00 -0.26477652333E+04  0.26477652333E+04  0.25500000920E-02 0.  1.
    10030    2    1    2    0    0  0.00000000000E+00  0.00000000000E+00 -0.19217552923E+04  0.33737751744E+04  0.27729434765E+04 0.  0.
        2    1    3    3  502    0  0.17667897145E+03 -0.11620628973E+04 -0.18555264818E+04  0.21964936059E+04  0.25500000920E-02 0.  1.
       -2    1    3    3    0  502 -0.17667897145E+03  0.11620628973E+04 -0.66228810489E+02  0.11772815685E+04  0.25500000920E-02 0. -1.
</event>
<event>
 5   0  0.3357244E-06  0.2791274E+04  0.7818609E-02  0.8305982E-01
        1   -1    0    0  501    0  0.00000000000E+00  0.00000000000E+00  0.17650287786E+04  0.17650287786E+04  0.50400001928E-02 0. -1.
       -1   -1    0    0    0  501  0.00000000000E+00  0.00000000000E+00 -0.11035532565E+04  0.11035532565E+04  0.50400001928E-02 0.  1.
    10030    2    1    2    0    0  0.00000000000E+00  0.00000000000E+00  0.66147552214E+03  0.28685820351E+04  0.27912744447E+04 0.  0.
        4    1    3    3  502    0 -0.82798976528E+03 -0.63331414904E+03  0.12844197444E+04  0.16542036016E+04  0.12699999809E+01 0. -1.
       -4    1    3    3    0  502  0.82798976528E+03  0.63331414904E+03 -0.62294422229E+03  0.12143784335E+04  0.12699999809E+01 0.  1.
</event>
<event>
 5   0  0.9252359E-06  0.2806653E+04  0.7818609E-02  0.8301206E-01
        2   -1    0    0  501    0  0.00000000000E+00  0.00000000000E+00  0.19480903780E+04  0.19480903780E+04  0.25500000920E-02 0. -1.
       -2   -1    0    0    0  501  0.00000000000E+00  0.00000000000E+00 -0.10109005347E+04  0.10109005347E+04  0.25500000920E-02 0.  1.
    10030    2    1    2    0    0  0.00000000000E+00  0.00000000000E+00  0.93718984334E+03  0.29589909127E+04  0.28066532417E+04 0.  0.
        5    1    3    3  502    0  0.12565624266E+04  0.51305656498E+03  0.84449668130E+03  0.15985533790E+04  0.46999998093E+01 0.  1.
       -5    1    3    3    0  502 -0.12565624266E+04 -0.51305656498E+03  0.92693162047E+02  0.13604375337E+04  0.46999998093E+01 0. -1.
</event>
<event>
 5   0  0.3438130E-06  0.2799710E+04  0.7818609E-02  0.8303358E-01
       -1   -1    0    0    0  501  0.00000000000E+00  0.00000000000E+00  0.74026735892E+03  0.74026735893E+03  0.50400001928E-02 0. -1.
        1   -1    0    0  501    0  0.00000000000E+00  0.00000000000E+00 -0.26471430091E+04  0.26471430091E+04  0.50400001928E-02 0.  1.
    10030    2    1    2    0    0  0.00000000000E+00  0.00000000000E+00 -0.19068756502E+04  0.33874103681E+04  0.27997096736E+04 0.  0.
        3    1    3    3  502    0 -0.79017683982E+02 -0.27805874292E+03  0.70376270033E+03  0.76081693427E+03  0.10100000352E+00 0. -1.
       -3    1    3    3    0  502  0.79017683982E+02  0.27805874292E+03 -0.26106383506E+04  0.26265934338E+04  0.10100000352E+00 0.  1.
</event>
<event>
 5   0  0.3438130E-06  0.2869624E+04  0.7818609E-02  0.8281973E-01
       -1   -1    0    0    0  501  0.00000000000E+00  0.00000000000E+00  0.13473224676E+04  0.13473224676E+04  0.50400001928E-02 0. -1.
        1   -1    0    0  501    0  0.00000000000E+00  0.00000000000E+00 -0.15279823438E+04  0.15279823438E+04  0.50400001928E-02 0.  1.
    10030    2    1    2    0    0  0.00000000000E+00  0.00000000000E+00 -0.18065987620E+03  0.28753048113E+04  0.28696236281E+04 0.  0.
        3    1    3    3  502    0  0.11815825034E+04 -0.60940647001E+03  0.45034141999E+03  0.14036811828E+04  0.10100000352E+00 0.  1.
       -3    1    3    3    0  502 -0.11815825034E+04  0.60940647001E+03 -0.63100129620E+03  0.14716236286E+04  0.10100000352E+00 0. -1.
</event>
<event>
 5   0  0.3357244E-06  0.2789440E+04  0.7818609E-02  0.8306554E-01
       -1   -1    0    0    0  501  0.00000000000E+00  0.00000000000E+00  0.11875915919E+04  0.11875915919E+04  0.50400001928E-02 0. -1.
        1   -1    0    0  501    0  0.00000000000E+00  0.00000000000E+00 -0.16379740214E+04  0.16379740214E+04  0.50400001928E-02 0.  1.
    10030    2    1    2    0    0  0.00000000000E+00  0.00000000000E+00 -0.45038242944E+03  0.28255656133E+04  0.27894402131E+04 0.  0.
        4    1    3    3  502    0 -0.45607258580E+03 -0.13083383357E+04 -0.38691843654E+03  0.14385613972E+04  0.12699999809E+01 0. -1.
       -4    1    3    3    0  502  0.45607258580E+03  0.13083383357E+04 -0.63463992899E+02  0.13870042161E+04  0.12699999809E+01 0.  1.
</event>
<event>
 5   0  0.9426937E-06  0.2773207E+04  0.7818609E-02  0.8311635E-01
       -2   -1    0    0    0  501  0.00000000000E+00  0.00000000000E+00  0.11673889544E+04  0.11673889544E+04  0.25500000920E-02 0. -1.
        2   -1    0    0  501    0  0.00000000000E+00  0.00000000000E+00 -0.16469820994E+04  0.16469820994E+04  0.25500000920E-02 0.  1.
    10030    2    1    2    0    0  0.00000000000E+00  0.00000000000E+00 -0.47959314501E+03  0.28143710539E+04  0.27732065996E+04 0.  0.
        4    1    3    3  502    0  0.80810502436E+03  0.11185381781E+04 -0.37785153690E+03  0.14307112857E+04  0.12699999809E+01 0. -1.
       -4    1    3    3    0  502 -0.80810502436E+03 -0.11185381781E+04 -0.10174160812E+03  0.13836597681E+04  0.12699999809E+01 0.  1.
</event>
<event>
 5   0  0.9342133E-06  0.2795027E+04  0.7818609E-02  0.8304814E-01
        2   -1    0    0  501    0  0.00000000000E+00  0.00000000000E+00  0.15966907136E+04  0.15966907136E+04  0.25500000920E-02 0.  1.
       -2   -1    0    0    0  501  0.00000000000E+00  0.00000000000E+00 -0.12231824185E+04  0.12231824185E+04  0.25500000920E-02 0. -1.
    10030    2    1    2    0    0  0.00000000000E+00  0.00000000000E+00  0.37350829506E+03  0.28198731321E+04  0.27950270186E+04 0.  0.
        2    1    3    3  502    0  0.61829902553E+03 -0.85649331394E+03  0.11098573655E+04  0.15322068573E+04  0.25500000920E-02 0.  1.
       -2    1    3    3    0  502 -0.61829902553E+03  0.85649331394E+03 -0.73634907041E+03  0.12876662748E+04  0.25500000920E-02 0. -1.
</event>
<event>
 5   0  0.9426937E-06  0.2799739E+04  0.7818609E-02  0.8303349E-01
       -2   -1    0    0    0  501  0.00000000000E+00  0.00000000000E+00  0.11574908592E+04  0.11574908592E+04  0.25500000920E-02 0.  1.
        2   -1    0    0  501    0  0.00000000000E+00  0.00000000000E+00 -0.16930020559E+04  0.16930020559E+04  0.25500000920E-02 0. -1.
    10030    2    1    2    0    0  0.00000000000E+00  0.00000000000E+00 -0.53551119667E+03  0.28504929152E+04  0.27997388481E+04 0.  0.
        4    1    3    3  502    0  0.57192358545E+02 -0.17546532761E+02  0.11561882259E+04  0.11577355800E+04  0.12699999809E+01 0.  1.
       -4    1    3    3    0  502 -0.57192358545E+02  0.17546532761E+02 -0.16916994225E+04  0.16927573352E+04  0.12699999809E+01 0. -1.
</event>
<event>
 5   0  0.9260173E-06  0.3044490E+04  0.7818609E-02  0.8231139E-01
       -2   -1    0    0    0  501  0.00000000000E+00  0.00000000000E+00  0.15305004951E+04  0.15305004951E+04  0.25500000920E-02 0. -1.
        2   -1    0    0  501    0  0.00000000000E+00  0.00000000000E+00 -0.15140340769E+04  0.15140340769E+04  0.25500000920E-02 0.  1.
    10030    2    1    2    0    0  0.00000000000E+00  0.00000000000E+00  0.16466418228E+02  0.30445345720E+04  0.30444900422E+04 0.  0.
        1    1    3    3  502    0 -0.13618481064E+04 -0.30173506094E+03 -0.60132930737E+03  0.15189704565E+04  0.50400001928E-02 0.  1.
       -1    1    3    3    0  502  0.13618481064E+04  0.30173506094E+03  0.61779572560E+03  0.15255641155E+04  0.50400001928E-02 0. -1.
</event>
<event>
 5   0  0.9065579E-06  0.2823036E+04  0.7818609E-02  0.8296152E-01
        2   -1    0    0  501    0  0.00000000000E+00  0.00000000000E+00  0.24338377201E+04  0.24338377201E+04  0.25500000920E-02 0. -1.
       -2   -1    0    0    0  501  0.00000000000E+00  0.00000000000E+00 -0.81861766076E+03  0.81861766076E+03  0.25500000920E-02 0.  1.
    10030    2    1    2    0    0  0.00000000000E+00  0.00000000000E+00  0.16152200594E+04  0.32524553809E+04  0.28230356293E+04 0.  0.
        3    1    3    3  502    0  0.69159208801E+03 -0.31888244271E+03  0.21768304459E+04  0.23062039001E+04  0.10100000352E+00 0. -1.
       -3    1    3    3    0  502 -0.69159208801E+03  0.31888244271E+03 -0.56161038652E+03  0.94625148080E+03  0.10100000352E+00 0.  1.
</event>
<event>
 5   0  0.3371603E-06  0.2822002E+04  0.7818609E-02  0.8296470E-01
       -1   -1    0    0    0  501  0.00000000000E+00  0.00000000000E+00  0.11049682969E+04  0.11049682970E+04  0.50400001928E-02 0.  1.
        1   -1    0    0  501    0  0.00000000000E+00  0.00000000000E+00 -0.18017933406E+04  0.18017933406E+04  0.50400001928E-02 0. -1.
    10030    2    1    2    0    0  0.00000000000E+00  0.00000000000E+00 -0.69682504365E+03  0.29067616376E+04  0.28220024940E+04 0.  0.
        1    1    3    3  502    0 -0.82273977505E+02 -0.77749140678E+03  0.86145683226E+03  0.11633442177E+04  0.50400001928E-02 0.  1.
       -1    1    3    3    0  502  0.82273977505E+02  0.77749140678E+03 -0.15582818759E+04  0.17434174198E+04  0.50400001928E-02 0. -1.
</event>
<event>
 5   0  0.9342133E-06  0.2799786E+04  0.7818609E-02  0.8303335E-01
        2   -1    0    0  501    0  0.00000000000E+00  0.00000000000E+00  0.14033208412E+04  0.14033208412E+04  0.25500000920E-02 0.  1.
       -2   -1    0    0    0  501  0.00000000000E+00  0.00000000000E+00 -0.13964731034E+04  0.13964731034E+04  0.25500000920E-02 0. -1.
    10030    2    1    2    0    0  0.00000000000E+00  0.00000000000E+00  0.68477377777E+01  0.27997939446E+04  0.27997855705E+04 0.  0.
        2    1    3    3  502    0 -0.10061078801E+04 -0.25307001973E+02 -0.96961876291E+03  0.13975171040E+04  0.25500000920E-02 0. -1.
       -2    1    3    3    0  502  0.10061078801E+04  0.25307001973E+02  0.97646650069E+03  0.14022768406E+04  0.25500000920E-02 0.  1.
</event>
<event>
 5   0  0.3357244E-06  0.2664239E+04  0.7818609E-02  0.8346702E-01
        1   -1    0    0  501    0  0.00000000000E+00  0.00000000000E+00  0.16629586676E+04  0.16629586677E+04  0.50400001928E-02 0. -1.
       -1   -1    0    0    0  501  0.00000000000E+00  0.00000000000E+00 -0.10670994831E+04  0.10670994832E+04  0.50400001928E-02 0.  1.
    10030    2    1    2    0    0  0.00000000000E+00  0.00000000000E+00  0.59585918450E+03  0.27300581508E+04  0.26642389793E+04 0.  0.
        4    1    3    3  502    0 -0.11047558507E+03 -0.13160819535E+04  0.11966584869E+03  0.13261214467E+04  0.12699999809E+01 0.  1.
       -4    1    3    3    0  502  0.11047558507E+03  0.13160819535E+04  0.47619333581E+03  0.14039367041E+04  0.12699999809E+01 0. -1.
</event>
<event>
 5   0  0.9426937E-06  0.2763436E+04  0.7818609E-02  0.8314711E-01
        2   -1    0    0  501    0  0.00000000000E+00  0.00000000000E+00  0.18965753882E+04  0.18965753882E+04  0.25500000920E-02 0. -1.
       -2   -1    0    0    0  501  0.00000000000E+00  0.00000000000E+00 -0.10066270814E+04  0.10066270814E+04  0.25500000920E-02 0.  1.
    10030    2    1    2    0    0  0.00000000000E+00  0.00000000000E+00  0.88994830672E+03  0.29032024696E+04  0.27634356498E+04 0.  0.
        4    1    3    3  502    0  0.49068052865E+03 -0.48261048559E+03 -0.81373056463E+03  0.10657576210E+04  0.12699999809E+01 0.  1.
       -4    1    3    3    0  502 -0.49068052865E+03  0.48261048559E+03  0.17036788714E+04  0.18374448486E+04  0.12699999809E+01 0. -1.
</event>
<event>
 5   0  0.9426937E-06  0.2800651E+04  0.7818609E-02  0.8303066E-01
       -2   -1    0    0    0  501  0.00000000000E+00  0.00000000000E+00  0.10791849051E+04  0.10791849051E+04  0.25500000920E-02 0. -1.
        2   -1    0    0  501    0  0.00000000000E+00  0.00000000000E+00 -0.18170296252E+04  0.18170296252E+04  0.25500000920E-02 0.  1.
    10030    2    1    2    0    0  0.00000000000E+00  0.00000000000E+00 -0.73784472009E+03  0.28962145303E+04  0.28006505984E+04 0.  0.
        4    1    3    3  502    0  0.10936592487E+04 -0.77546538526E+03 -0.78703545596E+03  0.15546264946E+04  0.12699999809E+01 0. -1.
       -4    1    3    3    0  502 -0.10936592487E+04  0.77546538526E+03  0.49190735869E+02  0.13415880357E+04  0.12699999809E+01 0.  1.
</event>
<event>
 5   0  0.3371603E-06  0.2795439E+04  0.7818609E-02  0.8304686E-01
        1   -1    0    0  501    0  0.00000000000E+00  0.00000000000E+00  0.11911182254E+04  0.11911182254E+04  0.50400001928E-02 0. -1.
       -1   -1    0    0    0  501  0.00000000000E+00  0.00000000000E+00 -0.16401557520E+04  0.16401557520E+04  0.50400001928E-02 0.  1.
    10030    2    1    2    0    0  0.00000000000E+00  0.00000000000E+00 -0.44903752661E+03  0.28312739775E+04  0.27954387196E+04 0.  0.
        1    1    3    3  502    0  0.82525099971E+03  0.10025296500E+04  0.29932958900E+03  0.13325551075E+04  0.50400001928E-02 0. -1.
       -1    1    3    3    0  502 -0.82525099971E+03 -0.10025296500E+04 -0.74836711561E+03  0.14987188700E+04  0.50400001928E-02 0.  1.
</event>
<event>
 5   0  0.3438130E-06  0.2781980E+04  0.7818609E-02  0.8308885E-01
       -1   -1    0    0    0  501  0.00000000000E+00  0.00000000000E+00  0.69044559691E+03  0.69044559693E+03  0.50400001928E-02 0.  1.
        1   -1    0    0  501    0  0.00000000000E+00  0.00000000000E+00 -0.28023250640E+04  0.28023250640E+04  0.50400001928E-02 0. -1.
    10030    2    1    2    0    0  0.00000000000E+00  0.00000000000E+00 -0.21118794671E+04  0.34927706610E+04  0.27819798717E+04 0.  0.
        3    1    3    3  502    0  0.13453999107E+04  0.19598756239E+03 -0.14248531849E+04  0.19694462809E+04  0.10100000352E+00 0.  1.
       -3    1    3    3    0  502 -0.13453999107E+04 -0.19598756239E+03 -0.68702628217E+03  0.15233243801E+04  0.10100000352E+00 0. -1.
</event>
<event>
 5   0  0.9065579E-06  0.2798604E+04  0.7818609E-02  0.8303702E-01
        2   -1    0    0  501    0  0.00000000000E+00  0.00000000000E+00  0.15714939649E+04  0.15714939649E+04  0.25500000920E-02 0.  1.
       -2   -1    0    0    0  501  0.00000000000E+00  0.00000000000E+00 -0.12459774101E+04  0.12459774101E+04  0.25500000920E-02 0. -1.
    10030    2    1    2    0    0  0.00000000000E+00  0.00000000000E+00  0.32551655480E+03  0.28174713750E+04  0.27986039236E+04 0.  0.
        3    1    3    3  502    0 -0.21088662839E+03  0.23450024562E+02 -0.12296870678E+04  0.12478595148E+04  0.10100000352E+00 0. -1.
       -3    1    3    3    0  502  0.21088662839E+03 -0.23450024562E+02  0.15552036226E+04  0.15696118602E+04  0.10100000352E+00 0.  1.
</event>
<event>
 5   0  0.3600963E-06  0.2855920E+04  0.7818609E-02  0.8286115E-01
       -1   -1    0    0    0  501  0.00000000000E+00  0.00000000000E+00  0.10278523406E+04  0.10278523406E+04  0.50400001928E-02 0.  1.
        1   -1    0    0  501    0  0.00000000000E+00  0.00000000000E+00 -0.19838164462E+04  0.19838164462E+04  0.50400001928E-02 0. -1.
    10030    2    1    2    0    0  0.00000000000E+00  0.00000000000E+00 -0.95596410559E+03  0.30116687868E+04  0.28559204314E+04 0.  0.
        5    1    3    3  502    0  0.43957299581E+03  0.12122470080E+04  0.16888835526E+03  0.13005047457E+04  0.46999998093E+01 0. -1.
       -5    1    3    3    0  502 -0.43957299581E+03 -0.12122470080E+04 -0.11248524608E+04  0.17111640411E+04  0.46999998093E+01 0.  1.
</event>
<event>
 5   0  0.3357244E-06  0.2786489E+04  0.7818609E-02  0.8307475E-01
        1   -1    0    0  501    0  0.00000000000E+00  0.00000000000E+00  0.12370862083E+04  0.12370862083E+04  0.50400001928E-02 0.  1.
       -1   -1    0    0    0  501  0.00000000000E+00  0.00000000000E+00 -0.15691149569E+04  0.15691149569E+04  0.50400001928E-02 0. -1.
    10030    2    1    2    0    0  0.00000000000E+00  0.00000000000E+00 -0.33202874859E+03  0.28062011653E+04  0.27864891692E+04 0.  0.
        4    1    3    3  502    0  0.22330569283E+03  0.61422375652E+03  0.10731340190E+04  0.12564849745E+04  0.12699999809E+01 0.  1.
       -4    1    3    3    0  502 -0.22330569283E+03 -0.61422375652E+03 -0.14051627676E+04  0.15497161908E+04  0.12699999809E+01 0. -1.
</event>
<event>
 5   0  0.9426937E-06  0.2783061E+04  0.7818609E-02  0.8308547E-01
       -2   -1    0    0    0  501  0.00000000000E+00  0.00000000000E+00  0.12920114707E+04  0.12920114707E+04  0.25500000920E-02 0.  1.
        2   -1    0    0  501    0  0.00000000000E+00  0.00000000000E+00 -0.14987149870E+04  0.14987149870E+04  0.25500000920E-02 0. -1.
    10030    2    1    2    0    0  0.00000000000E+00  0.00000000000E+00 -0.20670351637E+03  0.27907264577E+04  0.27830608721E+04 0.  0.
        4    1    3    3  502    0  0.11504877049E+04 -0.55417248572E+03  0.45100568422E+03  0.13543030840E+04  0.12699999809E+01 0.  1.
       -4    1    3    3    0  502 -0.11504877049E+04  0.55417248572E+03 -0.65770920059E+03  0.14364233737E+04  0.12699999809E+01 0. -1.
</event>
<event>
 5   0  0.9260173E-06  0.2690269E+04  0.7818609E-02  0.8338169E-01
        2   -1    0    0  501    0  0.00000000000E+00  0.00000000000E+00  0.12942200737E+04  0.12942200737E+04  0.25500000920E-02 0. -1.
       -2   -1    0    0    0  501  0.00000000000E+00  0.00000000000E+00 -0.13980514222E+04  0.13980514222E+04  0.25500000920E-02 0.  1.
    10030    2    1    2    0    0  0.00000000000E+00  0.00000000000E+00 -0.10383134851E+03  0.26922714959E+04  0.26902685476E+04 0.  0.
        1    1    3    3  502    0 -0.47478625363E+03 -0.26220488068E+03  0.11799405954E+04  0.12986274272E+04  0.50400001928E-02 0. -1.
       -1    1    3    3    0  502  0.47478625363E+03  0.26220488068E+03 -0.12837719439E+04  0.13936440686E+04  0.50400001928E-02 0.  1.
</event>
<event>
 5   0  0.3397882E-06  0.2796826E+04  0.7818609E-02  0.8304255E-01
        1   -1    0    0  501    0  0.00000000000E+00  0.00000000000E+00  0.17392454363E+04  0.17392454363E+04  0.50400001928E-02 0. -1.
       -1   -1    0    0    0  501  0.00000000000E+00  0.00000000000E+00 -0.11243716337E+04  0.11243716337E+04  0.50400001928E-02 0.  1.
    10030    2    1    2    0    0  0.00000000000E+00  0.00000000000E+00  0.61487380259E+03  0.28636170699E+04  0.27968255094E+04 0.  0.
        2    1    3    3  502    0  0.12308215270E+04 -0.47730504589E+03  0.77977416890E+03  0.15332284542E+04  0.25500000920E-02 0. -1.
       -2    1    3    3    0  502 -0.12308215270E+04  0.47730504589E+03 -0.16490036631E+03  0.13303886158E+04  0.25500000920E-02 0.  1.
</event>
<event>
 5   0  0.9342133E-06  0.2792033E+04  0.7818609E-02  0.8305746E-01
       -2   -1    0    0    0  501  0.00000000000E+00  0.00000000000E+00  0.12876452381E+04  0.12876452381E+04  0.25500000920E-02 0.  1.
        2   -1    0    0  501    0  0.00000000000E+00  0.00000000000E+00 -0.15135084039E+04  0.15135084039E+04  0.25500000920E-02 0. -1.
    10030    2    1    2    0    0  0.00000000000E+00  0.00000000000E+00 -0.22586316580E+03  0.28011536420E+04  0.27920328717E+04 0.  0.
        2    1    3    3  502    0  0.12602897559E+04 -0.27318399685E+03  0.42351328429E+03  0.13573220940E+04  0.25500000920E-02 0.  1.
       -2    1    3    3    0  502 -0.12602897559E+04  0.27318399685E+03 -0.64937645009E+03  0.14438315480E+04  0.25500000920E-02 0. -1.
</event>
<event>
 5   0  0.9260173E-06  0.2842465E+04  0.7818609E-02  0.8290205E-01
       -2   -1    0    0    0  501  0.00000000000E+00  0.00000000000E+00  0.10337381183E+04  0.10337381183E+04  0.25500000920E-02 0. -1.
        2   -1    0    0  501    0  0.00000000000E+00  0.00000000000E+00 -0.19539786594E+04  0.19539786594E+04  0.25500000920E-02 0.  1.
    10030    2    1    2    0    0  0.00000000000E+00  0.00000000000E+00 -0.92024054104E+03  0.29877167777E+04  0.28424652839E+04 0.  0.
        1    1    3    3  502    0  0.20706363221E+03 -0.45129173027E+03  0.93960574716E+03  0.10627316377E+04  0.50400001928E-02 0. -1.
       -1    1    3    3    0  502 -0.20706363221E+03  0.45129173027E+03 -0.18598462882E+04  0.19249851400E+04  0.50400001928E-02 0.  1.
</event>
<event>
 5   0  0.9065579E-06  0.2848969E+04  0.7818609E-02  0.8288225E-01
       -2   -1    0    0    0  501  0.00000000000E+00  0.00000000000E+00  0.12243046414E+04  0.12243046414E+04  0.25500000920E-02 0.  1.
        2   -1    0    0  501    0  0.00000000000E+00  0.00000000000E+00 -0.16573948540E+04  0.16573948540E+04  0.25500000920E-02 0. -1.
    10030    2    1    2    0    0  0.00000000000E+00  0.00000000000E+00 -0.43309021266E+03  0.28816994954E+04  0.28489690854E+04 0.  0.
        3    1    3    3  502    0  0.75095747564E+03  0.11929319916E+04 -0.89253295494E+01  0.14096466006E+04  0.10100000352E+00 0.  1.
       -3    1    3    3    0  502 -0.75095747564E+03 -0.11929319916E+04 -0.42416488311E+03  0.14720528948E+04  0.10100000352E+00 0. -1.
</event>
<event>
 5   0  0.9342133E-06  0.2791313E+04  0.7818609E-02  0.8305970E-01
       -2   -1    0    0    0  501  0.00000000000E+00  0.00000000000E+00  0.75954640618E+03  0.75954640618E+03  0.25500000920E-02 0.  1.
        2   -1    0    0  501    0  0.00000000000E+00  0.00000000000E+00 -0.25645008212E+04  0.25645008212E+04  0.25500000920E-02 0. -1.
    10030    2    1    2    0    0  0.00000000000E+00  0.00000000000E+00 -0.18049544150E+04  0.33240472274E+04  0.27913132267E+04 0.  0.
        2    1    3    3  502    0  0.41969666555E+03 -0.99410796554E+03 -0.19565422888E+04  0.22343799288E+04  0.25500000920E-02 0. -1.
       -2    1    3    3    0  502 -0.41969666555E+03  0.99410796554E+03  0.15158787376E+03  0.10896672986E+04  0.25500000920E-02 0.  1.
</event>
<event>
 5   0  0.3600963E-06  0.2792258E+04  0.7818609E-02  0.8305676E-01
       -1   -1    0    0    0  501  0.00000000000E+00  0.00000000000E+00  0.11868327913E+04  0.11868327914E+04  0.50400001928E-02 0. -1.
        1   -1    0    0  501    0  0.00000000000E+00  0.00000000000E+00 -0.16423340236E+04  0.16423340236E+04  0.50400001928E-02 0.  1.
    10030    2    1    2    0    0  0.00000000000E+00  0.00000000000E+00 -0.45550123225E+03  0.28291668150E+04  0.27922577772E+04 0.  0.
        5    1    3    3  502    0  0.13147213328E+04  0.24413480985E+03  0.17887676325E+03  0.13491156269E+04  0.46999998093E+01 0. -1.
       -5    1    3    3    0  502 -0.13147213328E+04 -0.24413480985E+03 -0.63437799551E+03  0.14800511881E+04  0.46999998093E+01 0.  1.
</event>
<event>
 5   0  0.9426937E-06  0.2795457E+04  0.7818609E-02  0.8304680E-01
       -2   -1    0    0    0  501  0.00000000000E+00  0.00000000000E+00  0.17414322006E+04  0.17414322006E+04  0.25500000920E-02 0. -1.
        2   -1    0    0  501    0  0.00000000000E+00  0.00000000000E+00 -0.11218610002E+04  0.11218610002E+04  0.25500000920E-02 0.  1.
    10030    2    1    2    0    0  0.00000000000E+00  0.00000000000E+00  0.61957120042E+03  0.28632932008E+04  0.27954569360E+04 0.  0.
        4    1    3    3  502    0  0.40647720314E+03  0.28367353245E+03 -0.10288132511E+04  0.11419950561E+04  0.12699999809E+01 0.  1.
       -4    1    3    3    0  502 -0.40647720314E+03 -0.28367353245E+03  0.16483844515E+04  0.17212981446E+04  0.12699999809E+01 0. -1.
</event>
<event>
 5   0  0.3438130E-06  0.2843334E+04  0.7818609E-02  0.8289940E-01
        1   -1    0    0  501    0  0.00000000000E+00  0.00000000000E+00  0.23579420376E+04  0.23579420376E+04  0.50400001928E-02 0. -1.
       -1   -1    0    0    0  501  0.00000000000E+00  0.00000000000E+00 -0.85716118515E+03  0.85716118517E+03  0.50400001928E-02 0.  1.
    10030    2    1    2    0    0  0.00000000000E+00  0.00000000000E+00  0.15007808524E+04  0.32151032228E+04  0.28433335306E+04 0.  0.
        3    1    3    3  502    0  0.23348204588E+03  0.11730897995E+04  0.16192923403E+04  0.20131470978E+04  0.10100000352E+00 0. -1.
       -3    1    3    3    0  502 -0.23348204588E+03 -0.11730897995E+04 -0.11851148790E+03  0.12019561250E+04  0.10100000352E+00 0.  1.
</event>
<event>
 5   0  0.3438130E-06  0.2815157E+04  0.7818609E-02  0.8298578E-01
        1   -1    0    0  501    0  0.00000000000E+00  0.00000000000E+00  0.19352653351E+04  0.19352653351E+04  0.50400001928E-02 0.  1.
       -1   -1    0    0    0  501  0.00000000000E+00  0.00000000000E+00 -0.10237754188E+04  0.10237754188E+04  0.50400001928E-02 0. -1.
    10030    2    1    2    0    0  0.00000000000E+00  0.00000000000E+00  0.91148991637E+03  0.29590407539E+04  0.28151568901E+04 0.  0.
        3    1    3    3  502    0 -0.35269721440E+03 -0.13552440335E+04  0.60511863470E+03  0.15255327882E+04  0.10100000352E+00 0.  1.
       -3    1    3    3    0  502  0.35269721440E+03  0.13552440335E+04  0.30637128167E+03  0.14335079658E+04  0.10100000352E+00 0. -1.
</event>
<event>
 5   0  0.9065579E-06  0.2809192E+04  0.7818609E-02  0.8300420E-01
       -2   -1    0    0    0  501  0.00000000000E+00  0.00000000000E+00  0.11926314940E+04  0.11926314940E+04  0.25500000920E-02 0. -1.
        2   -1    0    0  501    0  0.00000000000E+00  0.00000000000E+00 -0.16542325187E+04  0.16542325187E+04  0.25500000920E-02 0.  1.
    10030    2    1    2    0    0  0.00000000000E+00  0.00000000000E+00 -0.46160102474E+03  0.28468640127E+04  0.28091919124E+04 0.  0.
        3    1    3    3  502    0  0.35711875295E+03 -0.13475566795E+04 -0.40470296493E+03  0.14516291910E+04  0.10100000352E+00 0.  1.
       -3    1    3    3    0  502 -0.35711875295E+03  0.13475566795E+04 -0.56898059812E+02  0.13952348217E+04  0.10100000352E+00 0. -1.
</event>
<event>
 5   0  0.3438130E-06  0.2809398E+04  0.7818609E-02  0.8300357E-01
       -1   -1    0    0    0  501  0.00000000000E+00  0.00000000000E+00  0.90127970385E+03  0.90127970386E+03  0.50400001928E-02 0. -1.
        1   -1    0    0  501    0  0.00000000000E+00  0.00000000000E+00 -0.21893085333E+04  0.21893085333E+04  0.50400001928E-02 0.  1.
    10030    2    1    2    0    0  0.00000000000E+00  0.00000000000E+00 -0.12880288294E+04  0.30905882371E+04  0.28093980469E+04 0.  0.
        3    1    3    3  502    0  0.11236560059E+03 -0.49902275383E+03  0.79518203265E+03  0.94549680713E+03  0.10100000352E+00 0. -1.
       -3    1    3    3    0  502 -0.11236560059E+03  0.49902275383E+03 -0.20832108621E+04  0.21450914300E+04  0.10100000352E+00 0.  1.
</event>
<event>
 5   0  0.3357244E-06  0.2824843E+04  0.7818609E-02  0.8295597E-01
       -1   -1    0    0    0  501  0.00000000000E+00  0.00000000000E+00  0.16529771512E+04  0.16529771512E+04  0.50400001928E-02 0. -1.
        1   -1    0    0  501    0  0.00000000000E+00  0.00000000000E+00 -0.12068737765E+04  0.12068737766E+04  0.50400001928E-02 0.  1.
    10030    2    1    2    0    0  0.00000000000E+00  0.00000000000E+00  0.44610337467E+03  0.28598509278E+04  0.28248432006E+04 0.  0.
        4    1    3    3  502    0  0.13445909135E+04  0.15879338569E+03 -0.18416826399E+03  0.13664039031E+04  0.12699999809E+01 0.  1.
       -4    1    3    3    0  502 -0.13445909135E+04 -0.15879338569E+03  0.63027163865E+03  0.14934470247E+04  0.12699999809E+01 0. -1.
</event>
<event>
 5   0  0.3600963E-06  0.2797904E+04  0.7818609E-02  0.8303919E-01
        1   -1    0    0  501    0  0.00000000000E+00  0.00000000000E+00  0.15872627533E+04  0.15872627533E+04  0.50400001928E-02 0. -1.
       -1   -1    0    0    0  501  0.00000000000E+00  0.00000000000E+00 -0.12329819923E+04  0.12329819923E+04  0.50400001928E-02 0.  1.
    10030    2    1    2    0    0  0.00000000000E+00  0.00000000000E+00  0.35428076096E+03  0.28202447456E+04  0.27979037809E+04 0.  0.
        5    1    3    3  502    0  0.37124163129E+03 -0.12391000423E+04 -0.35989429354E+03  0.13426597693E+04  0.46999998093E+01 0.  1.
       -5    1    3    3    0  502 -0.37124163129E+03  0.12391000423E+04  0.71417505449E+03  0.14775849763E+04  0.46999998093E+01 0. -1.
</event>
<event>
 5   0  0.3357244E-06  0.2800216E+04  0.7818609E-02  0.8303201E-01
        1   -1    0    0  501    0  0.00000000000E+00  0.00000000000E+00  0.16330132238E+04  0.16330132238E+04  0.50400001928E-02 0. -1.
       -1   -1    0    0    0  501  0.00000000000E+00  0.00000000000E+00 -0.12004202406E+04  0.12004202406E+04  0.50400001928E-02 0.  1.
    10030    2    1    2    0    0  0.00000000000E+00  0.00000000000E+00  0.43259298315E+03  0.28334334644E+04  0.28002157967E+04 0.  0.
        4    1    3    3  502    0  0.12980238498E+04  0.13309308621E+03  0.72998077480E+03  0.14951432134E+04  0.12699999809E+01 0. -1.
       -4    1    3    3    0  502 -0.12980238498E+04 -0.13309308621E+03 -0.29738779165E+03  0.13382902509E+04  0.12699999809E+01 0.  1.
</event>
<event>
 5   0  0.9065579E-06  0.2807289E+04  0.7818609E-02  0.8301009E-01
       -2   -1    0    0    0  501  0.00000000000E+00  0.00000000000E+00  0.86244183930E+03  0.86244183931E+03  0.25500000920E-02 0.  1.
        2   -1    0    0  501    0  0.00000000000E+00  0.00000000000E+00 -0.22844645797E+04  0.22844645797E+04  0.25500000920E-02 0. -1.
    10030    2    1    2    0    0  0.00000000000E+00  0.00000000000E+00 -0.14220227404E+04  0.31469064190E+04  0.28072889655E+04 0.  0.
        3    1    3    3  502    0 -0.23443174479E+03 -0.10518862139E+04  0.29711722041E+03  0.11179004888E+04  0.10100000352E+00 0.  1.
       -3    1    3    3    0  502  0.23443174479E+03  0.10518862139E+04 -0.17191399608E+04  0.20290059302E+04  0.10100000352E+00 0. -1.
</event>
<event>
 5   0  0.3371603E-06  0.2840543E+04  0.7818609E-02  0.8290791E-01
        1   -1    0    0  501    0  0.00000000000E+00  0.00000000000E+00  0.18299895489E+04  0.18299895490E+04  0.50400001928E-02 0.  1.
       -1   -1    0    0    0  501  0.00000000000E+00  0.00000000000E+00 -0.11022856854E+04  0.11022856854E+04  0.50400001928E-02 0. -1.
    10030    2    1    2    0    0  0.00000000000E+00  0.00000000000E+00  0.72770386358E+03  0.29322752343E+04  0.28405431060E+04 0.  0.
        1    1    3    3  502    0 -0.22825914958E+03  0.58592024786E+02 -0.10819625214E+04  0.11073292927E+04  0.50400001928E-02 0. -1.
       -1    1    3    3    0  502  0.22825914958E+03 -0.58592024786E+02  0.18096663850E+04  0.18249459416E+04  0.50400001928E-02 0.  1.
</event>
<event>
 5   0  0.9065579E-06  0.2803158E+04  0.7818609E-02  0.8302288E-01
        2   -1    0    0  501    0  0.00000000000E+00  0.00000000000E+00  0.19757648174E+04  0.19757648174E+04  0.25500000920E-02 0. -1.
       -2   -1    0    0    0  501  0.00000000000E+00  0.00000000000E+00 -0.99426013780E+03  0.99426013781E+03  0.25500000920E-02 0.  1.
    10030    2    1    2    0    0  0.00000000000E+00  0.00000000000E+00  0.98150467964E+03  0.29700249553E+04  0.28031583613E+04 0.  0.
        3    1    3    3  502    0  0.43843930621E+03 -0.17370030420E+03 -0.90767354228E+03  0.10228744256E+04  0.10100000352E+00 0.  1.
       -3    1    3    3    0  502 -0.43843930621E+03  0.17370030420E+03  0.18891782219E+04  0.19471505297E+04  0.10100000352E+00 0. -1.
</event>
<event>
 5   0  0.9426937E-06  0.2818811E+04  0.7818609E-02  0.8297452E-01
       -2   -1    0    0    0  501  0.00000000000E+00  0.00000000000E+00  0.91983090113E+03  0.91983090113E+03  0.25500000920E-02 0. -1.
        2   -1    0    0  501    0  0.00000000000E+00  0.00000000000E+00 -0.21595540591E+04  0.21595540591E+04  0.25500000920E-02 0.  1.
    10030    2    1    2    0    0  0.00000000000E+00  0.00000000000E+00 -0.12397231579E+04  0.30793849602E+04  0.28188114915E+04 0.  0.
        4    1    3    3  502    0 -0.79802951836E+03 -0.64742262802E+03  0.43388574044E+03  0.11154665482E+04  0.12699999809E+01 0. -1.
       -4    1    3    3    0  502  0.79802951836E+03  0.64742262802E+03 -0.16736088984E+04  0.19639184120E+04  0.12699999809E+01 0.  1.
</event>
<event>
 5   0  0.3371603E-06  0.2828067E+04  0.7818609E-02  0.8294607E-01
        1   -1    0    0  501    0  0.00000000000E+00  0.00000000000E+00  0.17416534549E+04  0.17416534550E+04  0.50400001928E-02 0. -1.
       -1   -1    0    0    0  501  0.00000000000E+00  0.00000000000E+00 -0.11480419358E+04  0.11480419358E+04  0.50400001928E-02 0.  1.
    10030    2    1    2    0    0  0.00000000000E+00  0.00000000000E+00  0.59361151915E+03  0.28896953908E+04  0.28280673287E+04 0.  0.
        1    1    3    3  502    0  0.90366221919E+03 -0.49436679668E+02  0.14069632989E+04  0.16729002111E+04  0.50400001928E-02 0. -1.
       -1    1    3    3    0  502 -0.90366221919E+03  0.49436679668E+02 -0.81335177975E+03  0.12167951797E+04  0.50400001928E-02 0.  1.
</event>
<event>
 5   0  0.3371603E-06  0.2785513E+04  0.7818609E-02  0.8307780E-01
       -1   -1    0    0    0  501  0.00000000000E+00  0.00000000000E+00  0.89444760582E+03  0.89444760584E+03  0.50400001928E-02 0.  1.
        1   -1    0    0  501    0  0.00000000000E+00  0.00000000000E+00 -0.21686794614E+04  0.21686794614E+04  0.50400001928E-02 0. -1.
    10030    2    1    2    0    0  0.00000000000E+00  0.00000000000E+00 -0.12742318556E+04  0.30631270673E+04  0.27855126294E+04 0.  0.
        1    1    3    3  502    0  0.90632692092E+03 -0.67554398022E+03  0.25759546996E+03  0.11593720641E+04  0.50400001928E-02 0.  1.
       -1    1    3    3    0  502 -0.90632692092E+03  0.67554398022E+03 -0.15318273255E+04  0.19037550032E+04  0.50400001928E-02 0. -1.
</event>
<event>
 5   0  0.9342133E-06  0.2738152E+04  0.7818609E-02  0.8322731E-01
        2   -1    0    0  501    0  0.00000000000E+00  0.00000000000E+00  0.11801783995E+04  0.11801783995E+04  0.25500000920E-02 0.  1.
       -2   -1    0    0    0  501  0.00000000000E+00  0.00000000000E+00 -0.15882083582E+04  0.15882083582E+04  0.25500000920E-02 0. -1.
    10030    2    1    2    0    0  0.00000000000E+00  0.00000000000E+00 -0.40802995869E+03  0.27683867577E+04  0.27381520764E+04 0.  0.
        2    1    3    3  502    0  0.46693553852E+02  0.44833507909E+03 -0.15110324908E+04  0.15768334786E+04  0.25500000920E-02 0. -1.
       -2    1    3    3    0  502 -0.46693553852E+02 -0.44833507909E+03  0.11030025321E+04  0.11915532791E+04  0.25500000920E-02 0.  1.
</event>
<event>
 5   0  0.9065579E-06  0.2346143E+04  0.7818609E-02  0.8459947E-01
        2   -1    0    0  501    0  0.00000000000E+00  0.00000000000E+00  0.65045085599E+03  0.65045085599E+03  0.25500000920E-02 0.  1.
       -2   -1    0    0    0  501  0.00000000000E+00  0.00000000000E+00 -0.21156038179E+04  0.21156038179E+04  0.25500000920E-02 0. -1.
    10030    2    1    2    0    0  0.00000000000E+00  0.00000000000E+00 -0.14651529619E+04  0.27660546739E+04  0.23461426336E+04 0.  0.
        3    1    3    3  502    0 -0.30856076464E+03 -0.11121106549E+04 -0.48500069747E+03  0.12518887894E+04  0.10100000352E+00 0.  1.
       -3    1    3    3    0  502  0.30856076464E+03  0.11121106549E+04 -0.98015226440E+03  0.15141658845E+04  0.10100000352E+00 0. -1.
</event>
<event>
 5   0  0.3357244E-06  0.2789567E+04  0.7818609E-02  0.8306515E-01
        1   -1    0    0  501    0  0.00000000000E+00  0.00000000000E+00  0.19492008420E+04  0.19492008420E+04  0.50400001928E-02 0.  1.
       -1   -1    0    0    0  501  0.00000000000E+00  0.00000000000E+00 -0.99806081466E+03  0.99806081467E+03  0.50400001928E-02 0. -1.
    10030    2    1    2    0    0  0.00000000000E+00  0.00000000000E+00  0.95114002730E+03  0.29472616566E+04  0.27895669774E+04 0.  0.
        4    1    3    3  502    0 -0.67060491020E+03 -0.75954188873E+02 -0.81406317366E+03  0.10574405175E+04  0.12699999809E+01 0. -1.
       -4    1    3    3    0  502  0.67060491020E+03  0.75954188873E+02  0.17652032010E+04  0.18898211392E+04  0.12699999809E+01 0.  1.
</event>
<event>
 5   0  0.3397882E-06  0.2783631E+04  0.7818609E-02  0.8308368E-01
       -1   -1    0    0    0  501  0.00000000000E+00  0.00000000000E+00  0.16400763937E+04  0.16400763937E+04  0.50400001928E-02 0. -1.
        1   -1    0    0  501    0  0.00000000000E+00  0.00000000000E+00 -0.11811343675E+04  0.11811343675E+04  0.50400001928E-02 0.  1.
    10030    2    1    2    0    0  0.00000000000E+00  0.00000000000E+00  0.45894202623E+03  0.28212107612E+04  0.27836311494E+04 0.  0.
        2    1    3    3  502    0  0.12122395053E+04 -0.39802394255E+03  0.79303811729E+03  0.15022839720E+04  0.25500000920E-02 0.  1.
       -2    1    3    3    0  502 -0.12122395053E+04  0.39802394255E+03 -0.33409609106E+03  0.13189267892E+04  0.25500000920E-02 0. -1.
</event>
<event>
 5   0  0.3371603E-06  0.2335560E+04  0.7818609E-02  0.8464031E-01
       -1   -1    0    0    0  501  0.00000000000E+00  0.00000000000E+00  0.70557582895E+03  0.70557582897E+03  0.50400001928E-02 0. -1.
        1   -1    0    0  501    0  0.00000000000E+00  0.00000000000E+00 -0.19327623152E+04  0.19327623152E+04  0.50400001928E-02 0.  1.
    10030    2    1    2    0    0  0.00000000000E+00  0.00000000000E+00 -0.12271864862E+04  0.26383381442E+04  0.23355602092E+04 0.  0.
        1    1    3    3  502    0 -0.67523935872E+03  0.72064261192E+03  0.90450029394E+02  0.99169308434E+03  0.50400001928E-02 0. -1.
       -1    1    3    3    0  502  0.67523935872E+03 -0.72064261192E+03 -0.13176365156E+04  0.16466450598E+04  0.50400001928E-02 0.  1.
</event>
<event>
 5   0  0.9342133E-06  0.2884591E+04  0.7818609E-02  0.8277477E-01
        2   -1    0    0  501    0  0.00000000000E+00  0.00000000000E+00  0.14748511108E+04  0.14748511108E+04  0.25500000920E-02 0.  1.
       -2   -1    0    0    0  501  0.00000000000E+00  0.00000000000E+00 -0.14104584210E+04  0.14104584211E+04  0.25500000920E-02 0. -1.
    10030    2    1    2    0    0  0.00000000000E+00  0.00000000000E+00  0.64392689727E+02  0.28853095318E+04  0.28845909027E+04 0.  0.
        2    1    3    3  502    0 -0.98693081674E+03  0.10256501868E+04  0.26511789332E+03  0.14478529760E+04  0.25500000920E-02 0.  1.
       -2    1    3    3    0  502  0.98693081674E+03 -0.10256501868E+04 -0.20072520360E+03  0.14374565559E+04  0.25500000920E-02 0. -1.
</event>
<event>
 5   0  0.3600963E-06  0.2798433E+04  0.7818609E-02  0.8303755E-01
        1   -1    0    0  501    0  0.00000000000E+00  0.00000000000E+00  0.27583909245E+04  0.27583909245E+04  0.50400001928E-02 0. -1.
       -1   -1    0    0    0  501  0.00000000000E+00  0.00000000000E+00 -0.70976427761E+03  0.70976427762E+03  0.50400001928E-02 0.  1.
    10030    2    1    2    0    0  0.00000000000E+00  0.00000000000E+00  0.20486266469E+04  0.34681552022E+04  0.27984333774E+04 0.  0.
        5    1    3    3  502    0  0.13248314676E+04 -0.43408352551E+03  0.11718826350E+04  0.18212462559E+04  0.46999998093E+01 0.  1.
       -5    1    3    3    0  502 -0.13248314676E+04  0.43408352551E+03  0.87674401195E+03  0.16469089462E+04  0.46999998093E+01 0. -1.
</event>
<event>
 5   0  0.3438130E-06  0.2777083E+04  0.7818609E-02  0.8310419E-01
       -1   -1    0    0    0  501  0.00000000000E+00  0.00000000000E+00  0.17221903611E+04  0.17221903611E+04  0.50400001928E-02 0.  1.
        1   -1    0    0  501    0  0.00000000000E+00  0.00000000000E+00 -0.11195319417E+04  0.11195319417E+04  0.50400001928E-02 0. -1.
    10030    2    1    2    0    0  0.00000000000E+00  0.00000000000E+00  0.60265841937E+03  0.28417223028E+04  0.27770827276E+04 0.  0.
        3    1    3    3  502    0  0.12684606659E+04 -0.38454604858E+03  0.72469722152E+03  0.15106469466E+04  0.10100000352E+00 0.  1.
       -3    1    3    3    0  502 -0.12684606659E+04  0.38454604858E+03 -0.12203880215E+03  0.13310753562E+04  0.10100000352E+00 0. -1.
</event>
<event>
 5   0  0.9065579E-06  0.2788983E+04  0.7818609E-02  0.8306697E-01
       -2   -1    0    0    0  501  0.00000000000E+00  0.00000000000E+00  0.13622983529E+04  0.13622983529E+04  0.25500000920E-02 0.  1.
        2   -1    0    0  501    0  0.00000000000E+00  0.00000000000E+00 -0.14274458469E+04  0.14274458469E+04  0.25500000920E-02 0. -1.
    10030    2    1    2    0    0  0.00000000000E+00  0.00000000000E+00 -0.65147494048E+02  0.27897441998E+04  0.27889834178E+04 0.  0.
        3    1    3    3  502    0  0.13862259145E+04  0.12212088382E+03 -0.12243877744E+03  0.13969706728E+04  0.10100000352E+00 0.  1.
       -3    1    3    3    0  502 -0.13862259145E+04 -0.12212088382E+03  0.57291283393E+02  0.13927735270E+04  0.10100000352E+00 0. -1.
</event>
<event>
 5   0  0.9065579E-06  0.2505058E+04  0.7818609E-02  0.8401186E-01
       -2   -1    0    0    0  501  0.00000000000E+00  0.00000000000E+00  0.81277814961E+03  0.81277814961E+03  0.25500000920E-02 0.  1.
        2   -1    0    0  501    0  0.00000000000E+00  0.00000000000E+00 -0.19302059496E+04  0.19302059496E+04  0.25500000920E-02 0. -1.
    10030    2    1    2    0    0  0.00000000000E+00  0.00000000000E+00 -0.11174278000E+04  0.27429840992E+04  0.25050582589E+04 0.  0.
        3    1    3    3  502    0  0.10883845444E+04  0.57559188247E+03 -0.30676830346E+03  0.12688552849E+04  0.10100000352E+00 0. -1.
       -3    1    3    3    0  502 -0.10883845444E+04 -0.57559188247E+03 -0.81065949655E+03  0.14741288144E+04  0.10100000352E+00 0.  1.
</event>
<event>
 5   0  0.3371603E-06  0.2760259E+04  0.7818609E-02  0.8315714E-01
       -1   -1    0    0    0  501  0.00000000000E+00  0.00000000000E+00  0.12453728845E+04  0.12453728845E+04  0.50400001928E-02 0. -1.
        1   -1    0    0  501    0  0.00000000000E+00  0.00000000000E+00 -0.15294670251E+04  0.15294670251E+04  0.50400001928E-02 0.  1.
    10030    2    1    2    0    0  0.00000000000E+00  0.00000000000E+00 -0.28409414063E+03  0.27748399096E+04  0.27602585102E+04 0.  0.
        1    1    3    3  502    0 -0.73604038834E+03 -0.37878419059E+03  0.96810717168E+03  0.12737599508E+04  0.50400001928E-02 0. -1.
       -1    1    3    3    0  502  0.73604038834E+03  0.37878419059E+03 -0.12522013123E+04  0.15010799589E+04  0.50400001928E-02 0.  1.
</event>
<event>
 5   0  0.9260173E-06  0.2805155E+04  0.7818609E-02  0.8301670E-01
        2   -1    0    0  501    0  0.00000000000E+00  0.00000000000E+00  0.13114766406E+04  0.13114766406E+04  0.25500000920E-02 0.  1.
       -2   -1    0    0    0  501  0.00000000000E+00  0.00000000000E+00 -0.15000066658E+04  0.15000066658E+04  0.25500000920E-02 0. -1.
    10030    2    1    2    0    0  0.00000000000E+00  0.00000000000E+00 -0.18853002523E+03  0.28114833064E+04  0.28051550423E+04 0.  0.
        1    1    3    3  502    0 -0.66976759712E+03  0.12138636323E+04 -0.30727717955E+03  0.14200256395E+04  0.50400001928E-02 0.  1.
       -1    1    3    3    0  502  0.66976759712E+03 -0.12138636323E+04  0.11874715432E+03  0.13914576668E+04  0.50400001928E-02 0. -1.
</event>
<event>
 5   0  0.3357244E-06  0.2814244E+04  0.7818609E-02  0.8298860E-01
       -1   -1    0    0    0  501  0.00000000000E+00  0.00000000000E+00  0.11483494973E+04  0.11483494973E+04  0.50400001928E-02 0. -1.
        1   -1    0    0  501    0  0.00000000000E+00  0.00000000000E+00 -0.17242068806E+04  0.17242068806E+04  0.50400001928E-02 0.  1.
    10030    2    1    2    0    0  0.00000000000E+00  0.00000000000E+00 -0.57585738331E+03  0.28725563779E+04  0.28142438448E+04 0.  0.
        4    1    3    3  502    0  0.97636974270E+03 -0.95719807039E+03  0.51319971719E+02  0.13682694811E+04  0.12699999809E+01 0. -1.
       -4    1    3    3    0  502 -0.97636974270E+03  0.95719807039E+03 -0.62717735503E+03  0.15042868968E+04  0.12699999809E+01 0.  1.
</event>
<event>
 5   0  0.3371603E-06  0.2987648E+04  0.7818609E-02  0.8247267E-01
        1   -1    0    0  501    0  0.00000000000E+00  0.00000000000E+00  0.13937516074E+04  0.13937516074E+04  0.50400001928E-02 0. -1.
       -1   -1    0    0    0  501  0.00000000000E+00  0.00000000000E+00 -0.16010819087E+04  0.16010819087E+04  0.50400001928E-02 0.  1.
    10030    2    1    2    0    0  0.00000000000E+00  0.00000000000E+00 -0.20733030137E+03  0.29948335161E+04  0.29876482282E+04 0.  0.
        1    1    3    3  502    0 -0.86107506777E+03  0.60384438827E+03 -0.11670804035E+04  0.15710362777E+04  0.50400001928E-02 0.  1.
       -1    1    3    3    0  502  0.86107506777E+03 -0.60384438827E+03  0.95975010211E+03  0.14237972384E+04  0.50400001928E-02 0. -1.
</event>
<event>
 5   0  0.3397882E-06  0.2844651E+04  0.7818609E-02  0.8289538E-01
       -1   -1    0    0    0  501  0.00000000000E+00  0.00000000000E+00  0.86516155465E+03  0.86516155466E+03  0.50400001928E-02 0.  1.
        1   -1    0    0  501    0  0.00000000000E+00  0.00000000000E+00 -0.23383036740E+04  0.23383036740E+04  0.50400001928E-02 0. -1.
    10030    2    1    2    0    0  0.00000000000E+00  0.00000000000E+00 -0.14731421194E+04  0.32034652287E+04  0.28446514317E+04 0.  0.
        2    1    3    3  502    0  0.14121985105E+04  0.25325002905E+01 -0.54579348271E+03  0.15140018403E+04  0.25500000920E-02 0.  1.
       -2    1    3    3    0  502 -0.14121985105E+04 -0.25325002905E+01 -0.92734863668E+03  0.16894633884E+04  0.25500000920E-02 0. -1.
</event>
<event>
 5   0  0.9065579E-06  0.2752173E+04  0.7818609E-02  0.8318273E-01
        2   -1    0    0  501    0  0.00000000000E+00  0.00000000000E+00  0.10703603341E+04  0.10703603341E+04  0.25500000920E-02 0.  1.
       -2   -1    0    0    0  501  0.00000000000E+00  0.00000000000E+00 -0.17691365649E+04  0.17691365649E+04  0.25500000920E-02 0. -1.
    10030    2    1    2    0    0  0.00000000000E+00  0.00000000000E+00 -0.69877623078E+03  0.28394968990E+04  0.27521726724E+04 0.  0.
        3    1    3    3  502    0  0.56558223955E+03 -0.11187299864E+04  0.23622481395E+03  0.12756340482E+04  0.10100000352E+00 0. -1.
       -3    1    3    3    0  502 -0.56558223955E+03  0.11187299864E+04 -0.93500104473E+03  0.15638628508E+04  0.10100000352E+00 0.  1.
</event>
<event>
 5   0  0.3357244E-06  0.2720808E+04  0.7818609E-02  0.8328285E-01
       -1   -1    0    0    0  501  0.00000000000E+00  0.00000000000E+00  0.13103467196E+04  0.13103467196E+04  0.50400001928E-02 0. -1.
        1   -1    0    0  501    0  0.00000000000E+00  0.00000000000E+00 -0.14123739969E+04  0.14123739969E+04  0.50400001928E-02 0.  1.
    10030    2    1    2    0    0  0.00000000000E+00  0.00000000000E+00 -0.10202727728E+03  0.27227207165E+04  0.27208084340E+04 0.  0.
        4    1    3    3  502    0 -0.31411082741E+03  0.30147834468E+03 -0.13407729418E+04  0.14096909231E+04  0.12699999809E+01 0.  1.
       -4    1    3    3    0  502  0.31411082741E+03 -0.30147834468E+03  0.12387456645E+04  0.13130297934E+04  0.12699999809E+01 0. -1.
</event>
<event>
 5   0  0.3397882E-06  0.2764395E+04  0.7818609E-02  0.8314408E-01
        1   -1    0    0  501    0  0.00000000000E+00  0.00000000000E+00  0.17639405797E+04  0.17639405797E+04  0.50400001928E-02 0.  1.
       -1   -1    0    0    0  501  0.00000000000E+00  0.00000000000E+00 -0.10830690932E+04  0.10830690933E+04  0.50400001928E-02 0. -1.
    10030    2    1    2    0    0  0.00000000000E+00  0.00000000000E+00  0.68087148647E+03  0.28470096730E+04  0.27643947071E+04 0.  0.
        2    1    3    3  502    0  0.85400508766E+03 -0.10717013425E+04  0.52638943149E+03  0.14679762569E+04  0.25500000920E-02 0.  1.
       -2    1    3    3    0  502 -0.85400508766E+03  0.10717013425E+04  0.15448205498E+03  0.13790334161E+04  0.25500000920E-02 0. -1.
</event>
<event>
 5   0  0.9342133E-06  0.2558134E+04  0.7818609E-02  0.8382563E-01
        2   -1    0    0  501    0  0.00000000000E+00  0.00000000000E+00  0.19719472129E+04  0.19719472129E+04  0.25500000920E-02 0. -1.
       -2   -1    0    0    0  501  0.00000000000E+00  0.00000000000E+00 -0.82964327882E+03  0.82964327883E+03  0.25500000920E-02 0.  1.
    10030    2    1    2    0    0  0.00000000000E+00  0.00000000000E+00  0.11423039341E+04  0.28015904917E+04  0.25581342822E+04 0.  0.
        2    1    3    3  502    0  0.10978522741E+04  0.35968115628E+03 -0.30057755232E+02  0.11556615502E+04  0.25500000920E-02 0.  1.
       -2    1    3    3    0  502 -0.10978522741E+04 -0.35968115628E+03  0.11723616893E+04  0.16459289415E+04  0.25500000920E-02 0. -1.
</event>
<event>
 5   0  0.3438130E-06  0.2788748E+04  0.7818609E-02  0.8306770E-01
       -1   -1    0    0    0  501  0.00000000000E+00  0.00000000000E+00  0.14275653439E+04  0.14275653439E+04  0.50400001928E-02 0. -1.
        1   -1    0    0  501    0  0.00000000000E+00  0.00000000000E+00 -0.13619541293E+04  0.13619541293E+04  0.50400001928E-02 0.  1.
    10030    2    1    2    0    0  0.00000000000E+00  0.00000000000E+00  0.65611214529E+02  0.27895194732E+04  0.27887477584E+04 0.  0.
        3    1    3    3  502    0  0.66077972181E+03 -0.12240662273E+04  0.12932342364E+03  0.13970298950E+04  0.10100000352E+00 0.  1.
       -3    1    3    3    0  502 -0.66077972181E+03  0.12240662273E+04 -0.63712209109E+02  0.13924895782E+04  0.10100000352E+00 0. -1.
</event>
<event>
 5   0  0.9252359E-06  0.2802429E+04  0.7818609E-02  0.8302515E-01
       -2   -1    0    0    0  501  0.00000000000E+00  0.00000000000E+00  0.10563264585E+04  0.10563264585E+04  0.25500000920E-02 0.  1.
        2   -1    0    0  501    0  0.00000000000E+00  0.00000000000E+00 -0.18587073004E+04  0.18587073004E+04  0.25500000920E-02 0. -1.
    10030    2    1    2    0    0  0.00000000000E+00  0.00000000000E+00 -0.80238084193E+03  0.29150337589E+04  0.28024287323E+04 0.  0.
        5    1    3    3  502    0 -0.76469067170E+03  0.63289918688E+03 -0.14299009449E+04  0.17406757327E+04  0.46999998093E+01 0. -1.
       -5    1    3    3    0  502  0.76469067170E+03 -0.63289918688E+03  0.62752010292E+03  0.11743580262E+04  0.46999998093E+01 0.  1.
</event>
<event>
 5   0  0.3438130E-06  0.2801131E+04  0.7818609E-02  0.8302917E-01
       -1   -1    0    0    0  501  0.00000000000E+00  0.00000000000E+00  0.83390875950E+03  0.83390875951E+03  0.50400001928E-02 0. -1.
        1   -1    0    0  501    0  0.00000000000E+00  0.00000000000E+00 -0.23522769059E+04  0.23522769059E+04  0.50400001928E-02 0.  1.
    10030    2    1    2    0    0  0.00000000000E+00  0.00000000000E+00 -0.15183681464E+04  0.31861856654E+04  0.28011314261E+04 0.  0.
        3    1    3    3  502    0  0.81873582348E+03  0.25131786417E+03  0.50134720397E+03  0.99239006778E+03  0.10100000352E+00 0. -1.
       -3    1    3    3    0  502 -0.81873582348E+03 -0.25131786417E+03 -0.20197153504E+04  0.21937955976E+04  0.10100000352E+00 0.  1.
</event>
<event>
 5   0  0.9342133E-06  0.2790368E+04  0.7818609E-02  0.8306265E-01
        2   -1    0    0  501    0  0.00000000000E+00  0.00000000000E+00  0.21195996189E+04  0.21195996189E+04  0.25500000920E-02 0.  1.
       -2   -1    0    0    0  501  0.00000000000E+00  0.00000000000E+00 -0.91835189022E+03  0.91835189023E+03  0.25500000920E-02 0. -1.
    10030    2    1    2    0    0  0.00000000000E+00  0.00000000000E+00  0.12012477287E+04  0.30379515091E+04  0.27903679446E+04 0.  0.
        2    1    3    3  502    0 -0.50851010843E+03  0.83834762171E+03  0.16812262615E+04  0.19462607758E+04  0.25500000920E-02 0.  1.
       -2    1    3    3    0  502  0.50851010843E+03 -0.83834762171E+03 -0.47997853281E+03  0.10916907333E+04  0.25500000920E-02 0. -1.
</event>
<event>
 5   0  0.9426937E-06  0.2827419E+04  0.7818609E-02  0.8294806E-01
        2   -1    0    0  501    0  0.00000000000E+00  0.00000000000E+00  0.21073112253E+04  0.21073112253E+04  0.25500000920E-02 0.  1.
       -2   -1    0    0    0  501  0.00000000000E+00  0.00000000000E+00 -0.94840026062E+03  0.94840026062E+03  0.25500000920E-02 0. -1.
    10030    2    1    2    0    0  0.00000000000E+00  0.00000000000E+00  0.11589109647E+04  0.30557114859E+04  0.28274189751E+04 0.  0.
        4    1    3    3  502    0 -0.13491431101E+04  0.12254716062E+03  0.14263235157E+03  0.13621859413E+04  0.12699999809E+01 0. -1.
       -4    1    3    3    0  502  0.13491431101E+04 -0.12254716062E+03  0.10162786131E+04  0.16935255446E+04  0.12699999809E+01 0.  1.
</event>
<event>
 5   0  0.3371603E-06  0.2846931E+04  0.7818609E-02  0.8288844E-01
       -1   -1    0    0    0  501  0.00000000000E+00  0.00000000000E+00  0.11494344640E+04  0.11494344641E+04  0.50400001928E-02 0. -1.
        1   -1    0    0  501    0  0.00000000000E+00  0.00000000000E+00 -0.17628271064E+04  0.17628271064E+04  0.50400001928E-02 0.  1.
    10030    2    1    2    0    0  0.00000000000E+00  0.00000000000E+00 -0.61339264237E+03  0.29122615705E+04  0.28469311409E+04 0.  0.
        1    1    3    3  502    0 -0.20970865264E+03  0.12431705990E+04 -0.98277370497E+03  0.15985290152E+04  0.50400001928E-02 0.  1.
       -1    1    3    3    0  502  0.20970865264E+03 -0.12431705990E+04  0.36938106260E+03  0.13137325552E+04  0.50400001928E-02 0. -1.
</event>
<event>
 5   0  0.9065579E-06  0.2792763E+04  0.7818609E-02  0.8305519E-01
        2   -1    0    0  501    0  0.00000000000E+00  0.00000000000E+00  0.22546422799E+04  0.22546422799E+04  0.25500000920E-02 0.  1.
       -2   -1    0    0    0  501  0.00000000000E+00  0.00000000000E+00 -0.86482930555E+03  0.86482930555E+03  0.25500000920E-02 0. -1.
    10030    2    1    2    0    0  0.00000000000E+00  0.00000000000E+00  0.13898129743E+04  0.31194715854E+04  0.27927625872E+04 0.  0.
        3    1    3    3  502    0  0.11228675129E+04 -0.15480618817E+03  0.16058372401E+04  0.19655812523E+04  0.10100000352E+00 0.  1.
       -3    1    3    3    0  502 -0.11228675129E+04  0.15480618817E+03 -0.21602426578E+03  0.11538903332E+04  0.10100000352E+00 0. -1.
</event>
<event>
 5   0  0.9342133E-06  0.2790983E+04  0.7818609E-02  0.8306073E-01
        2   -1    0    0  501    0  0.00000000000E+00  0.00000000000E+00  0.13821108161E+04  0.13821108161E+04  0.25500000920E-02 0.  1.
       -2   -1    0    0    0  501  0.00000000000E+00  0.00000000000E+00 -0.14090017058E+04  0.14090017058E+04  0.25500000920E-02 0. -1.
    10030    2    1    2    0    0  0.00000000000E+00  0.00000000000E+00 -0.26890889678E+02  0.27911125219E+04  0.27909829792E+04 0.  0.
        2    1    3    3  502    0  0.84320045987E+03  0.10433747472E+04 -0.39788313477E+03  0.13992601143E+04  0.25500000920E-02 0. -1.
       -2    1    3    3    0  502 -0.84320045987E+03 -0.10433747472E+04  0.37099224510E+03  0.13918524076E+04  0.25500000920E-02 0.  1.
</event>
<event>
 5   0  0.3438130E-06  0.2818708E+04  0.7818609E-02  0.8297484E-01
       -1   -1    0    0    0  501  0.00000000000E+00  0.00000000000E+00  0.17756280700E+04  0.17756280700E+04  0.50400001928E-02 0. -1.
        1   -1    0    0  501    0  0.00000000000E+00  0.00000000000E+00 -0.11186343431E+04  0.11186343431E+04  0.50400001928E-02 0.  1.
    10030    2    1    2    0    0  0.00000000000E+00  0.00000000000E+00  0.65699372691E+03  0.28942624130E+04  0.28187078881E+04 0.  0.
        3    1    3    3  502    0  0.20233316365E+03  0.39518435660E+03  0.17019490139E+04  0.17589030220E+04  0.10100000352E+00 0. -1.
       -3    1    3    3    0  502 -0.20233316365E+03 -0.39518435660E+03 -0.10449552870E+04  0.11353593910E+04  0.10100000352E+00 0.  1.
</event>
<event>
 5   0  0.3438130E-06  0.2797603E+04  0.7818609E-02  0.8304013E-01
        1   -1    0    0  501    0  0.00000000000E+00  0.00000000000E+00  0.18038092648E+04  0.18038092648E+04  0.50400001928E-02 0. -1.
       -1   -1    0    0    0  501  0.00000000000E+00  0.00000000000E+00 -0.10847301437E+04  0.10847301437E+04  0.50400001928E-02 0.  1.
    10030    2    1    2    0    0  0.00000000000E+00  0.00000000000E+00  0.71907912115E+03  0.28885394085E+04  0.27976034622E+04 0.  0.
        3    1    3    3  502    0  0.96561166988E+03 -0.97800126266E+03  0.90782854948E+02  0.13773648405E+04  0.10100000352E+00 0.  1.
       -3    1    3    3    0  502 -0.96561166988E+03  0.97800126266E+03  0.62829626620E+03  0.15111745680E+04  0.10100000352E+00 0. -1.
</event>
<event>
 5   0  0.3357244E-06  0.2740094E+04  0.7818609E-02  0.8322112E-01
        1   -1    0    0  501    0  0.00000000000E+00  0.00000000000E+00  0.21040028227E+04  0.21040028227E+04  0.50400001928E-02 0. -1.
       -1   -1    0    0    0  501  0.00000000000E+00  0.00000000000E+00 -0.89212270352E+03  0.89212270354E+03  0.50400001928E-02 0.  1.
    10030    2    1    2    0    0  0.00000000000E+00  0.00000000000E+00  0.12118801192E+04  0.29961255263E+04  0.27400939301E+04 0.  0.
        4    1    3    3  502    0  0.26878501723E+03 -0.56936540513E+03 -0.72455761344E+03  0.95989983756E+03  0.12699999809E+01 0.  1.
       -4    1    3    3    0  502 -0.26878501723E+03  0.56936540513E+03  0.19364377327E+04  0.20362256887E+04  0.12699999809E+01 0. -1.
</event>
<event>
 5   0  0.9065579E-06  0.2776892E+04  0.7818609E-02  0.8310479E-01
        2   -1    0    0  501    0  0.00000000000E+00  0.00000000000E+00  0.17997077357E+04  0.17997077357E+04  0.25500000920E-02 0.  1.
       -2   -1    0    0    0  501  0.00000000000E+00  0.00000000000E+00 -0.10711638104E+04  0.10711638104E+04  0.25500000920E-02 0. -1.
    10030    2    1    2    0    0  0.00000000000E+00  0.00000000000E+00  0.72854392526E+03  0.28708715461E+04  0.27768916405E+04 0.  0.
        3    1    3    3  502    0  0.39608215245E+03  0.11300970013E+04  0.10907495613E+04  0.16197947152E+04  0.10100000352E+00 0.  1.
       -3    1    3    3    0  502 -0.39608215245E+03 -0.11300970013E+04 -0.36220563604E+03  0.12510768309E+04  0.10100000352E+00 0. -1.
</event>
<event>
 5   0  0.9342133E-06  0.2763122E+04  0.7818609E-02  0.8314810E-01
        2   -1    0    0  501    0  0.00000000000E+00  0.00000000000E+00  0.14812271246E+04  0.14812271246E+04  0.25500000920E-02 0. -1.
       -2   -1    0    0    0  501  0.00000000000E+00  0.00000000000E+00 -0.12886006574E+04  0.12886006574E+04  0.25500000920E-02 0.  1.
    10030    2    1    2    0    0  0.00000000000E+00  0.00000000000E+00  0.19262646713E+03  0.27698277820E+04  0.27631216018E+04 0.  0.
        2    1    3    3  502    0  0.75698240762E+03 -0.92586477858E+03 -0.59707525517E+03  0.13366924904E+04  0.25500000920E-02 0.  1.
       -2    1    3    3    0  502 -0.75698240762E+03  0.92586477858E+03  0.78970172230E+03  0.14331352915E+04  0.25500000920E-02 0. -1.
</event>
<event>
 5   0  0.9426937E-06  0.2827445E+04  0.7818609E-02  0.8294798E-01
        2   -1    0    0  501    0  0.00000000000E+00  0.00000000000E+00  0.19668202350E+04  0.19668202350E+04  0.25500000920E-02 0. -1.
       -2   -1    0    0    0  501  0.00000000000E+00  0.00000000000E+00 -0.10161636647E+04  0.10161636647E+04  0.25500000920E-02 0.  1.
    10030    2    1    2    0    0  0.00000000000E+00  0.00000000000E+00  0.95065657037E+03  0.29829838997E+04  0.28274449652E+04 0.  0.
        4    1    3    3  502    0  0.96376738510E+03 -0.29491193396E+03  0.15212204213E+04  0.18248106215E+04  0.12699999809E+01 0. -1.
       -4    1    3    3    0  502 -0.96376738510E+03  0.29491193396E+03 -0.57056385094E+03  0.11581732782E+04  0.12699999809E+01 0.  1.
</event>
<event>
 5   0  0.3397882E-06  0.2798636E+04  0.7818609E-02  0.8303692E-01
        1   -1    0    0  501    0  0.00000000000E+00  0.00000000000E+00  0.13247021902E+04  0.13247021902E+04  0.50400001928E-02 0. -1.
       -1   -1    0    0    0  501  0.00000000000E+00  0.00000000000E+00 -0.14781367143E+04  0.14781367143E+04  0.50400001928E-02 0.  1.
    10030    2    1    2    0    0  0.00000000000E+00  0.00000000000E+00 -0.15343452407E+03  0.28028389045E+04  0.27986360556E+04 0.  0.
        2    1    3    3  502    0 -0.11533829748E+04 -0.37709416346E+03  0.62117831616E+03  0.13632148749E+04  0.25500000920E-02 0. -1.
       -2    1    3    3    0  502  0.11533829748E+04  0.37709416346E+03 -0.77461284023E+03  0.14396240297E+04  0.25500000920E-02 0.  1.
</event>
<event>
 5   0  0.9065579E-06  0.2604147E+04  0.7818609E-02  0.8366794E-01
       -2   -1    0    0    0  501  0.00000000000E+00  0.00000000000E+00  0.12519813307E+04  0.12519813307E+04  0.25500000920E-02 0. -1.
        2   -1    0    0  501    0  0.00000000000E+00  0.00000000000E+00 -0.13541698017E+04  0.13541698017E+04  0.25500000920E-02 0.  1.
    10030    2    1    2    0    0  0.00000000000E+00  0.00000000000E+00 -0.10218847100E+03  0.26061511324E+04  0.26041469316E+04 0.  0.
        3    1    3    3  502    0 -0.69685439729E+03 -0.57994720824E+03  0.88421076836E+03  0.12664017958E+04  0.10100000352E+00 0. -1.
       -3    1    3    3    0  502  0.69685439729E+03  0.57994720824E+03 -0.98639923936E+03  0.13397493366E+04  0.10100000352E+00 0.  1.
</event>
<event>
 5   0  0.9342133E-06  0.2809400E+04  0.7818609E-02  0.8300356E-01
        2   -1    0    0  501    0  0.00000000000E+00  0.00000000000E+00  0.15385425380E+04  0.15385425380E+04  0.25500000920E-02 0.  1.
       -2   -1    0    0    0  501  0.00000000000E+00  0.00000000000E+00 -0.12825010564E+04  0.12825010564E+04  0.25500000920E-02 0. -1.
    10030    2    1    2    0    0  0.00000000000E+00  0.00000000000E+00  0.25604148162E+03  0.28210435943E+04  0.28094002422E+04 0.  0.
        2    1    3    3  502    0 -0.43520107115E+03  0.76178550730E+02  0.14669558525E+04  0.15320452399E+04  0.25500000920E-02 0.  1.
       -2    1    3    3    0  502  0.43520107115E+03 -0.76178550730E+02 -0.12109143709E+04  0.12889983544E+04  0.25500000920E-02 0. -1.
</event>
<event>
 5   0  0.3371603E-06  0.2780149E+04  0.7818609E-02  0.8309458E-01
       -1   -1    0    0    0  501  0.00000000000E+00  0.00000000000E+00  0.81267561087E+03  0.81267561089E+03  0.50400001928E-02 0.  1.
        1   -1    0    0  501    0  0.00000000000E+00  0.00000000000E+00 -0.23777099698E+04  0.23777099698E+04  0.50400001928E-02 0. -1.
    10030    2    1    2    0    0  0.00000000000E+00  0.00000000000E+00 -0.15650343589E+04  0.31903855807E+04  0.27801488465E+04 0.  0.
        1    1    3    3  502    0  0.70578012583E+03 -0.10803756297E+03  0.58616517319E+03  0.92378964668E+03  0.50400001928E-02 0.  1.
       -1    1    3    3    0  502 -0.70578012583E+03  0.10803756297E+03 -0.21511995321E+04  0.22665959340E+04  0.50400001928E-02 0. -1.
</event>
<event>
 5   0  0.3600963E-06  0.2783398E+04  0.7818609E-02  0.8308441E-01
       -1   -1    0    0    0  501  0.00000000000E+00  0.00000000000E+00  0.97335175813E+03  0.97335175815E+03  0.50400001928E-02 0. -1.
        1   -1    0    0  501    0  0.00000000000E+00  0.00000000000E+00 -0.19898521249E+04  0.19898521249E+04  0.50400001928E-02 0.  1.
    10030    2    1    2    0    0  0.00000000000E+00  0.00000000000E+00 -0.10165003668E+04  0.29632038830E+04  0.27833979695E+04 0.  0.
        5    1    3    3  502    0 -0.82671087264E+03  0.70262599143E+03  0.41964445572E+03  0.11632960543E+04  0.46999998093E+01 0. -1.
       -5    1    3    3    0  502  0.82671087264E+03 -0.70262599143E+03 -0.14361448225E+04  0.17999078287E+04  0.46999998093E+01 0.  1.
</event>
<event>
 5   0  0.3357244E-06  0.2748625E+04  0.7818609E-02  0.8319398E-01
       -1   -1    0    0    0  501  0.00000000000E+00  0.00000000000E+00  0.14587402393E+04  0.14587402393E+04  0.50400001928E-02 0.  1.
        1   -1    0    0  501    0  0.00000000000E+00  0.00000000000E+00 -0.12947710196E+04  0.12947710196E+04  0.50400001928E-02 0. -1.
    10030    2    1    2    0    0  0.00000000000E+00  0.00000000000E+00  0.16396921972E+03  0.27535112590E+04  0.27486248104E+04 0.  0.
        4    1    3    3  502    0  0.66228318986E+03 -0.63854137971E+03  0.11047692357E+04  0.14376615715E+04  0.12699999809E+01 0.  1.
       -4    1    3    3    0  502 -0.66228318986E+03  0.63854137971E+03 -0.94080001593E+03  0.13158496875E+04  0.12699999809E+01 0. -1.
</event>
<event>
 5   0  0.3438130E-06  0.2815423E+04  0.7818609E-02  0.8298496E-01
       -1   -1    0    0    0  501  0.00000000000E+00  0.00000000000E+00  0.92826727453E+03  0.92826727454E+03  0.50400001928E-02 0. -1.
        1   -1    0    0  501    0  0.00000000000E+00  0.00000000000E+00 -0.21347859398E+04  0.21347859398E+04  0.50400001928E-02 0.  1.
    10030    2    1    2    0    0  0.00000000000E+00  0.00000000000E+00 -0.12065186653E+04  0.30630532143E+04  0.28154231839E+04 0.  0.
        3    1    3    3  502    0 -0.31664966513E+03  0.44154710161E+03  0.80958355006E+03  0.97501609633E+03  0.10100000352E+00 0. -1.
       -3    1    3    3    0  502  0.31664966513E+03 -0.44154710161E+03 -0.20161022153E+04  0.20880371180E+04  0.10100000352E+00 0.  1.
</event>
<event>
 5   0  0.9252359E-06  0.2832357E+04  0.7818609E-02  0.8293293E-01
        2   -1    0    0  501    0  0.00000000000E+00  0.00000000000E+00  0.27016150227E+04  0.27016150227E+04  0.25500000920E-02 0.  1.
       -2   -1    0    0    0  501  0.00000000000E+00  0.00000000000E+00 -0.74235628105E+03  0.74235628106E+03  0.25500000920E-02 0. -1.
    10030    2    1    2    0    0  0.00000000000E+00  0.00000000000E+00  0.19592587417E+04  0.34439713038E+04  0.28323565320E+04 0.  0.
        5    1    3    3  502    0 -0.55493386315E+03 -0.72807735538E+03  0.22934567043E+04  0.24694157148E+04  0.46999998093E+01 0.  1.
       -5    1    3    3    0  502  0.55493386315E+03  0.72807735538E+03 -0.33419796262E+03  0.97455558902E+03  0.46999998093E+01 0. -1.
</event>
<event>
 5   0  0.3357244E-06  0.2611876E+04  0.7818609E-02  0.8364178E-01
       -1   -1    0    0    0  501  0.00000000000E+00  0.00000000000E+00  0.95086433122E+03  0.95086433124E+03  0.50400001928E-02 0. -1.
        1   -1    0    0  501    0  0.00000000000E+00  0.00000000000E+00 -0.17936038584E+04  0.17936038584E+04  0.50400001928E-02 0.  1.
    10030    2    1    2    0    0  0.00000000000E+00  0.00000000000E+00 -0.84273952719E+03  0.27444681897E+04  0.26118759031E+04 0.  0.
        4    1    3    3  502    0 -0.23981153905E+03 -0.11289499785E+04 -0.10634850272E+04  0.15694074181E+04  0.12699999809E+01 0. -1.
       -4    1    3    3    0  502  0.23981153905E+03  0.11289499785E+04  0.22074549998E+03  0.11750607715E+04  0.12699999809E+01 0.  1.
</event>
<event>
 5   0  0.9260173E-06  0.2581250E+04  0.7818609E-02  0.8374598E-01
       -2   -1    0    0    0  501  0.00000000000E+00  0.00000000000E+00  0.13683770431E+04  0.13683770431E+04  0.25500000920E-02 0.  1.
        2   -1    0    0  501    0  0.00000000000E+00  0.00000000000E+00 -0.12172911946E+04  0.12172911946E+04  0.25500000920E-02 0. -1.
    10030    2    1    2    0    0  0.00000000000E+00  0.00000000000E+00  0.15108584842E+03  0.25856682377E+04  0.25812503369E+04 0.  0.
        1    1    3    3  502    0  0.69720662686E+03  0.22644626122E+03 -0.98850783703E+03  0.12306594710E+04  0.50400001928E-02 0. -1.
       -1    1    3    3    0  502 -0.69720662686E+03 -0.22644626122E+03  0.11395936855E+04  0.13550087667E+04  0.50400001928E-02 0.  1.
</event>
<event>
 5   0  0.3397882E-06  0.2819744E+04  0.7818609E-02  0.8297165E-01
        1   -1    0    0  501    0  0.00000000000E+00  0.00000000000E+00  0.28304213465E+04  0.28304213465E+04  0.50400001928E-02 0. -1.
       -1   -1    0    0    0  501  0.00000000000E+00  0.00000000000E+00 -0.70227692248E+03  0.70227692250E+03  0.50400001928E-02 0.  1.
    10030    2    1    2    0    0  0.00000000000E+00  0.00000000000E+00  0.21281444241E+04  0.35326982690E+04  0.28197443803E+04 0.  0.
        2    1    3    3  502    0 -0.76077257575E+03 -0.11233463492E+04  0.58363058212E+03  0.14769247065E+04  0.25500000920E-02 0. -1.
       -2    1    3    3    0  502  0.76077257575E+03  0.11233463492E+04  0.15445138419E+04  0.20557735625E+04  0.25500000920E-02 0.  1.
</event>
<event>
 5   0  0.3438130E-06  0.2801518E+04  0.7818609E-02  0.8302797E-01
       -1   -1    0    0    0  501  0.00000000000E+00  0.00000000000E+00  0.11328937021E+04  0.11328937021E+04  0.50400001928E-02 0. -1.
        1   -1    0    0  501    0  0.00000000000E+00  0.00000000000E+00 -0.17319587469E+04  0.17319587469E+04  0.50400001928E-02 0.  1.
    10030    2    1    2    0    0  0.00000000000E+00  0.00000000000E+00 -0.59906504479E+03  0.28648524490E+04  0.28015175578E+04 0.  0.
        3    1    3    3  502    0  0.11956928070E+04 -0.68441629879E+03 -0.55827074955E+03  0.14865305913E+04  0.10100000352E+00 0.  1.
       -3    1    3    3    0  502 -0.11956928070E+04  0.68441629879E+03 -0.40794295237E+02  0.13783218578E+04  0.10100000352E+00 0. -1.
</event>
<event>
 5   0  0.9260173E-06  0.2801892E+04  0.7818609E-02  0.8302681E-01
        2   -1    0    0  501    0  0.00000000000E+00  0.00000000000E+00  0.20572618329E+04  0.20572618329E+04  0.25500000920E-02 0.  1.
       -2   -1    0    0    0  501  0.00000000000E+00  0.00000000000E+00 -0.95401074221E+03  0.95401074222E+03  0.25500000920E-02 0. -1.
    10030    2    1    2    0    0  0.00000000000E+00  0.00000000000E+00  0.11032510907E+04  0.30112725751E+04  0.28018921379E+04 0.  0.
        1    1    3    3  502    0  0.21067425399E+03 -0.86705095983E+03 -0.60912516410E+03  0.10803677493E+04  0.50400001928E-02 0. -1.
       -1    1    3    3    0  502 -0.21067425399E+03  0.86705095983E+03  0.17123762548E+04  0.19309048258E+04  0.50400001928E-02 0.  1.
</event>
<event>
 5   0  0.3357244E-06  0.2799822E+04  0.7818609E-02  0.8303324E-01
       -1   -1    0    0    0  501  0.00000000000E+00  0.00000000000E+00  0.10346125614E+04  0.10346125615E+04  0.50400001928E-02 0. -1.
        1   -1    0    0  501    0  0.00000000000E+00  0.00000000000E+00 -0.18941886013E+04  0.18941886013E+04  0.50400001928E-02 0.  1.
    10030    2    1    2    0    0  0.00000000000E+00  0.00000000000E+00 -0.85957603980E+03  0.29288011627E+04  0.27998223662E+04 0.  0.
        4    1    3    3  502    0  0.75106084746E+03 -0.11615639813E+04 -0.65518186212E+03  0.15305515884E+04  0.12699999809E+01 0.  1.
       -4    1    3    3    0  502 -0.75106084746E+03  0.11615639813E+04 -0.20439417769E+03  0.13982495743E+04  0.12699999809E+01 0. -1.
</event>
<event>
 5   0  0.9342133E-06  0.2798069E+04  0.7818609E-02  0.8303868E-01
       -2   -1    0    0    0  501  0.00000000000E+00  0.00000000000E+00  0.10242627260E+04  0.10242627260E+04  0.25500000920E-02 0.  1.
        2   -1    0    0  501    0  0.00000000000E+00  0.00000000000E+00 -0.19109331742E+04  0.19109331742E+04  0.25500000920E-02 0. -1.
    10030    2    1    2    0    0  0.00000000000E+00  0.00000000000E+00 -0.88667044820E+03  0.29351959002E+04  0.27980690644E+04 0.  0.
        2    1    3    3  502    0  0.47583270120E+03  0.45923354242E+03  0.84996208138E+03  0.10769158490E+04  0.25500000920E-02 0.  1.
       -2    1    3    3    0  502 -0.47583270120E+03 -0.45923354242E+03 -0.17366325296E+04  0.18582800512E+04  0.25500000920E-02 0. -1.
</event>
<event>
 5   0  0.3600963E-06  0.2804925E+04  0.7818609E-02  0.8301741E-01
       -1   -1    0    0    0  501  0.00000000000E+00  0.00000000000E+00  0.14165207448E+04  0.14165207448E+04  0.50400001928E-02 0.  1.
        1   -1    0    0  501    0  0.00000000000E+00  0.00000000000E+00 -0.13885440843E+04  0.13885440843E+04  0.50400001928E-02 0. -1.
    10030    2    1    2    0    0  0.00000000000E+00  0.00000000000E+00  0.27976660495E+02  0.28050648291E+04  0.28049253113E+04 0.  0.
        5    1    3    3  502    0  0.11101869472E+04  0.19673597459E+03  0.84809175028E+03  0.14108514480E+04  0.46999998093E+01 0.  1.
       -5    1    3    3    0  502 -0.11101869472E+04 -0.19673597459E+03 -0.82011508979E+03  0.13942133811E+04  0.46999998093E+01 0. -1.
</event>
<event>
 5   0  0.9065579E-06  0.2774080E+04  0.7818609E-02  0.8311361E-01
       -2   -1    0    0    0  501  0.00000000000E+00  0.00000000000E+00  0.12475959755E+04  0.12475959755E+04  0.25500000920E-02 0. -1.
        2   -1    0    0  501    0  0.00000000000E+00  0.00000000000E+00 -0.15420700761E+04  0.15420700761E+04  0.25500000920E-02 0.  1.
    10030    2    1    2    0    0  0.00000000000E+00  0.00000000000E+00 -0.29447410053E+03  0.27896660516E+04  0.27740803312E+04 0.  0.
        3    1    3    3  502    0 -0.18513833183E+03 -0.13422722226E+04  0.15092410526E+03  0.13633594600E+04  0.10100000352E+00 0. -1.
       -3    1    3    3    0  502  0.18513833183E+03  0.13422722226E+04 -0.44539820579E+03  0.14263065916E+04  0.10100000352E+00 0.  1.
</event>
<event>
 5   0  0.3397882E-06  0.2745914E+04  0.7818609E-02  0.8320259E-01
       -1   -1    0    0    0  501  0.00000000000E+00  0.00000000000E+00  0.13024977020E+04  0.13024977020E+04  0.50400001928E-02 0. -1.
        1   -1    0    0  501    0  0.00000000000E+00  0.00000000000E+00 -0.14472276686E+04  0.14472276686E+04  0.50400001928E-02 0.  1.
    10030    2    1    2    0    0  0.00000000000E+00  0.00000000000E+00 -0.14472996656E+03  0.27497253706E+04  0.27459138461E+04 0.  0.
        2    1    3    3  502    0 -0.29173403971E+03  0.12080009707E+04  0.51208512302E+03  0.13441005425E+04  0.25500000920E-02 0. -1.
       -2    1    3    3    0  502  0.29173403971E+03 -0.12080009707E+04 -0.65681508958E+03  0.14056248280E+04  0.25500000920E-02 0.  1.
</event>
<event>
 5   0  0.9342133E-06  0.2823290E+04  0.7818609E-02  0.8296074E-01
       -2   -1    0    0    0  501  0.00000000000E+00  0.00000000000E+00  0.17741499984E+04  0.17741499984E+04  0.25500000920E-02 0. -1.
        2   -1    0    0  501    0  0.00000000000E+00  0.00000000000E+00 -0.11232090962E+04  0.11232090962E+04  0.25500000920E-02 0.  1.
    10030    2    1    2    0    0  0.00000000000E+00  0.00000000000E+00  0.65094090226E+03  0.28973590946E+04  0.28232898655E+04 0.  0.
        2    1    3    3  502    0 -0.86583157559E+03 -0.82232730992E+03  0.10981204451E+04  0.16222684839E+04  0.25500000920E-02 0. -1.
       -2    1    3    3    0  502  0.86583157559E+03  0.82232730992E+03 -0.44717954282E+03  0.12750906107E+04  0.25500000920E-02 0.  1.
</event>
<event>
 5   0  0.9065579E-06  0.2815049E+04  0.7818609E-02  0.8298611E-01
        2   -1    0    0  501    0  0.00000000000E+00  0.00000000000E+00  0.13762594204E+04  0.13762594204E+04  0.25500000920E-02 0.  1.
       -2   -1    0    0    0  501  0.00000000000E+00  0.00000000000E+00 -0.14395002541E+04  0.14395002541E+04  0.25500000920E-02 0. -1.
    10030    2    1    2    0    0  0.00000000000E+00  0.00000000000E+00 -0.63240833636E+02  0.28157596745E+04  0.28150494031E+04 0.  0.
        3    1    3    3  502    0  0.51542760899E+03 -0.12997665745E+04 -0.19311395443E+03  0.14115069174E+04  0.10100000352E+00 0.  1.
       -3    1    3    3    0  502 -0.51542760899E+03  0.12997665745E+04  0.12987312079E+03  0.14042527571E+04  0.10100000352E+00 0. -1.
</event>
<event>
 5   0  0.3438130E-06  0.2793567E+04  0.7818609E-02  0.8305268E-01
        1   -1    0    0  501    0  0.00000000000E+00  0.00000000000E+00  0.10951948362E+04  0.10951948362E+04  0.50400001928E-02 0. -1.
       -1   -1    0    0    0  501  0.00000000000E+00  0.00000000000E+00 -0.17814214511E+04  0.17814214511E+04  0.50400001928E-02 0.  1.
    10030    2    1    2    0    0  0.00000000000E+00  0.00000000000E+00 -0.68622661488E+03  0.28766162873E+04  0.27935665908E+04 0.  0.
        3    1    3    3  502    0 -0.30671256910E+03 -0.47981056662E+03  0.97023024627E+03  0.11250055648E+04  0.10100000352E+00 0. -1.
       -3    1    3    3    0  502  0.30671256910E+03  0.47981056662E+03 -0.16564568612E+04  0.17516107224E+04  0.10100000352E+00 0.  1.
</event>
<event>
 5   0  0.3357244E-06  0.2784989E+04  0.7818609E-02  0.8307944E-01
       -1   -1    0    0    0  501  0.00000000000E+00  0.00000000000E+00  0.11310916571E+04  0.11310916571E+04  0.50400001928E-02 0. -1.
        1   -1    0    0  501    0  0.00000000000E+00  0.00000000000E+00 -0.17143088125E+04  0.17143088125E+04  0.50400001928E-02 0.  1.
    10030    2    1    2    0    0  0.00000000000E+00  0.00000000000E+00 -0.58321715539E+03  0.28454004696E+04  0.27849886144E+04 0.  0.
        4    1    3    3  502    0  0.26368439909E+03  0.10235164065E+04 -0.12178744648E+04  0.16125554631E+04  0.12699999809E+01 0.  1.
       -4    1    3    3    0  502 -0.26368439909E+03 -0.10235164065E+04  0.63465730939E+03  0.12328450065E+04  0.12699999809E+01 0. -1.
</event>
<event>
 5   0  0.9342133E-06  0.2793459E+04  0.7818609E-02  0.8305302E-01
        2   -1    0    0  501    0  0.00000000000E+00  0.00000000000E+00  0.84337293455E+03  0.84337293456E+03  0.25500000920E-02 0. -1.
       -2   -1    0    0    0  501  0.00000000000E+00  0.00000000000E+00 -0.23131560953E+04  0.23131560953E+04  0.25500000920E-02 0.  1.
    10030    2    1    2    0    0  0.00000000000E+00  0.00000000000E+00 -0.14697831608E+04  0.31565290299E+04  0.27934589628E+04 0.  0.
        2    1    3    3  502    0 -0.99657443466E+03 -0.89992317246E+03 -0.11693519205E+04  0.17805634597E+04  0.25500000920E-02 0.  1.
       -2    1    3    3    0  502  0.99657443466E+03  0.89992317246E+03 -0.30043124030E+03  0.13759655702E+04  0.25500000920E-02 0. -1.
</event>
<event>
 5   0  0.9426937E-06  0.2797065E+04  0.7818609E-02  0.8304180E-01
       -2   -1    0    0    0  501  0.00000000000E+00  0.00000000000E+00  0.17454485163E+04  0.17454485163E+04  0.25500000920E-02 0.  1.
        2   -1    0    0  501    0  0.00000000000E+00  0.00000000000E+00 -0.11205679930E+04  0.11205679930E+04  0.25500000920E-02 0. -1.
    10030    2    1    2    0    0  0.00000000000E+00  0.00000000000E+00  0.62488052328E+03  0.28660165093E+04  0.27970654199E+04 0.  0.
        4    1    3    3  502    0 -0.53397680590E+03  0.56615329749E+03 -0.87819888124E+03  0.11734119794E+04  0.12699999809E+01 0. -1.
       -4    1    3    3    0  502  0.53397680590E+03 -0.56615329749E+03  0.15030794045E+04  0.16926045299E+04  0.12699999809E+01 0.  1.
</event>
<event>
 5   0  0.9065579E-06  0.2691082E+04  0.7818609E-02  0.8337904E-01
        2   -1    0    0  501    0  0.00000000000E+00  0.00000000000E+00  0.21514731431E+04  0.21514731431E+04  0.25500000920E-02 0.  1.
       -2   -1    0    0    0  501  0.00000000000E+00  0.00000000000E+00 -0.84150732170E+03  0.84150732171E+03  0.25500000920E-02 0. -1.
    10030    2    1    2    0    0  0.00000000000E+00  0.00000000000E+00  0.13099658214E+04  0.29929804648E+04  0.26910818660E+04 0.  0.
        3    1    3    3  502    0  0.83338549477E+03 -0.23837156112E+03  0.17995762094E+04  0.19974551128E+04  0.10100000352E+00 0.  1.
       -3    1    3    3    0  502 -0.83338549477E+03  0.23837156112E+03 -0.48961038807E+03  0.99552535194E+03  0.10100000352E+00 0. -1.
</event>
<event>
 5   0  0.9252359E-06  0.2560879E+04  0.7818609E-02  0.8381612E-01
        2   -1    0    0  501    0  0.00000000000E+00  0.00000000000E+00  0.14063957241E+04  0.14063957241E+04  0.25500000920E-02 0. -1.
       -2   -1    0    0    0  501  0.00000000000E+00  0.00000000000E+00 -0.11657640605E+04  0.11657640605E+04  0.25500000920E-02 0.  1.
    10030    2    1    2    0    0  0.00000000000E+00  0.00000000000E+00  0.24063166352E+03  0.25721597846E+04  0.25608792162E+04 0.  0.
        5    1    3    3  502    0 -0.56634373626E+03 -0.83560138397E+03 -0.67089049173E+03  0.12120606595E+04  0.46999998093E+01 0.  1.
       -5    1    3    3    0  502  0.56634373626E+03  0.83560138397E+03  0.91152215525E+03  0.13600991251E+04  0.46999998093E+01 0. -1.
</event>
<event>
 5   0  0.3357244E-06  0.2796472E+04  0.7818609E-02  0.8304364E-01
        1   -1    0    0  501    0  0.00000000000E+00  0.00000000000E+00  0.19340740881E+04  0.19340740881E+04  0.50400001928E-02 0. -1.
       -1   -1    0    0    0  501  0.00000000000E+00  0.00000000000E+00 -0.10108527746E+04  0.10108527746E+04  0.50400001928E-02 0.  1.
    10030    2    1    2    0    0  0.00000000000E+00  0.00000000000E+00  0.92322131351E+03  0.29449268626E+04  0.27964721763E+04 0.  0.
        4    1    3    3  502    0  0.11503662367E+04  0.77882732990E+03  0.62861056297E+03  0.15248171501E+04  0.12699999809E+01 0. -1.
       -4    1    3    3    0  502 -0.11503662367E+04 -0.77882732990E+03  0.29461075054E+03  0.14201097125E+04  0.12699999809E+01 0.  1.
</event>
<event>
 5   0  0.3600963E-06  0.2787995E+04  0.7818609E-02  0.8307005E-01
       -1   -1    0    0    0  501  0.00000000000E+00  0.00000000000E+00  0.84076482710E+03  0.84076482712E+03  0.50400001928E-02 0. -1.
        1   -1    0    0  501    0  0.00000000000E+00  0.00000000000E+00 -0.23112629827E+04  0.23112629827E+04  0.50400001928E-02 0.  1.
    10030    2    1    2    0    0  0.00000000000E+00  0.00000000000E+00 -0.14704981556E+04  0.31520278098E+04  0.27879947073E+04 0.  0.
        5    1    3    3  502    0 -0.83045308095E+03 -0.56176379926E+03 -0.18301980412E+04  0.20868344079E+04  0.46999998093E+01 0.  1.
       -5    1    3    3    0  502  0.83045308095E+03  0.56176379926E+03  0.35969988562E+03  0.10651934019E+04  0.46999998093E+01 0. -1.
</event>
<event>
 5   0  0.3371603E-06  0.2804871E+04  0.7818609E-02  0.8301758E-01
        1   -1    0    0  501    0  0.00000000000E+00  0.00000000000E+00  0.18003750865E+04  0.18003750865E+04  0.50400001928E-02 0.  1.
       -1   -1    0    0    0  501  0.00000000000E+00  0.00000000000E+00 -0.10924529765E+04  0.10924529765E+04  0.50400001928E-02 0. -1.
    10030    2    1    2    0    0  0.00000000000E+00  0.00000000000E+00  0.70792211003E+03  0.28928280630E+04  0.28048708505E+04 0.  0.
        1    1    3    3  502    0 -0.48051649771E+03  0.28882438875E+03 -0.97185029883E+03  0.11219664146E+04  0.50400001928E-02 0.  1.
       -1    1    3    3    0  502  0.48051649771E+03 -0.28882438875E+03  0.16797724089E+04  0.17708616484E+04  0.50400001928E-02 0. -1.
</event>
<event>
 5   0  0.9426937E-06  0.2809419E+04  0.7818609E-02  0.8300350E-01
       -2   -1    0    0    0  501  0.00000000000E+00  0.00000000000E+00  0.11747106104E+04  0.11747106104E+04  0.25500000920E-02 0.  1.
        2   -1    0    0  501    0  0.00000000000E+00  0.00000000000E+00 -0.16797402494E+04  0.16797402494E+04  0.25500000920E-02 0. -1.
    10030    2    1    2    0    0  0.00000000000E+00  0.00000000000E+00 -0.50502963901E+03  0.28544508598E+04  0.28094189390E+04 0.  0.
        4    1    3    3  502    0 -0.95495368907E+03 -0.90764922189E+03 -0.74760707956E+03  0.15148206549E+04  0.12699999809E+01 0. -1.
       -4    1    3    3    0  502  0.95495368907E+03  0.90764922189E+03  0.24257744055E+03  0.13396302049E+04  0.12699999809E+01 0.  1.
</event>
<event>
 5   0  0.9426937E-06  0.2795730E+04  0.7818609E-02  0.8304595E-01
        2   -1    0    0  501    0  0.00000000000E+00  0.00000000000E+00  0.16643791899E+04  0.16643791899E+04  0.25500000920E-02 0.  1.
       -2   -1    0    0    0  501  0.00000000000E+00  0.00000000000E+00 -0.11740273338E+04  0.11740273338E+04  0.25500000920E-02 0. -1.
    10030    2    1    2    0    0  0.00000000000E+00  0.00000000000E+00  0.49035185613E+03  0.28384065237E+04  0.27957300748E+04 0.  0.
        4    1    3    3  502    0  0.10677647259E+04  0.66532968013E+03 -0.37341951252E+03  0.13123371664E+04  0.12699999809E+01 0. -1.
       -4    1    3    3    0  502 -0.10677647259E+04 -0.66532968013E+03  0.86377136865E+03  0.15260693573E+04  0.12699999809E+01 0.  1.
</event>
<event>
 5   0  0.3006875E-06  0.2820434E+04  0.7818609E-02  0.8296952E-01
        3   -1    0    0  501    0  0.00000000000E+00  0.00000000000E+00  0.12789611408E+04  0.12789611448E+04  0.10100000352E+00 0. -1.
       -3   -1    0    0    0  501  0.00000000000E+00  0.00000000000E+00 -0.15549430419E+04  0.15549430452E+04  0.10100000352E+00 0.  1.
    10030    2    1    2    0    0  0.00000000000E+00  0.00000000000E+00 -0.27598190112E+03  0.28339041900E+04  0.28204338227E+04 0.  0.
        3    1    3    3  502    0  0.12174673769E+04  0.54749413262E+03 -0.59484380807E+03  0.14614430558E+04  0.10100000352E+00 0.  1.
       -3    1    3    3    0  502 -0.12174673769E+04 -0.54749413262E+03  0.31886190695E+03  0.13724611342E+04  0.10100000352E+00 0. -1.
</event>
<event>
 5   0  0.9342133E-06  0.2792142E+04  0.7818609E-02  0.8305712E-01
        2   -1    0    0  501    0  0.00000000000E+00  0.00000000000E+00  0.19691079139E+04  0.19691079139E+04  0.25500000920E-02 0.  1.
       -2   -1    0    0    0  501  0.00000000000E+00  0.00000000000E+00 -0.98979539167E+03  0.98979539167E+03  0.25500000920E-02 0. -1.
    10030    2    1    2    0    0  0.00000000000E+00  0.00000000000E+00  0.97931252221E+03  0.29589033055E+04  0.27921417864E+04 0.  0.
        2    1    3    3  502    0 -0.10296875201E+03  0.19698302107E+03 -0.97092398089E+03  0.99604128989E+03  0.25500000920E-02 0. -1.
       -2    1    3    3    0  502  0.10296875201E+03 -0.19698302107E+03  0.19502365031E+04  0.19628620157E+04  0.25500000920E-02 0.  1.
</event>
<event>
 5   0  0.3397882E-06  0.2847994E+04  0.7818609E-02  0.8288521E-01
       -1   -1    0    0    0  501  0.00000000000E+00  0.00000000000E+00  0.78695472195E+03  0.78695472197E+03  0.50400001928E-02 0.  1.
        1   -1    0    0  501    0  0.00000000000E+00  0.00000000000E+00 -0.25767267046E+04  0.25767267047E+04  0.50400001928E-02 0. -1.
    10030    2    1    2    0    0  0.00000000000E+00  0.00000000000E+00 -0.17897719827E+04  0.33636814266E+04  0.28479938535E+04 0.  0.
        2    1    3    3  502    0 -0.86775529761E+03 -0.39280526386E+02  0.43780172123E+03  0.97273458014E+03  0.25500000920E-02 0. -1.
       -2    1    3    3    0  502  0.86775529761E+03  0.39280526386E+02 -0.22275737039E+04  0.23909468465E+04  0.25500000920E-02 0.  1.
</event>
<event>
 5   0  0.3438130E-06  0.2968173E+04  0.7818609E-02  0.8252878E-01
        1   -1    0    0  501    0  0.00000000000E+00  0.00000000000E+00  0.20052608208E+04  0.20052608208E+04  0.50400001928E-02 0.  1.
       -1   -1    0    0    0  501  0.00000000000E+00  0.00000000000E+00 -0.10983669758E+04  0.10983669758E+04  0.50400001928E-02 0. -1.
    10030    2    1    2    0    0  0.00000000000E+00  0.00000000000E+00  0.90689384501E+03  0.31036277966E+04  0.29681726793E+04 0.  0.
        3    1    3    3  502    0 -0.28276676933E+03 -0.49341608078E+03 -0.97991191355E+03  0.11329800718E+04  0.10100000352E+00 0. -1.
       -3    1    3    3    0  502  0.28276676933E+03  0.49341608078E+03  0.18868057586E+04  0.19706477248E+04  0.10100000352E+00 0.  1.
</event>
<event>
 5   0  0.9252359E-06  0.2799241E+04  0.7818609E-02  0.8303504E-01
       -2   -1    0    0    0  501  0.00000000000E+00  0.00000000000E+00  0.90994693371E+03  0.90994693371E+03  0.25500000920E-02 0.  1.
        2   -1    0    0  501    0  0.00000000000E+00  0.00000000000E+00 -0.21528045827E+04  0.21528045827E+04  0.25500000920E-02 0. -1.
    10030    2    1    2    0    0  0.00000000000E+00  0.00000000000E+00 -0.12428576490E+04  0.30627515165E+04  0.27992412750E+04 0.  0.
        5    1    3    3  502    0 -0.69474124332E+03  0.73975069716E+03 -0.16760192162E+04  0.19593261577E+04  0.46999998093E+01 0. -1.
       -5    1    3    3    0  502  0.69474124332E+03 -0.73975069716E+03  0.43316156716E+03  0.11034253588E+04  0.46999998093E+01 0.  1.
</event>
<event>
 5   0  0.9260173E-06  0.2504185E+04  0.7818609E-02  0.8401496E-01
        2   -1    0    0  501    0  0.00000000000E+00  0.00000000000E+00  0.21349896736E+04  0.21349896736E+04  0.25500000920E-02 0.  1.
       -2   -1    0    0    0  501  0.00000000000E+00  0.00000000000E+00 -0.73430604792E+03  0.73430604792E+03  0.25500000920E-02 0. -1.
    10030    2    1    2    0    0  0.00000000000E+00  0.00000000000E+00  0.14006836257E+04  0.28692957215E+04  0.25041851606E+04 0.  0.
        1    1    3    3  502    0 -0.36574646985E+01 -0.51545822997E+03  0.20077722132E+04  0.20728868334E+04  0.50400001928E-02 0.  1.
       -1    1    3    3    0  502  0.36574646985E+01  0.51545822997E+03 -0.60708858756E+03  0.79640888811E+03  0.50400001928E-02 0. -1.
</event>
<event>
 5   0  0.3357244E-06  0.2798219E+04  0.7818609E-02  0.8303821E-01
       -1   -1    0    0    0  501  0.00000000000E+00  0.00000000000E+00  0.10040001696E+04  0.10040001696E+04  0.50400001928E-02 0. -1.
        1   -1    0    0  501    0  0.00000000000E+00  0.00000000000E+00 -0.19497083925E+04  0.19497083925E+04  0.50400001928E-02 0.  1.
    10030    2    1    2    0    0  0.00000000000E+00  0.00000000000E+00 -0.94570822289E+03  0.29537085622E+04  0.27982191171E+04 0.  0.
        4    1    3    3  502    0  0.80456370420E+03 -0.11435772090E+04 -0.52472057669E+03  0.14934607071E+04  0.12699999809E+01 0. -1.
       -4    1    3    3    0  502 -0.80456370420E+03  0.11435772090E+04 -0.42098764620E+03  0.14602478551E+04  0.12699999809E+01 0.  1.
</event>
<event>
 5   0  0.3357244E-06  0.2798926E+04  0.7818609E-02  0.8303602E-01
        1   -1    0    0  501    0  0.00000000000E+00  0.00000000000E+00  0.31687033015E+04  0.31687033015E+04  0.50400001928E-02 0.  1.
       -1   -1    0    0    0  501  0.00000000000E+00  0.00000000000E+00 -0.61807499382E+03  0.61807499384E+03  0.50400001928E-02 0. -1.
    10030    2    1    2    0    0  0.00000000000E+00  0.00000000000E+00  0.25506283077E+04  0.37867782954E+04  0.27989257036E+04 0.  0.
        4    1    3    3  502    0 -0.71473896035E+03  0.18172075848E+03 -0.33384305080E+03  0.80952270566E+03  0.12699999809E+01 0. -1.
       -4    1    3    3    0  502  0.71473896035E+03 -0.18172075848E+03  0.28844713585E+04  0.29772555897E+04  0.12699999809E+01 0.  1.
</event>
<event>
 5   0  0.3600963E-06  0.2822833E+04  0.7818609E-02  0.8296214E-01
       -1   -1    0    0    0  501  0.00000000000E+00  0.00000000000E+00  0.13956409128E+04  0.13956409128E+04  0.50400001928E-02 0. -1.
        1   -1    0    0  501    0  0.00000000000E+00  0.00000000000E+00 -0.14273708386E+04  0.14273708386E+04  0.50400001928E-02 0.  1.
    10030    2    1    2    0    0  0.00000000000E+00  0.00000000000E+00 -0.31729925802E+02  0.28230117514E+04  0.28228334276E+04 0.  0.
        5    1    3    3  502    0  0.14895688347E+02 -0.10482216612E+04  0.92922622671E+03  0.14008832939E+04  0.46999998093E+01 0. -1.
       -5    1    3    3    0  502 -0.14895688347E+02  0.10482216612E+04 -0.96095615251E+03  0.14221284575E+04  0.46999998093E+01 0.  1.
</event>
<event>
 5   0  0.9426937E-06  0.2799923E+04  0.7818609E-02  0.8303292E-01
        2   -1    0    0  501    0  0.00000000000E+00  0.00000000000E+00  0.17019146095E+04  0.17019146095E+04  0.25500000920E-02 0.  1.
       -2   -1    0    0    0  501  0.00000000000E+00  0.00000000000E+00 -0.11515805046E+04  0.11515805046E+04  0.25500000920E-02 0. -1.
    10030    2    1    2    0    0  0.00000000000E+00  0.00000000000E+00  0.55033410487E+03  0.28534951141E+04  0.27999226309E+04 0.  0.
        4    1    3    3  502    0  0.13135962995E+03 -0.13782862564E+04  0.63929120580E+02  0.13860075405E+04  0.12699999809E+01 0.  1.
       -4    1    3    3    0  502 -0.13135962995E+03  0.13782862564E+04  0.48640498429E+03  0.14674875736E+04  0.12699999809E+01 0. -1.
</event>
<event>
 5   0  0.3600963E-06  0.2824642E+04  0.7818609E-02  0.8295658E-01
       -1   -1    0    0    0  501  0.00000000000E+00  0.00000000000E+00  0.87395482508E+03  0.87395482509E+03  0.50400001928E-02 0.  1.
        1   -1    0    0  501    0  0.00000000000E+00  0.00000000000E+00 -0.22823275831E+04  0.22823275831E+04  0.50400001928E-02 0. -1.
    10030    2    1    2    0    0  0.00000000000E+00  0.00000000000E+00 -0.14083727580E+04  0.31562824082E+04  0.28246424225E+04 0.  0.
        5    1    3    3  502    0 -0.36267229388E+03 -0.10755561394E+04 -0.16432605210E+04  0.19971678526E+04  0.46999998093E+01 0. -1.
       -5    1    3    3    0  502  0.36267229388E+03  0.10755561394E+04  0.23488776294E+03  0.11591145556E+04  0.46999998093E+01 0.  1.
</event>
<event>
 5   0  0.9065579E-06  0.2773584E+04  0.7818609E-02  0.8311517E-01
       -2   -1    0    0    0  501  0.00000000000E+00  0.00000000000E+00  0.12400742377E+04  0.12400742377E+04  0.25500000920E-02 0. -1.
        2   -1    0    0  501    0  0.00000000000E+00  0.00000000000E+00 -0.15508689579E+04  0.15508689579E+04  0.25500000920E-02 0.  1.
    10030    2    1    2    0    0  0.00000000000E+00  0.00000000000E+00 -0.31079472022E+03  0.27909431956E+04  0.27735844251E+04 0.  0.
        3    1    3    3  502    0 -0.24250509878E+03 -0.40484525615E+03  0.11567901852E+04  0.12493486091E+04  0.10100000352E+00 0. -1.
       -3    1    3    3    0  502  0.24250509878E+03  0.40484525615E+03 -0.14675849054E+04  0.15415945865E+04  0.10100000352E+00 0.  1.
</event>
<event>
 5   0  0.9065579E-06  0.2718645E+04  0.7818609E-02  0.8328980E-01
       -2   -1    0    0    0  501  0.00000000000E+00  0.00000000000E+00  0.14196285418E+04  0.14196285418E+04  0.25500000920E-02 0. -1.
        2   -1    0    0  501    0  0.00000000000E+00  0.00000000000E+00 -0.13015786653E+04  0.13015786653E+04  0.25500000920E-02 0.  1.
    10030    2    1    2    0    0  0.00000000000E+00  0.00000000000E+00  0.11804987645E+03  0.27212072071E+04  0.27186454146E+04 0.  0.
        3    1    3    3  502    0 -0.52496064420E+03 -0.12424766991E+04 -0.10973460729E+03  0.13532825721E+04  0.10100000352E+00 0. -1.
       -3    1    3    3    0  502  0.52496064420E+03  0.12424766991E+04  0.22778448374E+03  0.13679246350E+04  0.10100000352E+00 0.  1.
</event>
<event>
 5   0  0.3600963E-06  0.2846582E+04  0.7818609E-02  0.8288951E-01
       -1   -1    0    0    0  501  0.00000000000E+00  0.00000000000E+00  0.10458653427E+04  0.10458653427E+04  0.50400001928E-02 0. -1.
        1   -1    0    0  501    0  0.00000000000E+00  0.00000000000E+00 -0.19369195290E+04  0.19369195290E+04  0.50400001928E-02 0.  1.
    10030    2    1    2    0    0  0.00000000000E+00  0.00000000000E+00 -0.89105418626E+03  0.29827848717E+04  0.28465818147E+04 0.  0.
        5    1    3    3  502    0  0.70406687658E+02  0.10064985918E+04 -0.14974215465E+04  0.18056272857E+04  0.46999998093E+01 0.  1.
       -5    1    3    3    0  502 -0.70406687658E+02 -0.10064985918E+04  0.60636736022E+03  0.11771575861E+04  0.46999998093E+01 0. -1.
</event>
<event>
 5   0  0.9065579E-06  0.2805404E+04  0.7818609E-02  0.8301592E-01
        2   -1    0    0  501    0  0.00000000000E+00  0.00000000000E+00  0.70441925454E+03  0.70441925454E+03  0.25500000920E-02 0. -1.
       -2   -1    0    0    0  501  0.00000000000E+00  0.00000000000E+00 -0.27931852709E+04  0.27931852709E+04  0.25500000920E-02 0.  1.
    10030    2    1    2    0    0  0.00000000000E+00  0.00000000000E+00 -0.20887660164E+04  0.34976045255E+04  0.28054044175E+04 0.  0.
        3    1    3    3  502    0  0.97926454227E+03 -0.93121106973E+03 -0.15132963932E+04  0.20288368796E+04  0.10100000352E+00 0.  1.
       -3    1    3    3    0  502 -0.97926454227E+03  0.93121106973E+03 -0.57546962316E+03  0.14687676459E+04  0.10100000352E+00 0. -1.
</event>
<event>
 5   0  0.9342133E-06  0.2792299E+04  0.7818609E-02  0.8305663E-01
        2   -1    0    0  501    0  0.00000000000E+00  0.00000000000E+00  0.18236567724E+04  0.18236567724E+04  0.25500000920E-02 0.  1.
       -2   -1    0    0    0  501  0.00000000000E+00  0.00000000000E+00 -0.10688596545E+04  0.10688596545E+04  0.25500000920E-02 0. -1.
    10030    2    1    2    0    0  0.00000000000E+00  0.00000000000E+00  0.75479711787E+03  0.28925164269E+04  0.27922988004E+04 0.  0.
        2    1    3    3  502    0 -0.13767387813E+04  0.28217311364E+02  0.61593983262E+03  0.15085051429E+04  0.25500000920E-02 0.  1.
       -2    1    3    3    0  502  0.13767387813E+04 -0.28217311364E+02  0.13885728525E+03  0.13840112840E+04  0.25500000920E-02 0. -1.
</event>
<event>
 5   0  0.9260173E-06  0.2868738E+04  0.7818609E-02  0.8282240E-01
       -2   -1    0    0    0  501  0.00000000000E+00  0.00000000000E+00  0.12683889182E+04  0.12683889182E+04  0.25500000920E-02 0. -1.
        2   -1    0    0  501    0  0.00000000000E+00  0.00000000000E+00 -0.16220695238E+04  0.16220695238E+04  0.25500000920E-02 0.  1.
    10030    2    1    2    0    0  0.00000000000E+00  0.00000000000E+00 -0.35368060552E+03  0.28904584420E+04  0.28687384046E+04 0.  0.
        1    1    3    3  502    0  0.21135245865E+03  0.10142795626E+04 -0.11763094322E+04  0.15675256850E+04  0.50400001928E-02 0.  1.
       -1    1    3    3    0  502 -0.21135245865E+03 -0.10142795626E+04  0.82262882667E+03  0.13229327570E+04  0.50400001928E-02 0. -1.
</event>
<event>
 5   0  0.3371603E-06  0.2633238E+04  0.7818609E-02  0.8356998E-01
        1   -1    0    0  501    0  0.00000000000E+00  0.00000000000E+00  0.15225269817E+04  0.15225269817E+04  0.50400001928E-02 0. -1.
       -1   -1    0    0    0  501  0.00000000000E+00  0.00000000000E+00 -0.11385585868E+04  0.11385585868E+04  0.50400001928E-02 0.  1.
    10030    2    1    2    0    0  0.00000000000E+00  0.00000000000E+00  0.38396839489E+03  0.26610855686E+04  0.26332384387E+04 0.  0.
        1    1    3    3  502    0  0.51071599146E+03  0.81635613533E+03 -0.71540770671E+03  0.11996150843E+04  0.50400001928E-02 0.  1.
       -1    1    3    3    0  502 -0.51071599146E+03 -0.81635613533E+03  0.10993761016E+04  0.14614704843E+04  0.50400001928E-02 0. -1.
</event>
<event>
 5   0  0.9426937E-06  0.2647098E+04  0.7818609E-02  0.8352377E-01
        2   -1    0    0  501    0  0.00000000000E+00  0.00000000000E+00  0.19534027531E+04  0.19534027531E+04  0.25500000920E-02 0. -1.
       -2   -1    0    0    0  501  0.00000000000E+00  0.00000000000E+00 -0.89678477069E+03  0.89678477070E+03  0.25500000920E-02 0.  1.
    10030    2    1    2    0    0  0.00000000000E+00  0.00000000000E+00  0.10566179824E+04  0.28501875238E+04  0.26470979128E+04 0.  0.
        4    1    3    3  502    0  0.11026602951E+03  0.98091755732E+03 -0.42105323382E+03  0.10731473758E+04  0.12699999809E+01 0.  1.
       -4    1    3    3    0  502 -0.11026602951E+03 -0.98091755732E+03  0.14776712162E+04  0.17770401480E+04  0.12699999809E+01 0. -1.
</event>
<event>
 5   0  0.9426937E-06  0.2748692E+04  0.7818609E-02  0.8319377E-01
        2   -1    0    0  501    0  0.00000000000E+00  0.00000000000E+00  0.25568059402E+04  0.25568059402E+04  0.25500000920E-02 0.  1.
       -2   -1    0    0    0  501  0.00000000000E+00  0.00000000000E+00 -0.73874495677E+03  0.73874495678E+03  0.25500000920E-02 0. -1.
    10030    2    1    2    0    0  0.00000000000E+00  0.00000000000E+00  0.18180609835E+04  0.32955508970E+04  0.27486924119E+04 0.  0.
        4    1    3    3  502    0  0.72427431406E+03 -0.26994835651E+03  0.22715068941E+04  0.23994146328E+04  0.12699999809E+01 0.  1.
       -4    1    3    3    0  502 -0.72427431406E+03  0.26994835651E+03 -0.45344591067E+03  0.89613626419E+03  0.12699999809E+01 0. -1.
</event>
<event>
 5   0  0.9252359E-06  0.2787376E+04  0.7818609E-02  0.8307198E-01
        2   -1    0    0  501    0  0.00000000000E+00  0.00000000000E+00  0.21614029552E+04  0.21614029552E+04  0.25500000920E-02 0.  1.
       -2   -1    0    0    0  501  0.00000000000E+00  0.00000000000E+00 -0.89866008767E+03  0.89866008768E+03  0.25500000920E-02 0. -1.
    10030    2    1    2    0    0  0.00000000000E+00  0.00000000000E+00  0.12627428675E+04  0.30600630429E+04  0.27873762353E+04 0.  0.
        5    1    3    3  502    0 -0.10403739309E+04 -0.79927218097E+03  0.11476203440E+04  0.17430629591E+04  0.46999998093E+01 0.  1.
       -5    1    3    3    0  502  0.10403739309E+04  0.79927218097E+03  0.11512252349E+03  0.13170000838E+04  0.46999998093E+01 0. -1.
</event>
<event>
 5   0  0.3357244E-06  0.2739317E+04  0.7818609E-02  0.8322360E-01
        1   -1    0    0  501    0  0.00000000000E+00  0.00000000000E+00  0.16809173922E+04  0.16809173922E+04  0.50400001928E-02 0.  1.
       -1   -1    0    0    0  501  0.00000000000E+00  0.00000000000E+00 -0.11160358504E+04  0.11160358504E+04  0.50400001928E-02 0. -1.
    10030    2    1    2    0    0  0.00000000000E+00  0.00000000000E+00  0.56488154182E+03  0.27969532426E+04  0.27393167551E+04 0.  0.
        4    1    3    3  502    0  0.61862774767E+03  0.36808872791E+03 -0.90731142081E+03  0.11581904977E+04  0.12699999809E+01 0. -1.
       -4    1    3    3    0  502 -0.61862774767E+03 -0.36808872791E+03  0.14721929626E+04  0.16387627449E+04  0.12699999809E+01 0.  1.
</event>
<event>
 5   0  0.3397882E-06  0.2793072E+04  0.7818609E-02  0.8305423E-01
       -1   -1    0    0    0  501  0.00000000000E+00  0.00000000000E+00  0.13028175844E+04  0.13028175844E+04  0.50400001928E-02 0.  1.
        1   -1    0    0  501    0  0.00000000000E+00  0.00000000000E+00 -0.14969956294E+04  0.14969956294E+04  0.50400001928E-02 0. -1.
    10030    2    1    2    0    0  0.00000000000E+00  0.00000000000E+00 -0.19417804501E+03  0.27998132139E+04  0.27930715922E+04 0.  0.
        2    1    3    3  502    0 -0.33264707988E+03 -0.13460724976E+04  0.69887288599E+02  0.13883261438E+04  0.25500000920E-02 0.  1.
       -2    1    3    3    0  502  0.33264707988E+03  0.13460724976E+04 -0.26406533361E+03  0.14114870700E+04  0.25500000920E-02 0. -1.
</event>
<event>
 5   0  0.9065579E-06  0.2806803E+04  0.7818609E-02  0.8301159E-01
        2   -1    0    0  501    0  0.00000000000E+00  0.00000000000E+00  0.15445364181E+04  0.15445364181E+04  0.25500000920E-02 0. -1.
       -2   -1    0    0    0  501  0.00000000000E+00  0.00000000000E+00 -0.12751634281E+04  0.12751634281E+04  0.25500000920E-02 0.  1.
    10030    2    1    2    0    0  0.00000000000E+00  0.00000000000E+00  0.26937299001E+03  0.28196998462E+04  0.28068034158E+04 0.  0.
        3    1    3    3  502    0  0.13542430530E+04 -0.98756677152E+02  0.49101216576E+03  0.14438906071E+04  0.10100000352E+00 0. -1.
       -3    1    3    3    0  502 -0.13542430530E+04  0.98756677152E+02 -0.22163917575E+03  0.13758092391E+04  0.10100000352E+00 0.  1.
</event>
<event>
 5   0  0.9260173E-06  0.2821029E+04  0.7818609E-02  0.8296769E-01
       -2   -1    0    0    0  501  0.00000000000E+00  0.00000000000E+00  0.13194093023E+04  0.13194093023E+04  0.25500000920E-02 0. -1.
        2   -1    0    0  501    0  0.00000000000E+00  0.00000000000E+00 -0.15079106419E+04  0.15079106419E+04  0.25500000920E-02 0.  1.
    10030    2    1    2    0    0  0.00000000000E+00  0.00000000000E+00 -0.18850133960E+03  0.28273199442E+04  0.28210291228E+04 0.  0.
        1    1    3    3  502    0 -0.66104998197E+03  0.41418104743E+02  0.11538571807E+04  0.13304468917E+04  0.50400001928E-02 0. -1.
       -1    1    3    3    0  502  0.66104998197E+03 -0.41418104743E+02 -0.13423585203E+04  0.14968730525E+04  0.50400001928E-02 0.  1.
</event>
<event>
 5   0  0.9426937E-06  0.2643396E+04  0.7818609E-02  0.8353608E-01
        2   -1    0    0  501    0  0.00000000000E+00  0.00000000000E+00  0.19998876171E+04  0.19998876171E+04  0.25500000920E-02 0.  1.
       -2   -1    0    0    0  501  0.00000000000E+00  0.00000000000E+00 -0.87349192551E+03  0.87349192552E+03  0.25500000920E-02 0. -1.
    10030    2    1    2    0    0  0.00000000000E+00  0.00000000000E+00  0.11263956916E+04  0.28733795426E+04  0.26433960623E+04 0.  0.
        4    1    3    3  502    0  0.11849823399E+04  0.49710265725E+03  0.89927322946E+03  0.15684349371E+04  0.12699999809E+01 0. -1.
       -4    1    3    3    0  502 -0.11849823399E+04 -0.49710265725E+03  0.22712246214E+03  0.13049446055E+04  0.12699999809E+01 0.  1.
</event>
<event>
 5   0  0.3438130E-06  0.2847502E+04  0.7818609E-02  0.8288671E-01
       -1   -1    0    0    0  501  0.00000000000E+00  0.00000000000E+00  0.82553990852E+03  0.82553990854E+03  0.50400001928E-02 0.  1.
        1   -1    0    0  501    0  0.00000000000E+00  0.00000000000E+00 -0.24554433260E+04  0.24554433260E+04  0.50400001928E-02 0. -1.
    10030    2    1    2    0    0  0.00000000000E+00  0.00000000000E+00 -0.16299034175E+04  0.32809832346E+04  0.28475016831E+04 0.  0.
        3    1    3    3  502    0  0.13378610947E+04  0.35319951348E+03 -0.12013263681E+04  0.18324320609E+04  0.10100000352E+00 0.  1.
       -3    1    3    3    0  502 -0.13378610947E+04 -0.35319951348E+03 -0.42857704941E+03  0.14485511736E+04  0.10100000352E+00 0. -1.
</event>
<event>
 5   0  0.3371603E-06  0.2809332E+04  0.7818609E-02  0.8300377E-01
        1   -1    0    0  501    0  0.00000000000E+00  0.00000000000E+00  0.19847486165E+04  0.19847486165E+04  0.50400001928E-02 0. -1.
       -1   -1    0    0    0  501  0.00000000000E+00  0.00000000000E+00 -0.99412393504E+03  0.99412393506E+03  0.50400001928E-02 0.  1.
    10030    2    1    2    0    0  0.00000000000E+00  0.00000000000E+00  0.99062468149E+03  0.29788725516E+04  0.28093316677E+04 0.  0.
        1    1    3    3  502    0  0.23624934892E+03  0.10697303264E+04  0.14275452587E+04  0.17994505250E+04  0.50400001928E-02 0. -1.
       -1    1    3    3    0  502 -0.23624934892E+03 -0.10697303264E+04 -0.43692057722E+03  0.11794220266E+04  0.50400001928E-02 0.  1.
</event>
<event>
 5   0  0.3357244E-06  0.2832553E+04  0.7818609E-02  0.8293233E-01
        1   -1    0    0  501    0  0.00000000000E+00  0.00000000000E+00  0.10413946953E+04  0.10413946953E+04  0.50400001928E-02 0.  1.
       -1   -1    0    0    0  501  0.00000000000E+00  0.00000000000E+00 -0.19261085412E+04  0.19261085412E+04  0.50400001928E-02 0. -1.
    10030    2    1    2    0    0  0.00000000000E+00  0.00000000000E+00 -0.88471384592E+03  0.29675032366E+04  0.28325530657E+04 0.  0.
        4    1    3    3  502    0  0.13013344753E+04 -0.55842542328E+03 -0.41830138370E+03  0.14765798422E+04  0.12699999809E+01 0.  1.
       -4    1    3    3    0  502 -0.13013344753E+04  0.55842542328E+03 -0.46641246221E+03  0.14909233943E+04  0.12699999809E+01 0. -1.
</event>
<event>
 5   0  0.9260173E-06  0.2793651E+04  0.7818609E-02  0.8305242E-01
        2   -1    0    0  501    0  0.00000000000E+00  0.00000000000E+00  0.24110429236E+04  0.24110429236E+04  0.25500000920E-02 0. -1.
       -2   -1    0    0    0  501  0.00000000000E+00  0.00000000000E+00 -0.80924391850E+03  0.80924391851E+03  0.25500000920E-02 0.  1.
    10030    2    1    2    0    0  0.00000000000E+00  0.00000000000E+00  0.16017990051E+04  0.32202868421E+04  0.27936512475E+04 0.  0.
        1    1    3    3  502    0 -0.11258120464E+04  0.81319853339E+03  0.97333444841E+03  0.16959140801E+04  0.50400001928E-02 0. -1.
       -1    1    3    3    0  502  0.11258120464E+04 -0.81319853339E+03  0.62846455669E+03  0.15243727620E+04  0.50400001928E-02 0.  1.
</event>
<event>
 5   0  0.9426937E-06  0.2715553E+04  0.7818609E-02  0.8329976E-01
        2   -1    0    0  501    0  0.00000000000E+00  0.00000000000E+00  0.23998239434E+04  0.23998239434E+04  0.25500000920E-02 0.  1.
       -2   -1    0    0    0  501  0.00000000000E+00  0.00000000000E+00 -0.76820483838E+03  0.76820483838E+03  0.25500000920E-02 0. -1.
    10030    2    1    2    0    0  0.00000000000E+00  0.00000000000E+00  0.16316191051E+04  0.31680287818E+04  0.27155525144E+04 0.  0.
        4    1    3    3  502    0  0.21129735911E+03  0.11061456287E+04  0.17007152294E+04  0.20397643566E+04  0.12699999809E+01 0.  1.
       -4    1    3    3    0  502 -0.21129735911E+03 -0.11061456287E+04 -0.69096124381E+02  0.11282644252E+04  0.12699999809E+01 0. -1.
</event>
<event>
 5   0  0.3600963E-06  0.2799562E+04  0.7818609E-02  0.8303404E-01
        1   -1    0    0  501    0  0.00000000000E+00  0.00000000000E+00  0.14743576185E+04  0.14743576185E+04  0.50400001928E-02 0. -1.
       -1   -1    0    0    0  501  0.00000000000E+00  0.00000000000E+00 -0.13289769099E+04  0.13289769099E+04  0.50400001928E-02 0.  1.
    10030    2    1    2    0    0  0.00000000000E+00  0.00000000000E+00  0.14538070860E+03  0.28033345285E+04  0.27995622744E+04 0.  0.
        5    1    3    3  502    0 -0.10851507794E+04 -0.94871612482E+02  0.95297232685E+03  0.14473186182E+04  0.46999998093E+01 0. -1.
       -5    1    3    3    0  502  0.10851507794E+04  0.94871612482E+02 -0.80759161826E+03  0.13560159102E+04  0.46999998093E+01 0.  1.
</event>
<event>
 5   0  0.9260173E-06  0.2800224E+04  0.7818609E-02  0.8303199E-01
       -2   -1    0    0    0  501  0.00000000000E+00  0.00000000000E+00  0.10768108950E+04  0.10768108950E+04  0.25500000920E-02 0.  1.
        2   -1    0    0  501    0  0.00000000000E+00  0.00000000000E+00 -0.18204810854E+04  0.18204810854E+04  0.25500000920E-02 0. -1.
    10030    2    1    2    0    0  0.00000000000E+00  0.00000000000E+00 -0.74367019033E+03  0.28972919804E+04  0.28002241817E+04 0.  0.
        1    1    3    3  502    0  0.33632444287E+03  0.11853441729E+04 -0.10598354493E+04  0.16252403265E+04  0.50400001928E-02 0. -1.
       -1    1    3    3    0  502 -0.33632444287E+03 -0.11853441729E+04  0.31616525901E+03  0.12720516539E+04  0.50400001928E-02 0.  1.
</event>
<event>
 5   0  0.3438130E-06  0.2545870E+04  0.7818609E-02  0.8386824E-01
       -1   -1    0    0    0  501  0.00000000000E+00  0.00000000000E+00  0.85894696121E+03  0.85894696123E+03  0.50400001928E-02 0.  1.
        1   -1    0    0  501    0  0.00000000000E+00  0.00000000000E+00 -0.18864529247E+04  0.18864529247E+04  0.50400001928E-02 0. -1.
    10030    2    1    2    0    0  0.00000000000E+00  0.00000000000E+00 -0.10275059635E+04  0.27453998859E+04  0.25458696016E+04 0.  0.
        3    1    3    3  502    0  0.28896013290E+03 -0.42928859646E+03 -0.17679054835E+04  0.18420848152E+04  0.10100000352E+00 0. -1.
       -3    1    3    3    0  502 -0.28896013290E+03  0.42928859646E+03  0.74039952007E+03  0.90331507071E+03  0.10100000352E+00 0.  1.
</event>
<event>
 5   0  0.3006875E-06  0.2793138E+04  0.7818609E-02  0.8305402E-01
       -3   -1    0    0    0  501  0.00000000000E+00  0.00000000000E+00  0.14785598401E+04  0.14785598436E+04  0.10100000352E+00 0. -1.
        3   -1    0    0  501    0  0.00000000000E+00  0.00000000000E+00 -0.13191249103E+04  0.13191249142E+04  0.10100000352E+00 0.  1.
    10030    2    1    2    0    0  0.00000000000E+00  0.00000000000E+00  0.15943492984E+03  0.27976847577E+04  0.27931381109E+04 0.  0.
        1    1    3    3  502    0  0.10286105851E+04 -0.91041498515E+03 -0.17270455435E+03  0.13844573103E+04  0.50400001928E-02 0.  1.
       -1    1    3    3    0  502 -0.10286105851E+04  0.91041498515E+03  0.33213948419E+03  0.14132274474E+04  0.50400001928E-02 0. -1.
</event>
<event>
 5   0  0.3600963E-06  0.2817683E+04  0.7818609E-02  0.8297800E-01
        1   -1    0    0  501    0  0.00000000000E+00  0.00000000000E+00  0.21500899558E+04  0.21500899558E+04  0.50400001928E-02 0. -1.
       -1   -1    0    0    0  501  0.00000000000E+00  0.00000000000E+00 -0.92313987880E+03  0.92313987881E+03  0.50400001928E-02 0.  1.
    10030    2    1    2    0    0  0.00000000000E+00  0.00000000000E+00  0.12269500770E+04  0.30732298346E+04  0.28176825806E+04 0.  0.
        5    1    3    3  502    0 -0.14211072313E+03 -0.14012141749E+04  0.65149428794E+03  0.15517936457E+04  0.46999998093E+01 0.  1.
       -5    1    3    3    0  502  0.14211072313E+03  0.14012141749E+04  0.57545578904E+03  0.15214361889E+04  0.46999998093E+01 0. -1.
</event>
<event>
 5   0  0.3397882E-06  0.2620970E+04  0.7818609E-02  0.8361113E-01
       -1   -1    0    0    0  501  0.00000000000E+00  0.00000000000E+00  0.68466319991E+03  0.68466319993E+03  0.50400001928E-02 0. -1.
        1   -1    0    0  501    0  0.00000000000E+00  0.00000000000E+00 -0.25083435589E+04  0.25083435589E+04  0.50400001928E-02 0.  1.
    10030    2    1    2    0    0  0.00000000000E+00  0.00000000000E+00 -0.18236803590E+04  0.31930067588E+04  0.26209696889E+04 0.  0.
        2    1    3    3  502    0  0.13029657252E+04  0.13863307833E+03 -0.93715279289E+03  0.16109606353E+04  0.25500000920E-02 0.  1.
       -2    1    3    3    0  502 -0.13029657252E+04 -0.13863307833E+03 -0.88652756611E+03  0.15820461235E+04  0.25500000920E-02 0. -1.
</event>
<event>
 5   0  0.9252359E-06  0.2789478E+04  0.7818609E-02  0.8306543E-01
        2   -1    0    0  501    0  0.00000000000E+00  0.00000000000E+00  0.14383773486E+04  0.14383773486E+04  0.25500000920E-02 0.  1.
       -2   -1    0    0    0  501  0.00000000000E+00  0.00000000000E+00 -0.13524242546E+04  0.13524242546E+04  0.25500000920E-02 0. -1.
    10030    2    1    2    0    0  0.00000000000E+00  0.00000000000E+00  0.85953094052E+02  0.27908016032E+04  0.27894776669E+04 0.  0.
        5    1    3    3  502    0  0.37698078362E+03 -0.37351069321E+03 -0.12474610319E+04  0.13556569866E+04  0.46999998093E+01 0. -1.
       -5    1    3    3    0  502 -0.37698078362E+03  0.37351069321E+03  0.13334141260E+04  0.14351446166E+04  0.46999998093E+01 0.  1.
</event>
<event>
 5   0  0.9426937E-06  0.2811732E+04  0.7818609E-02  0.8299635E-01
        2   -1    0    0  501    0  0.00000000000E+00  0.00000000000E+00  0.17463462781E+04  0.17463462781E+04  0.25500000920E-02 0.  1.
       -2   -1    0    0    0  501  0.00000000000E+00  0.00000000000E+00 -0.11317679202E+04  0.11317679202E+04  0.25500000920E-02 0. -1.
    10030    2    1    2    0    0  0.00000000000E+00  0.00000000000E+00  0.61457835797E+03  0.28781141983E+04  0.28117316338E+04 0.  0.
        4    1    3    3  502    0 -0.52453534166E+03  0.12859023283E+04  0.53102438036E+03  0.14868324142E+04  0.12699999809E+01 0.  1.
       -4    1    3    3    0  502  0.52453534166E+03 -0.12859023283E+04  0.83553977609E+02  0.13912817841E+04  0.12699999809E+01 0. -1.
</event>
<event>
 5   0  0.3371603E-06  0.2741387E+04  0.7818609E-02  0.8321700E-01
        1   -1    0    0  501    0  0.00000000000E+00  0.00000000000E+00  0.15032659046E+04  0.15032659046E+04  0.50400001928E-02 0.  1.
       -1   -1    0    0    0  501  0.00000000000E+00  0.00000000000E+00 -0.12498126783E+04  0.12498126783E+04  0.50400001928E-02 0. -1.
    10030    2    1    2    0    0  0.00000000000E+00  0.00000000000E+00  0.25345322632E+03  0.27530785830E+04  0.27413870843E+04 0.  0.
        1    1    3    3  502    0 -0.37915858232E+03  0.10486109770E+04 -0.67382714560E+03  0.13028389132E+04  0.50400001928E-02 0. -1.
       -1    1    3    3    0  502  0.37915858232E+03 -0.10486109770E+04  0.92728037192E+03  0.14502396698E+04  0.50400001928E-02 0.  1.
</event>
<event>
 5   0  0.9252359E-06  0.2943712E+04  0.7818609E-02  0.8259989E-01
        2   -1    0    0  501    0  0.00000000000E+00  0.00000000000E+00  0.22266035034E+04  0.22266035034E+04  0.25500000920E-02 0.  1.
       -2   -1    0    0    0  501  0.00000000000E+00  0.00000000000E+00 -0.97294367934E+03  0.97294367935E+03  0.25500000920E-02 0. -1.
    10030    2    1    2    0    0  0.00000000000E+00  0.00000000000E+00  0.12536598241E+04  0.31995471828E+04  0.29437118100E+04 0.  0.
        5    1    3    3  502    0  0.20849607957E+03  0.82243862516E+03  0.19340439838E+04  0.21119716212E+04  0.46999998093E+01 0.  1.
       -5    1    3    3    0  502 -0.20849607957E+03 -0.82243862516E+03 -0.68038415973E+03  0.10875755616E+04  0.46999998093E+01 0. -1.
</event>
<event>
 5   0  0.3600963E-06  0.2837930E+04  0.7818609E-02  0.8291588E-01
       -1   -1    0    0    0  501  0.00000000000E+00  0.00000000000E+00  0.14127580841E+04  0.14127580841E+04  0.50400001928E-02 0.  1.
        1   -1    0    0  501    0  0.00000000000E+00  0.00000000000E+00 -0.14251993858E+04  0.14251993858E+04  0.50400001928E-02 0. -1.
    10030    2    1    2    0    0  0.00000000000E+00  0.00000000000E+00 -0.12441301682E+02  0.28379574700E+04  0.28379301992E+04 0.  0.
        5    1    3    3  502    0  0.65913211871E+03  0.51166928022E+03  0.11414746817E+04  0.14139473615E+04  0.46999998093E+01 0.  1.
       -5    1    3    3    0  502 -0.65913211871E+03 -0.51166928022E+03 -0.11539159834E+04  0.14240101084E+04  0.46999998093E+01 0. -1.
</event>
<event>
 5   0  0.9065579E-06  0.2775663E+04  0.7818609E-02  0.8310864E-01
       -2   -1    0    0    0  501  0.00000000000E+00  0.00000000000E+00  0.95832316386E+03  0.95832316386E+03  0.25500000920E-02 0. -1.
        2   -1    0    0  501    0  0.00000000000E+00  0.00000000000E+00 -0.20098396583E+04  0.20098396583E+04  0.25500000920E-02 0.  1.
    10030    2    1    2    0    0  0.00000000000E+00  0.00000000000E+00 -0.10515164944E+04  0.29681628221E+04  0.27756627318E+04 0.  0.
        3    1    3    3  502    0  0.79124121019E+03 -0.61111297605E+03 -0.15550925209E+04  0.18487386189E+04  0.10100000352E+00 0.  1.
       -3    1    3    3    0  502 -0.79124121019E+03  0.61111297605E+03  0.50357602648E+03  0.11194242033E+04  0.10100000352E+00 0. -1.
</event>
<event>
 5   0  0.9252359E-06  0.2549326E+04  0.7818609E-02  0.8385621E-01
        2   -1    0    0  501    0  0.00000000000E+00  0.00000000000E+00  0.19948519470E+04  0.19948519470E+04  0.25500000920E-02 0. -1.
       -2   -1    0    0    0  501  0.00000000000E+00  0.00000000000E+00 -0.81447906400E+03  0.81447906400E+03  0.25500000920E-02 0.  1.
    10030    2    1    2    0    0  0.00000000000E+00  0.00000000000E+00  0.11803728830E+04  0.28093310110E+04  0.25493255160E+04 0.  0.
        5    1    3    3  502    0 -0.56346643486E+03  0.98133811607E+02  0.18454968101E+04  0.19320986606E+04  0.46999998093E+01 0. -1.
       -5    1    3    3    0  502  0.56346643486E+03 -0.98133811607E+02 -0.66512392710E+03  0.87723235040E+03  0.46999998093E+01 0.  1.
</event>
<event>
 5   0  0.3357244E-06  0.2793142E+04  0.7818609E-02  0.8305401E-01
        1   -1    0    0  501    0  0.00000000000E+00  0.00000000000E+00  0.16784379712E+04  0.16784379712E+04  0.50400001928E-02 0. -1.
       -1   -1    0    0    0  501  0.00000000000E+00  0.00000000000E+00 -0.11620392789E+04  0.11620392789E+04  0.50400001928E-02 0.  1.
    10030    2    1    2    0    0  0.00000000000E+00  0.00000000000E+00  0.51639869233E+03  0.28404772501E+04  0.27931422089E+04 0.  0.
        4    1    3    3  502    0 -0.98635063230E+03 -0.66271127687E+03 -0.48794825909E+03  0.12845890093E+04  0.12699999809E+01 0.  1.
       -4    1    3    3    0  502  0.98635063230E+03  0.66271127687E+03  0.10043469514E+04  0.15558882409E+04  0.12699999809E+01 0. -1.
</event>
<event>
 5   0  0.9065579E-06  0.2796541E+04  0.7818609E-02  0.8304343E-01
        2   -1    0    0  501    0  0.00000000000E+00  0.00000000000E+00  0.13136226271E+04  0.13136226271E+04  0.25500000920E-02 0. -1.
       -2   -1    0    0    0  501  0.00000000000E+00  0.00000000000E+00 -0.14883726486E+04  0.14883726486E+04  0.25500000920E-02 0.  1.
    10030    2    1    2    0    0  0.00000000000E+00  0.00000000000E+00 -0.17475002147E+03  0.28019952757E+04  0.27965407122E+04 0.  0.
        3    1    3    3  502    0  0.74469081570E+03  0.10272104791E+04 -0.67625787695E+03  0.14377240715E+04  0.10100000352E+00 0.  1.
       -3    1    3    3    0  502 -0.74469081570E+03 -0.10272104791E+04  0.50150785548E+03  0.13642712042E+04  0.10100000352E+00 0. -1.
</event>
<event>
 5   0  0.9342133E-06  0.2726808E+04  0.7818609E-02  0.8326359E-01
       -2   -1    0    0    0  501  0.00000000000E+00  0.00000000000E+00  0.66239127798E+03  0.66239127799E+03  0.25500000920E-02 0. -1.
        2   -1    0    0  501    0  0.00000000000E+00  0.00000000000E+00 -0.28063035381E+04  0.28063035381E+04  0.25500000920E-02 0.  1.
    10030    2    1    2    0    0  0.00000000000E+00  0.00000000000E+00 -0.21439122601E+04  0.34686948161E+04  0.27268083813E+04 0.  0.
        2    1    3    3  502    0 -0.32175553972E+03 -0.44634461738E+03  0.51488383893E+03  0.75356188359E+03  0.25500000920E-02 0. -1.
       -2    1    3    3    0  502  0.32175553972E+03  0.44634461738E+03 -0.26587960991E+04  0.27151329325E+04  0.25500000920E-02 0.  1.
</event>
<event>
 5   0  0.9426937E-06  0.2798366E+04  0.7818609E-02  0.8303776E-01
        2   -1    0    0  501    0  0.00000000000E+00  0.00000000000E+00  0.15472243839E+04  0.15472243839E+04  0.25500000920E-02 0. -1.
       -2   -1    0    0    0  501  0.00000000000E+00  0.00000000000E+00 -0.12653069284E+04  0.12653069284E+04  0.25500000920E-02 0.  1.
    10030    2    1    2    0    0  0.00000000000E+00  0.00000000000E+00  0.28191745551E+03  0.28125313122E+04  0.27983664754E+04 0.  0.
        4    1    3    3  502    0  0.25131244235E+03  0.23241329486E+03 -0.12225728464E+04  0.12695904304E+04  0.12699999809E+01 0.  1.
       -4    1    3    3    0  502 -0.25131244235E+03 -0.23241329486E+03  0.15044903019E+04  0.15429408818E+04  0.12699999809E+01 0. -1.
</event>
<event>
 5   0  0.9252359E-06  0.2787975E+04  0.7818609E-02  0.8307011E-01
       -2   -1    0    0    0  501  0.00000000000E+00  0.00000000000E+00  0.22358632024E+04  0.22358632024E+04  0.25500000920E-02 0. -1.
        2   -1    0    0  501    0  0.00000000000E+00  0.00000000000E+00 -0.86910545785E+03  0.86910545785E+03  0.25500000920E-02 0.  1.
    10030    2    1    2    0    0  0.00000000000E+00  0.00000000000E+00  0.13667577446E+04  0.31049686603E+04  0.27879748293E+04 0.  0.
        5    1    3    3  502    0 -0.19444958914E+03  0.48521481436E+03  0.21225688478E+04  0.21859928322E+04  0.46999998093E+01 0. -1.
       -5    1    3    3    0  502  0.19444958914E+03 -0.48521481436E+03 -0.75581110324E+03  0.91897582806E+03  0.46999998093E+01 0.  1.
</event>
<event>
 5   0  0.9260173E-06  0.2813785E+04  0.7818609E-02  0.8299001E-01
        2   -1    0    0  501    0  0.00000000000E+00  0.00000000000E+00  0.27953200418E+04  0.27953200418E+04  0.25500000920E-02 0. -1.
       -2   -1    0    0    0  501  0.00000000000E+00  0.00000000000E+00 -0.70809310639E+03  0.70809310639E+03  0.25500000920E-02 0.  1.
    10030    2    1    2    0    0  0.00000000000E+00  0.00000000000E+00  0.20872269354E+04  0.35034131482E+04  0.28137852454E+04 0.  0.
        1    1    3    3  502    0 -0.11870143029E+04  0.15948621318E+03  0.19627118828E+04  0.22992774392E+04  0.50400001928E-02 0. -1.
       -1    1    3    3    0  502  0.11870143029E+04 -0.15948621318E+03  0.12451505262E+03  0.12041357090E+04  0.50400001928E-02 0.  1.
</event>
<event>
 5   0  0.9260173E-06  0.2840488E+04  0.7818609E-02  0.8290808E-01
        2   -1    0    0  501    0  0.00000000000E+00  0.00000000000E+00  0.17965074866E+04  0.17965074866E+04  0.25500000920E-02 0. -1.
       -2   -1    0    0    0  501  0.00000000000E+00  0.00000000000E+00 -0.11227857481E+04  0.11227857481E+04  0.25500000920E-02 0.  1.
    10030    2    1    2    0    0  0.00000000000E+00  0.00000000000E+00  0.67372173852E+03  0.29192932347E+04  0.28404879879E+04 0.  0.
        1    1    3    3  502    0  0.38337648985E+03 -0.12078142128E+04  0.99598054345E+03  0.16117598917E+04  0.50400001928E-02 0. -1.
       -1    1    3    3    0  502 -0.38337648985E+03  0.12078142128E+04 -0.32225880493E+03  0.13075333430E+04  0.50400001928E-02 0.  1.
</event>
<event>
 5   0  0.3371603E-06  0.2807123E+04  0.7818609E-02  0.8301060E-01
        1   -1    0    0  501    0  0.00000000000E+00  0.00000000000E+00  0.14950837898E+04  0.14950837898E+04  0.50400001928E-02 0.  1.
       -1   -1    0    0    0  501  0.00000000000E+00  0.00000000000E+00 -0.13176420747E+04  0.13176420747E+04  0.50400001928E-02 0. -1.
    10030    2    1    2    0    0  0.00000000000E+00  0.00000000000E+00  0.17744171504E+03  0.28127258645E+04  0.28071233009E+04 0.  0.
        1    1    3    3  502    0  0.85745983188E+03 -0.27993789973E+03 -0.98877773981E+03  0.13383885870E+04  0.50400001928E-02 0. -1.
       -1    1    3    3    0  502 -0.85745983188E+03  0.27993789973E+03  0.11662194548E+04  0.14743372775E+04  0.50400001928E-02 0.  1.
</event>
<event>
 5   0  0.3397882E-06  0.2790627E+04  0.7818609E-02  0.8306184E-01
        1   -1    0    0  501    0  0.00000000000E+00  0.00000000000E+00  0.16880725206E+04  0.16880725206E+04  0.50400001928E-02 0. -1.
       -1   -1    0    0    0  501  0.00000000000E+00  0.00000000000E+00 -0.11533271694E+04  0.11533271694E+04  0.50400001928E-02 0.  1.
    10030    2    1    2    0    0  0.00000000000E+00  0.00000000000E+00  0.53474535113E+03  0.28413996900E+04  0.27906270994E+04 0.  0.
        2    1    3    3  502    0  0.36415337694E+03  0.40596915034E+03 -0.10403155566E+04  0.11745957135E+04  0.25500000920E-02 0.  1.
       -2    1    3    3    0  502 -0.36415337694E+03 -0.40596915034E+03  0.15750609077E+04  0.16668039765E+04  0.25500000920E-02 0. -1.
</event>
<event>
 5   0  0.9260173E-06  0.2829496E+04  0.7818609E-02  0.8294169E-01
        2   -1    0    0  501    0  0.00000000000E+00  0.00000000000E+00  0.12081163817E+04  0.12081163817E+04  0.25500000920E-02 0. -1.
       -2   -1    0    0    0  501  0.00000000000E+00  0.00000000000E+00 -0.16567214277E+04  0.16567214277E+04  0.25500000920E-02 0.  1.
    10030    2    1    2    0    0  0.00000000000E+00  0.00000000000E+00 -0.44860504599E+03  0.28648378094E+04  0.28294962779E+04 0.  0.
        1    1    3    3  502    0  0.46266806919E+02 -0.13003266542E+04 -0.78668809843E+03  0.15204828803E+04  0.50400001928E-02 0.  1.
       -1    1    3    3    0  502 -0.46266806919E+02  0.13003266542E+04  0.33808305244E+03  0.13443549291E+04  0.50400001928E-02 0. -1.
</event>
<event>
 5   0  0.3600963E-06  0.2909717E+04  0.7818609E-02  0.8269992E-01
       -1   -1    0    0    0  501  0.00000000000E+00  0.00000000000E+00  0.10607721051E+04  0.10607721051E+04  0.50400001928E-02 0.  1.
        1   -1    0    0  501    0  0.00000000000E+00  0.00000000000E+00 -0.19953516222E+04  0.19953516222E+04  0.50400001928E-02 0. -1.
    10030    2    1    2    0    0  0.00000000000E+00  0.00000000000E+00 -0.93457951705E+03  0.30561237273E+04  0.29097170589E+04 0.  0.
        5    1    3    3  502    0 -0.24008611933E+03 -0.54433603607E+03  0.92716038603E+03  0.11016313069E+04  0.46999998093E+01 0.  1.
       -5    1    3    3    0  502  0.24008611933E+03  0.54433603607E+03 -0.18617399031E+04  0.19544924204E+04  0.46999998093E+01 0. -1.
</event>
<event>
 5   0  0.9252359E-06  0.2787332E+04  0.7818609E-02  0.8307212E-01
       -2   -1    0    0    0  501  0.00000000000E+00  0.00000000000E+00  0.10717005579E+04  0.10717005579E+04  0.25500000920E-02 0. -1.
        2   -1    0    0  501    0  0.00000000000E+00  0.00000000000E+00 -0.18123584278E+04  0.18123584278E+04  0.25500000920E-02 0.  1.
    10030    2    1    2    0    0  0.00000000000E+00  0.00000000000E+00 -0.74065786987E+03  0.28840589857E+04  0.27873324439E+04 0.  0.
        5    1    3    3  502    0 -0.22391264803E+03  0.82192648668E+03 -0.15115934553E+04  0.17351186955E+04  0.46999998093E+01 0.  1.
       -5    1    3    3    0  502  0.22391264803E+03 -0.82192648668E+03  0.77093558545E+03  0.11489402902E+04  0.46999998093E+01 0. -1.
</event>
<event>
 5   0  0.3438130E-06  0.2761782E+04  0.7818609E-02  0.8315233E-01
       -1   -1    0    0    0  501  0.00000000000E+00  0.00000000000E+00  0.11539050897E+04  0.11539050898E+04  0.50400001928E-02 0. -1.
        1   -1    0    0  501    0  0.00000000000E+00  0.00000000000E+00 -0.16525271108E+04  0.16525271108E+04  0.50400001928E-02 0.  1.
    10030    2    1    2    0    0  0.00000000000E+00  0.00000000000E+00 -0.49862202103E+03  0.28064322006E+04  0.27617816308E+04 0.  0.
        3    1    3    3  502    0 -0.49317630758E+03  0.82291978897E+03  0.75994295343E+03  0.12239007934E+04  0.10100000352E+00 0. -1.
       -3    1    3    3    0  502  0.49317630758E+03 -0.82291978897E+03 -0.12585649745E+04  0.15825314071E+04  0.10100000352E+00 0.  1.
</event>
<event>
 5   0  0.9342133E-06  0.2794291E+04  0.7818609E-02  0.8305043E-01
        2   -1    0    0  501    0  0.00000000000E+00  0.00000000000E+00  0.16351155412E+04  0.16351155412E+04  0.25500000920E-02 0.  1.
       -2   -1    0    0    0  501  0.00000000000E+00  0.00000000000E+00 -0.11938091028E+04  0.11938091028E+04  0.25500000920E-02 0. -1.
    10030    2    1    2    0    0  0.00000000000E+00  0.00000000000E+00  0.44130643839E+03  0.28289246440E+04  0.27942911926E+04 0.  0.
        2    1    3    3  502    0 -0.43184805180E+03 -0.69758766370E+03 -0.92424553249E+03  0.12358604665E+04  0.25500000920E-02 0. -1.
       -2    1    3    3    0  502  0.43184805180E+03  0.69758766370E+03  0.13655519709E+04  0.15930641775E+04  0.25500000920E-02 0.  1.
</event>
<event>
 5   0  0.3357244E-06  0.2799683E+04  0.7818609E-02  0.8303367E-01
       -1   -1    0    0    0  501  0.00000000000E+00  0.00000000000E+00  0.11371892802E+04  0.11371892802E+04  0.50400001928E-02 0. -1.
        1   -1    0    0  501    0  0.00000000000E+00  0.00000000000E+00 -0.17231572483E+04  0.17231572483E+04  0.50400001928E-02 0.  1.
    10030    2    1    2    0    0  0.00000000000E+00  0.00000000000E+00 -0.58596796809E+03  0.28603465286E+04  0.27996828042E+04 0.  0.
        4    1    3    3  502    0 -0.13181336005E+04 -0.10711268416E+03 -0.76184506291E+03  0.15262237152E+04  0.12699999809E+01 0.  1.
       -4    1    3    3    0  502  0.13181336005E+04  0.10711268416E+03  0.17587709482E+03  0.13341228134E+04  0.12699999809E+01 0. -1.
</event>
<event>
 5   0  0.3600963E-06  0.2790930E+04  0.7818609E-02  0.8306090E-01
       -1   -1    0    0    0  501  0.00000000000E+00  0.00000000000E+00  0.92733381609E+03  0.92733381611E+03  0.50400001928E-02 0. -1.
        1   -1    0    0  501    0  0.00000000000E+00  0.00000000000E+00 -0.20999146539E+04  0.20999146539E+04  0.50400001928E-02 0.  1.
    10030    2    1    2    0    0  0.00000000000E+00  0.00000000000E+00 -0.11725808378E+04  0.30272484700E+04  0.27909295007E+04 0.  0.
        5    1    3    3  502    0 -0.44078299602E+03  0.90654013887E+03 -0.16329839609E+04  0.19190527298E+04  0.46999998093E+01 0.  1.
       -5    1    3    3    0  502  0.44078299602E+03 -0.90654013887E+03  0.46040312311E+03  0.11081957403E+04  0.46999998093E+01 0. -1.
</event>
<event>
 5   0  0.3371603E-06  0.2805372E+04  0.7818609E-02  0.8301603E-01
       -1   -1    0    0    0  501  0.00000000000E+00  0.00000000000E+00  0.27042341273E+04  0.27042341273E+04  0.50400001928E-02 0.  1.
        1   -1    0    0  501    0  0.00000000000E+00  0.00000000000E+00 -0.72757287297E+03  0.72757287299E+03  0.50400001928E-02 0. -1.
    10030    2    1    2    0    0  0.00000000000E+00  0.00000000000E+00  0.19766612543E+04  0.34318070003E+04  0.28053715570E+04 0.  0.
        1    1    3    3  502    0 -0.66353012244E+02 -0.95482963436E+03 -0.26602772009E+03  0.99341486840E+03  0.50400001928E-02 0. -1.
       -1    1    3    3    0  502  0.66353012244E+02  0.95482963436E+03  0.22426889744E+04  0.24383921319E+04  0.50400001928E-02 0.  1.
</event>
<event>
 5   0  0.3397882E-06  0.2809280E+04  0.7818609E-02  0.8300393E-01
       -1   -1    0    0    0  501  0.00000000000E+00  0.00000000000E+00  0.10785238646E+04  0.10785238646E+04  0.50400001928E-02 0.  1.
        1   -1    0    0  501    0  0.00000000000E+00  0.00000000000E+00 -0.18293649881E+04  0.18293649881E+04  0.50400001928E-02 0. -1.
    10030    2    1    2    0    0  0.00000000000E+00  0.00000000000E+00 -0.75084112347E+03  0.29078888527E+04  0.28092801902E+04 0.  0.
        2    1    3    3  502    0 -0.72503567754E+03  0.86833987791E+03 -0.12373079471E+04  0.16764909285E+04  0.25500000920E-02 0. -1.
       -2    1    3    3    0  502  0.72503567754E+03 -0.86833987791E+03  0.48646682364E+03  0.12313979242E+04  0.25500000920E-02 0.  1.
</event>
<event>
 5   0  0.9065579E-06  0.2818185E+04  0.7818609E-02  0.8297645E-01
        2   -1    0    0  501    0  0.00000000000E+00  0.00000000000E+00  0.16367069894E+04  0.16367069894E+04  0.25500000920E-02 0.  1.
       -2   -1    0    0    0  501  0.00000000000E+00  0.00000000000E+00 -0.12131323877E+04  0.12131323877E+04  0.25500000920E-02 0. -1.
    10030    2    1    2    0    0  0.00000000000E+00  0.00000000000E+00  0.42357460175E+03  0.28498393771E+04  0.28181854147E+04 0.  0.
        3    1    3    3  502    0  0.77430895774E+03 -0.11125677168E+04  0.60105379532E+03  0.14827767740E+04  0.10100000352E+00 0.  1.
       -3    1    3    3    0  502 -0.77430895774E+03  0.11125677168E+04 -0.17747919357E+03  0.13670626031E+04  0.10100000352E+00 0. -1.
</event>
<event>
 5   0  0.9260173E-06  0.2764946E+04  0.7818609E-02  0.8314235E-01
        2   -1    0    0  501    0  0.00000000000E+00  0.00000000000E+00  0.21966089978E+04  0.21966089978E+04  0.25500000920E-02 0.  1.
       -2   -1    0    0    0  501  0.00000000000E+00  0.00000000000E+00 -0.87008252392E+03  0.87008252392E+03  0.25500000920E-02 0. -1.
    10030    2    1    2    0    0  0.00000000000E+00  0.00000000000E+00  0.13265264739E+04  0.30666915218E+04  0.27649456421E+04 0.  0.
        1    1    3    3  502    0 -0.26123425527E+03  0.11538977275E+04  0.14565124044E+04  0.18764732041E+04  0.50400001928E-02 0.  1.
       -1    1    3    3    0  502  0.26123425527E+03 -0.11538977275E+04 -0.12998593045E+03  0.11902183177E+04  0.50400001928E-02 0. -1.
</event>
<event>
 5   0  0.3397882E-06  0.2809028E+04  0.7818609E-02  0.8300471E-01
       -1   -1    0    0    0  501  0.00000000000E+00  0.00000000000E+00  0.12149714069E+04  0.12149714069E+04  0.50400001928E-02 0. -1.
        1   -1    0    0  501    0  0.00000000000E+00  0.00000000000E+00 -0.16236268738E+04  0.16236268738E+04  0.50400001928E-02 0.  1.
    10030    2    1    2    0    0  0.00000000000E+00  0.00000000000E+00 -0.40865546688E+03  0.28385982808E+04  0.28090284635E+04 0.  0.
        2    1    3    3  502    0 -0.25618446747E+03 -0.10468293240E+04 -0.11144629253E+04  0.15503256841E+04  0.25500000920E-02 0. -1.
       -2    1    3    3    0  502  0.25618446747E+03  0.10468293240E+04  0.70580745843E+03  0.12882725967E+04  0.25500000920E-02 0.  1.
</event>
<event>
 5   0  0.3357244E-06  0.2727984E+04  0.7818609E-02  0.8325982E-01
        1   -1    0    0  501    0  0.00000000000E+00  0.00000000000E+00  0.11250492147E+04  0.11250492148E+04  0.50400001928E-02 0. -1.
       -1   -1    0    0    0  501  0.00000000000E+00  0.00000000000E+00 -0.16536830104E+04  0.16536830104E+04  0.50400001928E-02 0.  1.
    10030    2    1    2    0    0  0.00000000000E+00  0.00000000000E+00 -0.52863379563E+03  0.27787322251E+04  0.27279844371E+04 0.  0.
        4    1    3    3  502    0  0.52163858661E+03 -0.11209499219E+04 -0.85108651384E+03  0.15009948066E+04  0.12699999809E+01 0.  1.
       -4    1    3    3    0  502 -0.52163858661E+03  0.11209499219E+04  0.32245271821E+03  0.12777374186E+04  0.12699999809E+01 0. -1.
</event>
<event>
 5   0  0.3438130E-06  0.2777000E+04  0.7818609E-02  0.8310445E-01
        1   -1    0    0  501    0  0.00000000000E+00  0.00000000000E+00  0.18018697991E+04  0.18018697991E+04  0.50400001928E-02 0.  1.
       -1   -1    0    0    0  501  0.00000000000E+00  0.00000000000E+00 -0.10699622492E+04  0.10699622492E+04  0.50400001928E-02 0. -1.
    10030    2    1    2    0    0  0.00000000000E+00  0.00000000000E+00  0.73190754995E+03  0.28718320483E+04  0.27770002974E+04 0.  0.
        3    1    3    3  502    0 -0.39870919515E+03  0.73064955969E+03  0.15152627109E+04  0.17288258717E+04  0.10100000352E+00 0.  1.
       -3    1    3    3    0  502  0.39870919515E+03 -0.73064955969E+03 -0.78335516096E+03  0.11430061766E+04  0.10100000352E+00 0. -1.
</event>
<event>
 5   0  0.3357244E-06  0.2763315E+04  0.7818609E-02  0.8314749E-01
       -1   -1    0    0    0  501  0.00000000000E+00  0.00000000000E+00  0.97894877056E+03  0.97894877057E+03  0.50400001928E-02 0.  1.
        1   -1    0    0  501    0  0.00000000000E+00  0.00000000000E+00 -0.19500281718E+04  0.19500281718E+04  0.50400001928E-02 0. -1.
    10030    2    1    2    0    0  0.00000000000E+00  0.00000000000E+00 -0.97107940124E+03  0.29289769424E+04  0.27633151694E+04 0.  0.
        4    1    3    3  502    0 -0.77213039374E+02 -0.13361285974E+04 -0.84929667198E+03  0.15850892505E+04  0.12699999809E+01 0. -1.
       -4    1    3    3    0  502  0.77213039374E+02  0.13361285974E+04 -0.12178272926E+03  0.13438876918E+04  0.12699999809E+01 0.  1.
</event>
<event>
 5   0  0.9342133E-06  0.2802913E+04  0.7818609E-02  0.8302364E-01
       -2   -1    0    0    0  501  0.00000000000E+00  0.00000000000E+00  0.74039137310E+03  0.74039137310E+03  0.25500000920E-02 0.  1.
        2   -1    0    0  501    0  0.00000000000E+00  0.00000000000E+00 -0.26527603826E+04  0.26527603826E+04  0.25500000920E-02 0. -1.
    10030    2    1    2    0    0  0.00000000000E+00  0.00000000000E+00 -0.19123690095E+04  0.33931517557E+04  0.28029134144E+04 0.  0.
        2    1    3    3  502    0 -0.55833325592E+03  0.12852799318E+04 -0.93196157294E+03  0.16829239143E+04  0.25500000920E-02 0. -1.
       -2    1    3    3    0  502  0.55833325592E+03 -0.12852799318E+04 -0.98040743654E+03  0.17102278414E+04  0.25500000920E-02 0.  1.
</event>
<event>
 5   0  0.9260173E-06  0.2593381E+04  0.7818609E-02  0.8370453E-01
        2   -1    0    0  501    0  0.00000000000E+00  0.00000000000E+00  0.12621467247E+04  0.12621467247E+04  0.25500000920E-02 0. -1.
       -2   -1    0    0    0  501  0.00000000000E+00  0.00000000000E+00 -0.13321794580E+04  0.13321794580E+04  0.25500000920E-02 0.  1.
    10030    2    1    2    0    0  0.00000000000E+00  0.00000000000E+00 -0.70032733267E+02  0.25943261827E+04  0.25933807585E+04 0.  0.
        1    1    3    3  502    0 -0.31565044717E+03 -0.41816318972E+02  0.12224311842E+04  0.12632188288E+04  0.50400001928E-02 0. -1.
       -1    1    3    3    0  502  0.31565044717E+03  0.41816318972E+02 -0.12924639175E+04  0.13311073538E+04  0.50400001928E-02 0.  1.
</event>
<event>
 5   0  0.3371603E-06  0.2751658E+04  0.7818609E-02  0.8318436E-01
        1   -1    0    0  501    0  0.00000000000E+00  0.00000000000E+00  0.11215062068E+04  0.11215062068E+04  0.50400001928E-02 0.  1.
       -1   -1    0    0    0  501  0.00000000000E+00  0.00000000000E+00 -0.16878242705E+04  0.16878242705E+04  0.50400001928E-02 0. -1.
    10030    2    1    2    0    0  0.00000000000E+00  0.00000000000E+00 -0.56631806368E+03  0.28093304774E+04  0.27516579696E+04 0.  0.
        1    1    3    3  502    0  0.56817082722E+03 -0.10253990388E+04 -0.10184227038E+04  0.15528831512E+04  0.50400001928E-02 0. -1.
       -1    1    3    3    0  502 -0.56817082722E+03  0.10253990388E+04  0.45210464015E+03  0.12564473261E+04  0.50400001928E-02 0.  1.
</event>
<event>
 5   0  0.9342133E-06  0.2783509E+04  0.7818609E-02  0.8308406E-01
       -2   -1    0    0    0  501  0.00000000000E+00  0.00000000000E+00  0.10111944406E+04  0.10111944406E+04  0.25500000920E-02 0. -1.
        2   -1    0    0  501    0  0.00000000000E+00  0.00000000000E+00 -0.19155374931E+04  0.19155374931E+04  0.25500000920E-02 0.  1.
    10030    2    1    2    0    0  0.00000000000E+00  0.00000000000E+00 -0.90434305242E+03  0.29267319337E+04  0.27835091980E+04 0.  0.
        2    1    3    3  502    0 -0.68226462803E+03 -0.12129531267E+04 -0.43586369360E+03  0.14583269419E+04  0.25500000920E-02 0. -1.
       -2    1    3    3    0  502  0.68226462803E+03  0.12129531267E+04 -0.46847935882E+03  0.14684049918E+04  0.25500000920E-02 0.  1.
</event>
<event>
 5   0  0.3438130E-06  0.2786670E+04  0.7818609E-02  0.8307419E-01
       -1   -1    0    0    0  501  0.00000000000E+00  0.00000000000E+00  0.10299045216E+04  0.10299045216E+04  0.50400001928E-02 0.  1.
        1   -1    0    0  501    0  0.00000000000E+00  0.00000000000E+00 -0.18850125224E+04  0.18850125224E+04  0.50400001928E-02 0. -1.
    10030    2    1    2    0    0  0.00000000000E+00  0.00000000000E+00 -0.85510800076E+03  0.29149170440E+04  0.27866703573E+04 0.  0.
        3    1    3    3  502    0 -0.85474132749E+02  0.10572890129E+04  0.51747128017E+03  0.11802298166E+04  0.10100000352E+00 0.  1.
       -3    1    3    3    0  502  0.85474132749E+02 -0.10572890129E+04 -0.13725792809E+04  0.17346872274E+04  0.10100000352E+00 0. -1.
</event>
<event>
 5   0  0.9260173E-06  0.2780110E+04  0.7818609E-02  0.8309470E-01
       -2   -1    0    0    0  501  0.00000000000E+00  0.00000000000E+00  0.15882591794E+04  0.15882591794E+04  0.25500000920E-02 0. -1.
        2   -1    0    0  501    0  0.00000000000E+00  0.00000000000E+00 -0.12165853681E+04  0.12165853681E+04  0.25500000920E-02 0.  1.
    10030    2    1    2    0    0  0.00000000000E+00  0.00000000000E+00  0.37167381130E+03  0.28048445476E+04  0.27801099824E+04 0.  0.
        1    1    3    3  502    0 -0.54128410979E+03 -0.10589691075E+04  0.91185645491E+03  0.14986281235E+04  0.50400001928E-02 0. -1.
       -1    1    3    3    0  502  0.54128410979E+03  0.10589691075E+04 -0.54018264361E+03  0.13062164241E+04  0.50400001928E-02 0.  1.
</event>
<event>
 5   0  0.3438130E-06  0.2805576E+04  0.7818609E-02  0.8301539E-01
        1   -1    0    0  501    0  0.00000000000E+00  0.00000000000E+00  0.21437100682E+04  0.21437100682E+04  0.50400001928E-02 0.  1.
       -1   -1    0    0    0  501  0.00000000000E+00  0.00000000000E+00 -0.91794790813E+03  0.91794790814E+03  0.50400001928E-02 0. -1.
    10030    2    1    2    0    0  0.00000000000E+00  0.00000000000E+00  0.12257621601E+04  0.30616579764E+04  0.28055759999E+04 0.  0.
        3    1    3    3  502    0 -0.92785019793E+03 -0.70540532598E+03  0.14647138092E+04  0.18718678417E+04  0.10100000352E+00 0.  1.
       -3    1    3    3    0  502  0.92785019793E+03  0.70540532598E+03 -0.23895164911E+03  0.11897901347E+04  0.10100000352E+00 0. -1.
</event>
<event>
 5   0  0.3006875E-06  0.2807851E+04  0.7818609E-02  0.8300835E-01
       -4   -1    0    0    0  501  0.00000000000E+00  0.00000000000E+00  0.98835017181E+03  0.98835098776E+03  0.12699999809E+01 0.  1.
        4   -1    0    0  501    0  0.00000000000E+00  0.00000000000E+00 -0.19942381062E+04  0.19942385106E+04  0.12699999809E+01 0. -1.
    10030    2    1    2    0    0  0.00000000000E+00  0.00000000000E+00 -0.10058879344E+04  0.29825894983E+04  0.28078514168E+04 0.  0.
        3    1    3    3  502    0  0.99137345860E+03  0.27184292408E+02  0.55259986743E+03  0.11353091843E+04  0.10100000352E+00 0.  1.
       -3    1    3    3    0  502 -0.99137345860E+03 -0.27184292408E+02 -0.15584878018E+04  0.18472803141E+04  0.10100000352E+00 0. -1.
</event>
<event>
 5   0  0.9260173E-06  0.2763534E+04  0.7818609E-02  0.8314680E-01
       -2   -1    0    0    0  501  0.00000000000E+00  0.00000000000E+00  0.12792114997E+04  0.12792114997E+04  0.25500000920E-02 0.  1.
        2   -1    0    0  501    0  0.00000000000E+00  0.00000000000E+00 -0.14925449451E+04  0.14925449451E+04  0.25500000920E-02 0. -1.
    10030    2    1    2    0    0  0.00000000000E+00  0.00000000000E+00 -0.21333344539E+03  0.27717564448E+04  0.27635344453E+04 0.  0.
        1    1    3    3  502    0  0.90684682118E+03 -0.44890858197E+03 -0.10504181768E+04  0.14585158272E+04  0.50400001928E-02 0. -1.
       -1    1    3    3    0  502 -0.90684682118E+03  0.44890858197E+03  0.83708473146E+03  0.13132406176E+04  0.50400001928E-02 0.  1.
</event>
<event>
 5   0  0.3397882E-06  0.2827641E+04  0.7818609E-02  0.8294738E-01
        1   -1    0    0  501    0  0.00000000000E+00  0.00000000000E+00  0.87873827507E+03  0.87873827508E+03  0.50400001928E-02 0.  1.
       -1   -1    0    0    0  501  0.00000000000E+00  0.00000000000E+00 -0.22747262627E+04  0.22747262627E+04  0.50400001928E-02 0. -1.
    10030    2    1    2    0    0  0.00000000000E+00  0.00000000000E+00 -0.13959879877E+04  0.31534645378E+04  0.28276414429E+04 0.  0.
        2    1    3    3  502    0  0.58736769786E+03 -0.12856081340E+04 -0.66100698487E+03  0.15603587154E+04  0.25500000920E-02 0.  1.
       -2    1    3    3    0  502 -0.58736769786E+03  0.12856081340E+04 -0.73498100278E+03  0.15931058224E+04  0.25500000920E-02 0. -1.
</event>
<event>
 5   0  0.9342133E-06  0.2745718E+04  0.7818609E-02  0.8320322E-01
       -2   -1    0    0    0  501  0.00000000000E+00  0.00000000000E+00  0.93680748045E+03  0.93680748045E+03  0.25500000920E-02 0. -1.
        2   -1    0    0  501    0  0.00000000000E+00  0.00000000000E+00 -0.20118770852E+04  0.20118770852E+04  0.25500000920E-02 0.  1.
    10030    2    1    2    0    0  0.00000000000E+00  0.00000000000E+00 -0.10750696047E+04  0.29486845656E+04  0.27457177591E+04 0.  0.
        2    1    3    3  502    0 -0.17776437657E+03  0.48238104106E+03 -0.19046031335E+04  0.19727657587E+04  0.25500000920E-02 0.  1.
       -2    1    3    3    0  502  0.17776437657E+03 -0.48238104106E+03  0.82953352880E+03  0.97591880695E+03  0.25500000920E-02 0. -1.
</event>
<event>
 5   0  0.9260173E-06  0.2803525E+04  0.7818609E-02  0.8302175E-01
        2   -1    0    0  501    0  0.00000000000E+00  0.00000000000E+00  0.20395579683E+04  0.20395579683E+04  0.25500000920E-02 0.  1.
       -2   -1    0    0    0  501  0.00000000000E+00  0.00000000000E+00 -0.96341343368E+03  0.96341343368E+03  0.25500000920E-02 0. -1.
    10030    2    1    2    0    0  0.00000000000E+00  0.00000000000E+00  0.10761445346E+04  0.30029714019E+04  0.28035245998E+04 0.  0.
        1    1    3    3  502    0  0.65434467724E+03  0.50092873722E+03  0.17526923512E+04  0.19367568341E+04  0.50400001928E-02 0.  1.
       -1    1    3    3    0  502 -0.65434467724E+03 -0.50092873722E+03 -0.67654781665E+03  0.10662145678E+04  0.50400001928E-02 0. -1.
</event>
<event>
 5   0  0.3397882E-06  0.2818757E+04  0.7818609E-02  0.8297469E-01
       -1   -1    0    0    0  501  0.00000000000E+00  0.00000000000E+00  0.82797654287E+03  0.82797654288E+03  0.50400001928E-02 0. -1.
        1   -1    0    0  501    0  0.00000000000E+00  0.00000000000E+00 -0.23990386462E+04  0.23990386462E+04  0.50400001928E-02 0.  1.
    10030    2    1    2    0    0  0.00000000000E+00  0.00000000000E+00 -0.15710621034E+04  0.32270151891E+04  0.28187569775E+04 0.  0.
        2    1    3    3  502    0  0.98049131611E+03 -0.61411458451E+01 -0.19445593379E+04  0.21777768373E+04  0.25500000920E-02 0. -1.
       -2    1    3    3    0  502 -0.98049131611E+03  0.61411458451E+01  0.37349723453E+03  0.10492383518E+04  0.25500000920E-02 0.  1.
</event>
<event>
 5   0  0.3357244E-06  0.2784156E+04  0.7818609E-02  0.8308204E-01
        1   -1    0    0  501    0  0.00000000000E+00  0.00000000000E+00  0.15881036703E+04  0.15881036703E+04  0.50400001928E-02 0. -1.
       -1   -1    0    0    0  501  0.00000000000E+00  0.00000000000E+00 -0.12202481381E+04  0.12202481381E+04  0.50400001928E-02 0.  1.
    10030    2    1    2    0    0  0.00000000000E+00  0.00000000000E+00  0.36785553219E+03  0.28083518084E+04  0.27841555609E+04 0.  0.
        4    1    3    3  502    0 -0.75452113857E+03 -0.68542582213E+03 -0.77234518218E+03  0.12789172763E+04  0.12699999809E+01 0.  1.
       -4    1    3    3    0  502  0.75452113857E+03  0.68542582213E+03  0.11402007144E+04  0.15294345322E+04  0.12699999809E+01 0. -1.
</event>
<event>
 5   0  0.9252359E-06  0.2782263E+04  0.7818609E-02  0.8308796E-01
        2   -1    0    0  501    0  0.00000000000E+00  0.00000000000E+00  0.16903348548E+04  0.16903348548E+04  0.25500000920E-02 0.  1.
       -2   -1    0    0    0  501  0.00000000000E+00  0.00000000000E+00 -0.11448899245E+04  0.11448899245E+04  0.25500000920E-02 0. -1.
    10030    2    1    2    0    0  0.00000000000E+00  0.00000000000E+00  0.54544493029E+03  0.28352247793E+04  0.27822633551E+04 0.  0.
        5    1    3    3  502    0 -0.13114795654E+04  0.41984642673E+02  0.74356080265E+03  0.15081929976E+04  0.46999998093E+01 0.  1.
       -5    1    3    3    0  502  0.13114795654E+04 -0.41984642673E+02 -0.19811587236E+03  0.13270317817E+04  0.46999998093E+01 0. -1.
</event>
<event>
 5   0  0.3600963E-06  0.3015000E+04  0.7818609E-02  0.8239460E-01
       -1   -1    0    0    0  501  0.00000000000E+00  0.00000000000E+00  0.13408842741E+04  0.13408842741E+04  0.50400001928E-02 0.  1.
        1   -1    0    0  501    0  0.00000000000E+00  0.00000000000E+00 -0.16948192995E+04  0.16948192995E+04  0.50400001928E-02 0. -1.
    10030    2    1    2    0    0  0.00000000000E+00  0.00000000000E+00 -0.35393502533E+03  0.30357035736E+04  0.30150001964E+04 0.  0.
        5    1    3    3  502    0 -0.13364644106E+04 -0.20075362407E+02  0.52495247862E+03  0.14360143926E+04  0.46999998093E+01 0.  1.
       -5    1    3    3    0  502  0.13364644106E+04  0.20075362407E+02 -0.87888750395E+03  0.15996891810E+04  0.46999998093E+01 0. -1.
</event>
<event>
 5   0  0.3438130E-06  0.2772892E+04  0.7818609E-02  0.8311734E-01
        1   -1    0    0  501    0  0.00000000000E+00  0.00000000000E+00  0.21147837457E+04  0.21147837457E+04  0.50400001928E-02 0. -1.
       -1   -1    0    0    0  501  0.00000000000E+00  0.00000000000E+00 -0.90895013373E+03  0.90895013375E+03  0.50400001928E-02 0.  1.
    10030    2    1    2    0    0  0.00000000000E+00  0.00000000000E+00  0.12058336120E+04  0.30237338795E+04  0.27728923300E+04 0.  0.
        3    1    3    3  502    0  0.12988153936E+03  0.68389171862E+03  0.19104057619E+04  0.20332799322E+04  0.10100000352E+00 0. -1.
       -3    1    3    3    0  502 -0.12988153936E+03 -0.68389171862E+03 -0.70457214995E+03  0.99045394731E+03  0.10100000352E+00 0.  1.
</event>
<event>
 5   0  0.9065579E-06  0.2799734E+04  0.7818609E-02  0.8303351E-01
        2   -1    0    0  501    0  0.00000000000E+00  0.00000000000E+00  0.13232461750E+04  0.13232461750E+04  0.25500000920E-02 0.  1.
       -2   -1    0    0    0  501  0.00000000000E+00  0.00000000000E+00 -0.14809245853E+04  0.14809245853E+04  0.25500000920E-02 0. -1.
    10030    2    1    2    0    0  0.00000000000E+00  0.00000000000E+00 -0.15767841024E+03  0.28041707603E+04  0.27997341252E+04 0.  0.
        3    1    3    3  502    0  0.49137019377E+03 -0.75614085214E+03  0.99357416179E+03  0.13417836192E+04  0.10100000352E+00 0.  1.
       -3    1    3    3    0  502 -0.49137019377E+03  0.75614085214E+03 -0.11512525720E+04  0.14623871411E+04  0.10100000352E+00 0. -1.
</event>
<event>
 5   0  0.9252359E-06  0.2650942E+04  0.7818609E-02  0.8351100E-01
       -2   -1    0    0    0  501  0.00000000000E+00  0.00000000000E+00  0.10123985309E+04  0.10123985310E+04  0.25500000920E-02 0.  1.
        2   -1    0    0  501    0  0.00000000000E+00  0.00000000000E+00 -0.17353580255E+04  0.17353580255E+04  0.25500000920E-02 0. -1.
    10030    2    1    2    0    0  0.00000000000E+00  0.00000000000E+00 -0.72295949457E+03  0.27477565565E+04  0.26509424103E+04 0.  0.
        5    1    3    3  502    0  0.12356915909E+04  0.18862070374E+03  0.95460537171E+02  0.12536531745E+04  0.46999998093E+01 0.  1.
       -5    1    3    3    0  502 -0.12356915909E+04 -0.18862070374E+03 -0.81842003174E+03  0.14941033820E+04  0.46999998093E+01 0. -1.
</event>
<event>
 5   0  0.3600963E-06  0.2752054E+04  0.7818609E-02  0.8318310E-01
        1   -1    0    0  501    0  0.00000000000E+00  0.00000000000E+00  0.33907128426E+04  0.33907128426E+04  0.50400001928E-02 0. -1.
       -1   -1    0    0    0  501  0.00000000000E+00  0.00000000000E+00 -0.55842231072E+03  0.55842231074E+03  0.50400001928E-02 0.  1.
    10030    2    1    2    0    0  0.00000000000E+00  0.00000000000E+00  0.28322905319E+04  0.39491351533E+04  0.27520535610E+04 0.  0.
        5    1    3    3  502    0 -0.33040861832E+03  0.76220259696E+03  0.29902476184E+04  0.31035021448E+04  0.46999998093E+01 0. -1.
       -5    1    3    3    0  502  0.33040861832E+03 -0.76220259696E+03 -0.15795708650E+03  0.84563300849E+03  0.46999998093E+01 0.  1.
</event>
<event>
 5   0  0.3397882E-06  0.2772171E+04  0.7818609E-02  0.8311960E-01
       -1   -1    0    0    0  501  0.00000000000E+00  0.00000000000E+00  0.10802308141E+04  0.10802308141E+04  0.50400001928E-02 0. -1.
        1   -1    0    0  501    0  0.00000000000E+00  0.00000000000E+00 -0.17785397395E+04  0.17785397395E+04  0.50400001928E-02 0.  1.
    10030    2    1    2    0    0  0.00000000000E+00  0.00000000000E+00 -0.69830892535E+03  0.28587705536E+04  0.27721713011E+04 0.  0.
        2    1    3    3  502    0  0.42340416001E+03  0.60301207332E+03 -0.15598563675E+04  0.17251221785E+04  0.25500000920E-02 0.  1.
       -2    1    3    3    0  502 -0.42340416001E+03 -0.60301207332E+03  0.86154744218E+03  0.11336483751E+04  0.25500000920E-02 0. -1.
</event>
<event>
 5   0  0.9260173E-06  0.2851012E+04  0.7818609E-02  0.8287604E-01
       -2   -1    0    0    0  501  0.00000000000E+00  0.00000000000E+00  0.14390918723E+04  0.14390918723E+04  0.25500000920E-02 0.  1.
        2   -1    0    0  501    0  0.00000000000E+00  0.00000000000E+00 -0.14120486772E+04  0.14120486772E+04  0.25500000920E-02 0. -1.
    10030    2    1    2    0    0  0.00000000000E+00  0.00000000000E+00  0.27043195093E+02  0.28511405495E+04  0.28510122937E+04 0.  0.
        1    1    3    3  502    0  0.12131929303E+04 -0.61302831961E+03 -0.41594733198E+03  0.14214967428E+04  0.50400001928E-02 0. -1.
       -1    1    3    3    0  502 -0.12131929303E+04  0.61302831961E+03  0.44299052708E+03  0.14296438067E+04  0.50400001928E-02 0.  1.
</event>
<event>
 5   0  0.3006875E-06  0.2796425E+04  0.7818609E-02  0.8304379E-01
       -4   -1    0    0    0  501  0.00000000000E+00  0.00000000000E+00  0.11395921398E+04  0.11395928475E+04  0.12699999809E+01 0. -1.
        4   -1    0    0  501    0  0.00000000000E+00  0.00000000000E+00 -0.17155232792E+04  0.17155237493E+04  0.12699999809E+01 0.  1.
    10030    2    1    2    0    0  0.00000000000E+00  0.00000000000E+00 -0.57593113940E+03  0.28551165968E+04  0.27964252366E+04 0.  0.
        5    1    3    3  502    0  0.19516274720E+03 -0.83938294023E+03  0.83619934346E+03  0.12007929256E+04  0.46999998093E+01 0. -1.
       -5    1    3    3    0  502 -0.19516274720E+03  0.83938294023E+03 -0.14121304829E+04  0.16543236711E+04  0.46999998093E+01 0.  1.
</event>
<event>
 5   0  0.3371603E-06  0.2458845E+04  0.7818609E-02  0.8417795E-01
        1   -1    0    0  501    0  0.00000000000E+00  0.00000000000E+00  0.19099940336E+04  0.19099940336E+04  0.50400001928E-02 0.  1.
       -1   -1    0    0    0  501  0.00000000000E+00  0.00000000000E+00 -0.79135335783E+03  0.79135335785E+03  0.50400001928E-02 0. -1.
    10030    2    1    2    0    0  0.00000000000E+00  0.00000000000E+00  0.11186406758E+04  0.27013473915E+04  0.24588454136E+04 0.  0.
        1    1    3    3  502    0  0.21333956094E+03 -0.28952905238E+03  0.18509116888E+04  0.18855277564E+04  0.50400001928E-02 0.  1.
       -1    1    3    3    0  502 -0.21333956094E+03  0.28952905238E+03 -0.73227101301E+03  0.81581963506E+03  0.50400001928E-02 0. -1.
</event>
<event>
 5   0  0.9342133E-06  0.2797091E+04  0.7818609E-02  0.8304172E-01
        2   -1    0    0  501    0  0.00000000000E+00  0.00000000000E+00  0.19352121496E+04  0.19352121496E+04  0.25500000920E-02 0.  1.
       -2   -1    0    0    0  501  0.00000000000E+00  0.00000000000E+00 -0.10107053869E+04  0.10107053869E+04  0.25500000920E-02 0. -1.
    10030    2    1    2    0    0  0.00000000000E+00  0.00000000000E+00  0.92450676270E+03  0.29459175365E+04  0.27970908776E+04 0.  0.
        2    1    3    3  502    0  0.13003785900E+04  0.50030787953E+03  0.33483313031E+03  0.14329709267E+04  0.25500000920E-02 0.  1.
       -2    1    3    3    0  502 -0.13003785900E+04 -0.50030787953E+03  0.58967363238E+03  0.15129466099E+04  0.25500000920E-02 0. -1.
</event>
<event>
 5   0  0.3397882E-06  0.2801668E+04  0.7818609E-02  0.8302751E-01
       -1   -1    0    0    0  501  0.00000000000E+00  0.00000000000E+00  0.65476043457E+03  0.65476043459E+03  0.50400001928E-02 0. -1.
        1   -1    0    0  501    0  0.00000000000E+00  0.00000000000E+00 -0.29970295497E+04  0.29970295498E+04  0.50400001928E-02 0.  1.
    10030    2    1    2    0    0  0.00000000000E+00  0.00000000000E+00 -0.23422691152E+04  0.36517899843E+04  0.28016683390E+04 0.  0.
        2    1    3    3  502    0 -0.88712961104E+03 -0.78021849216E+03 -0.19000575480E+03  0.11965960175E+04  0.25500000920E-02 0. -1.
       -2    1    3    3    0  502  0.88712961104E+03  0.78021849216E+03 -0.21522633604E+04  0.24551939668E+04  0.25500000920E-02 0.  1.
</event>
<event>
 5   0  0.9260173E-06  0.2852983E+04  0.7818609E-02  0.8287005E-01
        2   -1    0    0  501    0  0.00000000000E+00  0.00000000000E+00  0.22573979716E+04  0.22573979716E+04  0.25500000920E-02 0.  1.
       -2   -1    0    0    0  501  0.00000000000E+00  0.00000000000E+00 -0.90142645158E+03  0.90142645158E+03  0.25500000920E-02 0. -1.
    10030    2    1    2    0    0  0.00000000000E+00  0.00000000000E+00  0.13559715201E+04  0.31588244232E+04  0.28529831709E+04 0.  0.
        1    1    3    3  502    0 -0.64174064255E+03 -0.17729840776E+03  0.20748202288E+04  0.21790238089E+04  0.50400001928E-02 0.  1.
       -1    1    3    3    0  502  0.64174064255E+03  0.17729840776E+03 -0.71884870878E+03  0.97980061433E+03  0.50400001928E-02 0. -1.
</event>
<event>
 5   0  0.3438130E-06  0.2284452E+04  0.7818609E-02  0.8484077E-01
       -1   -1    0    0    0  501  0.00000000000E+00  0.00000000000E+00  0.65091121072E+03  0.65091121074E+03  0.50400001928E-02 0. -1.
        1   -1    0    0  501    0  0.00000000000E+00  0.00000000000E+00 -0.20043901863E+04  0.20043901863E+04  0.50400001928E-02 0.  1.
    10030    2    1    2    0    0  0.00000000000E+00  0.00000000000E+00 -0.13534789756E+04  0.26553013970E+04  0.22844518318E+04 0.  0.
        3    1    3    3  502    0 -0.37637594278E+03 -0.34528797030E+03 -0.18642567299E+04  0.19329603715E+04  0.10100000352E+00 0.  1.
       -3    1    3    3    0  502  0.37637594278E+03  0.34528797030E+03  0.51077775427E+03  0.72234102556E+03  0.10100000352E+00 0. -1.
</event>
<event>
 5   0  0.3438130E-06  0.2822862E+04  0.7818609E-02  0.8296206E-01
        1   -1    0    0  501    0  0.00000000000E+00  0.00000000000E+00  0.12627943398E+04  0.12627943398E+04  0.50400001928E-02 0. -1.
       -1   -1    0    0    0  501  0.00000000000E+00  0.00000000000E+00 -0.15775624892E+04  0.15775624892E+04  0.50400001928E-02 0.  1.
    10030    2    1    2    0    0  0.00000000000E+00  0.00000000000E+00 -0.31476814932E+03  0.28403568290E+04  0.28228616559E+04 0.  0.
        3    1    3    3  502    0  0.10049282127E+04 -0.75904445498E+03 -0.79859949853E+03  0.14912378639E+04  0.10100000352E+00 0.  1.
       -3    1    3    3    0  502 -0.10049282127E+04  0.75904445498E+03  0.48383134921E+03  0.13491189651E+04  0.10100000352E+00 0. -1.
</event>
<event>
 5   0  0.9426937E-06  0.2797115E+04  0.7818609E-02  0.8304165E-01
        2   -1    0    0  501    0  0.00000000000E+00  0.00000000000E+00  0.10591268513E+04  0.10591268513E+04  0.25500000920E-02 0.  1.
       -2   -1    0    0    0  501  0.00000000000E+00  0.00000000000E+00 -0.18467689324E+04  0.18467689324E+04  0.25500000920E-02 0. -1.
    10030    2    1    2    0    0  0.00000000000E+00  0.00000000000E+00 -0.78764208111E+03  0.29058957837E+04  0.27971146307E+04 0.  0.
        4    1    3    3  502    0  0.88608064285E+02 -0.10119887168E+04 -0.13924474090E+04  0.17236252353E+04  0.12699999809E+01 0. -1.
       -4    1    3    3    0  502 -0.88608064285E+02  0.10119887168E+04  0.60480532792E+03  0.11822705484E+04  0.12699999809E+01 0.  1.
</event>
<event>
 5   0  0.9260173E-06  0.2816204E+04  0.7818609E-02  0.8298255E-01
       -2   -1    0    0    0  501  0.00000000000E+00  0.00000000000E+00  0.94263272559E+03  0.94263272559E+03  0.25500000920E-02 0. -1.
        2   -1    0    0  501    0  0.00000000000E+00  0.00000000000E+00 -0.21034189060E+04  0.21034189060E+04  0.25500000920E-02 0.  1.
    10030    2    1    2    0    0  0.00000000000E+00  0.00000000000E+00 -0.11607861804E+04  0.30460516316E+04  0.28162041804E+04 0.  0.
        1    1    3    3  502    0 -0.13994332489E+04 -0.61034145082E+02 -0.73568284033E+03  0.15822034719E+04  0.50400001928E-02 0. -1.
       -1    1    3    3    0  502  0.13994332489E+04  0.61034145082E+02 -0.42510334012E+03  0.14638481597E+04  0.50400001928E-02 0.  1.
</event>
<event>
 5   0  0.3397882E-06  0.2833976E+04  0.7818609E-02  0.8292797E-01
       -1   -1    0    0    0  501  0.00000000000E+00  0.00000000000E+00  0.10648016354E+04  0.10648016354E+04  0.50400001928E-02 0.  1.
        1   -1    0    0  501    0  0.00000000000E+00  0.00000000000E+00 -0.18856606255E+04  0.18856606255E+04  0.50400001928E-02 0. -1.
    10030    2    1    2    0    0  0.00000000000E+00  0.00000000000E+00 -0.82085899005E+03  0.29504622609E+04  0.28339756653E+04 0.  0.
        2    1    3    3  502    0  0.22184375050E+03 -0.13687768921E+04 -0.10673815174E+03  0.13907400415E+04  0.25500000920E-02 0.  1.
       -2    1    3    3    0  502 -0.22184375050E+03  0.13687768921E+04 -0.71412083831E+03  0.15597222194E+04  0.25500000920E-02 0. -1.
</event>
<event>
 5   0  0.3357244E-06  0.2790687E+04  0.7818609E-02  0.8306165E-01
       -1   -1    0    0    0  501  0.00000000000E+00  0.00000000000E+00  0.19639711092E+04  0.19639711092E+04  0.50400001928E-02 0.  1.
        1   -1    0    0  501    0  0.00000000000E+00  0.00000000000E+00 -0.99135053367E+03  0.99135053368E+03  0.50400001928E-02 0. -1.
    10030    2    1    2    0    0  0.00000000000E+00  0.00000000000E+00  0.97262057552E+03  0.29553216429E+04  0.27906872324E+04 0.  0.
        4    1    3    3  502    0 -0.68063334310E+02 -0.81711767584E+03  0.16819275542E+04  0.18711482635E+04  0.12699999809E+01 0.  1.
       -4    1    3    3    0  502  0.68063334310E+02  0.81711767584E+03 -0.70930697866E+03  0.10841733794E+04  0.12699999809E+01 0. -1.
</event>
<event>
 5   0  0.3600963E-06  0.2810445E+04  0.7818609E-02  0.8300033E-01
       -1   -1    0    0    0  501  0.00000000000E+00  0.00000000000E+00  0.14136364374E+04  0.14136364374E+04  0.50400001928E-02 0. -1.
        1   -1    0    0  501    0  0.00000000000E+00  0.00000000000E+00 -0.13968586710E+04  0.13968586710E+04  0.50400001928E-02 0.  1.
    10030    2    1    2    0    0  0.00000000000E+00  0.00000000000E+00  0.16777766404E+02  0.28104951085E+04  0.28104450290E+04 0.  0.
        5    1    3    3  502    0 -0.83259360245E+03  0.84576130535E+03 -0.74402330961E+03  0.14007558915E+04  0.46999998093E+01 0.  1.
       -5    1    3    3    0  502  0.83259360245E+03 -0.84576130535E+03  0.76080107602E+03  0.14097392169E+04  0.46999998093E+01 0. -1.
</event>
<event>
 5   0  0.9342133E-06  0.2811513E+04  0.7818609E-02  0.8299703E-01
        2   -1    0    0  501    0  0.00000000000E+00  0.00000000000E+00  0.13472404640E+04  0.13472404640E+04  0.25500000920E-02 0.  1.
       -2   -1    0    0    0  501  0.00000000000E+00  0.00000000000E+00 -0.14668140474E+04  0.14668140474E+04  0.25500000920E-02 0. -1.
    10030    2    1    2    0    0  0.00000000000E+00  0.00000000000E+00 -0.11957358335E+03  0.28140545114E+04  0.28115129293E+04 0.  0.
        2    1    3    3  502    0  0.98395021899E+03 -0.10013823966E+04 -0.13214668249E+03  0.14101019408E+04  0.25500000920E-02 0. -1.
       -2    1    3    3    0  502 -0.98395021899E+03  0.10013823966E+04  0.12573099138E+02  0.14039525706E+04  0.25500000920E-02 0.  1.
</event>
<event>
 5   0  0.3357244E-06  0.2839797E+04  0.7818609E-02  0.8291018E-01
       -1   -1    0    0    0  501  0.00000000000E+00  0.00000000000E+00  0.16285475018E+04  0.16285475018E+04  0.50400001928E-02 0. -1.
        1   -1    0    0  501    0  0.00000000000E+00  0.00000000000E+00 -0.12379813994E+04  0.12379813994E+04  0.50400001928E-02 0.  1.
    10030    2    1    2    0    0  0.00000000000E+00  0.00000000000E+00  0.39056610240E+03  0.28665289012E+04  0.28397968345E+04 0.  0.
        4    1    3    3  502    0 -0.37391755154E+03  0.42761455811E+03  0.15088558149E+04  0.16122394452E+04  0.12699999809E+01 0. -1.
       -4    1    3    3    0  502  0.37391755154E+03 -0.42761455811E+03 -0.11182897125E+04  0.12542894560E+04  0.12699999809E+01 0.  1.
</event>
<event>
 5   0  0.9252359E-06  0.2818521E+04  0.7818609E-02  0.8297541E-01
       -2   -1    0    0    0  501  0.00000000000E+00  0.00000000000E+00  0.12364013445E+04  0.12364013445E+04  0.25500000920E-02 0.  1.
        2   -1    0    0  501    0  0.00000000000E+00  0.00000000000E+00 -0.16062864471E+04  0.16062864471E+04  0.25500000920E-02 0. -1.
    10030    2    1    2    0    0  0.00000000000E+00  0.00000000000E+00 -0.36988510264E+03  0.28426877916E+04  0.28185206920E+04 0.  0.
        5    1    3    3  502    0 -0.27482798285E+03 -0.98208109889E+03 -0.11658966092E+04  0.15489837630E+04  0.46999998093E+01 0. -1.
       -5    1    3    3    0  502  0.27482798285E+03  0.98208109889E+03  0.79601150652E+03  0.12937040285E+04  0.46999998093E+01 0.  1.
</event>
<event>
 5   0  0.3600963E-06  0.2795186E+04  0.7818609E-02  0.8304765E-01
       -1   -1    0    0    0  501  0.00000000000E+00  0.00000000000E+00  0.14133494706E+04  0.14133494706E+04  0.50400001928E-02 0.  1.
        1   -1    0    0  501    0  0.00000000000E+00  0.00000000000E+00 -0.13820120377E+04  0.13820120377E+04  0.50400001928E-02 0. -1.
    10030    2    1    2    0    0  0.00000000000E+00  0.00000000000E+00  0.31337432941E+02  0.27953615083E+04  0.27951858485E+04 0.  0.
        5    1    3    3  502    0 -0.10158656752E+04  0.42517546166E+03  0.87623813349E+03  0.14073281777E+04  0.46999998093E+01 0.  1.
       -5    1    3    3    0  502  0.10158656752E+04 -0.42517546166E+03 -0.84490070055E+03  0.13880333306E+04  0.46999998093E+01 0. -1.
</event>
<event>
 5   0  0.3371603E-06  0.2810953E+04  0.7818609E-02  0.8299876E-01
        1   -1    0    0  501    0  0.00000000000E+00  0.00000000000E+00  0.13673021749E+04  0.13673021749E+04  0.50400001928E-02 0. -1.
       -1   -1    0    0    0  501  0.00000000000E+00  0.00000000000E+00 -0.14447164100E+04  0.14447164100E+04  0.50400001928E-02 0.  1.
    10030    2    1    2    0    0  0.00000000000E+00  0.00000000000E+00 -0.77414235051E+02  0.28120185850E+04  0.28109527848E+04 0.  0.
        1    1    3    3  502    0 -0.75081682842E+02 -0.13724052379E+04 -0.33246874916E+03  0.14140964837E+04  0.50400001928E-02 0.  1.
       -1    1    3    3    0  502  0.75081682842E+02  0.13724052379E+04  0.25505451411E+03  0.13979221013E+04  0.50400001928E-02 0. -1.
</event>
<event>
 5   0  0.9342133E-06  0.2802156E+04  0.7818609E-02  0.8302599E-01
       -2   -1    0    0    0  501  0.00000000000E+00  0.00000000000E+00  0.14162966575E+04  0.14162966575E+04  0.25500000920E-02 0. -1.
        2   -1    0    0  501    0  0.00000000000E+00  0.00000000000E+00 -0.13860228055E+04  0.13860228055E+04  0.25500000920E-02 0.  1.
    10030    2    1    2    0    0  0.00000000000E+00  0.00000000000E+00  0.30273852063E+02  0.28023194630E+04  0.28021559319E+04 0.  0.
        2    1    3    3  502    0 -0.97427110637E+03 -0.90626658450E+03  0.45390636916E+03  0.14058998196E+04  0.25500000920E-02 0. -1.
       -2    1    3    3    0  502  0.97427110637E+03  0.90626658450E+03 -0.42363251709E+03  0.13964196434E+04  0.25500000920E-02 0.  1.
</event>
<event>
 5   0  0.3600963E-06  0.2821542E+04  0.7818609E-02  0.8296611E-01
        1   -1    0    0  501    0  0.00000000000E+00  0.00000000000E+00  0.13479516036E+04  0.13479516036E+04  0.50400001928E-02 0. -1.
       -1   -1    0    0    0  501  0.00000000000E+00  0.00000000000E+00 -0.14765181689E+04  0.14765181689E+04  0.50400001928E-02 0.  1.
    10030    2    1    2    0    0  0.00000000000E+00  0.00000000000E+00 -0.12856656532E+03  0.28244697725E+04  0.28215421553E+04 0.  0.
        5    1    3    3  502    0 -0.15292137380E+03  0.12014000368E+04  0.66000456495E+03  0.13792661493E+04  0.46999998093E+01 0. -1.
       -5    1    3    3    0  502  0.15292137380E+03 -0.12014000368E+04 -0.78857113028E+03  0.14452036232E+04  0.46999998093E+01 0.  1.
</event>
<event>
 5   0  0.9260173E-06  0.2801470E+04  0.7818609E-02  0.8302812E-01
        2   -1    0    0  501    0  0.00000000000E+00  0.00000000000E+00  0.14196587163E+04  0.14196587163E+04  0.25500000920E-02 0.  1.
       -2   -1    0    0    0  501  0.00000000000E+00  0.00000000000E+00 -0.13820634488E+04  0.13820634488E+04  0.25500000920E-02 0. -1.
    10030    2    1    2    0    0  0.00000000000E+00  0.00000000000E+00  0.37595267476E+02  0.28017221651E+04  0.28014699153E+04 0.  0.
        1    1    3    3  502    0  0.67671474532E+03  0.20980100378E+03 -0.11896567783E+04  0.13846452823E+04  0.50400001928E-02 0. -1.
       -1    1    3    3    0  502 -0.67671474532E+03 -0.20980100378E+03  0.12272520458E+04  0.14170768827E+04  0.50400001928E-02 0.  1.
</event>
<event>
 5   0  0.3371603E-06  0.2783338E+04  0.7818609E-02  0.8308460E-01
       -1   -1    0    0    0  501  0.00000000000E+00  0.00000000000E+00  0.87609404372E+03  0.87609404373E+03  0.50400001928E-02 0.  1.
        1   -1    0    0  501    0  0.00000000000E+00  0.00000000000E+00 -0.22106564607E+04  0.22106564607E+04  0.50400001928E-02 0. -1.
    10030    2    1    2    0    0  0.00000000000E+00  0.00000000000E+00 -0.13345624170E+04  0.30867505045E+04  0.27833382532E+04 0.  0.
        1    1    3    3  502    0  0.36812549274E+03  0.11556622175E+04 -0.14240711147E+04  0.18705747991E+04  0.50400001928E-02 0. -1.
       -1    1    3    3    0  502 -0.36812549274E+03 -0.11556622175E+04  0.89508697648E+02  0.12161757054E+04  0.50400001928E-02 0.  1.
</event>
<event>
 5   0  0.3397882E-06  0.2791382E+04  0.7818609E-02  0.8305949E-01
        1   -1    0    0  501    0  0.00000000000E+00  0.00000000000E+00  0.20666907859E+04  0.20666907859E+04  0.50400001928E-02 0.  1.
       -1   -1    0    0    0  501  0.00000000000E+00  0.00000000000E+00 -0.94254675394E+03  0.94254675395E+03  0.50400001928E-02 0. -1.
    10030    2    1    2    0    0  0.00000000000E+00  0.00000000000E+00  0.11241440319E+04  0.30092375398E+04  0.27913815158E+04 0.  0.
        2    1    3    3  502    0 -0.87022278512E+03  0.35916394985E+03  0.16728602708E+04  0.19195697237E+04  0.25500000920E-02 0.  1.
       -2    1    3    3    0  502  0.87022278512E+03 -0.35916394985E+03 -0.54871623888E+03  0.10896678161E+04  0.25500000920E-02 0. -1.
</event>
<event>
 5   0  0.9426937E-06  0.2775162E+04  0.7818609E-02  0.8311021E-01
        2   -1    0    0  501    0  0.00000000000E+00  0.00000000000E+00  0.18133780629E+04  0.18133780629E+04  0.25500000920E-02 0. -1.
       -2   -1    0    0    0  501  0.00000000000E+00  0.00000000000E+00 -0.10617651764E+04  0.10617651764E+04  0.25500000920E-02 0.  1.
    10030    2    1    2    0    0  0.00000000000E+00  0.00000000000E+00  0.75161288647E+03  0.28751432393E+04  0.27751624665E+04 0.  0.
        4    1    3    3  502    0  0.12029395319E+04  0.56416268668E+03 -0.38652284442E+02  0.13292248366E+04  0.12699999809E+01 0.  1.
       -4    1    3    3    0  502 -0.12029395319E+04 -0.56416268668E+03  0.79026517091E+03  0.15459184026E+04  0.12699999809E+01 0. -1.
</event>
<event>
 5   0  0.9342133E-06  0.2782180E+04  0.7818609E-02  0.8308822E-01
       -2   -1    0    0    0  501  0.00000000000E+00  0.00000000000E+00  0.72259503332E+03  0.72259503332E+03  0.25500000920E-02 0. -1.
        2   -1    0    0  501    0  0.00000000000E+00  0.00000000000E+00 -0.26780303698E+04  0.26780303698E+04  0.25500000920E-02 0.  1.
    10030    2    1    2    0    0  0.00000000000E+00  0.00000000000E+00 -0.19554353364E+04  0.34006254031E+04  0.27821800404E+04 0.  0.
        2    1    3    3  502    0  0.13150069653E+04 -0.44801789810E+03 -0.88984809108E+03  0.16497857379E+04  0.25500000920E-02 0. -1.
       -2    1    3    3    0  502 -0.13150069653E+04  0.44801789810E+03 -0.10655872454E+04  0.17508396652E+04  0.25500000920E-02 0.  1.
</event>
<event>
 5   0  0.9426937E-06  0.2782645E+04  0.7818609E-02  0.8308677E-01
        2   -1    0    0  501    0  0.00000000000E+00  0.00000000000E+00  0.25922035174E+04  0.25922035174E+04  0.25500000920E-02 0. -1.
       -2   -1    0    0    0  501  0.00000000000E+00  0.00000000000E+00 -0.74676922390E+03  0.74676922391E+03  0.25500000920E-02 0.  1.
    10030    2    1    2    0    0  0.00000000000E+00  0.00000000000E+00  0.18454342935E+04  0.33389727413E+04  0.27826446477E+04 0.  0.
        4    1    3    3  502    0 -0.51630502148E+03  0.91139366487E+03  0.20215306418E+04  0.22767953435E+04  0.12699999809E+01 0. -1.
       -4    1    3    3    0  502  0.51630502148E+03 -0.91139366487E+03 -0.17609634832E+03  0.10621773978E+04  0.12699999809E+01 0.  1.
</event>
<event>
 5   0  0.3397882E-06  0.2804112E+04  0.7818609E-02  0.8301993E-01
       -1   -1    0    0    0  501  0.00000000000E+00  0.00000000000E+00  0.27105025250E+04  0.27105025250E+04  0.50400001928E-02 0. -1.
        1   -1    0    0  501    0  0.00000000000E+00  0.00000000000E+00 -0.72523839971E+03  0.72523839973E+03  0.50400001928E-02 0.  1.
    10030    2    1    2    0    0  0.00000000000E+00  0.00000000000E+00  0.19852641253E+04  0.34357409247E+04  0.28041116338E+04 0.  0.
        2    1    3    3  502    0  0.79422964443E+03  0.11548223727E+04  0.10375684390E+04  0.17438359172E+04  0.25500000920E-02 0.  1.
       -2    1    3    3    0  502 -0.79422964443E+03 -0.11548223727E+04  0.94769568630E+03  0.16919050075E+04  0.25500000920E-02 0. -1.
</event>
<event>
 5   0  0.9260173E-06  0.2925142E+04  0.7818609E-02  0.8265436E-01
        2   -1    0    0  501    0  0.00000000000E+00  0.00000000000E+00  0.10221745526E+04  0.10221745526E+04  0.25500000920E-02 0.  1.
       -2   -1    0    0    0  501  0.00000000000E+00  0.00000000000E+00 -0.20927093566E+04  0.20927093566E+04  0.25500000920E-02 0. -1.
    10030    2    1    2    0    0  0.00000000000E+00  0.00000000000E+00 -0.10705348040E+04  0.31148839092E+04  0.29251422190E+04 0.  0.
        1    1    3    3  502    0 -0.29503337204E+03 -0.15139060898E+03 -0.20521501178E+04  0.20787698076E+04  0.50400001928E-02 0. -1.
       -1    1    3    3    0  502  0.29503337204E+03  0.15139060898E+03  0.98161531380E+03  0.10361141015E+04  0.50400001928E-02 0.  1.
</event>
<event>
 5   0  0.3357244E-06  0.2804864E+04  0.7818609E-02  0.8301760E-01
        1   -1    0    0  501    0  0.00000000000E+00  0.00000000000E+00  0.20831372544E+04  0.20831372545E+04  0.50400001928E-02 0. -1.
       -1   -1    0    0    0  501  0.00000000000E+00  0.00000000000E+00 -0.94416062373E+03  0.94416062375E+03  0.50400001928E-02 0.  1.
    10030    2    1    2    0    0  0.00000000000E+00  0.00000000000E+00  0.11389766307E+04  0.30272978782E+04  0.28048644670E+04 0.  0.
        4    1    3    3  502    0  0.52187379360E+03  0.12415706347E+04  0.99161113216E+03  0.16724664863E+04  0.12699999809E+01 0.  1.
       -4    1    3    3    0  502 -0.52187379360E+03 -0.12415706347E+04  0.14736549855E+03  0.13548313919E+04  0.12699999809E+01 0. -1.
</event>
<event>
 5   0  0.3397882E-06  0.2833414E+04  0.7818609E-02  0.8292969E-01
        1   -1    0    0  501    0  0.00000000000E+00  0.00000000000E+00  0.11673056346E+04  0.11673056346E+04  0.50400001928E-02 0. -1.
       -1   -1    0    0    0  501  0.00000000000E+00  0.00000000000E+00 -0.17193939906E+04  0.17193939906E+04  0.50400001928E-02 0.  1.
    10030    2    1    2    0    0  0.00000000000E+00  0.00000000000E+00 -0.55208835600E+03  0.28866996251E+04  0.28334136961E+04 0.  0.
        2    1    3    3  502    0 -0.25643650771E+03 -0.13720106621E+04 -0.28817546403E+02  0.13960671153E+04  0.25500000920E-02 0. -1.
       -2    1    3    3    0  502  0.25643650771E+03  0.13720106621E+04 -0.52327080959E+03  0.14906325099E+04  0.25500000920E-02 0.  1.
</event>
<event>
 5   0  0.3371603E-06  0.2791458E+04  0.7818609E-02  0.8305925E-01
        1   -1    0    0  501    0  0.00000000000E+00  0.00000000000E+00  0.13710290566E+04  0.13710290567E+04  0.50400001928E-02 0. -1.
       -1   -1    0    0    0  501  0.00000000000E+00  0.00000000000E+00 -0.14208741452E+04  0.14208741452E+04  0.50400001928E-02 0.  1.
    10030    2    1    2    0    0  0.00000000000E+00  0.00000000000E+00 -0.49845088552E+02  0.27919032019E+04  0.27914582131E+04 0.  0.
        1    1    3    3  502    0  0.30765778544E+03  0.21987785603E+03  0.13188168994E+04  0.13719612235E+04  0.50400001928E-02 0. -1.
       -1    1    3    3    0  502 -0.30765778544E+03 -0.21987785603E+03 -0.13686619880E+04  0.14199419784E+04  0.50400001928E-02 0.  1.
</event>
<event>
 5   0  0.9260173E-06  0.2516631E+04  0.7818609E-02  0.8397084E-01
       -2   -1    0    0    0  501  0.00000000000E+00  0.00000000000E+00  0.13811693982E+04  0.13811693982E+04  0.25500000920E-02 0. -1.
        2   -1    0    0  501    0  0.00000000000E+00  0.00000000000E+00 -0.11463894515E+04  0.11463894515E+04  0.25500000920E-02 0.  1.
    10030    2    1    2    0    0  0.00000000000E+00  0.00000000000E+00  0.23477994673E+03  0.25275588496E+04  0.25166311043E+04 0.  0.
        1    1    3    3  502    0 -0.10724761711E+04 -0.20552818334E+03  0.74533365293E+03  0.13221078723E+04  0.50400001928E-02 0. -1.
       -1    1    3    3    0  502  0.10724761711E+04  0.20552818334E+03 -0.51055370620E+03  0.12054509773E+04  0.50400001928E-02 0.  1.
</event>
<event>
 5   0  0.3438130E-06  0.2594242E+04  0.7818609E-02  0.8370160E-01
       -1   -1    0    0    0  501  0.00000000000E+00  0.00000000000E+00  0.73676908965E+03  0.73676908967E+03  0.50400001928E-02 0.  1.
        1   -1    0    0  501    0  0.00000000000E+00  0.00000000000E+00 -0.22836495701E+04  0.22836495701E+04  0.50400001928E-02 0. -1.
    10030    2    1    2    0    0  0.00000000000E+00  0.00000000000E+00 -0.15468804804E+04  0.30204186598E+04  0.25942416348E+04 0.  0.
        3    1    3    3  502    0  0.44762250153E+03  0.11630260821E+04 -0.11924620163E+04  0.17248075957E+04  0.10100000352E+00 0. -1.
       -3    1    3    3    0  502 -0.44762250153E+03 -0.11630260821E+04 -0.35441846411E+03  0.12956110641E+04  0.10100000352E+00 0.  1.
</event>
<event>
 5   0  0.3600963E-06  0.2830451E+04  0.7818609E-02  0.8293876E-01
       -1   -1    0    0    0  501  0.00000000000E+00  0.00000000000E+00  0.27282225775E+04  0.27282225775E+04  0.50400001928E-02 0. -1.
        1   -1    0    0  501    0  0.00000000000E+00  0.00000000000E+00 -0.73412752082E+03  0.73412752084E+03  0.50400001928E-02 0.  1.
    10030    2    1    2    0    0  0.00000000000E+00  0.00000000000E+00  0.19940950567E+04  0.34623500983E+04  0.28304510433E+04 0.  0.
        5    1    3    3  502    0 -0.78207806694E+03 -0.90218877982E+03  0.19264364414E+04  0.22664443849E+04  0.46999998093E+01 0. -1.
       -5    1    3    3    0  502  0.78207806694E+03  0.90218877982E+03  0.67658615296E+02  0.11959057134E+04  0.46999998093E+01 0.  1.
</event>
<event>
 5   0  0.3438130E-06  0.2754059E+04  0.7818609E-02  0.8317675E-01
       -1   -1    0    0    0  501  0.00000000000E+00  0.00000000000E+00  0.21673009570E+04  0.21673009570E+04  0.50400001928E-02 0. -1.
        1   -1    0    0  501    0  0.00000000000E+00  0.00000000000E+00 -0.87491769325E+03  0.87491769326E+03  0.50400001928E-02 0.  1.
    10030    2    1    2    0    0  0.00000000000E+00  0.00000000000E+00  0.12923832637E+04  0.30422186503E+04  0.27540587894E+04 0.  0.
        3    1    3    3  502    0  0.10678990842E+04 -0.86936272812E+03  0.64967367747E+03  0.15225885539E+04  0.10100000352E+00 0.  1.
       -3    1    3    3    0  502 -0.10678990842E+04  0.86936272812E+03  0.64270958627E+03  0.15196300963E+04  0.10100000352E+00 0. -1.
</event>
<event>
 5   0  0.9342133E-06  0.2810090E+04  0.7818609E-02  0.8300143E-01
       -2   -1    0    0    0  501  0.00000000000E+00  0.00000000000E+00  0.93342726013E+03  0.93342726014E+03  0.25500000920E-02 0. -1.
        2   -1    0    0  501    0  0.00000000000E+00  0.00000000000E+00 -0.21149497214E+04  0.21149497214E+04  0.25500000920E-02 0.  1.
    10030    2    1    2    0    0  0.00000000000E+00  0.00000000000E+00 -0.11815224613E+04  0.30483769816E+04  0.28100901934E+04 0.  0.
        2    1    3    3  502    0  0.30482264883E+03  0.71726933972E+03 -0.18589808753E+04  0.20157385861E+04  0.25500000920E-02 0.  1.
       -2    1    3    3    0  502 -0.30482264883E+03 -0.71726933972E+03  0.67745841402E+03  0.10326383954E+04  0.25500000920E-02 0. -1.
</event>
<event>
 5   0  0.9426937E-06  0.2772507E+04  0.7818609E-02  0.8311855E-01
        2   -1    0    0  501    0  0.00000000000E+00  0.00000000000E+00  0.19423997931E+04  0.19423997931E+04  0.25500000920E-02 0.  1.
       -2   -1    0    0    0  501  0.00000000000E+00  0.00000000000E+00 -0.98934223074E+03  0.98934223074E+03  0.25500000920E-02 0. -1.
    10030    2    1    2    0    0  0.00000000000E+00  0.00000000000E+00  0.95305756236E+03  0.29317420238E+04  0.27725065513E+04 0.  0.
        4    1    3    3  502    0 -0.12694651495E+04 -0.53743393090E+03  0.63092691303E+03  0.15160631182E+04  0.12699999809E+01 0. -1.
       -4    1    3    3    0  502  0.12694651495E+04  0.53743393090E+03  0.32213064933E+03  0.14156789057E+04  0.12699999809E+01 0.  1.
</event>
<event>
 5   0  0.9426937E-06  0.2823188E+04  0.7818609E-02  0.8296106E-01
        2   -1    0    0  501    0  0.00000000000E+00  0.00000000000E+00  0.18179844902E+04  0.18179844902E+04  0.25500000920E-02 0. -1.
       -2   -1    0    0    0  501  0.00000000000E+00  0.00000000000E+00 -0.10960472970E+04  0.10960472970E+04  0.25500000920E-02 0.  1.
    10030    2    1    2    0    0  0.00000000000E+00  0.00000000000E+00  0.72193719313E+03  0.29140317872E+04  0.28231875506E+04 0.  0.
        4    1    3    3  502    0 -0.12134035879E+04  0.62849431886E+03  0.72625166942E+03  0.15475129971E+04  0.12699999809E+01 0.  1.
       -4    1    3    3    0  502  0.12134035879E+04 -0.62849431886E+03 -0.43144762850E+01  0.13665187901E+04  0.12699999809E+01 0. -1.
</event>
<event>
 5   0  0.3438130E-06  0.2801183E+04  0.7818609E-02  0.8302901E-01
       -1   -1    0    0    0  501  0.00000000000E+00  0.00000000000E+00  0.78401200569E+03  0.78401200570E+03  0.50400001928E-02 0.  1.
        1   -1    0    0  501    0  0.00000000000E+00  0.00000000000E+00 -0.25020737625E+04  0.25020737625E+04  0.50400001928E-02 0. -1.
    10030    2    1    2    0    0  0.00000000000E+00  0.00000000000E+00 -0.17180617568E+04  0.32860857682E+04  0.28011825138E+04 0.  0.
        3    1    3    3  502    0  0.10645647750E+04  0.89105519634E+02 -0.19215947683E+04  0.21985823655E+04  0.10100000352E+00 0. -1.
       -3    1    3    3    0  502 -0.10645647750E+04 -0.89105519634E+02  0.20353301155E+03  0.10875034027E+04  0.10100000352E+00 0.  1.
</event>
<event>
 5   0  0.3357244E-06  0.2780390E+04  0.7818609E-02  0.8309382E-01
       -1   -1    0    0    0  501  0.00000000000E+00  0.00000000000E+00  0.16533147400E+04  0.16533147400E+04  0.50400001928E-02 0.  1.
        1   -1    0    0  501    0  0.00000000000E+00  0.00000000000E+00 -0.11689498691E+04  0.11689498691E+04  0.50400001928E-02 0. -1.
    10030    2    1    2    0    0  0.00000000000E+00  0.00000000000E+00  0.48436487092E+03  0.28222646091E+04  0.27803899359E+04 0.  0.
        4    1    3    3  502    0  0.57148471973E+03  0.11689365325E+04  0.73907828032E+03  0.14964109460E+04  0.12699999809E+01 0. -1.
       -4    1    3    3    0  502 -0.57148471973E+03 -0.11689365325E+04 -0.25471340941E+03  0.13258536631E+04  0.12699999809E+01 0.  1.
</event>
<event>
 5   0  0.9252359E-06  0.2800012E+04  0.7818609E-02  0.8303265E-01
       -2   -1    0    0    0  501  0.00000000000E+00  0.00000000000E+00  0.11274334829E+04  0.11274334829E+04  0.25500000920E-02 0. -1.
        2   -1    0    0  501    0  0.00000000000E+00  0.00000000000E+00 -0.17384763023E+04  0.17384763023E+04  0.25500000920E-02 0.  1.
    10030    2    1    2    0    0  0.00000000000E+00  0.00000000000E+00 -0.61104281936E+03  0.28659097852E+04  0.28000117088E+04 0.  0.
        5    1    3    3  502    0  0.55374417779E+03  0.17898892490E+03 -0.16088012007E+04  0.17108281746E+04  0.46999998093E+01 0.  1.
       -5    1    3    3    0  502 -0.55374417779E+03 -0.17898892490E+03  0.99775838130E+03  0.11550816106E+04  0.46999998093E+01 0. -1.
</event>
<event>
 5   0  0.3600963E-06  0.2780997E+04  0.7818609E-02  0.8309193E-01
       -1   -1    0    0    0  501  0.00000000000E+00  0.00000000000E+00  0.11477659772E+04  0.11477659772E+04  0.50400001928E-02 0.  1.
        1   -1    0    0  501    0  0.00000000000E+00  0.00000000000E+00 -0.16845642668E+04  0.16845642668E+04  0.50400001928E-02 0. -1.
    10030    2    1    2    0    0  0.00000000000E+00  0.00000000000E+00 -0.53679828966E+03  0.28323302440E+04  0.27809966213E+04 0.  0.
        5    1    3    3  502    0 -0.16428103908E+03 -0.83142585319E+03 -0.13911113045E+04  0.16289475009E+04  0.46999998093E+01 0. -1.
       -5    1    3    3    0  502  0.16428103908E+03  0.83142585319E+03  0.85431301484E+03  0.12033827431E+04  0.46999998093E+01 0.  1.
</event>
<event>
 5   0  0.3397882E-06  0.2795579E+04  0.7818609E-02  0.8304642E-01
        1   -1    0    0  501    0  0.00000000000E+00  0.00000000000E+00  0.26761223165E+04  0.26761223165E+04  0.50400001928E-02 0.  1.
       -1   -1    0    0    0  501  0.00000000000E+00  0.00000000000E+00 -0.73009174002E+03  0.73009174004E+03  0.50400001928E-02 0. -1.
    10030    2    1    2    0    0  0.00000000000E+00  0.00000000000E+00  0.19460305765E+04  0.34062140565E+04  0.27955785080E+04 0.  0.
        2    1    3    3  502    0  0.32972278504E+02  0.73795474619E+03  0.24188703786E+04  0.25291497162E+04  0.25500000920E-02 0.  1.
       -2    1    3    3    0  502 -0.32972278504E+02 -0.73795474619E+03 -0.47283980212E+03  0.87706434032E+03  0.25500000920E-02 0. -1.
</event>
<event>
 5   0  0.9252359E-06  0.2669667E+04  0.7818609E-02  0.8344915E-01
       -2   -1    0    0    0  501  0.00000000000E+00  0.00000000000E+00  0.10559186961E+04  0.10559186961E+04  0.25500000920E-02 0.  1.
        2   -1    0    0  501    0  0.00000000000E+00  0.00000000000E+00 -0.16874220120E+04  0.16874220120E+04  0.25500000920E-02 0. -1.
    10030    2    1    2    0    0  0.00000000000E+00  0.00000000000E+00 -0.63150331584E+03  0.27433407081E+04  0.26696669835E+04 0.  0.
        5    1    3    3  502    0  0.11284954959E+04 -0.69365357181E+03 -0.14658479106E+03  0.13327289870E+04  0.46999998093E+01 0.  1.
       -5    1    3    3    0  502 -0.11284954959E+04  0.69365357181E+03 -0.48491852478E+03  0.14106117210E+04  0.46999998093E+01 0. -1.
</event>
<event>
 5   0  0.3438130E-06  0.2811613E+04  0.7818609E-02  0.8299672E-01
       -1   -1    0    0    0  501  0.00000000000E+00  0.00000000000E+00  0.15919216554E+04  0.15919216554E+04  0.50400001928E-02 0.  1.
        1   -1    0    0  501    0  0.00000000000E+00  0.00000000000E+00 -0.12414503821E+04  0.12414503821E+04  0.50400001928E-02 0. -1.
    10030    2    1    2    0    0  0.00000000000E+00  0.00000000000E+00  0.35047127334E+03  0.28333720376E+04  0.28116128805E+04 0.  0.
        3    1    3    3  502    0 -0.66394331517E+02  0.13504578115E+04  0.56311336747E+03  0.14646641877E+04  0.10100000352E+00 0.  1.
       -3    1    3    3    0  502  0.66394331517E+02 -0.13504578115E+04 -0.21264209413E+03  0.13687078499E+04  0.10100000352E+00 0. -1.
</event>
<event>
 5   0  0.3438130E-06  0.2855788E+04  0.7818609E-02  0.8286155E-01
        1   -1    0    0  501    0  0.00000000000E+00  0.00000000000E+00  0.15325617678E+04  0.15325617678E+04  0.50400001928E-02 0.  1.
       -1   -1    0    0    0  501  0.00000000000E+00  0.00000000000E+00 -0.13303742062E+04  0.13303742062E+04  0.50400001928E-02 0. -1.
    10030    2    1    2    0    0  0.00000000000E+00  0.00000000000E+00  0.20218756161E+03  0.28629359739E+04  0.28557875588E+04 0.  0.
        3    1    3    3  502    0 -0.12887017316E+04 -0.57704860892E+03 -0.11190778609E+03  0.14164252938E+04  0.10100000352E+00 0.  1.
       -3    1    3    3    0  502  0.12887017316E+04  0.57704860892E+03  0.31409534770E+03  0.14465106801E+04  0.10100000352E+00 0. -1.
</event>
<event>
 5   0  0.3438130E-06  0.2807467E+04  0.7818609E-02  0.8300954E-01
       -1   -1    0    0    0  501  0.00000000000E+00  0.00000000000E+00  0.99774164758E+03  0.99774164759E+03  0.50400001928E-02 0. -1.
        1   -1    0    0  501    0  0.00000000000E+00  0.00000000000E+00 -0.19749273022E+04  0.19749273022E+04  0.50400001928E-02 0.  1.
    10030    2    1    2    0    0  0.00000000000E+00  0.00000000000E+00 -0.97718565465E+03  0.29726689498E+04  0.28074666305E+04 0.  0.
        3    1    3    3  502    0  0.18497508898E+03  0.11857093641E+04  0.28250782929E+03  0.12328556945E+04  0.10100000352E+00 0. -1.
       -3    1    3    3    0  502 -0.18497508898E+03 -0.11857093641E+04 -0.12596934839E+04  0.17398132553E+04  0.10100000352E+00 0.  1.
</event>
<event>
 5   0  0.3397882E-06  0.2478643E+04  0.7818609E-02  0.8410634E-01
        1   -1    0    0  501    0  0.00000000000E+00  0.00000000000E+00  0.14122717571E+04  0.14122717571E+04  0.50400001928E-02 0.  1.
       -1   -1    0    0    0  501  0.00000000000E+00  0.00000000000E+00 -0.10875509006E+04  0.10875509006E+04  0.50400001928E-02 0. -1.
    10030    2    1    2    0    0  0.00000000000E+00  0.00000000000E+00  0.32472085652E+03  0.24998226578E+04  0.24786427104E+04 0.  0.
        2    1    3    3  502    0  0.77333080497E+03 -0.90886568721E+03  0.49964303647E+03  0.12937235158E+04  0.25500000920E-02 0. -1.
       -2    1    3    3    0  502 -0.77333080497E+03  0.90886568721E+03 -0.17492217995E+03  0.12060991420E+04  0.25500000920E-02 0.  1.
</event>
<event>
 5   0  0.3357244E-06  0.2768909E+04  0.7818609E-02  0.8312986E-01
       -1   -1    0    0    0  501  0.00000000000E+00  0.00000000000E+00  0.99767965431E+03  0.99767965432E+03  0.50400001928E-02 0.  1.
        1   -1    0    0  501    0  0.00000000000E+00  0.00000000000E+00 -0.19211723004E+04  0.19211723004E+04  0.50400001928E-02 0. -1.
    10030    2    1    2    0    0  0.00000000000E+00  0.00000000000E+00 -0.92349264605E+03  0.29188519547E+04  0.27689091834E+04 0.  0.
        4    1    3    3  502    0  0.10824115239E+04 -0.11276066431E+03 -0.13638834403E+04  0.17448522362E+04  0.12699999809E+01 0. -1.
       -4    1    3    3    0  502 -0.10824115239E+04  0.11276066431E+03  0.44039079424E+03  0.11739997185E+04  0.12699999809E+01 0.  1.
</event>
<event>
 5   0  0.3357244E-06  0.2796003E+04  0.7818609E-02  0.8304510E-01
       -1   -1    0    0    0  501  0.00000000000E+00  0.00000000000E+00  0.20132253181E+04  0.20132253181E+04  0.50400001928E-02 0. -1.
        1   -1    0    0  501    0  0.00000000000E+00  0.00000000000E+00 -0.97078469387E+03  0.97078469388E+03  0.50400001928E-02 0.  1.
    10030    2    1    2    0    0  0.00000000000E+00  0.00000000000E+00  0.10424406243E+04  0.29840100120E+04  0.27960030931E+04 0.  0.
        4    1    3    3  502    0 -0.50792970284E+03 -0.35604058301E+02  0.19107449267E+04  0.19774245927E+04  0.12699999809E+01 0. -1.
       -4    1    3    3    0  502  0.50792970284E+03  0.35604058301E+02 -0.86830430240E+03  0.10065854194E+04  0.12699999809E+01 0.  1.
</event>
<event>
 5   0  0.9065579E-06  0.2748352E+04  0.7818609E-02  0.8319485E-01
        2   -1    0    0  501    0  0.00000000000E+00  0.00000000000E+00  0.16573873202E+04  0.16573873202E+04  0.25500000920E-02 0.  1.
       -2   -1    0    0    0  501  0.00000000000E+00  0.00000000000E+00 -0.11393592940E+04  0.11393592940E+04  0.25500000920E-02 0. -1.
    10030    2    1    2    0    0  0.00000000000E+00  0.00000000000E+00  0.51802802622E+03  0.27967466142E+04  0.27483519767E+04 0.  0.
        3    1    3    3  502    0 -0.63462070961E+03 -0.30950086298E+03 -0.94065348543E+03  0.11761646225E+04  0.10100000352E+00 0. -1.
       -3    1    3    3    0  502  0.63462070961E+03  0.30950086298E+03  0.14586815117E+04  0.16205819917E+04  0.10100000352E+00 0.  1.
</event>
<event>
 5   0  0.9426937E-06  0.2797457E+04  0.7818609E-02  0.8304058E-01
       -2   -1    0    0    0  501  0.00000000000E+00  0.00000000000E+00  0.10665163413E+04  0.10665163413E+04  0.25500000920E-02 0.  1.
        2   -1    0    0  501    0  0.00000000000E+00  0.00000000000E+00 -0.18344219971E+04  0.18344219971E+04  0.25500000920E-02 0. -1.
    10030    2    1    2    0    0  0.00000000000E+00  0.00000000000E+00 -0.76790565575E+03  0.29009383384E+04  0.27974567284E+04 0.  0.
        4    1    3    3  502    0  0.12209903657E+04  0.13334924112E+03 -0.10779161654E+04  0.16341677900E+04  0.12699999809E+01 0. -1.
       -4    1    3    3    0  502 -0.12209903657E+04 -0.13334924112E+03  0.31001050967E+03  0.12667705484E+04  0.12699999809E+01 0.  1.
</event>
<event>
 5   0  0.9426937E-06  0.2761509E+04  0.7818609E-02  0.8315319E-01
        2   -1    0    0  501    0  0.00000000000E+00  0.00000000000E+00  0.16134365663E+04  0.16134365663E+04  0.25500000920E-02 0. -1.
       -2   -1    0    0    0  501  0.00000000000E+00  0.00000000000E+00 -0.11816288896E+04  0.11816288896E+04  0.25500000920E-02 0.  1.
    10030    2    1    2    0    0  0.00000000000E+00  0.00000000000E+00  0.43180767673E+03  0.27950654559E+04  0.27615091948E+04 0.  0.
        4    1    3    3  502    0  0.12532567774E+03  0.80290026631E+03 -0.91396106149E+03  0.12229807022E+04  0.12699999809E+01 0.  1.
       -4    1    3    3    0  502 -0.12532567774E+03 -0.80290026631E+03  0.13457687382E+04  0.15720847537E+04  0.12699999809E+01 0. -1.
</event>
<event>
 5   0  0.3600963E-06  0.2449523E+04  0.7818609E-02  0.8421192E-01
       -1   -1    0    0    0  501  0.00000000000E+00  0.00000000000E+00  0.57561981920E+03  0.57561981922E+03  0.50400001928E-02 0.  1.
        1   -1    0    0  501    0  0.00000000000E+00  0.00000000000E+00 -0.26059577620E+04  0.26059577620E+04  0.50400001928E-02 0. -1.
    10030    2    1    2    0    0  0.00000000000E+00  0.00000000000E+00 -0.20303379428E+04  0.31815775812E+04  0.24495231665E+04 0.  0.
        5    1    3    3  502    0  0.90039974809E+03 -0.67100415571E+02 -0.20900039409E+04  0.22766995267E+04  0.46999998093E+01 0. -1.
       -5    1    3    3    0  502 -0.90039974809E+03  0.67100415571E+02  0.59665998105E+02  0.90487805447E+03  0.46999998093E+01 0.  1.
</event>
<event>
 5   0  0.3438130E-06  0.2829711E+04  0.7818609E-02  0.8294103E-01
       -1   -1    0    0    0  501  0.00000000000E+00  0.00000000000E+00  0.98272048324E+03  0.98272048325E+03  0.50400001928E-02 0. -1.
        1   -1    0    0  501    0  0.00000000000E+00  0.00000000000E+00 -0.20370140855E+04  0.20370140855E+04  0.50400001928E-02 0.  1.
    10030    2    1    2    0    0  0.00000000000E+00  0.00000000000E+00 -0.10542936023E+04  0.30197345688E+04  0.28297105622E+04 0.  0.
        3    1    3    3  502    0  0.53127711579E+03  0.17034277769E+03  0.86037533260E+03  0.10254353996E+04  0.10100000352E+00 0. -1.
       -3    1    3    3    0  502 -0.53127711579E+03 -0.17034277769E+03 -0.19146689349E+04  0.19942991691E+04  0.10100000352E+00 0.  1.
</event>
<event>
 5   0  0.9426937E-06  0.2799425E+04  0.7818609E-02  0.8303447E-01
       -2   -1    0    0    0  501  0.00000000000E+00  0.00000000000E+00  0.97994282077E+03  0.97994282078E+03  0.25500000920E-02 0.  1.
        2   -1    0    0  501    0  0.00000000000E+00  0.00000000000E+00 -0.19992953175E+04  0.19992953175E+04  0.25500000920E-02 0. -1.
    10030    2    1    2    0    0  0.00000000000E+00  0.00000000000E+00 -0.10193524968E+04  0.29792381383E+04  0.27994250074E+04 0.  0.
        4    1    3    3  502    0  0.63486377484E+03 -0.66377003941E+03  0.61436191713E+03  0.11050270838E+04  0.12699999809E+01 0.  1.
       -4    1    3    3    0  502 -0.63486377484E+03  0.66377003941E+03 -0.16337144139E+04  0.18742110545E+04  0.12699999809E+01 0. -1.
</event>
<event>
 5   0  0.9252359E-06  0.2821303E+04  0.7818609E-02  0.8296685E-01
       -2   -1    0    0    0  501  0.00000000000E+00  0.00000000000E+00  0.23711120805E+04  0.23711120805E+04  0.25500000920E-02 0.  1.
        2   -1    0    0  501    0  0.00000000000E+00  0.00000000000E+00 -0.83924225140E+03  0.83924225141E+03  0.25500000920E-02 0. -1.
    10030    2    1    2    0    0  0.00000000000E+00  0.00000000000E+00  0.15318698290E+04  0.32103543319E+04  0.28213028485E+04 0.  0.
        5    1    3    3  502    0  0.26794966828E+03  0.43850791226E+03 -0.72893072649E+03  0.89187908814E+03  0.46999998093E+01 0. -1.
       -5    1    3    3    0  502 -0.26794966828E+03 -0.43850791226E+03  0.22608005555E+04  0.23184752437E+04  0.46999998093E+01 0.  1.
</event>
<event>
 5   0  0.3600963E-06  0.2803949E+04  0.7818609E-02  0.8302043E-01
       -1   -1    0    0    0  501  0.00000000000E+00  0.00000000000E+00  0.17885301387E+04  0.17885301387E+04  0.50400001928E-02 0.  1.
        1   -1    0    0  501    0  0.00000000000E+00  0.00000000000E+00 -0.10989654376E+04  0.10989654377E+04  0.50400001928E-02 0. -1.
    10030    2    1    2    0    0  0.00000000000E+00  0.00000000000E+00  0.68956470104E+03  0.28874955763E+04  0.28039492197E+04 0.  0.
        5    1    3    3  502    0  0.56680849546E+02  0.73723891736E+03  0.15713972027E+04  0.17366764807E+04  0.46999998093E+01 0.  1.
       -5    1    3    3    0  502 -0.56680849546E+02 -0.73723891736E+03 -0.88183250164E+03  0.11508190957E+04  0.46999998093E+01 0. -1.
</event>
<event>
 5   0  0.3438130E-06  0.2788387E+04  0.7818609E-02  0.8306883E-01
        1   -1    0    0  501    0  0.00000000000E+00  0.00000000000E+00  0.13642725991E+04  0.13642725991E+04  0.50400001928E-02 0.  1.
       -1   -1    0    0    0  501  0.00000000000E+00  0.00000000000E+00 -0.14247710882E+04  0.14247710882E+04  0.50400001928E-02 0. -1.
    10030    2    1    2    0    0  0.00000000000E+00  0.00000000000E+00 -0.60498489118E+02  0.27890436873E+04  0.27883874592E+04 0.  0.
        3    1    3    3  502    0  0.11960443628E+04  0.66265789085E+03 -0.30259727075E+03  0.14004294758E+04  0.10100000352E+00 0.  1.
       -3    1    3    3    0  502 -0.11960443628E+04 -0.66265789085E+03  0.24209878163E+03  0.13886142115E+04  0.10100000352E+00 0. -1.
</event>
<event>
 5   0  0.9342133E-06  0.2786266E+04  0.7818609E-02  0.8307545E-01
        2   -1    0    0  501    0  0.00000000000E+00  0.00000000000E+00  0.12972479938E+04  0.12972479938E+04  0.25500000920E-02 0.  1.
       -2   -1    0    0    0  501  0.00000000000E+00  0.00000000000E+00 -0.14961057852E+04  0.14961057852E+04  0.25500000920E-02 0. -1.
    10030    2    1    2    0    0  0.00000000000E+00  0.00000000000E+00 -0.19885779141E+03  0.27933537789E+04  0.27862664828E+04 0.  0.
        2    1    3    3  502    0 -0.34388995537E+03 -0.13240058239E+04  0.16500043624E+03  0.13778522661E+04  0.25500000920E-02 0.  1.
       -2    1    3    3    0  502  0.34388995537E+03  0.13240058239E+04 -0.36385822765E+03  0.14155015129E+04  0.25500000920E-02 0. -1.
</event>
<event>
 5   0  0.9252359E-06  0.2791408E+04  0.7818609E-02  0.8305941E-01
       -2   -1    0    0    0  501  0.00000000000E+00  0.00000000000E+00  0.34264523288E+04  0.34264523288E+04  0.25500000920E-02 0.  1.
        2   -1    0    0  501    0  0.00000000000E+00  0.00000000000E+00 -0.56851505198E+03  0.56851505199E+03  0.25500000920E-02 0. -1.
    10030    2    1    2    0    0  0.00000000000E+00  0.00000000000E+00  0.28579372768E+04  0.39949673808E+04  0.27914080489E+04 0.  0.
        5    1    3    3  502    0  0.81209418398E+03  0.10512486959E+04  0.20417797582E+04  0.24358791955E+04  0.46999998093E+01 0.  1.
       -5    1    3    3    0  502 -0.81209418398E+03 -0.10512486959E+04  0.81615751862E+03  0.15590881853E+04  0.46999998093E+01 0. -1.
</event>
<event>
 5   0  0.9260173E-06  0.2802393E+04  0.7818609E-02  0.8302526E-01
        2   -1    0    0  501    0  0.00000000000E+00  0.00000000000E+00  0.19674763493E+04  0.19674763493E+04  0.25500000920E-02 0. -1.
       -2   -1    0    0    0  501  0.00000000000E+00  0.00000000000E+00 -0.99790323320E+03  0.99790323321E+03  0.25500000920E-02 0.  1.
    10030    2    1    2    0    0  0.00000000000E+00  0.00000000000E+00  0.96957311613E+03  0.29653795825E+04  0.28023925566E+04 0.  0.
        1    1    3    3  502    0  0.65514216570E+03  0.12377370230E+04  0.53381506034E+03  0.14987203588E+04  0.50400001928E-02 0.  1.
       -1    1    3    3    0  502 -0.65514216570E+03 -0.12377370230E+04  0.43575805579E+03  0.14666592237E+04  0.50400001928E-02 0. -1.
</event>
<event>
 5   0  0.9426937E-06  0.2793557E+04  0.7818609E-02  0.8305271E-01
       -2   -1    0    0    0  501  0.00000000000E+00  0.00000000000E+00  0.10577265417E+04  0.10577265417E+04  0.25500000920E-02 0.  1.
        2   -1    0    0  501    0  0.00000000000E+00  0.00000000000E+00 -0.18445133591E+04  0.18445133591E+04  0.25500000920E-02 0. -1.
    10030    2    1    2    0    0  0.00000000000E+00  0.00000000000E+00 -0.78678681742E+03  0.29022399008E+04  0.27935573998E+04 0.  0.
        4    1    3    3  502    0 -0.55577824554E+03 -0.60382466433E+02  0.93642636327E+03  0.10906105846E+04  0.12699999809E+01 0.  1.
       -4    1    3    3    0  502  0.55577824554E+03  0.60382466433E+02 -0.17232131807E+04  0.18116293162E+04  0.12699999809E+01 0. -1.
</event>
<event>
 5   0  0.9252359E-06  0.2767351E+04  0.7818609E-02  0.8313477E-01
       -2   -1    0    0    0  501  0.00000000000E+00  0.00000000000E+00  0.11240830001E+04  0.11240830001E+04  0.25500000920E-02 0. -1.
        2   -1    0    0  501    0  0.00000000000E+00  0.00000000000E+00 -0.17032179312E+04  0.17032179312E+04  0.25500000920E-02 0.  1.
    10030    2    1    2    0    0  0.00000000000E+00  0.00000000000E+00 -0.57913493109E+03  0.28273009313E+04  0.27673513127E+04 0.  0.
        5    1    3    3  502    0  0.27583670360E+03  0.67984711671E+03 -0.14881217449E+04  0.16591583429E+04  0.46999998093E+01 0.  1.
       -5    1    3    3    0  502 -0.27583670360E+03 -0.67984711671E+03  0.90898681384E+03  0.11681425884E+04  0.46999998093E+01 0. -1.
</event>
<event>
 5   0  0.9065579E-06  0.2774573E+04  0.7818609E-02  0.8311206E-01
       -2   -1    0    0    0  501  0.00000000000E+00  0.00000000000E+00  0.86459963167E+03  0.86459963168E+03  0.25500000920E-02 0.  1.
        2   -1    0    0  501    0  0.00000000000E+00  0.00000000000E+00 -0.22259592957E+04  0.22259592957E+04  0.25500000920E-02 0. -1.
    10030    2    1    2    0    0  0.00000000000E+00  0.00000000000E+00 -0.13613596640E+04  0.30905589274E+04  0.27745728227E+04 0.  0.
        3    1    3    3  502    0 -0.11510261051E+04  0.54031723091E+03 -0.12986205693E+04  0.18174760515E+04  0.10100000352E+00 0.  1.
       -3    1    3    3    0  502  0.11510261051E+04 -0.54031723091E+03 -0.62739094767E+02  0.12730828759E+04  0.10100000352E+00 0. -1.
</event>
<event>
 5   0  0.3357244E-06  0.2814699E+04  0.7818609E-02  0.8298719E-01
       -1   -1    0    0    0  501  0.00000000000E+00  0.00000000000E+00  0.10327755206E+04  0.10327755206E+04  0.50400001928E-02 0. -1.
        1   -1    0    0  501    0  0.00000000000E+00  0.00000000000E+00 -0.19177770825E+04  0.19177770825E+04  0.50400001928E-02 0.  1.
    10030    2    1    2    0    0  0.00000000000E+00  0.00000000000E+00 -0.88500156195E+03  0.29505526031E+04  0.28146994332E+04 0.  0.
        4    1    3    3  502    0 -0.14021988214E+04 -0.30723329759E+02 -0.32058539875E+03  0.14387084724E+04  0.12699999809E+01 0. -1.
       -4    1    3    3    0  502  0.14021988214E+04  0.30723329759E+02 -0.56441616321E+03  0.15118441308E+04  0.12699999809E+01 0.  1.
</event>
<event>
 5   0  0.9252359E-06  0.2894062E+04  0.7818609E-02  0.8274646E-01
       -2   -1    0    0    0  501  0.00000000000E+00  0.00000000000E+00  0.76981726063E+03  0.76981726063E+03  0.25500000920E-02 0.  1.
        2   -1    0    0  501    0  0.00000000000E+00  0.00000000000E+00 -0.27199939337E+04  0.27199939337E+04  0.25500000920E-02 0. -1.
    10030    2    1    2    0    0  0.00000000000E+00  0.00000000000E+00 -0.19501766731E+04  0.34898111943E+04  0.28940616987E+04 0.  0.
        5    1    3    3  502    0 -0.66529162139E+03 -0.28303963060E+03  0.53639450534E+03  0.90025859026E+03  0.46999998093E+01 0.  1.
       -5    1    3    3    0  502  0.66529162139E+03  0.28303963060E+03 -0.24865711784E+04  0.25895526041E+04  0.46999998093E+01 0. -1.
</event>
<event>
 5   0  0.3600963E-06  0.2823016E+04  0.7818609E-02  0.8296158E-01
        1   -1    0    0  501    0  0.00000000000E+00  0.00000000000E+00  0.17562279233E+04  0.17562279233E+04  0.50400001928E-02 0.  1.
       -1   -1    0    0    0  501  0.00000000000E+00  0.00000000000E+00 -0.11344513144E+04  0.11344513144E+04  0.50400001928E-02 0. -1.
    10030    2    1    2    0    0  0.00000000000E+00  0.00000000000E+00  0.62177660885E+03  0.28906792377E+04  0.28230161714E+04 0.  0.
        5    1    3    3  502    0  0.52790605987E+02 -0.52468290063E+03  0.16515651901E+04  0.17337152770E+04  0.46999998093E+01 0.  1.
       -5    1    3    3    0  502 -0.52790605987E+02  0.52468290063E+03 -0.10297885813E+04  0.11569639607E+04  0.46999998093E+01 0. -1.
</event>
<event>
 5   0  0.3600963E-06  0.2791779E+04  0.7818609E-02  0.8305825E-01
        1   -1    0    0  501    0  0.00000000000E+00  0.00000000000E+00  0.19947860095E+04  0.19947860095E+04  0.50400001928E-02 0.  1.
       -1   -1    0    0    0  501  0.00000000000E+00  0.00000000000E+00 -0.97680011829E+03  0.97680011831E+03  0.50400001928E-02 0. -1.
    10030    2    1    2    0    0  0.00000000000E+00  0.00000000000E+00  0.10179858912E+04  0.29715861278E+04  0.27917787950E+04 0.  0.
        5    1    3    3  502    0 -0.88825907926E+03 -0.26523158508E+03 -0.60183757420E+03  0.11052522524E+04  0.46999998093E+01 0. -1.
       -5    1    3    3    0  502  0.88825907926E+03  0.26523158508E+03  0.16198234654E+04  0.18663338755E+04  0.46999998093E+01 0.  1.
</event>
<event>
 5   0  0.3600963E-06  0.2715376E+04  0.7818609E-02  0.8330033E-01
       -1   -1    0    0    0  501  0.00000000000E+00  0.00000000000E+00  0.95278032596E+03  0.95278032597E+03  0.50400001928E-02 0.  1.
        1   -1    0    0  501    0  0.00000000000E+00  0.00000000000E+00 -0.19346705684E+04  0.19346705684E+04  0.50400001928E-02 0. -1.
    10030    2    1    2    0    0  0.00000000000E+00  0.00000000000E+00 -0.98189024243E+03  0.28874508944E+04  0.27153755209E+04 0.  0.
        5    1    3    3  502    0 -0.99796787458E+03  0.33642209441E+03 -0.14020833857E+04  0.17535619792E+04  0.46999998093E+01 0. -1.
       -5    1    3    3    0  502  0.99796787458E+03 -0.33642209441E+03  0.42019314330E+03  0.11338889152E+04  0.46999998093E+01 0.  1.
</event>
<event>
 5   0  0.3371603E-06  0.2806185E+04  0.7818609E-02  0.8301351E-01
        1   -1    0    0  501    0  0.00000000000E+00  0.00000000000E+00  0.24389712263E+04  0.24389712263E+04  0.50400001928E-02 0. -1.
       -1   -1    0    0    0  501  0.00000000000E+00  0.00000000000E+00 -0.80717183218E+03  0.80717183220E+03  0.50400001928E-02 0.  1.
    10030    2    1    2    0    0  0.00000000000E+00  0.00000000000E+00  0.16317993941E+04  0.32461430585E+04  0.28061852208E+04 0.  0.
        1    1    3    3  502    0  0.60845896052E+03 -0.77114256960E+03 -0.34306931846E+03  0.10404709158E+04  0.50400001928E-02 0.  1.
       -1    1    3    3    0  502 -0.60845896052E+03  0.77114256960E+03  0.19748687125E+04  0.22056721427E+04  0.50400001928E-02 0. -1.
</event>
<event>
 5   0  0.9065579E-06  0.2910485E+04  0.7818609E-02  0.8269765E-01
       -2   -1    0    0    0  501  0.00000000000E+00  0.00000000000E+00  0.69357446732E+03  0.69357446733E+03  0.25500000920E-02 0. -1.
        2   -1    0    0  501    0  0.00000000000E+00  0.00000000000E+00 -0.30533567598E+04  0.30533567598E+04  0.25500000920E-02 0.  1.
    10030    2    1    2    0    0  0.00000000000E+00  0.00000000000E+00 -0.23597822925E+04  0.37469312272E+04  0.29104846938E+04 0.  0.
        3    1    3    3  502    0  0.39658736075E+03  0.13717613114E+04 -0.81868762632E+03  0.16459830102E+04  0.10100000352E+00 0.  1.
       -3    1    3    3    0  502 -0.39658736075E+03 -0.13717613114E+04 -0.15410946662E+04  0.21009482170E+04  0.10100000352E+00 0. -1.
</event>
<event>
 5   0  0.3397882E-06  0.2785982E+04  0.7818609E-02  0.8307634E-01
       -1   -1    0    0    0  501  0.00000000000E+00  0.00000000000E+00  0.10395389322E+04  0.10395389322E+04  0.50400001928E-02 0.  1.
        1   -1    0    0  501    0  0.00000000000E+00  0.00000000000E+00 -0.18666195856E+04  0.18666195856E+04  0.50400001928E-02 0. -1.
    10030    2    1    2    0    0  0.00000000000E+00  0.00000000000E+00 -0.82708065347E+03  0.29061585178E+04  0.27859818598E+04 0.  0.
        2    1    3    3  502    0  0.27849889124E+03 -0.77864559835E+03  0.75578377029E+03  0.11202944737E+04  0.25500000920E-02 0.  1.
       -2    1    3    3    0  502 -0.27849889124E+03  0.77864559835E+03 -0.15828644238E+04  0.17858640442E+04  0.25500000920E-02 0. -1.
</event>
<event>
 5   0  0.3357244E-06  0.2806373E+04  0.7818609E-02  0.8301292E-01
       -1   -1    0    0    0  501  0.00000000000E+00  0.00000000000E+00  0.16182195796E+04  0.16182195796E+04  0.50400001928E-02 0.  1.
        1   -1    0    0  501    0  0.00000000000E+00  0.00000000000E+00 -0.12167279609E+04  0.12167279609E+04  0.50400001928E-02 0. -1.
    10030    2    1    2    0    0  0.00000000000E+00  0.00000000000E+00  0.40149161868E+03  0.28349475405E+04  0.28063734672E+04 0.  0.
        4    1    3    3  502    0 -0.12515184425E+04 -0.20334073810E+03 -0.40644451764E+03  0.13314821165E+04  0.12699999809E+01 0. -1.
       -4    1    3    3    0  502  0.12515184425E+04  0.20334073810E+03  0.80793613632E+03  0.15034654240E+04  0.12699999809E+01 0.  1.
</event>
<event>
 5   0  0.9426937E-06  0.2797097E+04  0.7818609E-02  0.8304170E-01
       -2   -1    0    0    0  501  0.00000000000E+00  0.00000000000E+00  0.81750470433E+03  0.81750470433E+03  0.25500000920E-02 0.  1.
        2   -1    0    0  501    0  0.00000000000E+00  0.00000000000E+00 -0.23925700483E+04  0.23925700483E+04  0.25500000920E-02 0. -1.
    10030    2    1    2    0    0  0.00000000000E+00  0.00000000000E+00 -0.15750653440E+04  0.32100747526E+04  0.27970965446E+04 0.  0.
        4    1    3    3  502    0  0.12306886833E+04  0.66424955370E+03 -0.79976207826E+03  0.16110378951E+04  0.12699999809E+01 0. -1.
       -4    1    3    3    0  502 -0.12306886833E+04 -0.66424955370E+03 -0.77530326572E+03  0.15990368575E+04  0.12699999809E+01 0.  1.
</event>
<event>
 5   0  0.9342133E-06  0.2743646E+04  0.7818609E-02  0.8320981E-01
       -2   -1    0    0    0  501  0.00000000000E+00  0.00000000000E+00  0.93968213506E+03  0.93968213507E+03  0.25500000920E-02 0.  1.
        2   -1    0    0  501    0  0.00000000000E+00  0.00000000000E+00 -0.20026966047E+04  0.20026966047E+04  0.25500000920E-02 0. -1.
    10030    2    1    2    0    0  0.00000000000E+00  0.00000000000E+00 -0.10630144696E+04  0.29423787397E+04  0.27436459111E+04 0.  0.
        2    1    3    3  502    0  0.50727554342E+02  0.21695117795E+03 -0.19831632623E+04  0.19956396526E+04  0.25500000920E-02 0. -1.
       -2    1    3    3    0  502 -0.50727554342E+02 -0.21695117795E+03  0.92014879266E+03  0.94673908709E+03  0.25500000920E-02 0.  1.
</event>
<event>
 5   0  0.3371603E-06  0.2759717E+04  0.7818609E-02  0.8315885E-01
        1   -1    0    0  501    0  0.00000000000E+00  0.00000000000E+00  0.17239506678E+04  0.17239506678E+04  0.50400001928E-02 0. -1.
       -1   -1    0    0    0  501  0.00000000000E+00  0.00000000000E+00 -0.11044451635E+04  0.11044451635E+04  0.50400001928E-02 0.  1.
    10030    2    1    2    0    0  0.00000000000E+00  0.00000000000E+00  0.61950550430E+03  0.28283958312E+04  0.27597166355E+04 0.  0.
        1    1    3    3  502    0 -0.56909021975E+03 -0.12255715025E+04  0.59620763784E+03  0.14769403283E+04  0.50400001928E-02 0. -1.
       -1    1    3    3    0  502  0.56909021975E+03  0.12255715025E+04  0.23297866461E+02  0.13514555030E+04  0.50400001928E-02 0.  1.
</event>
<event>
 5   0  0.9252359E-06  0.2742270E+04  0.7818609E-02  0.8321419E-01
        2   -1    0    0  501    0  0.00000000000E+00  0.00000000000E+00  0.16036340256E+04  0.16036340256E+04  0.25500000920E-02 0. -1.
       -2   -1    0    0    0  501  0.00000000000E+00  0.00000000000E+00 -0.11723444260E+04  0.11723444260E+04  0.25500000920E-02 0.  1.
    10030    2    1    2    0    0  0.00000000000E+00  0.00000000000E+00  0.43128959963E+03  0.27759784517E+04  0.27422701627E+04 0.  0.
        5    1    3    3  502    0 -0.44938778144E+03  0.12093828386E+04  0.68549786083E+03  0.14609878971E+04  0.46999998093E+01 0. -1.
       -5    1    3    3    0  502  0.44938778144E+03 -0.12093828386E+04 -0.25420826120E+03  0.13149905545E+04  0.46999998093E+01 0.  1.
</event>
<event>
 5   0  0.3438130E-06  0.2813112E+04  0.7818609E-02  0.8299209E-01
        1   -1    0    0  501    0  0.00000000000E+00  0.00000000000E+00  0.28168176630E+04  0.28168176630E+04  0.50400001928E-02 0.  1.
       -1   -1    0    0    0  501  0.00000000000E+00  0.00000000000E+00 -0.70235293196E+03  0.70235293197E+03  0.50400001928E-02 0. -1.
    10030    2    1    2    0    0  0.00000000000E+00  0.00000000000E+00  0.21144647310E+04  0.35191705950E+04  0.28131122583E+04 0.  0.
        3    1    3    3  502    0 -0.56155227658E+03  0.59444434479E+03  0.24888873103E+04  0.26197834056E+04  0.10100000352E+00 0.  1.
       -3    1    3    3    0  502  0.56155227658E+03 -0.59444434479E+03 -0.37442257928E+03  0.89938718941E+03  0.10100000352E+00 0. -1.
</event>
<event>
 5   0  0.9426937E-06  0.2812592E+04  0.7818609E-02  0.8299370E-01
       -2   -1    0    0    0  501  0.00000000000E+00  0.00000000000E+00  0.19368638677E+04  0.19368638677E+04  0.25500000920E-02 0.  1.
        2   -1    0    0  501    0  0.00000000000E+00  0.00000000000E+00 -0.10210671453E+04  0.10210671453E+04  0.25500000920E-02 0. -1.
    10030    2    1    2    0    0  0.00000000000E+00  0.00000000000E+00  0.91579672248E+03  0.29579310130E+04  0.28125917302E+04 0.  0.
        4    1    3    3  502    0 -0.12231854671E+04 -0.46750052269E+03  0.99715929132E+03  0.16459245702E+04  0.12699999809E+01 0.  1.
       -4    1    3    3    0  502  0.12231854671E+04  0.46750052269E+03 -0.81362568847E+02  0.13120064428E+04  0.12699999809E+01 0. -1.
</event>
<event>
 5   0  0.3397882E-06  0.2820167E+04  0.7818609E-02  0.8297035E-01
       -1   -1    0    0    0  501  0.00000000000E+00  0.00000000000E+00  0.13755224513E+04  0.13755224513E+04  0.50400001928E-02 0. -1.
        1   -1    0    0  501    0  0.00000000000E+00  0.00000000000E+00 -0.14455125164E+04  0.14455125164E+04  0.50400001928E-02 0.  1.
    10030    2    1    2    0    0  0.00000000000E+00  0.00000000000E+00 -0.69990065160E+02  0.28210349677E+04  0.28201666050E+04 0.  0.
        2    1    3    3  502    0  0.10005163758E+04 -0.14235318347E+03  0.94868839672E+03  0.13861122326E+04  0.25500000920E-02 0. -1.
       -2    1    3    3    0  502 -0.10005163758E+04  0.14235318347E+03 -0.10186784619E+04  0.14349227352E+04  0.25500000920E-02 0.  1.
</event>
<event>
 5   0  0.3438130E-06  0.3092959E+04  0.7818609E-02  0.8217673E-01
       -1   -1    0    0    0  501  0.00000000000E+00  0.00000000000E+00  0.10645243678E+04  0.10645243678E+04  0.50400001928E-02 0. -1.
        1   -1    0    0  501    0  0.00000000000E+00  0.00000000000E+00 -0.22466365825E+04  0.22466365825E+04  0.50400001928E-02 0.  1.
    10030    2    1    2    0    0  0.00000000000E+00  0.00000000000E+00 -0.11821122147E+04  0.33111609503E+04  0.30929593516E+04 0.  0.
        3    1    3    3  502    0 -0.11655992399E+04 -0.85299897458E+03 -0.11826445036E+04  0.18667824915E+04  0.10100000352E+00 0.  1.
       -3    1    3    3    0  502  0.11655992399E+04  0.85299897458E+03  0.53228890000E+00  0.14443784588E+04  0.10100000352E+00 0. -1.
</event>
<event>
 5   0  0.3371603E-06  0.2821677E+04  0.7818609E-02  0.8296570E-01
        1   -1    0    0  501    0  0.00000000000E+00  0.00000000000E+00  0.20606951429E+04  0.20606951429E+04  0.50400001928E-02 0.  1.
       -1   -1    0    0    0  501  0.00000000000E+00  0.00000000000E+00 -0.96591914089E+03  0.96591914090E+03  0.50400001928E-02 0. -1.
    10030    2    1    2    0    0  0.00000000000E+00  0.00000000000E+00  0.10947760020E+04  0.30266142838E+04  0.28216767228E+04 0.  0.
        1    1    3    3  502    0  0.13414647009E+04 -0.42980745551E+03  0.63186662653E+03  0.15438644456E+04  0.50400001928E-02 0.  1.
       -1    1    3    3    0  502 -0.13414647009E+04  0.42980745551E+03  0.46290937543E+03  0.14827498382E+04  0.50400001928E-02 0. -1.
</event>
<event>
 5   0  0.3438130E-06  0.2737369E+04  0.7818609E-02  0.8322981E-01
        1   -1    0    0  501    0  0.00000000000E+00  0.00000000000E+00  0.14957888595E+04  0.14957888595E+04  0.50400001928E-02 0. -1.
       -1   -1    0    0    0  501  0.00000000000E+00  0.00000000000E+00 -0.12523812125E+04  0.12523812125E+04  0.50400001928E-02 0.  1.
    10030    2    1    2    0    0  0.00000000000E+00  0.00000000000E+00  0.24340764695E+03  0.27481700720E+04  0.27373694420E+04 0.  0.
        3    1    3    3  502    0  0.30121757143E+03  0.60178187106E+03 -0.10748142263E+04  0.12681084642E+04  0.10100000352E+00 0.  1.
       -3    1    3    3    0  502 -0.30121757143E+03 -0.60178187106E+03  0.13182218732E+04  0.14800616078E+04  0.10100000352E+00 0. -1.
</event>
<event>
 5   0  0.9426937E-06  0.2828945E+04  0.7818609E-02  0.8294338E-01
        2   -1    0    0  501    0  0.00000000000E+00  0.00000000000E+00  0.17632818345E+04  0.17632818345E+04  0.25500000920E-02 0.  1.
       -2   -1    0    0    0  501  0.00000000000E+00  0.00000000000E+00 -0.11346639766E+04  0.11346639766E+04  0.25500000920E-02 0. -1.
    10030    2    1    2    0    0  0.00000000000E+00  0.00000000000E+00  0.62861785798E+03  0.28979458111E+04  0.28289449469E+04 0.  0.
        4    1    3    3  502    0  0.56236075536E+03  0.86536473201E+02  0.16408824843E+04  0.17367311596E+04  0.12699999809E+01 0.  1.
       -4    1    3    3    0  502 -0.56236075536E+03 -0.86536473201E+02 -0.10122646263E+04  0.11612146516E+04  0.12699999809E+01 0. -1.
</event>
<event>
 5   0  0.9260173E-06  0.2804826E+04  0.7818609E-02  0.8301772E-01
       -2   -1    0    0    0  501  0.00000000000E+00  0.00000000000E+00  0.92489446713E+03  0.92489446713E+03  0.25500000920E-02 0.  1.
        2   -1    0    0  501    0  0.00000000000E+00  0.00000000000E+00 -0.21264722679E+04  0.21264722679E+04  0.25500000920E-02 0. -1.
    10030    2    1    2    0    0  0.00000000000E+00  0.00000000000E+00 -0.12015778008E+04  0.30513667350E+04  0.28048261515E+04 0.  0.
        1    1    3    3  502    0  0.78076760807E+03  0.92817424006E+03 -0.13667012332E+04  0.18272869886E+04  0.50400001928E-02 0. -1.
       -1    1    3    3    0  502 -0.78076760807E+03 -0.92817424006E+03  0.16512343244E+03  0.12240797465E+04  0.50400001928E-02 0.  1.
</event>
<event>
 5   0  0.3397882E-06  0.2710140E+04  0.7818609E-02  0.8331723E-01
        1   -1    0    0  501    0  0.00000000000E+00  0.00000000000E+00  0.84957000418E+03  0.84957000420E+03  0.50400001928E-02 0. -1.
       -1   -1    0    0    0  501  0.00000000000E+00  0.00000000000E+00 -0.21613452861E+04  0.21613452861E+04  0.50400001928E-02 0.  1.
    10030    2    1    2    0    0  0.00000000000E+00  0.00000000000E+00 -0.13117752819E+04  0.30109152903E+04  0.27101395711E+04 0.  0.
        2    1    3    3  502    0  0.13481893388E+04 -0.13627124597E+03 -0.66195017333E+03  0.15080989284E+04  0.25500000920E-02 0.  1.
       -2    1    3    3    0  502 -0.13481893388E+04  0.13627124597E+03 -0.64982510858E+03  0.15028163619E+04  0.25500000920E-02 0. -1.
</event>
<event>
 5   0  0.3397882E-06  0.2793795E+04  0.7818609E-02  0.8305197E-01
        1   -1    0    0  501    0  0.00000000000E+00  0.00000000000E+00  0.15680296766E+04  0.15680296766E+04  0.50400001928E-02 0.  1.
       -1   -1    0    0    0  501  0.00000000000E+00  0.00000000000E+00 -0.12444427788E+04  0.12444427788E+04  0.50400001928E-02 0. -1.
    10030    2    1    2    0    0  0.00000000000E+00  0.00000000000E+00  0.32358689776E+03  0.28124724554E+04  0.27937954170E+04 0.  0.
        2    1    3    3  502    0  0.52673320371E+03  0.99287429461E+03 -0.67325538591E+03  0.13101603136E+04  0.25500000920E-02 0. -1.
       -2    1    3    3    0  502 -0.52673320371E+03 -0.99287429461E+03  0.99684228366E+03  0.15023121418E+04  0.25500000920E-02 0.  1.
</event>
<event>
 5   0  0.3006875E-06  0.2790375E+04  0.7818609E-02  0.8306263E-01
        3   -1    0    0  501    0  0.00000000000E+00  0.00000000000E+00  0.13540001204E+04  0.13540001242E+04  0.10100000352E+00 0.  1.
       -3   -1    0    0    0  501  0.00000000000E+00  0.00000000000E+00 -0.14376273786E+04  0.14376273821E+04  0.10100000352E+00 0. -1.
    10030    2    1    2    0    0  0.00000000000E+00  0.00000000000E+00 -0.83627258156E+02  0.27916275063E+04  0.27903746372E+04 0.  0.
        1    1    3    3  502    0  0.60777612673E+03 -0.76375928338E+03  0.95554299811E+03  0.13659364862E+04  0.50400001928E-02 0.  1.
       -1    1    3    3    0  502 -0.60777612673E+03  0.76375928338E+03 -0.10391702563E+04  0.14256910201E+04  0.50400001928E-02 0. -1.
</event>
<event>
 5   0  0.9426937E-06  0.2796893E+04  0.7818609E-02  0.8304234E-01
       -2   -1    0    0    0  501  0.00000000000E+00  0.00000000000E+00  0.10375676290E+04  0.10375676290E+04  0.25500000920E-02 0.  1.
        2   -1    0    0  501    0  0.00000000000E+00  0.00000000000E+00 -0.18848437813E+04  0.18848437813E+04  0.25500000920E-02 0. -1.
    10030    2    1    2    0    0  0.00000000000E+00  0.00000000000E+00 -0.84727615224E+03  0.29224114103E+04  0.27968932001E+04 0.  0.
        4    1    3    3  502    0 -0.36677138473E+03 -0.59836351178E+03 -0.16875044577E+04  0.18276304463E+04  0.12699999809E+01 0. -1.
       -4    1    3    3    0  502  0.36677138473E+03  0.59836351178E+03  0.84022830542E+03  0.10947809639E+04  0.12699999809E+01 0.  1.
</event>
<event>
 5   0  0.3438130E-06  0.2764939E+04  0.7818609E-02  0.8314237E-01
        1   -1    0    0  501    0  0.00000000000E+00  0.00000000000E+00  0.22904635756E+04  0.22904635756E+04  0.50400001928E-02 0.  1.
       -1   -1    0    0    0  501  0.00000000000E+00  0.00000000000E+00 -0.83442593232E+03  0.83442593234E+03  0.50400001928E-02 0. -1.
    10030    2    1    2    0    0  0.00000000000E+00  0.00000000000E+00  0.14560376433E+04  0.31248895080E+04  0.27649392070E+04 0.  0.
        3    1    3    3  502    0  0.69466769590E+02  0.56438407004E+03  0.21521702364E+04  0.22260259988E+04  0.10100000352E+00 0.  1.
       -3    1    3    3    0  502 -0.69466769590E+02 -0.56438407004E+03 -0.69613259315E+03  0.89886350913E+03  0.10100000352E+00 0. -1.
</event>
<event>
 5   0  0.9426937E-06  0.2779558E+04  0.7818609E-02  0.8309643E-01
       -2   -1    0    0    0  501  0.00000000000E+00  0.00000000000E+00  0.86531634842E+03  0.86531634843E+03  0.25500000920E-02 0. -1.
        2   -1    0    0  501    0  0.00000000000E+00  0.00000000000E+00 -0.22321144912E+04  0.22321144912E+04  0.25500000920E-02 0.  1.
    10030    2    1    2    0    0  0.00000000000E+00  0.00000000000E+00 -0.13667981428E+04  0.30974308396E+04  0.27795576344E+04 0.  0.
        4    1    3    3  502    0  0.13220513426E+04 -0.42325253365E+03 -0.60847050512E+03  0.15156518163E+04  0.12699999809E+01 0. -1.
       -4    1    3    3    0  502 -0.13220513426E+04  0.42325253365E+03 -0.75832763765E+03  0.15817790233E+04  0.12699999809E+01 0.  1.
</event>
<event>
 5   0  0.3438130E-06  0.2775919E+04  0.7818609E-02  0.8310784E-01
        1   -1    0    0  501    0  0.00000000000E+00  0.00000000000E+00  0.27983628417E+04  0.27983628417E+04  0.50400001928E-02 0. -1.
       -1   -1    0    0    0  501  0.00000000000E+00  0.00000000000E+00 -0.68841359329E+03  0.68841359331E+03  0.50400001928E-02 0.  1.
    10030    2    1    2    0    0  0.00000000000E+00  0.00000000000E+00  0.21099492484E+04  0.34867764350E+04  0.27759186005E+04 0.  0.
        3    1    3    3  502    0 -0.83974921758E+03  0.42870070374E+03  0.23343698430E+04  0.25175872608E+04  0.10100000352E+00 0. -1.
       -3    1    3    3    0  502  0.83974921758E+03 -0.42870070374E+03 -0.22442059461E+03  0.96918917416E+03  0.10100000352E+00 0.  1.
</event>
<event>
 5   0  0.3438130E-06  0.2793835E+04  0.7818609E-02  0.8305185E-01
        1   -1    0    0  501    0  0.00000000000E+00  0.00000000000E+00  0.13904753046E+04  0.13904753046E+04  0.50400001928E-02 0.  1.
       -1   -1    0    0    0  501  0.00000000000E+00  0.00000000000E+00 -0.14033898148E+04  0.14033898148E+04  0.50400001928E-02 0. -1.
    10030    2    1    2    0    0  0.00000000000E+00  0.00000000000E+00 -0.12914510284E+02  0.27938651194E+04  0.27938352709E+04 0.  0.
        3    1    3    3  502    0 -0.10882087388E+03 -0.13717302655E+04  0.23415488721E+03  0.13958203414E+04  0.10100000352E+00 0. -1.
       -3    1    3    3    0  502  0.10882087388E+03  0.13717302655E+04 -0.24706939749E+03  0.13980447780E+04  0.10100000352E+00 0.  1.
</event>
<event>
 5   0  0.9260173E-06  0.2788098E+04  0.7818609E-02  0.8306973E-01
       -2   -1    0    0    0  501  0.00000000000E+00  0.00000000000E+00  0.84266544914E+03  0.84266544915E+03  0.25500000920E-02 0.  1.
        2   -1    0    0  501    0  0.00000000000E+00  0.00000000000E+00 -0.23062200371E+04  0.23062200371E+04  0.25500000920E-02 0. -1.
    10030    2    1    2    0    0  0.00000000000E+00  0.00000000000E+00 -0.14635545879E+04  0.31488854862E+04  0.27880975186E+04 0.  0.
        1    1    3    3  502    0 -0.86505321942E+02 -0.30256035026E+03 -0.22655821456E+04  0.22873321567E+04  0.50400001928E-02 0. -1.
       -1    1    3    3    0  502  0.86505321942E+02  0.30256035026E+03  0.80202755772E+03  0.86155332954E+03  0.50400001928E-02 0.  1.
</event>
<event>
 5   0  0.9260173E-06  0.2915983E+04  0.7818609E-02  0.8268138E-01
       -2   -1    0    0    0  501  0.00000000000E+00  0.00000000000E+00  0.12925404593E+04  0.12925404593E+04  0.25500000920E-02 0.  1.
        2   -1    0    0  501    0  0.00000000000E+00  0.00000000000E+00 -0.16446214902E+04  0.16446214902E+04  0.25500000920E-02 0. -1.
    10030    2    1    2    0    0  0.00000000000E+00  0.00000000000E+00 -0.35208103096E+03  0.29371619495E+04  0.29159834131E+04 0.  0.
        1    1    3    3  502    0  0.38399505615E+03 -0.59135473361E+03  0.11093892481E+04  0.13144950087E+04  0.50400001928E-02 0.  1.
       -1    1    3    3    0  502 -0.38399505615E+03  0.59135473361E+03 -0.14614702791E+04  0.16226669408E+04  0.50400001928E-02 0. -1.
</event>
<event>
 5   0  0.9426937E-06  0.2841021E+04  0.7818609E-02  0.8290645E-01
        2   -1    0    0  501    0  0.00000000000E+00  0.00000000000E+00  0.16383540204E+04  0.16383540204E+04  0.25500000920E-02 0.  1.
       -2   -1    0    0    0  501  0.00000000000E+00  0.00000000000E+00 -0.12316326704E+04  0.12316326704E+04  0.25500000920E-02 0. -1.
    10030    2    1    2    0    0  0.00000000000E+00  0.00000000000E+00  0.40672135002E+03  0.28699866908E+04  0.28410211807E+04 0.  0.
        4    1    3    3  502    0 -0.51992207101E+03 -0.32147999879E+03 -0.10919684819E+04  0.12514252386E+04  0.12699999809E+01 0. -1.
       -4    1    3    3    0  502  0.51992207101E+03  0.32147999879E+03  0.14986898319E+04  0.16185614522E+04  0.12699999809E+01 0.  1.
</event>
<event>
 5   0  0.9426937E-06  0.2729291E+04  0.7818609E-02  0.8325563E-01
       -2   -1    0    0    0  501  0.00000000000E+00  0.00000000000E+00  0.18472937067E+04  0.18472937067E+04  0.25500000920E-02 0.  1.
        2   -1    0    0  501    0  0.00000000000E+00  0.00000000000E+00 -0.10081005638E+04  0.10081005638E+04  0.25500000920E-02 0. -1.
    10030    2    1    2    0    0  0.00000000000E+00  0.00000000000E+00  0.83919314296E+03  0.28553942705E+04  0.27292913565E+04 0.  0.
        4    1    3    3  502    0 -0.26644371440E+03  0.13382740102E+04  0.43730910823E+03  0.14329028049E+04  0.12699999809E+01 0.  1.
       -4    1    3    3    0  502  0.26644371440E+03 -0.13382740102E+04  0.40188403473E+03  0.14224914656E+04  0.12699999809E+01 0. -1.
</event>
<event>
 5   0  0.3371603E-06  0.2850250E+04  0.7818609E-02  0.8287835E-01
       -1   -1    0    0    0  501  0.00000000000E+00  0.00000000000E+00  0.14682449423E+04  0.14682449423E+04  0.50400001928E-02 0. -1.
        1   -1    0    0  501    0  0.00000000000E+00  0.00000000000E+00 -0.13832710033E+04  0.13832710034E+04  0.50400001928E-02 0.  1.
    10030    2    1    2    0    0  0.00000000000E+00  0.00000000000E+00  0.84973938969E+02  0.28515159457E+04  0.28502495712E+04 0.  0.
        1    1    3    3  502    0 -0.83744560234E+03 -0.65976085900E+03  0.98862440960E+03  0.14539524584E+04  0.50400001928E-02 0. -1.
       -1    1    3    3    0  502  0.83744560234E+03  0.65976085900E+03 -0.90365047064E+03  0.13975634873E+04  0.50400001928E-02 0.  1.
</event>
<event>
 5   0  0.3438130E-06  0.2867509E+04  0.7818609E-02  0.8282610E-01
        1   -1    0    0  501    0  0.00000000000E+00  0.00000000000E+00  0.19971118671E+04  0.19971118671E+04  0.50400001928E-02 0.  1.
       -1   -1    0    0    0  501  0.00000000000E+00  0.00000000000E+00 -0.10293126950E+04  0.10293126950E+04  0.50400001928E-02 0. -1.
    10030    2    1    2    0    0  0.00000000000E+00  0.00000000000E+00  0.96779917205E+03  0.30264245621E+04  0.28675094407E+04 0.  0.
        3    1    3    3  502    0 -0.38026792199E+03 -0.94142835156E+03  0.15523058078E+04  0.18548704442E+04  0.10100000352E+00 0.  1.
       -3    1    3    3    0  502  0.38026792199E+03  0.94142835156E+03 -0.58450663578E+03  0.11715541179E+04  0.10100000352E+00 0. -1.
</event>
<event>
 5   0  0.9342133E-06  0.2777440E+04  0.7818609E-02  0.8310307E-01
        2   -1    0    0  501    0  0.00000000000E+00  0.00000000000E+00  0.13442681839E+04  0.13442681839E+04  0.25500000920E-02 0. -1.
       -2   -1    0    0    0  501  0.00000000000E+00  0.00000000000E+00 -0.14346417964E+04  0.14346417964E+04  0.25500000920E-02 0.  1.
    10030    2    1    2    0    0  0.00000000000E+00  0.00000000000E+00 -0.90373612483E+02  0.27789099803E+04  0.27774400603E+04 0.  0.
        2    1    3    3  502    0  0.48558730018E+03 -0.49895866295E+03 -0.12474002488E+04  0.14285524681E+04  0.25500000920E-02 0.  1.
       -2    1    3    3    0  502 -0.48558730018E+03  0.49895866295E+03  0.11570266364E+04  0.13503575122E+04  0.25500000920E-02 0. -1.
</event>
<event>
 5   0  0.3397882E-06  0.2802173E+04  0.7818609E-02  0.8302594E-01
        1   -1    0    0  501    0  0.00000000000E+00  0.00000000000E+00  0.16380232211E+04  0.16380232211E+04  0.50400001928E-02 0.  1.
       -1   -1    0    0    0  501  0.00000000000E+00  0.00000000000E+00 -0.11984220133E+04  0.11984220133E+04  0.50400001928E-02 0. -1.
    10030    2    1    2    0    0  0.00000000000E+00  0.00000000000E+00  0.43960120780E+03  0.28364452343E+04  0.28021727901E+04 0.  0.
        2    1    3    3  502    0 -0.73560638367E+03  0.40845172522E+03  0.13538123036E+04  0.15939753188E+04  0.25500000920E-02 0.  1.
       -2    1    3    3    0  502  0.73560638367E+03 -0.40845172522E+03 -0.91421109576E+03  0.12424699156E+04  0.25500000920E-02 0. -1.
</event>
<event>
 5   0  0.3357244E-06  0.2796492E+04  0.7818609E-02  0.8304358E-01
        1   -1    0    0  501    0  0.00000000000E+00  0.00000000000E+00  0.13943246189E+04  0.13943246189E+04  0.50400001928E-02 0. -1.
       -1   -1    0    0    0  501  0.00000000000E+00  0.00000000000E+00 -0.14021782340E+04  0.14021782340E+04  0.50400001928E-02 0.  1.
    10030    2    1    2    0    0  0.00000000000E+00  0.00000000000E+00 -0.78536151276E+01  0.27965028530E+04  0.27964918250E+04 0.  0.
        4    1    3    3  502    0 -0.10061144663E+04 -0.65056707884E+03 -0.72475291250E+03  0.14002757730E+04  0.12699999809E+01 0.  1.
       -4    1    3    3    0  502  0.10061144663E+04  0.65056707884E+03  0.71689929737E+03  0.13962270800E+04  0.12699999809E+01 0. -1.
</event>
<event>
 5   0  0.3357244E-06  0.2798442E+04  0.7818609E-02  0.8303752E-01
       -1   -1    0    0    0  501  0.00000000000E+00  0.00000000000E+00  0.11716962494E+04  0.11716962494E+04  0.50400001928E-02 0. -1.
        1   -1    0    0  501    0  0.00000000000E+00  0.00000000000E+00 -0.16709278379E+04  0.16709278379E+04  0.50400001928E-02 0.  1.
    10030    2    1    2    0    0  0.00000000000E+00  0.00000000000E+00 -0.49923158850E+03  0.28426240874E+04  0.27984423387E+04 0.  0.
        4    1    3    3  502    0 -0.35610188679E+03 -0.13321425006E+04 -0.49086505873E+03  0.14636810836E+04  0.12699999809E+01 0.  1.
       -4    1    3    3    0  502  0.35610188679E+03  0.13321425006E+04 -0.83665297737E+01  0.13789430037E+04  0.12699999809E+01 0. -1.
</event>
<event>
 5   0  0.9342133E-06  0.2780272E+04  0.7818609E-02  0.8309419E-01
        2   -1    0    0  501    0  0.00000000000E+00  0.00000000000E+00  0.18401171040E+04  0.18401171040E+04  0.25500000920E-02 0.  1.
       -2   -1    0    0    0  501  0.00000000000E+00  0.00000000000E+00 -0.10501932593E+04  0.10501932593E+04  0.25500000920E-02 0. -1.
    10030    2    1    2    0    0  0.00000000000E+00  0.00000000000E+00  0.78992384468E+03  0.28903103633E+04  0.27802723457E+04 0.  0.
        2    1    3    3  502    0  0.12109933689E+04  0.22393742049E+03 -0.27540532696E+03  0.12619433434E+04  0.25500000920E-02 0. -1.
       -2    1    3    3    0  502 -0.12109933689E+04 -0.22393742049E+03  0.10653291716E+04  0.16283670200E+04  0.25500000920E-02 0.  1.
</event>
<event>
 5   0  0.3371603E-06  0.2801311E+04  0.7818609E-02  0.8302862E-01
        1   -1    0    0  501    0  0.00000000000E+00  0.00000000000E+00  0.20210731406E+04  0.20210731406E+04  0.50400001928E-02 0. -1.
       -1   -1    0    0    0  501  0.00000000000E+00  0.00000000000E+00 -0.97068997743E+03  0.97068997745E+03  0.50400001928E-02 0.  1.
    10030    2    1    2    0    0  0.00000000000E+00  0.00000000000E+00  0.10503831632E+04  0.29917631181E+04  0.28013107227E+04 0.  0.
        1    1    3    3  502    0 -0.10950102825E+03  0.11965948936E+03 -0.96062598750E+03  0.97422336066E+03  0.50400001928E-02 0.  1.
       -1    1    3    3    0  502  0.10950102825E+03 -0.11965948936E+03  0.20110091507E+04  0.20175397574E+04  0.50400001928E-02 0. -1.
</event>
<event>
 5   0  0.9342133E-06  0.2733677E+04  0.7818609E-02  0.8324160E-01
        2   -1    0    0  501    0  0.00000000000E+00  0.00000000000E+00  0.12869044179E+04  0.12869044179E+04  0.25500000920E-02 0. -1.
       -2   -1    0    0    0  501  0.00000000000E+00  0.00000000000E+00 -0.14517372021E+04  0.14517372021E+04  0.25500000920E-02 0.  1.
    10030    2    1    2    0    0  0.00000000000E+00  0.00000000000E+00 -0.16483278417E+03  0.27386416199E+04  0.27336766590E+04 0.  0.
        2    1    3    3  502    0 -0.24529417380E+03  0.88447247618E+02  0.12617562648E+04  0.12884180296E+04  0.25500000920E-02 0. -1.
       -2    1    3    3    0  502  0.24529417380E+03 -0.88447247618E+02 -0.14265890490E+04  0.14502235903E+04  0.25500000920E-02 0.  1.
</event>
<event>
 5   0  0.9342133E-06  0.2807004E+04  0.7818609E-02  0.8301097E-01
        2   -1    0    0  501    0  0.00000000000E+00  0.00000000000E+00  0.17435712948E+04  0.17435712948E+04  0.25500000920E-02 0.  1.
       -2   -1    0    0    0  501  0.00000000000E+00  0.00000000000E+00 -0.11297607816E+04  0.11297607816E+04  0.25500000920E-02 0. -1.
    10030    2    1    2    0    0  0.00000000000E+00  0.00000000000E+00  0.61381051316E+03  0.28733320764E+04  0.28070044309E+04 0.  0.
        2    1    3    3  502    0  0.25657503910E+03  0.62520777734E+03 -0.95224327227E+03  0.11676826474E+04  0.25500000920E-02 0. -1.
       -2    1    3    3    0  502 -0.25657503910E+03 -0.62520777734E+03  0.15660537854E+04  0.17056494289E+04  0.25500000920E-02 0.  1.
</event>
<event>
 5   0  0.9342133E-06  0.2768240E+04  0.7818609E-02  0.8313197E-01
       -2   -1    0    0    0  501  0.00000000000E+00  0.00000000000E+00  0.75673120655E+03  0.75673120656E+03  0.25500000920E-02 0.  1.
        2   -1    0    0  501    0  0.00000000000E+00  0.00000000000E+00 -0.25316626737E+04  0.25316626737E+04  0.25500000920E-02 0. -1.
    10030    2    1    2    0    0  0.00000000000E+00  0.00000000000E+00 -0.17749314671E+04  0.32883938802E+04  0.27682399821E+04 0.  0.
        2    1    3    3  502    0 -0.41740594971E+03  0.71537273883E+03  0.42987384186E+03  0.93315454360E+03  0.25500000920E-02 0.  1.
       -2    1    3    3    0  502  0.41740594971E+03 -0.71537273883E+03 -0.22048053090E+04  0.23552393366E+04  0.25500000920E-02 0. -1.
</event>
<event>
 5   0  0.9260173E-06  0.2785830E+04  0.7818609E-02  0.8307681E-01
        2   -1    0    0  501    0  0.00000000000E+00  0.00000000000E+00  0.14424845618E+04  0.14424845618E+04  0.25500000920E-02 0.  1.
       -2   -1    0    0    0  501  0.00000000000E+00  0.00000000000E+00 -0.13450488929E+04  0.13450488929E+04  0.25500000920E-02 0. -1.
    10030    2    1    2    0    0  0.00000000000E+00  0.00000000000E+00  0.97435668864E+02  0.27875334547E+04  0.27858300471E+04 0.  0.
        1    1    3    3  502    0  0.82255991970E+03 -0.57063136135E+03  0.10178074660E+04  0.14276403644E+04  0.50400001928E-02 0.  1.
       -1    1    3    3    0  502 -0.82255991970E+03  0.57063136135E+03 -0.92037179715E+03  0.13598930903E+04  0.50400001928E-02 0. -1.
</event>
<event>
 5   0  0.3397882E-06  0.2796516E+04  0.7818609E-02  0.8304351E-01
       -1   -1    0    0    0  501  0.00000000000E+00  0.00000000000E+00  0.11795566892E+04  0.11795566892E+04  0.50400001928E-02 0.  1.
        1   -1    0    0  501    0  0.00000000000E+00  0.00000000000E+00 -0.16575092336E+04  0.16575092336E+04  0.50400001928E-02 0. -1.
    10030    2    1    2    0    0  0.00000000000E+00  0.00000000000E+00 -0.47795254446E+03  0.28370659228E+04  0.27965164787E+04 0.  0.
        2    1    3    3  502    0 -0.30368956666E+03 -0.54937563408E+03  0.10285744371E+04  0.12049922460E+04  0.25500000920E-02 0.  1.
       -2    1    3    3    0  502  0.30368956666E+03  0.54937563408E+03 -0.15065269816E+04  0.16320736768E+04  0.25500000920E-02 0. -1.
</event>
<event>
 5   0  0.9426937E-06  0.2771710E+04  0.7818609E-02  0.8312106E-01
       -2   -1    0    0    0  501  0.00000000000E+00  0.00000000000E+00  0.13539944531E+04  0.13539944531E+04  0.25500000920E-02 0.  1.
        2   -1    0    0  501    0  0.00000000000E+00  0.00000000000E+00 -0.14184649682E+04  0.14184649682E+04  0.25500000920E-02 0. -1.
    10030    2    1    2    0    0  0.00000000000E+00  0.00000000000E+00 -0.64470515038E+02  0.27724594213E+04  0.27717097243E+04 0.  0.
        4    1    3    3  502    0  0.38930768081E+03  0.11059034978E+04  0.70688887292E+03  0.13690421865E+04  0.12699999809E+01 0.  1.
       -4    1    3    3    0  502 -0.38930768081E+03 -0.11059034978E+04 -0.77135938796E+03  0.14034172348E+04  0.12699999809E+01 0. -1.
</event>
<event>
 5   0  0.9252359E-06  0.2804920E+04  0.7818609E-02  0.8301742E-01
       -2   -1    0    0    0  501  0.00000000000E+00  0.00000000000E+00  0.14862168946E+04  0.14862168946E+04  0.25500000920E-02 0. -1.
        2   -1    0    0  501    0  0.00000000000E+00  0.00000000000E+00 -0.13234235908E+04  0.13234235908E+04  0.25500000920E-02 0.  1.
    10030    2    1    2    0    0  0.00000000000E+00  0.00000000000E+00  0.16279330376E+03  0.28096404854E+04  0.28049203193E+04 0.  0.
        5    1    3    3  502    0  0.82110697143E+03 -0.11087374099E+04  0.33352860719E+03  0.14194290135E+04  0.46999998093E+01 0.  1.
       -5    1    3    3    0  502 -0.82110697143E+03  0.11087374099E+04 -0.17073530342E+03  0.13902114719E+04  0.46999998093E+01 0. -1.
</event>
<event>
 5   0  0.3600963E-06  0.2790711E+04  0.7818609E-02  0.8306158E-01
       -1   -1    0    0    0  501  0.00000000000E+00  0.00000000000E+00  0.15570477575E+04  0.15570477575E+04  0.50400001928E-02 0.  1.
        1   -1    0    0  501    0  0.00000000000E+00  0.00000000000E+00 -0.12504540497E+04  0.12504540497E+04  0.50400001928E-02 0. -1.
    10030    2    1    2    0    0  0.00000000000E+00  0.00000000000E+00  0.30659370787E+03  0.28075018072E+04  0.27907107868E+04 0.  0.
        5    1    3    3  502    0  0.40244121199E+03 -0.56929737643E+03  0.13692611736E+04  0.15365404920E+04  0.46999998093E+01 0.  1.
       -5    1    3    3    0  502 -0.40244121199E+03  0.56929737643E+03 -0.10626674658E+04  0.12709613152E+04  0.46999998093E+01 0. -1.
</event>
<event>
 5   0  0.9252359E-06  0.2694345E+04  0.7818609E-02  0.8336842E-01
        2   -1    0    0  501    0  0.00000000000E+00  0.00000000000E+00  0.26031696084E+04  0.26031696084E+04  0.25500000920E-02 0.  1.
       -2   -1    0    0    0  501  0.00000000000E+00  0.00000000000E+00 -0.69717825534E+03  0.69717825534E+03  0.25500000920E-02 0. -1.
    10030    2    1    2    0    0  0.00000000000E+00  0.00000000000E+00  0.19059913530E+04  0.33003478637E+04  0.26943446297E+04 0.  0.
        5    1    3    3  502    0 -0.79659959885E+03 -0.10647827252E+04  0.12171860640E+04  0.18027471195E+04  0.46999998093E+01 0. -1.
       -5    1    3    3    0  502  0.79659959885E+03  0.10647827252E+04  0.68880528905E+03  0.14976007442E+04  0.46999998093E+01 0.  1.
</event>
<event>
 5   0  0.3600963E-06  0.2755439E+04  0.7818609E-02  0.8317238E-01
        1   -1    0    0  501    0  0.00000000000E+00  0.00000000000E+00  0.13379210966E+04  0.13379210966E+04  0.50400001928E-02 0.  1.
       -1   -1    0    0    0  501  0.00000000000E+00  0.00000000000E+00 -0.14187021458E+04  0.14187021458E+04  0.50400001928E-02 0. -1.
    10030    2    1    2    0    0  0.00000000000E+00  0.00000000000E+00 -0.80781049211E+02  0.27566232424E+04  0.27554393702E+04 0.  0.
        5    1    3    3  502    0 -0.62390533394E+03  0.10012965909E+04 -0.75219935697E+03  0.13991707156E+04  0.46999998093E+01 0. -1.
       -5    1    3    3    0  502  0.62390533394E+03 -0.10012965909E+04  0.67141830776E+03  0.13574525269E+04  0.46999998093E+01 0.  1.
</event>
<event>
 5   0  0.9252359E-06  0.2794561E+04  0.7818609E-02  0.8304959E-01
        2   -1    0    0  501    0  0.00000000000E+00  0.00000000000E+00  0.17804178045E+04  0.17804178045E+04  0.25500000920E-02 0.  1.
       -2   -1    0    0    0  501  0.00000000000E+00  0.00000000000E+00 -0.10965926986E+04  0.10965926986E+04  0.25500000920E-02 0. -1.
    10030    2    1    2    0    0  0.00000000000E+00  0.00000000000E+00  0.68382510592E+03  0.28770105031E+04  0.27945612642E+04 0.  0.
        5    1    3    3  502    0  0.38763283035E+03  0.13125337389E+04  0.63194589420E+03  0.15074421150E+04  0.46999998093E+01 0.  1.
       -5    1    3    3    0  502 -0.38763283035E+03 -0.13125337389E+04  0.51879211718E+02  0.13695683881E+04  0.46999998093E+01 0. -1.
</event>
<event>
 5   0  0.9342133E-06  0.2839645E+04  0.7818609E-02  0.8291065E-01
        2   -1    0    0  501    0  0.00000000000E+00  0.00000000000E+00  0.18093793902E+04  0.18093793903E+04  0.25500000920E-02 0.  1.
       -2   -1    0    0    0  501  0.00000000000E+00  0.00000000000E+00 -0.11141368659E+04  0.11141368659E+04  0.25500000920E-02 0. -1.
    10030    2    1    2    0    0  0.00000000000E+00  0.00000000000E+00  0.69524252433E+03  0.29235162562E+04  0.28396452476E+04 0.  0.
        2    1    3    3  502    0 -0.94222612267E+02 -0.11682474406E+04  0.11726747174E+04  0.16579644073E+04  0.25500000920E-02 0.  1.
       -2    1    3    3    0  502  0.94222612267E+02  0.11682474406E+04 -0.47743219310E+03  0.12655518488E+04  0.25500000920E-02 0. -1.
</event>
<event>
 5   0  0.3371603E-06  0.2800027E+04  0.7818609E-02  0.8303260E-01
        1   -1    0    0  501    0  0.00000000000E+00  0.00000000000E+00  0.15791127016E+04  0.15791127016E+04  0.50400001928E-02 0. -1.
       -1   -1    0    0    0  501  0.00000000000E+00  0.00000000000E+00 -0.12412277217E+04  0.12412277217E+04  0.50400001928E-02 0.  1.
    10030    2    1    2    0    0  0.00000000000E+00  0.00000000000E+00  0.33788497988E+03  0.28203404234E+04  0.28000274720E+04 0.  0.
        1    1    3    3  502    0 -0.12902022678E+04  0.53227415625E+03  0.27974411616E+03  0.14234445685E+04  0.50400001928E-02 0. -1.
       -1    1    3    3    0  502  0.12902022678E+04 -0.53227415625E+03  0.58140863727E+02  0.13968958548E+04  0.50400001928E-02 0.  1.
</event>
<event>
 5   0  0.3438130E-06  0.2690998E+04  0.7818609E-02  0.8337932E-01
       -1   -1    0    0    0  501  0.00000000000E+00  0.00000000000E+00  0.98919565300E+03  0.98919565302E+03  0.50400001928E-02 0. -1.
        1   -1    0    0  501    0  0.00000000000E+00  0.00000000000E+00 -0.18301406513E+04  0.18301406513E+04  0.50400001928E-02 0.  1.
    10030    2    1    2    0    0  0.00000000000E+00  0.00000000000E+00 -0.84094499830E+03  0.28193363043E+04  0.26909977159E+04 0.  0.
        3    1    3    3  502    0 -0.14200006250E+03 -0.75700314774E+03  0.73538819703E+03  0.10649007437E+04  0.10100000352E+00 0. -1.
       -3    1    3    3    0  502  0.14200006250E+03  0.75700314774E+03 -0.15763331953E+04  0.17544355606E+04  0.10100000352E+00 0.  1.
</event>
<event>
 5   0  0.9426937E-06  0.2800951E+04  0.7818609E-02  0.8302973E-01
       -2   -1    0    0    0  501  0.00000000000E+00  0.00000000000E+00  0.11735127847E+04  0.11735127847E+04  0.25500000920E-02 0.  1.
        2   -1    0    0  501    0  0.00000000000E+00  0.00000000000E+00 -0.16713332807E+04  0.16713332807E+04  0.25500000920E-02 0. -1.
    10030    2    1    2    0    0  0.00000000000E+00  0.00000000000E+00 -0.49782049603E+03  0.28448460654E+04  0.28009505332E+04 0.  0.
        4    1    3    3  502    0  0.47946883460E+03  0.11046599895E+04 -0.97507308074E+03  0.15494944922E+04  0.12699999809E+01 0.  1.
       -4    1    3    3    0  502 -0.47946883460E+03 -0.11046599895E+04  0.47725258471E+03  0.12953515732E+04  0.12699999809E+01 0. -1.
</event>
<event>
 5   0  0.9426937E-06  0.2795296E+04  0.7818609E-02  0.8304730E-01
        2   -1    0    0  501    0  0.00000000000E+00  0.00000000000E+00  0.20573213271E+04  0.20573213271E+04  0.25500000920E-02 0. -1.
       -2   -1    0    0    0  501  0.00000000000E+00  0.00000000000E+00 -0.94949686865E+03  0.94949686865E+03  0.25500000920E-02 0.  1.
    10030    2    1    2    0    0  0.00000000000E+00  0.00000000000E+00  0.11078244585E+04  0.30068181958E+04  0.27952961617E+04 0.  0.
        4    1    3    3  502    0 -0.10997425256E+04  0.80073202338E+03  0.20900390796E+03  0.13763319521E+04  0.12699999809E+01 0.  1.
       -4    1    3    3    0  502  0.10997425256E+04 -0.80073202338E+03  0.89882055051E+03  0.16304862437E+04  0.12699999809E+01 0. -1.
</event>
<event>
 5   0  0.9260173E-06  0.2775072E+04  0.7818609E-02  0.8311050E-01
        2   -1    0    0  501    0  0.00000000000E+00  0.00000000000E+00  0.25490354745E+04  0.25490354745E+04  0.25500000920E-02 0. -1.
       -2   -1    0    0    0  501  0.00000000000E+00  0.00000000000E+00 -0.75528790230E+03  0.75528790230E+03  0.25500000920E-02 0.  1.
    10030    2    1    2    0    0  0.00000000000E+00  0.00000000000E+00  0.17937475722E+04  0.33043233768E+04  0.27750716433E+04 0.  0.
        1    1    3    3  502    0  0.73009559560E+03 -0.93918719752E+03  0.17473350075E+04  0.21138334370E+04  0.50400001928E-02 0.  1.
       -1    1    3    3    0  502 -0.73009559560E+03  0.93918719752E+03  0.46412564690E+02  0.11904899398E+04  0.50400001928E-02 0. -1.
</event>
<event>
 5   0  0.3397882E-06  0.2754980E+04  0.7818609E-02  0.8317383E-01
        1   -1    0    0  501    0  0.00000000000E+00  0.00000000000E+00  0.12532662935E+04  0.12532662935E+04  0.50400001928E-02 0. -1.
       -1   -1    0    0    0  501  0.00000000000E+00  0.00000000000E+00 -0.15140268443E+04  0.15140268444E+04  0.50400001928E-02 0.  1.
    10030    2    1    2    0    0  0.00000000000E+00  0.00000000000E+00 -0.26076055081E+03  0.27672931379E+04  0.27549800809E+04 0.  0.
        2    1    3    3  502    0  0.15225839233E+03 -0.13607362003E+04  0.20935582955E+02  0.13693881566E+04  0.25500000920E-02 0.  1.
       -2    1    3    3    0  502 -0.15225839233E+03  0.13607362003E+04 -0.28169613377E+03  0.13979049813E+04  0.25500000920E-02 0. -1.
</event>
<event>
 5   0  0.3438130E-06  0.2846131E+04  0.7818609E-02  0.8289088E-01
        1   -1    0    0  501    0  0.00000000000E+00  0.00000000000E+00  0.20788898050E+04  0.20788898050E+04  0.50400001928E-02 0.  1.
       -1   -1    0    0    0  501  0.00000000000E+00  0.00000000000E+00 -0.97413310778E+03  0.97413310779E+03  0.50400001928E-02 0. -1.
    10030    2    1    2    0    0  0.00000000000E+00  0.00000000000E+00  0.11047566972E+04  0.30530229128E+04  0.28461309784E+04 0.  0.
        3    1    3    3  502    0  0.11344886142E+04 -0.24094682861E+03 -0.33218354902E+03  0.12064268359E+04  0.10100000352E+00 0. -1.
       -3    1    3    3    0  502 -0.11344886142E+04  0.24094682861E+03  0.14369402463E+04  0.18465960769E+04  0.10100000352E+00 0.  1.
</event>
<event>
 5   0  0.3371603E-06  0.2793631E+04  0.7818609E-02  0.8305248E-01
       -1   -1    0    0    0  501  0.00000000000E+00  0.00000000000E+00  0.13825236596E+04  0.13825236596E+04  0.50400001928E-02 0.  1.
        1   -1    0    0  501    0  0.00000000000E+00  0.00000000000E+00 -0.14112553524E+04  0.14112553524E+04  0.50400001928E-02 0. -1.
    10030    2    1    2    0    0  0.00000000000E+00  0.00000000000E+00 -0.28731692854E+02  0.27937790120E+04  0.27936312673E+04 0.  0.
        1    1    3    3  502    0  0.30798920656E+03  0.49537369892E+03  0.12548905693E+04  0.13838362597E+04  0.50400001928E-02 0.  1.
       -1    1    3    3    0  502 -0.30798920656E+03 -0.49537369892E+03 -0.12836222621E+04  0.14099427523E+04  0.50400001928E-02 0. -1.
</event>
<event>
 5   0  0.9342133E-06  0.2775562E+04  0.7818609E-02  0.8310896E-01
       -2   -1    0    0    0  501  0.00000000000E+00  0.00000000000E+00  0.10905852816E+04  0.10905852816E+04  0.25500000920E-02 0. -1.
        2   -1    0    0  501    0  0.00000000000E+00  0.00000000000E+00 -0.17659656576E+04  0.17659656576E+04  0.25500000920E-02 0.  1.
    10030    2    1    2    0    0  0.00000000000E+00  0.00000000000E+00 -0.67538037595E+03  0.28565509392E+04  0.27755620361E+04 0.  0.
        2    1    3    3  502    0 -0.42252648015E+03 -0.34412886779E+02 -0.16976964917E+04  0.17498246344E+04  0.25500000920E-02 0.  1.
       -2    1    3    3    0  502  0.42252648015E+03  0.34412886779E+02  0.10223161158E+04  0.11067263048E+04  0.25500000920E-02 0. -1.
</event>
<event>
 5   0  0.3600963E-06  0.2815340E+04  0.7818609E-02  0.8298522E-01
        1   -1    0    0  501    0  0.00000000000E+00  0.00000000000E+00  0.13002102019E+04  0.13002102019E+04  0.50400001928E-02 0. -1.
       -1   -1    0    0    0  501  0.00000000000E+00  0.00000000000E+00 -0.15240111284E+04  0.15240111284E+04  0.50400001928E-02 0.  1.
    10030    2    1    2    0    0  0.00000000000E+00  0.00000000000E+00 -0.22380092655E+03  0.28242213303E+04  0.28153399915E+04 0.  0.
        5    1    3    3  502    0  0.13523930647E+04  0.10689451351E+03 -0.48874399774E+03  0.14419730316E+04  0.46999998093E+01 0.  1.
       -5    1    3    3    0  502 -0.13523930647E+04 -0.10689451351E+03  0.26494307119E+03  0.13822482988E+04  0.46999998093E+01 0. -1.
</event>
<event>
 5   0  0.3438130E-06  0.3005978E+04  0.7818609E-02  0.8242026E-01
       -1   -1    0    0    0  501  0.00000000000E+00  0.00000000000E+00  0.14998599918E+04  0.14998599918E+04  0.50400001928E-02 0. -1.
        1   -1    0    0  501    0  0.00000000000E+00  0.00000000000E+00 -0.15061243674E+04  0.15061243674E+04  0.50400001928E-02 0.  1.
    10030    2    1    2    0    0  0.00000000000E+00  0.00000000000E+00 -0.62643756360E+01  0.30059843592E+04  0.30059778318E+04 0.  0.
        3    1    3    3  502    0  0.14068598425E+04 -0.81712936431E+02 -0.52566949405E+03  0.15040811307E+04  0.10100000352E+00 0.  1.
       -3    1    3    3    0  502 -0.14068598425E+04  0.81712936431E+02  0.51940511841E+03  0.15019032285E+04  0.10100000352E+00 0. -1.
</event>
<event>
 5   0  0.3397882E-06  0.2773485E+04  0.7818609E-02  0.8311548E-01
        1   -1    0    0  501    0  0.00000000000E+00  0.00000000000E+00  0.16557496305E+04  0.16557496306E+04  0.50400001928E-02 0. -1.
       -1   -1    0    0    0  501  0.00000000000E+00  0.00000000000E+00 -0.11614405696E+04  0.11614405696E+04  0.50400001928E-02 0.  1.
    10030    2    1    2    0    0  0.00000000000E+00  0.00000000000E+00  0.49430906099E+03  0.28171902001E+04  0.27734850236E+04 0.  0.
        2    1    3    3  502    0  0.91663117356E+03  0.13215682357E+03  0.12955905499E+04  0.15925554959E+04  0.25500000920E-02 0. -1.
       -2    1    3    3    0  502 -0.91663117356E+03 -0.13215682357E+03 -0.80128148893E+03  0.12246347043E+04  0.25500000920E-02 0.  1.
</event>
<event>
 5   0  0.9342133E-06  0.2503350E+04  0.7818609E-02  0.8401793E-01
       -2   -1    0    0    0  501  0.00000000000E+00  0.00000000000E+00  0.79719346772E+03  0.79719346773E+03  0.25500000920E-02 0. -1.
        2   -1    0    0  501    0  0.00000000000E+00  0.00000000000E+00 -0.19652566226E+04  0.19652566226E+04  0.25500000920E-02 0.  1.
    10030    2    1    2    0    0  0.00000000000E+00  0.00000000000E+00 -0.11680631548E+04  0.27624500903E+04  0.25033495496E+04 0.  0.
        2    1    3    3  502    0  0.12421145231E+04  0.13161974381E+03 -0.49494477955E+03  0.13435559461E+04  0.25500000920E-02 0. -1.
       -2    1    3    3    0  502 -0.12421145231E+04 -0.13161974381E+03 -0.67311837529E+03  0.14188941442E+04  0.25500000920E-02 0.  1.
</event>
<event>
 5   0  0.9252359E-06  0.2811344E+04  0.7818609E-02  0.8299755E-01
       -2   -1    0    0    0  501  0.00000000000E+00  0.00000000000E+00  0.91277342027E+03  0.91277342027E+03  0.25500000920E-02 0. -1.
        2   -1    0    0  501    0  0.00000000000E+00  0.00000000000E+00 -0.21647359368E+04  0.21647359368E+04  0.25500000920E-02 0.  1.
    10030    2    1    2    0    0  0.00000000000E+00  0.00000000000E+00 -0.12519625166E+04  0.30775093571E+04  0.28113437535E+04 0.  0.
        5    1    3    3  502    0  0.50042073911E+03  0.12756897445E+04 -0.28314310113E+03  0.13992845837E+04  0.46999998093E+01 0.  1.
       -5    1    3    3    0  502 -0.50042073911E+03 -0.12756897445E+04 -0.96881941544E+03  0.16782247734E+04  0.46999998093E+01 0. -1.
</event>
<event>
 5   0  0.3600963E-06  0.2494493E+04  0.7818609E-02  0.8404950E-01
       -1   -1    0    0    0  501  0.00000000000E+00  0.00000000000E+00  0.80149869240E+03  0.80149869242E+03  0.50400001928E-02 0. -1.
        1   -1    0    0  501    0  0.00000000000E+00  0.00000000000E+00 -0.19408940583E+04  0.19408940583E+04  0.50400001928E-02 0.  1.
    10030    2    1    2    0    0  0.00000000000E+00  0.00000000000E+00 -0.11393953659E+04  0.27423927507E+04  0.24944931749E+04 0.  0.
        5    1    3    3  502    0  0.38284419373E+03 -0.10441189668E+04 -0.11904796459E+04  0.16291157021E+04  0.46999998093E+01 0.  1.
       -5    1    3    3    0  502 -0.38284419373E+03  0.10441189668E+04  0.51084280020E+02  0.11132770487E+04  0.46999998093E+01 0. -1.
</event>
<event>
 5   0  0.3371603E-06  0.2815324E+04  0.7818609E-02  0.8298527E-01
        1   -1    0    0  501    0  0.00000000000E+00  0.00000000000E+00  0.14966223717E+04  0.14966223717E+04  0.50400001928E-02 0. -1.
       -1   -1    0    0    0  501  0.00000000000E+00  0.00000000000E+00 -0.13239893197E+04  0.13239893197E+04  0.50400001928E-02 0.  1.
    10030    2    1    2    0    0  0.00000000000E+00  0.00000000000E+00  0.17263305201E+03  0.28206116914E+04  0.28153238079E+04 0.  0.
        1    1    3    3  502    0 -0.12193960553E+04  0.20536936921E+02 -0.61797148295E+03  0.13672005190E+04  0.50400001928E-02 0.  1.
       -1    1    3    3    0  502  0.12193960553E+04 -0.20536936921E+02  0.79060453496E+03  0.14534111724E+04  0.50400001928E-02 0. -1.
</event>
<event>
 5   0  0.3600963E-06  0.2808808E+04  0.7818609E-02  0.8300539E-01
        1   -1    0    0  501    0  0.00000000000E+00  0.00000000000E+00  0.16899218939E+04  0.16899218939E+04  0.50400001928E-02 0. -1.
       -1   -1    0    0    0  501  0.00000000000E+00  0.00000000000E+00 -0.11671257066E+04  0.11671257066E+04  0.50400001928E-02 0.  1.
    10030    2    1    2    0    0  0.00000000000E+00  0.00000000000E+00  0.52279618730E+03  0.28570476005E+04  0.28088084908E+04 0.  0.
        5    1    3    3  502    0  0.22920074618E+03  0.56119874164E+03 -0.10271862956E+04  0.11927324870E+04  0.46999998093E+01 0.  1.
       -5    1    3    3    0  502 -0.22920074618E+03 -0.56119874164E+03  0.15499824829E+04  0.16643151135E+04  0.46999998093E+01 0. -1.
</event>
<event>
 5   0  0.9252359E-06  0.2788422E+04  0.7818609E-02  0.8306872E-01
       -2   -1    0    0    0  501  0.00000000000E+00  0.00000000000E+00  0.10078037453E+04  0.10078037453E+04  0.25500000920E-02 0. -1.
        2   -1    0    0  501    0  0.00000000000E+00  0.00000000000E+00 -0.19287722401E+04  0.19287722401E+04  0.25500000920E-02 0.  1.
    10030    2    1    2    0    0  0.00000000000E+00  0.00000000000E+00 -0.92096849480E+03  0.29365759855E+04  0.27884216951E+04 0.  0.
        5    1    3    3  502    0 -0.89185916941E+02  0.79556838882E+03 -0.16625865616E+04  0.18452911298E+04  0.46999998093E+01 0.  1.
       -5    1    3    3    0  502  0.89185916941E+02 -0.79556838882E+03  0.74161806681E+03  0.10912848556E+04  0.46999998093E+01 0. -1.
</event>
<event>
 5   0  0.9342133E-06  0.2782093E+04  0.7818609E-02  0.8308849E-01
        2   -1    0    0  501    0  0.00000000000E+00  0.00000000000E+00  0.15922198773E+04  0.15922198773E+04  0.25500000920E-02 0. -1.
       -2   -1    0    0    0  501  0.00000000000E+00  0.00000000000E+00 -0.12152908771E+04  0.12152908771E+04  0.25500000920E-02 0.  1.
    10030    2    1    2    0    0  0.00000000000E+00  0.00000000000E+00  0.37692900022E+03  0.28075107544E+04  0.27820929468E+04 0.  0.
        2    1    3    3  502    0  0.13991794421E+03 -0.69187492775E+02  0.15833544587E+04  0.15910296295E+04  0.25500000920E-02 0. -1.
       -2    1    3    3    0  502 -0.13991794421E+03  0.69187492775E+02 -0.12064254585E+04  0.12164811248E+04  0.25500000920E-02 0.  1.
</event>
<event>
 5   0  0.9342133E-06  0.2804609E+04  0.7818609E-02  0.8301839E-01
        2   -1    0    0  501    0  0.00000000000E+00  0.00000000000E+00  0.13650499684E+04  0.13650499684E+04  0.25500000920E-02 0.  1.
       -2   -1    0    0    0  501  0.00000000000E+00  0.00000000000E+00 -0.14405754602E+04  0.14405754602E+04  0.25500000920E-02 0. -1.
    10030    2    1    2    0    0  0.00000000000E+00  0.00000000000E+00 -0.75525491818E+02  0.28056254286E+04  0.28046086975E+04 0.  0.
        2    1    3    3  502    0 -0.73513398073E+03 -0.69808401556E+03 -0.10069866394E+04  0.14289035497E+04  0.25500000920E-02 0. -1.
       -2    1    3    3    0  502  0.73513398073E+03  0.69808401556E+03  0.93146114761E+03  0.13767218789E+04  0.25500000920E-02 0.  1.
</event>
<event>
 5   0  0.9252359E-06  0.2792765E+04  0.7818609E-02  0.8305518E-01
       -2   -1    0    0    0  501  0.00000000000E+00  0.00000000000E+00  0.13645601550E+04  0.13645601550E+04  0.25500000920E-02 0.  1.
        2   -1    0    0  501    0  0.00000000000E+00  0.00000000000E+00 -0.14289469874E+04  0.14289469874E+04  0.25500000920E-02 0. -1.
    10030    2    1    2    0    0  0.00000000000E+00  0.00000000000E+00 -0.64386832391E+02  0.27935071424E+04  0.27927650260E+04 0.  0.
        5    1    3    3  502    0  0.51702576539E+03 -0.77374717647E+03 -0.10735568490E+04  0.14207556909E+04  0.46999998093E+01 0. -1.
       -5    1    3    3    0  502 -0.51702576539E+03  0.77374717647E+03  0.10091700166E+04  0.13727514515E+04  0.46999998093E+01 0.  1.
</event>
<event>
 5   0  0.9260173E-06  0.2356835E+04  0.7818609E-02  0.8455843E-01
        2   -1    0    0  501    0  0.00000000000E+00  0.00000000000E+00  0.32020634001E+04  0.32020634001E+04  0.25500000920E-02 0.  1.
       -2   -1    0    0    0  501  0.00000000000E+00  0.00000000000E+00 -0.43367920996E+03  0.43367920997E+03  0.25500000920E-02 0. -1.
    10030    2    1    2    0    0  0.00000000000E+00  0.00000000000E+00  0.27683841901E+04  0.36357426101E+04  0.23568354424E+04 0.  0.
        1    1    3    3  502    0 -0.30987854272E+03 -0.97219379237E+03  0.47484317892E+03  0.11254605838E+04  0.50400001928E-02 0. -1.
       -1    1    3    3    0  502  0.30987854272E+03  0.97219379237E+03  0.22935410112E+04  0.25102820262E+04  0.50400001928E-02 0.  1.
</event>
<event>
 5   0  0.9342133E-06  0.2745811E+04  0.7818609E-02  0.8320292E-01
        2   -1    0    0  501    0  0.00000000000E+00  0.00000000000E+00  0.25244139867E+04  0.25244139867E+04  0.25500000920E-02 0.  1.
       -2   -1    0    0    0  501  0.00000000000E+00  0.00000000000E+00 -0.74665607106E+03  0.74665607107E+03  0.25500000920E-02 0. -1.
    10030    2    1    2    0    0  0.00000000000E+00  0.00000000000E+00  0.17777579156E+04  0.32710700578E+04  0.27458106483E+04 0.  0.
        2    1    3    3  502    0  0.80222323152E+03  0.55413811075E+03  0.20403366746E+04  0.22613281285E+04  0.25500000920E-02 0.  1.
       -2    1    3    3    0  502 -0.80222323152E+03 -0.55413811075E+03 -0.26257875900E+03  0.10097419292E+04  0.25500000920E-02 0. -1.
</event>
<event>
 5   0  0.9260173E-06  0.2795036E+04  0.7818609E-02  0.8304811E-01
       -2   -1    0    0    0  501  0.00000000000E+00  0.00000000000E+00  0.83701132423E+03  0.83701132424E+03  0.25500000920E-02 0.  1.
        2   -1    0    0  501    0  0.00000000000E+00  0.00000000000E+00 -0.23333695230E+04  0.23333695230E+04  0.25500000920E-02 0. -1.
    10030    2    1    2    0    0  0.00000000000E+00  0.00000000000E+00 -0.14963581988E+04  0.31703808473E+04  0.27950361103E+04 0.  0.
        1    1    3    3  502    0  0.51507796473E+03  0.12001204946E+04 -0.13124380413E+04  0.18515096877E+04  0.50400001928E-02 0. -1.
       -1    1    3    3    0  502 -0.51507796473E+03 -0.12001204946E+04 -0.18392015751E+03  0.13188711596E+04  0.50400001928E-02 0.  1.
</event>
<event>
 5   0  0.3357244E-06  0.2778650E+04  0.7818609E-02  0.8309928E-01
        1   -1    0    0  501    0  0.00000000000E+00  0.00000000000E+00  0.91087130055E+03  0.91087130056E+03  0.50400001928E-02 0. -1.
       -1   -1    0    0    0  501  0.00000000000E+00  0.00000000000E+00 -0.21190961194E+04  0.21190961194E+04  0.50400001928E-02 0.  1.
    10030    2    1    2    0    0  0.00000000000E+00  0.00000000000E+00 -0.12082248188E+04  0.30299674200E+04  0.27786499155E+04 0.  0.
        4    1    3    3  502    0  0.65568670708E+03  0.99305664863E+03 -0.13859976035E+04  0.18267669624E+04  0.12699999809E+01 0.  1.
       -4    1    3    3    0  502 -0.65568670708E+03 -0.99305664863E+03  0.17777278462E+03  0.12032004576E+04  0.12699999809E+01 0. -1.
</event>
<event>
 5   0  0.3371603E-06  0.2737022E+04  0.7818609E-02  0.8323091E-01
        1   -1    0    0  501    0  0.00000000000E+00  0.00000000000E+00  0.10397300177E+04  0.10397300177E+04  0.50400001928E-02 0. -1.
       -1   -1    0    0    0  501  0.00000000000E+00  0.00000000000E+00 -0.18012589461E+04  0.18012589461E+04  0.50400001928E-02 0.  1.
    10030    2    1    2    0    0  0.00000000000E+00  0.00000000000E+00 -0.76152892839E+03  0.28409889638E+04  0.27370224668E+04 0.  0.
        1    1    3    3  502    0 -0.89038146093E+03 -0.69501496030E+03 -0.11827705105E+04  0.16354727211E+04  0.50400001928E-02 0.  1.
       -1    1    3    3    0  502  0.89038146093E+03  0.69501496030E+03  0.42124158206E+03  0.12055162427E+04  0.50400001928E-02 0. -1.
</event>
<event>
 5   0  0.3371603E-06  0.2830001E+04  0.7818609E-02  0.8294014E-01
       -1   -1    0    0    0  501  0.00000000000E+00  0.00000000000E+00  0.17562998438E+04  0.17562998438E+04  0.50400001928E-02 0. -1.
        1   -1    0    0  501    0  0.00000000000E+00  0.00000000000E+00 -0.11400253356E+04  0.11400253356E+04  0.50400001928E-02 0.  1.
    10030    2    1    2    0    0  0.00000000000E+00  0.00000000000E+00  0.61627450822E+03  0.28963251794E+04  0.28300009320E+04 0.  0.
        1    1    3    3  502    0 -0.81231158993E+03  0.11465336452E+04  0.47889106184E+03  0.14844952569E+04  0.50400001928E-02 0. -1.
       -1    1    3    3    0  502  0.81231158993E+03 -0.11465336452E+04  0.13738344639E+03  0.14118299225E+04  0.50400001928E-02 0.  1.
</event>
<event>
 5   0  0.9426937E-06  0.2784284E+04  0.7818609E-02  0.8308164E-01
       -2   -1    0    0    0  501  0.00000000000E+00  0.00000000000E+00  0.70287894910E+03  0.70287894910E+03  0.25500000920E-02 0. -1.
        2   -1    0    0  501    0  0.00000000000E+00  0.00000000000E+00 -0.27573165882E+04  0.27573165882E+04  0.25500000920E-02 0.  1.
    10030    2    1    2    0    0  0.00000000000E+00  0.00000000000E+00 -0.20544376391E+04  0.34601955373E+04  0.27842843144E+04 0.  0.
        4    1    3    3  502    0  0.14392651391E+03 -0.11381094498E+04 -0.47052484507E+02  0.11481391511E+04  0.12699999809E+01 0. -1.
       -4    1    3    3    0  502 -0.14392651391E+03  0.11381094498E+04 -0.20073851546E+04  0.23120563862E+04  0.12699999809E+01 0.  1.
</event>
<event>
 5   0  0.3600963E-06  0.2796528E+04  0.7818609E-02  0.8304347E-01
       -1   -1    0    0    0  501  0.00000000000E+00  0.00000000000E+00  0.12181561220E+04  0.12181561220E+04  0.50400001928E-02 0.  1.
        1   -1    0    0  501    0  0.00000000000E+00  0.00000000000E+00 -0.16050010912E+04  0.16050010912E+04  0.50400001928E-02 0. -1.
    10030    2    1    2    0    0  0.00000000000E+00  0.00000000000E+00 -0.38684496920E+03  0.28231572131E+04  0.27965277792E+04 0.  0.
        5    1    3    3  502    0  0.79200378139E+03 -0.52035364556E+03 -0.12313576968E+04  0.15538023599E+04  0.46999998093E+01 0. -1.
       -5    1    3    3    0  502 -0.79200378139E+03  0.52035364556E+03  0.84451272765E+03  0.12693548532E+04  0.46999998093E+01 0.  1.
</event>
<event>
 5   0  0.3397882E-06  0.2780139E+04  0.7818609E-02  0.8309461E-01
        1   -1    0    0  501    0  0.00000000000E+00  0.00000000000E+00  0.18738718521E+04  0.18738718521E+04  0.50400001928E-02 0.  1.
       -1   -1    0    0    0  501  0.00000000000E+00  0.00000000000E+00 -0.10311766672E+04  0.10311766672E+04  0.50400001928E-02 0. -1.
    10030    2    1    2    0    0  0.00000000000E+00  0.00000000000E+00  0.84269518492E+03  0.29050485193E+04  0.27801387960E+04 0.  0.
        2    1    3    3  502    0  0.12703774245E+04  0.77288129908E+02 -0.16274889657E+03  0.12830898094E+04  0.25500000920E-02 0. -1.
       -2    1    3    3    0  502 -0.12703774245E+04 -0.77288129908E+02  0.10054440815E+04  0.16219587099E+04  0.25500000920E-02 0.  1.
</event>
<event>
 5   0  0.3357244E-06  0.2752653E+04  0.7818609E-02  0.8318120E-01
       -1   -1    0    0    0  501  0.00000000000E+00  0.00000000000E+00  0.12035329403E+04  0.12035329404E+04  0.50400001928E-02 0.  1.
        1   -1    0    0  501    0  0.00000000000E+00  0.00000000000E+00 -0.15739289336E+04  0.15739289336E+04  0.50400001928E-02 0. -1.
    10030    2    1    2    0    0  0.00000000000E+00  0.00000000000E+00 -0.37039599328E+03  0.27774618740E+04  0.27526534961E+04 0.  0.
        4    1    3    3  502    0  0.58429774575E+03 -0.66694237321E+03  0.87693219023E+03  0.12470876730E+04  0.12699999809E+01 0.  1.
       -4    1    3    3    0  502 -0.58429774575E+03  0.66694237321E+03 -0.12473281835E+04  0.15303742010E+04  0.12699999809E+01 0. -1.
</event>
<event>
 5   0  0.3371603E-06  0.2782346E+04  0.7818609E-02  0.8308770E-01
       -1   -1    0    0    0  501  0.00000000000E+00  0.00000000000E+00  0.10978078484E+04  0.10978078484E+04  0.50400001928E-02 0.  1.
        1   -1    0    0  501    0  0.00000000000E+00  0.00000000000E+00 -0.17629334094E+04  0.17629334094E+04  0.50400001928E-02 0. -1.
    10030    2    1    2    0    0  0.00000000000E+00  0.00000000000E+00 -0.66512556098E+03  0.28607412578E+04  0.27823458686E+04 0.  0.
        1    1    3    3  502    0 -0.19909154971E+03  0.41844899071E+03  0.10161224291E+04  0.11167998003E+04  0.50400001928E-02 0.  1.
       -1    1    3    3    0  502  0.19909154971E+03 -0.41844899071E+03 -0.16812479901E+04  0.17439414575E+04  0.50400001928E-02 0. -1.
</event>
<event>
 5   0  0.9065579E-06  0.2784324E+04  0.7818609E-02  0.8308152E-01
       -2   -1    0    0    0  501  0.00000000000E+00  0.00000000000E+00  0.11348438949E+04  0.11348438949E+04  0.25500000920E-02 0.  1.
        2   -1    0    0  501    0  0.00000000000E+00  0.00000000000E+00 -0.17078250500E+04  0.17078250500E+04  0.25500000920E-02 0. -1.
    10030    2    1    2    0    0  0.00000000000E+00  0.00000000000E+00 -0.57298115514E+03  0.28426689449E+04  0.27843238544E+04 0.  0.
        3    1    3    3  502    0  0.83809993035E+03  0.10875262353E+04 -0.52150989499E+03  0.14687060245E+04  0.10100000352E+00 0.  1.
       -3    1    3    3    0  502 -0.83809993035E+03 -0.10875262353E+04 -0.51471260147E+02  0.13739629204E+04  0.10100000352E+00 0. -1.
</event>
<event>
 5   0  0.3397882E-06  0.2820881E+04  0.7818609E-02  0.8296815E-01
       -1   -1    0    0    0  501  0.00000000000E+00  0.00000000000E+00  0.11613288908E+04  0.11613288908E+04  0.50400001928E-02 0.  1.
        1   -1    0    0  501    0  0.00000000000E+00  0.00000000000E+00 -0.17129878598E+04  0.17129878598E+04  0.50400001928E-02 0. -1.
    10030    2    1    2    0    0  0.00000000000E+00  0.00000000000E+00 -0.55165896899E+03  0.28743167505E+04  0.28208809199E+04 0.  0.
        2    1    3    3  502    0 -0.76215888956E+03  0.10743043412E+04 -0.78969030920E+03  0.15357821378E+04  0.25500000920E-02 0.  1.
       -2    1    3    3    0  502  0.76215888956E+03 -0.10743043412E+04  0.23803134021E+03  0.13385346127E+04  0.25500000920E-02 0. -1.
</event>
<event>
 5   0  0.9065579E-06  0.2800306E+04  0.7818609E-02  0.8303173E-01
        2   -1    0    0  501    0  0.00000000000E+00  0.00000000000E+00  0.11734762843E+04  0.11734762843E+04  0.25500000920E-02 0.  1.
       -2   -1    0    0    0  501  0.00000000000E+00  0.00000000000E+00 -0.16706158828E+04  0.16706158828E+04  0.25500000920E-02 0. -1.
    10030    2    1    2    0    0  0.00000000000E+00  0.00000000000E+00 -0.49713959850E+03  0.28440921672E+04  0.28003057824E+04 0.  0.
        3    1    3    3  502    0 -0.16964844458E+03 -0.13804689191E+04 -0.41218838684E+03  0.14506461690E+04  0.10100000352E+00 0.  1.
       -3    1    3    3    0  502  0.16964844458E+03  0.13804689191E+04 -0.84951211662E+02  0.13934459982E+04  0.10100000352E+00 0. -1.
</event>
<event>
 5   0  0.3600963E-06  0.2793909E+04  0.7818609E-02  0.8305162E-01
       -1   -1    0    0    0  501  0.00000000000E+00  0.00000000000E+00  0.15535510711E+04  0.15535510711E+04  0.50400001928E-02 0. -1.
        1   -1    0    0  501    0  0.00000000000E+00  0.00000000000E+00 -0.12561430138E+04  0.12561430138E+04  0.50400001928E-02 0.  1.
    10030    2    1    2    0    0  0.00000000000E+00  0.00000000000E+00  0.29740805732E+03  0.28096940850E+04  0.27939093218E+04 0.  0.
        5    1    3    3  502    0  0.33958467752E+03 -0.20130816339E+03  0.14962812017E+04  0.15474890160E+04  0.46999998093E+01 0. -1.
       -5    1    3    3    0  502 -0.33958467752E+03  0.20130816339E+03 -0.11988731444E+04  0.12622050690E+04  0.46999998093E+01 0.  1.
</event>
<event>
 5   0  0.9252359E-06  0.2484985E+04  0.7818609E-02  0.8408354E-01
        2   -1    0    0  501    0  0.00000000000E+00  0.00000000000E+00  0.13611849962E+04  0.13611849962E+04  0.25500000920E-02 0. -1.
       -2   -1    0    0    0  501  0.00000000000E+00  0.00000000000E+00 -0.11341500832E+04  0.11341500832E+04  0.25500000920E-02 0.  1.
    10030    2    1    2    0    0  0.00000000000E+00  0.00000000000E+00  0.22703491305E+03  0.24953350794E+04  0.24849853736E+04 0.  0.
        5    1    3    3  502    0 -0.13434027955E+03 -0.29000473319E+03  0.13191912510E+04  0.13573642483E+04  0.46999998093E+01 0. -1.
       -5    1    3    3    0  502  0.13434027955E+03  0.29000473319E+03 -0.10921563379E+04  0.11379708311E+04  0.46999998093E+01 0.  1.
</event>
<event>
 5   0  0.3438130E-06  0.2792776E+04  0.7818609E-02  0.8305514E-01
        1   -1    0    0  501    0  0.00000000000E+00  0.00000000000E+00  0.22844539730E+04  0.22844539730E+04  0.50400001928E-02 0. -1.
       -1   -1    0    0    0  501  0.00000000000E+00  0.00000000000E+00 -0.85355190682E+03  0.85355190683E+03  0.50400001928E-02 0.  1.
    10030    2    1    2    0    0  0.00000000000E+00  0.00000000000E+00  0.14309020661E+04  0.31380058798E+04  0.27927764283E+04 0.  0.
        3    1    3    3  502    0 -0.11582175516E+04 -0.52536019051E+03  0.13632897643E+04  0.18644114938E+04  0.10100000352E+00 0. -1.
       -3    1    3    3    0  502  0.11582175516E+04  0.52536019051E+03  0.67612301834E+02  0.12735943860E+04  0.10100000352E+00 0.  1.
</event>
<event>
 5   0  0.3600963E-06  0.2832931E+04  0.7818609E-02  0.8293117E-01
        1   -1    0    0  501    0  0.00000000000E+00  0.00000000000E+00  0.12829447914E+04  0.12829447914E+04  0.50400001928E-02 0.  1.
       -1   -1    0    0    0  501  0.00000000000E+00  0.00000000000E+00 -0.15638819713E+04  0.15638819713E+04  0.50400001928E-02 0. -1.
    10030    2    1    2    0    0  0.00000000000E+00  0.00000000000E+00 -0.28093717987E+03  0.28468267627E+04  0.28329308000E+04 0.  0.
        5    1    3    3  502    0 -0.10831447517E+04 -0.10630315955E+03  0.77053722415E+03  0.13335113868E+04  0.46999998093E+01 0.  1.
       -5    1    3    3    0  502  0.10831447517E+04  0.10630315955E+03 -0.10514744040E+04  0.15133153760E+04  0.46999998093E+01 0. -1.
</event>
<event>
 5   0  0.9252359E-06  0.2614497E+04  0.7818609E-02  0.8363294E-01
        2   -1    0    0  501    0  0.00000000000E+00  0.00000000000E+00  0.18502661474E+04  0.18502661474E+04  0.25500000920E-02 0.  1.
       -2   -1    0    0    0  501  0.00000000000E+00  0.00000000000E+00 -0.92359579621E+03  0.92359579621E+03  0.25500000920E-02 0. -1.
    10030    2    1    2    0    0  0.00000000000E+00  0.00000000000E+00  0.92667035123E+03  0.27738619437E+04  0.26144965371E+04 0.  0.
        5    1    3    3  502    0 -0.27948712444E+03 -0.12221641588E+04  0.70527364546E+02  0.12557047754E+04  0.46999998093E+01 0.  1.
       -5    1    3    3    0  502  0.27948712444E+03  0.12221641588E+04  0.85614298668E+03  0.15181571682E+04  0.46999998093E+01 0. -1.
</event>
<event>
 5   0  0.3438130E-06  0.2833130E+04  0.7818609E-02  0.8293056E-01
        1   -1    0    0  501    0  0.00000000000E+00  0.00000000000E+00  0.10378072771E+04  0.10378072771E+04  0.50400001928E-02 0. -1.
       -1   -1    0    0    0  501  0.00000000000E+00  0.00000000000E+00 -0.19335541051E+04  0.19335541051E+04  0.50400001928E-02 0.  1.
    10030    2    1    2    0    0  0.00000000000E+00  0.00000000000E+00 -0.89574682808E+03  0.29713613822E+04  0.28331300859E+04 0.  0.
        3    1    3    3  502    0 -0.12271446017E+04  0.14477940565E+03 -0.11743545012E+04  0.17046857349E+04  0.10100000352E+00 0.  1.
       -3    1    3    3    0  502  0.12271446017E+04 -0.14477940565E+03  0.27860767316E+03  0.12666756473E+04  0.10100000352E+00 0. -1.
</event>
<event>
 5   0  0.3397882E-06  0.2793890E+04  0.7818609E-02  0.8305168E-01
        1   -1    0    0  501    0  0.00000000000E+00  0.00000000000E+00  0.17330405683E+04  0.17330405683E+04  0.50400001928E-02 0. -1.
       -1   -1    0    0    0  501  0.00000000000E+00  0.00000000000E+00 -0.11260299678E+04  0.11260299678E+04  0.50400001928E-02 0.  1.
    10030    2    1    2    0    0  0.00000000000E+00  0.00000000000E+00  0.60701060052E+03  0.28590705362E+04  0.27938902021E+04 0.  0.
        2    1    3    3  502    0  0.11243282292E+04  0.45101665882E+03  0.10153821071E+04  0.15806741653E+04  0.25500000920E-02 0. -1.
       -2    1    3    3    0  502 -0.11243282292E+04 -0.45101665882E+03 -0.40837150662E+03  0.12783963708E+04  0.25500000920E-02 0.  1.
</event>
<event>
 5   0  0.9342133E-06  0.2797615E+04  0.7818609E-02  0.8304009E-01
        2   -1    0    0  501    0  0.00000000000E+00  0.00000000000E+00  0.14229020872E+04  0.14229020872E+04  0.25500000920E-02 0. -1.
       -2   -1    0    0    0  501  0.00000000000E+00  0.00000000000E+00 -0.13751208107E+04  0.13751208107E+04  0.25500000920E-02 0.  1.
    10030    2    1    2    0    0  0.00000000000E+00  0.00000000000E+00  0.47781276485E+02  0.27980228979E+04  0.27976148925E+04 0.  0.
        2    1    3    3  502    0  0.11203202985E+04  0.10548894350E+03  0.85492504154E+03  0.14132028570E+04  0.25500000920E-02 0. -1.
       -2    1    3    3    0  502 -0.11203202985E+04 -0.10548894350E+03 -0.80714376505E+03  0.13848200409E+04  0.25500000920E-02 0.  1.
</event>
<event>
 5   0  0.9342133E-06  0.2940506E+04  0.7818609E-02  0.8260927E-01
       -2   -1    0    0    0  501  0.00000000000E+00  0.00000000000E+00  0.20316684436E+04  0.20316684436E+04  0.25500000920E-02 0. -1.
        2   -1    0    0  501    0  0.00000000000E+00  0.00000000000E+00 -0.10639747389E+04  0.10639747389E+04  0.25500000920E-02 0.  1.
    10030    2    1    2    0    0  0.00000000000E+00  0.00000000000E+00  0.96769370468E+03  0.30956431825E+04  0.29405060121E+04 0.  0.
        2    1    3    3  502    0 -0.76523306985E+03 -0.71104089607E+03 -0.60538098267E+03  0.12073305021E+04  0.25500000920E-02 0.  1.
       -2    1    3    3    0  502  0.76523306985E+03  0.71104089607E+03  0.15730746873E+04  0.18883126804E+04  0.25500000920E-02 0. -1.
</event>
<event>
 5   0  0.9426937E-06  0.2817664E+04  0.7818609E-02  0.8297805E-01
       -2   -1    0    0    0  501  0.00000000000E+00  0.00000000000E+00  0.73499319967E+03  0.73499319967E+03  0.25500000920E-02 0.  1.
        2   -1    0    0  501    0  0.00000000000E+00  0.00000000000E+00 -0.27004428389E+04  0.27004428389E+04  0.25500000920E-02 0. -1.
    10030    2    1    2    0    0  0.00000000000E+00  0.00000000000E+00 -0.19654496392E+04  0.34354360385E+04  0.28176636582E+04 0.  0.
        4    1    3    3  502    0 -0.11096157246E+04 -0.48843546369E+03 -0.18576920721E+04  0.22182961268E+04  0.12699999809E+01 0.  1.
       -4    1    3    3    0  502  0.11096157246E+04  0.48843546369E+03 -0.10775756706E+03  0.12171399117E+04  0.12699999809E+01 0. -1.
</event>
<event>
 5   0  0.9260173E-06  0.2803809E+04  0.7818609E-02  0.8302087E-01
       -2   -1    0    0    0  501  0.00000000000E+00  0.00000000000E+00  0.74087282227E+03  0.74087282228E+03  0.25500000920E-02 0.  1.
        2   -1    0    0  501    0  0.00000000000E+00  0.00000000000E+00 -0.26527303267E+04  0.26527303267E+04  0.25500000920E-02 0. -1.
    10030    2    1    2    0    0  0.00000000000E+00  0.00000000000E+00 -0.19118575045E+04  0.33936031490E+04  0.28038086981E+04 0.  0.
        1    1    3    3  502    0  0.88795532158E+02 -0.56779297776E+03 -0.25036039643E+04  0.25687168630E+04  0.50400001928E-02 0. -1.
       -1    1    3    3    0  502 -0.88795532158E+02  0.56779297776E+03  0.59174645984E+03  0.82488628603E+03  0.50400001928E-02 0.  1.
</event>
<event>
 5   0  0.3397882E-06  0.2827085E+04  0.7818609E-02  0.8294909E-01
       -1   -1    0    0    0  501  0.00000000000E+00  0.00000000000E+00  0.80473762872E+03  0.80473762874E+03  0.50400001928E-02 0.  1.
        1   -1    0    0  501    0  0.00000000000E+00  0.00000000000E+00 -0.24829242723E+04  0.24829242723E+04  0.50400001928E-02 0. -1.
    10030    2    1    2    0    0  0.00000000000E+00  0.00000000000E+00 -0.16781866436E+04  0.32876619010E+04  0.28270851357E+04 0.  0.
        2    1    3    3  502    0 -0.49390528055E+03 -0.13225731930E+04 -0.75718974790E+03  0.16020232805E+04  0.25500000920E-02 0.  1.
       -2    1    3    3    0  502  0.49390528055E+03  0.13225731930E+04 -0.92099689565E+03  0.16856386205E+04  0.25500000920E-02 0. -1.
</event>
<event>
 5   0  0.9426937E-06  0.2810456E+04  0.7818609E-02  0.8300029E-01
        2   -1    0    0  501    0  0.00000000000E+00  0.00000000000E+00  0.94211390721E+03  0.94211390722E+03  0.25500000920E-02 0. -1.
       -2   -1    0    0    0  501  0.00000000000E+00  0.00000000000E+00 -0.20959949025E+04  0.20959949025E+04  0.25500000920E-02 0.  1.
    10030    2    1    2    0    0  0.00000000000E+00  0.00000000000E+00 -0.11538809953E+04  0.30381088097E+04  0.28104561531E+04 0.  0.
        4    1    3    3  502    0  0.56645158954E+03 -0.24635917561E+03 -0.19413620972E+04  0.20372649930E+04  0.12699999809E+01 0.  1.
       -4    1    3    3    0  502 -0.56645158954E+03  0.24635917561E+03  0.78748110186E+03  0.10008438167E+04  0.12699999809E+01 0. -1.
</event>
<event>
 5   0  0.9065579E-06  0.2819018E+04  0.7818609E-02  0.8297388E-01
        2   -1    0    0  501    0  0.00000000000E+00  0.00000000000E+00  0.24454590628E+04  0.24454590628E+04  0.25500000920E-02 0.  1.
       -2   -1    0    0    0  501  0.00000000000E+00  0.00000000000E+00 -0.81240993641E+03  0.81240993642E+03  0.25500000920E-02 0. -1.
    10030    2    1    2    0    0  0.00000000000E+00  0.00000000000E+00  0.16330491264E+04  0.32578689992E+04  0.28190177308E+04 0.  0.
        3    1    3    3  502    0  0.62898793205E+03 -0.79661578713E+03  0.19467800907E+04  0.21954897547E+04  0.10100000352E+00 0.  1.
       -3    1    3    3    0  502 -0.62898793205E+03  0.79661578713E+03 -0.31373096438E+03  0.10623792445E+04  0.10100000352E+00 0. -1.
</event>
<event>
 5   0  0.3438130E-06  0.2681537E+04  0.7818609E-02  0.8341020E-01
        1   -1    0    0  501    0  0.00000000000E+00  0.00000000000E+00  0.23941567365E+04  0.23941567365E+04  0.50400001928E-02 0. -1.
       -1   -1    0    0    0  501  0.00000000000E+00  0.00000000000E+00 -0.75085330091E+03  0.75085330092E+03  0.50400001928E-02 0.  1.
    10030    2    1    2    0    0  0.00000000000E+00  0.00000000000E+00  0.16433034356E+04  0.31450100374E+04  0.26815372371E+04 0.  0.
        3    1    3    3  502    0 -0.63850321433E+03 -0.72226104208E+03  0.19145415436E+04  0.21435523553E+04  0.10100000352E+00 0. -1.
       -3    1    3    3    0  502  0.63850321433E+03  0.72226104208E+03 -0.27123810801E+03  0.10014576821E+04  0.10100000352E+00 0.  1.
</event>
<event>
 5   0  0.9252359E-06  0.2642768E+04  0.7818609E-02  0.8353817E-01
       -2   -1    0    0    0  501  0.00000000000E+00  0.00000000000E+00  0.15086171734E+04  0.15086171734E+04  0.25500000920E-02 0. -1.
        2   -1    0    0  501    0  0.00000000000E+00  0.00000000000E+00 -0.11573883921E+04  0.11573883921E+04  0.25500000920E-02 0.  1.
    10030    2    1    2    0    0  0.00000000000E+00  0.00000000000E+00  0.35122878131E+03  0.26660055655E+04  0.26427682491E+04 0.  0.
        5    1    3    3  502    0 -0.11835570331E+04  0.37999782407E+03  0.62769350795E+03  0.13925612471E+04  0.46999998093E+01 0. -1.
       -5    1    3    3    0  502  0.11835570331E+04 -0.37999782407E+03 -0.27646472664E+03  0.12734443184E+04  0.46999998093E+01 0.  1.
</event>
<event>
 5   0  0.3357244E-06  0.2828161E+04  0.7818609E-02  0.8294578E-01
        1   -1    0    0  501    0  0.00000000000E+00  0.00000000000E+00  0.23655522678E+04  0.23655522678E+04  0.50400001928E-02 0. -1.
       -1   -1    0    0    0  501  0.00000000000E+00  0.00000000000E+00 -0.84530942042E+03  0.84530942044E+03  0.50400001928E-02 0.  1.
    10030    2    1    2    0    0  0.00000000000E+00  0.00000000000E+00  0.15202428474E+04  0.32108616882E+04  0.28281609689E+04 0.  0.
        4    1    3    3  502    0 -0.52757424242E+03  0.61403989918E+03  0.20764256410E+04  0.22286598292E+04  0.12699999809E+01 0. -1.
       -4    1    3    3    0  502  0.52757424242E+03 -0.61403989918E+03 -0.55618279359E+03  0.98220185901E+03  0.12699999809E+01 0.  1.
</event>
<event>
 5   0  0.9065579E-06  0.2669877E+04  0.7818609E-02  0.8344845E-01
       -2   -1    0    0    0  501  0.00000000000E+00  0.00000000000E+00  0.16733705834E+04  0.16733705834E+04  0.25500000920E-02 0.  1.
        2   -1    0    0  501    0  0.00000000000E+00  0.00000000000E+00 -0.10649531745E+04  0.10649531745E+04  0.25500000920E-02 0. -1.
    10030    2    1    2    0    0  0.00000000000E+00  0.00000000000E+00  0.60841740894E+03  0.27383237579E+04  0.26698773866E+04 0.  0.
        3    1    3    3  502    0  0.81613872912E+03 -0.22000387762E+03  0.13639335511E+04  0.16046179836E+04  0.10100000352E+00 0.  1.
       -3    1    3    3    0  502 -0.81613872912E+03  0.22000387762E+03 -0.75551614218E+03  0.11337057743E+04  0.10100000352E+00 0. -1.
</event>
<event>
 5   0  0.9342133E-06  0.2767899E+04  0.7818609E-02  0.8313304E-01
       -2   -1    0    0    0  501  0.00000000000E+00  0.00000000000E+00  0.14814967470E+04  0.14814967470E+04  0.25500000920E-02 0.  1.
        2   -1    0    0  501    0  0.00000000000E+00  0.00000000000E+00 -0.12928248982E+04  0.12928248982E+04  0.25500000920E-02 0. -1.
    10030    2    1    2    0    0  0.00000000000E+00  0.00000000000E+00  0.18867184880E+03  0.27743216451E+04  0.27678987561E+04 0.  0.
        2    1    3    3  502    0  0.54384782852E+02  0.80275275639E+03 -0.10343081895E+04  0.13104057095E+04  0.25500000920E-02 0. -1.
       -2    1    3    3    0  502 -0.54384782852E+02 -0.80275275639E+03  0.12229800383E+04  0.14639159356E+04  0.25500000920E-02 0.  1.
</event>
<event>
 5   0  0.3600963E-06  0.2807935E+04  0.7818609E-02  0.8300809E-01
        1   -1    0    0  501    0  0.00000000000E+00  0.00000000000E+00  0.15573109431E+04  0.15573109431E+04  0.50400001928E-02 0.  1.
       -1   -1    0    0    0  501  0.00000000000E+00  0.00000000000E+00 -0.12657235952E+04  0.12657235952E+04  0.50400001928E-02 0. -1.
    10030    2    1    2    0    0  0.00000000000E+00  0.00000000000E+00  0.29158734792E+03  0.28230345383E+04  0.28079353309E+04 0.  0.
        5    1    3    3  502    0 -0.10726286735E+04  0.54656628666E+03 -0.58047308345E+03  0.13365021764E+04  0.46999998093E+01 0. -1.
       -5    1    3    3    0  502  0.10726286735E+04 -0.54656628666E+03  0.87206043137E+03  0.14865323619E+04  0.46999998093E+01 0.  1.
</event>
<event>
 5   0  0.9426937E-06  0.2804529E+04  0.7818609E-02  0.8301864E-01
       -2   -1    0    0    0  501  0.00000000000E+00  0.00000000000E+00  0.90032158933E+03  0.90032158933E+03  0.25500000920E-02 0. -1.
        2   -1    0    0  501    0  0.00000000000E+00  0.00000000000E+00 -0.21840482295E+04  0.21840482295E+04  0.25500000920E-02 0.  1.
    10030    2    1    2    0    0  0.00000000000E+00  0.00000000000E+00 -0.12837266402E+04  0.30843698189E+04  0.28045290323E+04 0.  0.
        4    1    3    3  502    0  0.30358332917E+03  0.35665056954E+03 -0.20954826241E+04  0.21471868822E+04  0.12699999809E+01 0.  1.
       -4    1    3    3    0  502 -0.30358332917E+03 -0.35665056954E+03  0.81175598386E+03  0.93718293665E+03  0.12699999809E+01 0. -1.
</event>
<event>
 5   0  0.9252359E-06  0.2815390E+04  0.7818609E-02  0.8298506E-01
        2   -1    0    0  501    0  0.00000000000E+00  0.00000000000E+00  0.23458950394E+04  0.23458950394E+04  0.25500000920E-02 0. -1.
       -2   -1    0    0    0  501  0.00000000000E+00  0.00000000000E+00 -0.84471181020E+03  0.84471181021E+03  0.25500000920E-02 0.  1.
    10030    2    1    2    0    0  0.00000000000E+00  0.00000000000E+00  0.15011832292E+04  0.31906068496E+04  0.28153900229E+04 0.  0.
        5    1    3    3  502    0 -0.29890196317E+03  0.11353389751E+04  0.16307929383E+04  0.20094388942E+04  0.46999998093E+01 0. -1.
       -5    1    3    3    0  502  0.29890196317E+03 -0.11353389751E+04 -0.12960970913E+03  0.11811679554E+04  0.46999998093E+01 0.  1.
</event>
<event>
 5   0  0.3357244E-06  0.2777958E+04  0.7818609E-02  0.8310144E-01
        1   -1    0    0  501    0  0.00000000000E+00  0.00000000000E+00  0.16330972475E+04  0.16330972475E+04  0.50400001928E-02 0.  1.
       -1   -1    0    0    0  501  0.00000000000E+00  0.00000000000E+00 -0.11813520634E+04  0.11813520634E+04  0.50400001928E-02 0. -1.
    10030    2    1    2    0    0  0.00000000000E+00  0.00000000000E+00  0.45174518410E+03  0.28144493109E+04  0.27779581012E+04 0.  0.
        4    1    3    3  502    0 -0.18124209443E+03 -0.93765054974E+02  0.16178272709E+04  0.16306462748E+04  0.12699999809E+01 0.  1.
       -4    1    3    3    0  502  0.18124209443E+03  0.93765054974E+02 -0.11660820868E+04  0.11838030361E+04  0.12699999809E+01 0. -1.
</event>
<event>
 5   0  0.9065579E-06  0.2776676E+04  0.7818609E-02  0.8310546E-01
        2   -1    0    0  501    0  0.00000000000E+00  0.00000000000E+00  0.19564344749E+04  0.19564344749E+04  0.25500000920E-02 0. -1.
       -2   -1    0    0    0  501  0.00000000000E+00  0.00000000000E+00 -0.98520128778E+03  0.98520128778E+03  0.25500000920E-02 0.  1.
    10030    2    1    2    0    0  0.00000000000E+00  0.00000000000E+00  0.97123318712E+03  0.29416357627E+04  0.27766755404E+04 0.  0.
        3    1    3    3  502    0  0.78188709974E+03  0.29209888235E+03  0.16609463239E+04  0.18588738244E+04  0.10100000352E+00 0. -1.
       -3    1    3    3    0  502 -0.78188709974E+03 -0.29209888235E+03 -0.68971313679E+03  0.10827619383E+04  0.10100000352E+00 0.  1.
</event>
<event>
 5   0  0.3006875E-06  0.2783930E+04  0.7818609E-02  0.8308275E-01
       -3   -1    0    0    0  501  0.00000000000E+00  0.00000000000E+00  0.97509198305E+03  0.97509198828E+03  0.10100000352E+00 0.  1.
        3   -1    0    0  501    0  0.00000000000E+00  0.00000000000E+00 -0.19870608407E+04  0.19870608432E+04  0.10100000352E+00 0. -1.
    10030    2    1    2    0    0  0.00000000000E+00  0.00000000000E+00 -0.10119688576E+04  0.29621528315E+04  0.27839303922E+04 0.  0.
        4    1    3    3  502    0 -0.61096562403E+03 -0.93672791126E+03  0.37582120866E+03  0.11798225999E+04  0.12699999809E+01 0. -1.
       -4    1    3    3    0  502  0.61096562403E+03  0.93672791126E+03 -0.13877900663E+04  0.17823302316E+04  0.12699999809E+01 0.  1.
</event>
<event>
 5   0  0.3438130E-06  0.2792617E+04  0.7818609E-02  0.8305564E-01
       -1   -1    0    0    0  501  0.00000000000E+00  0.00000000000E+00  0.13090365370E+04  0.13090365370E+04  0.50400001928E-02 0. -1.
        1   -1    0    0  501    0  0.00000000000E+00  0.00000000000E+00 -0.14893992925E+04  0.14893992925E+04  0.50400001928E-02 0.  1.
    10030    2    1    2    0    0  0.00000000000E+00  0.00000000000E+00 -0.18036275550E+03  0.27984358295E+04  0.27926174762E+04 0.  0.
        3    1    3    3  502    0 -0.83085890254E+02 -0.13332240708E+04 -0.49758518280E+03  0.14254756092E+04  0.10100000352E+00 0.  1.
       -3    1    3    3    0  502  0.83085890254E+02  0.13332240708E+04  0.31722242730E+03  0.13729602203E+04  0.10100000352E+00 0. -1.
</event>
<event>
 5   0  0.3438130E-06  0.2802813E+04  0.7818609E-02  0.8302396E-01
       -1   -1    0    0    0  501  0.00000000000E+00  0.00000000000E+00  0.15961219812E+04  0.15961219812E+04  0.50400001928E-02 0. -1.
        1   -1    0    0  501    0  0.00000000000E+00  0.00000000000E+00 -0.12304449914E+04  0.12304449914E+04  0.50400001928E-02 0.  1.
    10030    2    1    2    0    0  0.00000000000E+00  0.00000000000E+00  0.36567698979E+03  0.28265669726E+04  0.28028130851E+04 0.  0.
        3    1    3    3  502    0 -0.36817997816E+02  0.13721042102E+04  0.46792629973E+03  0.14501657011E+04  0.10100000352E+00 0. -1.
       -3    1    3    3    0  502  0.36817997816E+02 -0.13721042102E+04 -0.10224930993E+03  0.13764012715E+04  0.10100000352E+00 0.  1.
</event>
<event>
 5   0  0.3371603E-06  0.2793250E+04  0.7818609E-02  0.8305367E-01
       -1   -1    0    0    0  501  0.00000000000E+00  0.00000000000E+00  0.14854397093E+04  0.14854397094E+04  0.50400001928E-02 0. -1.
        1   -1    0    0  501    0  0.00000000000E+00  0.00000000000E+00 -0.13131203751E+04  0.13131203752E+04  0.50400001928E-02 0.  1.
    10030    2    1    2    0    0  0.00000000000E+00  0.00000000000E+00  0.17231933420E+03  0.27985600845E+04  0.27932498266E+04 0.  0.
        1    1    3    3  502    0 -0.68428826885E+03 -0.11174240763E+04  0.57047719666E+03  0.14291015475E+04  0.50400001928E-02 0. -1.
       -1    1    3    3    0  502  0.68428826885E+03  0.11174240763E+04 -0.39815786247E+03  0.13694585370E+04  0.50400001928E-02 0.  1.
</event>
<event>
 5   0  0.9065579E-06  0.2793779E+04  0.7818609E-02  0.8305202E-01
       -2   -1    0    0    0  501  0.00000000000E+00  0.00000000000E+00  0.69191693788E+03  0.69191693788E+03  0.25500000920E-02 0.  1.
        2   -1    0    0  501    0  0.00000000000E+00  0.00000000000E+00 -0.28201368752E+04  0.28201368752E+04  0.25500000920E-02 0. -1.
    10030    2    1    2    0    0  0.00000000000E+00  0.00000000000E+00 -0.21282199374E+04  0.35120538131E+04  0.27937791403E+04 0.  0.
        3    1    3    3  502    0  0.40970348201E+03  0.12320062032E+04 -0.17119780552E+04  0.21486193473E+04  0.10100000352E+00 0. -1.
       -3    1    3    3    0  502 -0.40970348201E+03 -0.12320062032E+04 -0.41624188220E+03  0.13634344658E+04  0.10100000352E+00 0.  1.
</event>
<event>
 5   0  0.9065579E-06  0.2813204E+04  0.7818609E-02  0.8299181E-01
       -2   -1    0    0    0  501  0.00000000000E+00  0.00000000000E+00  0.95497467087E+03  0.95497467087E+03  0.25500000920E-02 0. -1.
        2   -1    0    0  501    0  0.00000000000E+00  0.00000000000E+00 -0.20718135870E+04  0.20718135870E+04  0.25500000920E-02 0.  1.
    10030    2    1    2    0    0  0.00000000000E+00  0.00000000000E+00 -0.11168389161E+04  0.30267882579E+04  0.28132042218E+04 0.  0.
        3    1    3    3  502    0 -0.10782065436E+04  0.97702352550E+02  0.40778866556E+03  0.11568779998E+04  0.10100000352E+00 0. -1.
       -3    1    3    3    0  502  0.10782065436E+04 -0.97702352550E+02 -0.15246275817E+04  0.18699102581E+04  0.10100000352E+00 0.  1.
</event>
<event>
 5   0  0.9252359E-06  0.2806162E+04  0.7818609E-02  0.8301358E-01
       -2   -1    0    0    0  501  0.00000000000E+00  0.00000000000E+00  0.91725924856E+03  0.91725924857E+03  0.25500000920E-02 0.  1.
        2   -1    0    0  501    0  0.00000000000E+00  0.00000000000E+00 -0.21462158176E+04  0.21462158176E+04  0.25500000920E-02 0. -1.
    10030    2    1    2    0    0  0.00000000000E+00  0.00000000000E+00 -0.12289565690E+04  0.30634750662E+04  0.28061620111E+04 0.  0.
        5    1    3    3  502    0  0.10118204914E+03 -0.12420592237E+04 -0.13183175512E+04  0.18140926597E+04  0.46999998093E+01 0. -1.
       -5    1    3    3    0  502 -0.10118204914E+03  0.12420592237E+04  0.89360982156E+02  0.12493824064E+04  0.46999998093E+01 0.  1.
</event>
<event>
 5   0  0.3357244E-06  0.2745979E+04  0.7818609E-02  0.8320239E-01
        1   -1    0    0  501    0  0.00000000000E+00  0.00000000000E+00  0.18351788861E+04  0.18351788861E+04  0.50400001928E-02 0.  1.
       -1   -1    0    0    0  501  0.00000000000E+00  0.00000000000E+00 -0.10272020998E+04  0.10272020998E+04  0.50400001928E-02 0. -1.
    10030    2    1    2    0    0  0.00000000000E+00  0.00000000000E+00  0.80797678624E+03  0.28623809859E+04  0.27459785909E+04 0.  0.
        4    1    3    3  502    0  0.11021632139E+03  0.11406046442E+04  0.11923354459E+04  0.16537206597E+04  0.12699999809E+01 0.  1.
       -4    1    3    3    0  502 -0.11021632139E+03 -0.11406046442E+04 -0.38435865969E+03  0.12086603262E+04  0.12699999809E+01 0. -1.
</event>
<event>
 5   0  0.3371603E-06  0.2786939E+04  0.7818609E-02  0.8307335E-01
       -1   -1    0    0    0  501  0.00000000000E+00  0.00000000000E+00  0.15046842163E+04  0.15046842163E+04  0.50400001928E-02 0. -1.
        1   -1    0    0  501    0  0.00000000000E+00  0.00000000000E+00 -0.12904748776E+04  0.12904748776E+04  0.50400001928E-02 0.  1.
    10030    2    1    2    0    0  0.00000000000E+00  0.00000000000E+00  0.21420933877E+03  0.27951590939E+04  0.27869389515E+04 0.  0.
        1    1    3    3  502    0 -0.27837038482E+03 -0.17344916112E+03  0.14654192071E+04  0.15016751097E+04  0.50400001928E-02 0. -1.
       -1    1    3    3    0  502  0.27837038482E+03  0.17344916112E+03 -0.12512098683E+04  0.12934839842E+04  0.50400001928E-02 0.  1.
</event>
<event>
 5   0  0.9342133E-06  0.2816935E+04  0.7818609E-02  0.8298030E-01
       -2   -1    0    0    0  501  0.00000000000E+00  0.00000000000E+00  0.24309378180E+04  0.24309378180E+04  0.25500000920E-02 0. -1.
        2   -1    0    0  501    0  0.00000000000E+00  0.00000000000E+00 -0.81605551850E+03  0.81605551851E+03  0.25500000920E-02 0.  1.
    10030    2    1    2    0    0  0.00000000000E+00  0.00000000000E+00  0.16148822995E+04  0.32469933365E+04  0.28169346613E+04 0.  0.
        2    1    3    3  502    0 -0.10202781715E+04  0.54965436855E+03  0.17300753060E+04  0.20823659708E+04  0.25500000920E-02 0. -1.
       -2    1    3    3    0  502  0.10202781715E+04 -0.54965436855E+03 -0.11519300643E+03  0.11646273657E+04  0.25500000920E-02 0.  1.
</event>
<event>
 5   0  0.9065579E-06  0.2798979E+04  0.7818609E-02  0.8303585E-01
       -2   -1    0    0    0  501  0.00000000000E+00  0.00000000000E+00  0.90049881789E+03  0.90049881790E+03  0.25500000920E-02 0.  1.
        2   -1    0    0  501    0  0.00000000000E+00  0.00000000000E+00 -0.21749849624E+04  0.21749849624E+04  0.25500000920E-02 0. -1.
    10030    2    1    2    0    0  0.00000000000E+00  0.00000000000E+00 -0.12744861446E+04  0.30754837803E+04  0.27989793766E+04 0.  0.
        3    1    3    3  502    0 -0.71381447773E+03  0.45861204485E+03 -0.18601671241E+04  0.20445238702E+04  0.10100000352E+00 0. -1.
       -3    1    3    3    0  502  0.71381447773E+03 -0.45861204485E+03  0.58568097951E+03  0.10309599101E+04  0.10100000352E+00 0.  1.
</event>
<event>
 5   0  0.3371603E-06  0.2807350E+04  0.7818609E-02  0.8300990E-01
       -1   -1    0    0    0  501  0.00000000000E+00  0.00000000000E+00  0.10031216882E+04  0.10031216882E+04  0.50400001928E-02 0. -1.
        1   -1    0    0  501    0  0.00000000000E+00  0.00000000000E+00 -0.19641714012E+04  0.19641714012E+04  0.50400001928E-02 0.  1.
    10030    2    1    2    0    0  0.00000000000E+00  0.00000000000E+00 -0.96104971295E+03  0.29672930894E+04  0.28073495913E+04 0.  0.
        1    1    3    3  502    0 -0.29594956990E+03 -0.14244422320E+03  0.96193425208E+03  0.10164615143E+04  0.50400001928E-02 0. -1.
       -1    1    3    3    0  502  0.29594956990E+03  0.14244422320E+03 -0.19229839650E+04  0.19508315751E+04  0.50400001928E-02 0.  1.
</event>
<event>
 5   0  0.9252359E-06  0.2786367E+04  0.7818609E-02  0.8307513E-01
       -2   -1    0    0    0  501  0.00000000000E+00  0.00000000000E+00  0.12022742636E+04  0.12022742636E+04  0.25500000920E-02 0.  1.
        2   -1    0    0  501    0  0.00000000000E+00  0.00000000000E+00 -0.16144068952E+04  0.16144068952E+04  0.25500000920E-02 0. -1.
    10030    2    1    2    0    0  0.00000000000E+00  0.00000000000E+00 -0.41213263165E+03  0.28166811588E+04  0.27863667103E+04 0.  0.
        5    1    3    3  502    0  0.10321717702E+04  0.54222670256E+03  0.56482424140E+03  0.12955450104E+04  0.46999998093E+01 0.  1.
       -5    1    3    3    0  502 -0.10321717702E+04 -0.54222670256E+03 -0.97695687306E+03  0.15211361484E+04  0.46999998093E+01 0. -1.
</event>
<event>
 5   0  0.3371603E-06  0.2866764E+04  0.7818609E-02  0.8282835E-01
        1   -1    0    0  501    0  0.00000000000E+00  0.00000000000E+00  0.11234998494E+04  0.11234998494E+04  0.50400001928E-02 0. -1.
       -1   -1    0    0    0  501  0.00000000000E+00  0.00000000000E+00 -0.18287357920E+04  0.18287357920E+04  0.50400001928E-02 0.  1.
    10030    2    1    2    0    0  0.00000000000E+00  0.00000000000E+00 -0.70523594264E+03  0.29522356415E+04  0.28667642993E+04 0.  0.
        1    1    3    3  502    0  0.34454717271E+03 -0.13875336117E+04 -0.45875438557E+03  0.15014718992E+04  0.50400001928E-02 0. -1.
       -1    1    3    3    0  502 -0.34454717271E+03  0.13875336117E+04 -0.24648155707E+03  0.14507637422E+04  0.50400001928E-02 0.  1.
</event>
<event>
 5   0  0.3600963E-06  0.2819950E+04  0.7818609E-02  0.8297101E-01
       -1   -1    0    0    0  501  0.00000000000E+00  0.00000000000E+00  0.15834575801E+04  0.15834575801E+04  0.50400001928E-02 0. -1.
        1   -1    0    0  501    0  0.00000000000E+00  0.00000000000E+00 -0.12554991408E+04  0.12554991408E+04  0.50400001928E-02 0.  1.
    10030    2    1    2    0    0  0.00000000000E+00  0.00000000000E+00  0.32795843926E+03  0.28389567209E+04  0.28199500927E+04 0.  0.
        5    1    3    3  502    0  0.13230464444E+04 -0.24510953141E+03  0.58809882256E+03  0.14684729795E+04  0.46999998093E+01 0. -1.
       -5    1    3    3    0  502 -0.13230464444E+04  0.24510953141E+03 -0.26014038329E+03  0.13704837414E+04  0.46999998093E+01 0.  1.
</event>
<event>
 5   0  0.9342133E-06  0.2773338E+04  0.7818609E-02  0.8311594E-01
        2   -1    0    0  501    0  0.00000000000E+00  0.00000000000E+00  0.15177702590E+04  0.15177702590E+04  0.25500000920E-02 0. -1.
       -2   -1    0    0    0  501  0.00000000000E+00  0.00000000000E+00 -0.12668922120E+04  0.12668922121E+04  0.25500000920E-02 0.  1.
    10030    2    1    2    0    0  0.00000000000E+00  0.00000000000E+00  0.25087804699E+03  0.27846624711E+04  0.27733382923E+04 0.  0.
        2    1    3    3  502    0 -0.37746974070E+03 -0.19248550421E+03 -0.12002996550E+04  0.12728917222E+04  0.25500000920E-02 0.  1.
       -2    1    3    3    0  502  0.37746974070E+03  0.19248550421E+03  0.14511777020E+04  0.15117707489E+04  0.25500000920E-02 0. -1.
</event>
<event>
 5   0  0.3371603E-06  0.2825964E+04  0.7818609E-02  0.8295253E-01
       -1   -1    0    0    0  501  0.00000000000E+00  0.00000000000E+00  0.17580883503E+04  0.17580883504E+04  0.50400001928E-02 0.  1.
        1   -1    0    0  501    0  0.00000000000E+00  0.00000000000E+00 -0.11356185276E+04  0.11356185276E+04  0.50400001928E-02 0. -1.
    10030    2    1    2    0    0  0.00000000000E+00  0.00000000000E+00  0.62246982277E+03  0.28937068779E+04  0.28259636967E+04 0.  0.
        1    1    3    3  502    0 -0.36232147608E+03  0.43822469197E+03 -0.10132953417E+04  0.11619316599E+04  0.50400001928E-02 0. -1.
       -1    1    3    3    0  502  0.36232147608E+03 -0.43822469197E+03  0.16357651645E+04  0.17317752181E+04  0.50400001928E-02 0.  1.
</event>
<event>
 5   0  0.3397882E-06  0.2774149E+04  0.7818609E-02  0.8311339E-01
        1   -1    0    0  501    0  0.00000000000E+00  0.00000000000E+00  0.18818154754E+04  0.18818154754E+04  0.50400001928E-02 0.  1.
       -1   -1    0    0    0  501  0.00000000000E+00  0.00000000000E+00 -0.10224042551E+04  0.10224042551E+04  0.50400001928E-02 0. -1.
    10030    2    1    2    0    0  0.00000000000E+00  0.00000000000E+00  0.85941122035E+03  0.29042197305E+04  0.27741493466E+04 0.  0.
        2    1    3    3  502    0  0.45035284730E+03  0.69075114705E+03  0.15973579253E+04  0.17976393342E+04  0.25500000920E-02 0.  1.
       -2    1    3    3    0  502 -0.45035284730E+03 -0.69075114705E+03 -0.73794670494E+03  0.11065803963E+04  0.25500000920E-02 0. -1.
</event>
<event>
 5   0  0.9252359E-06  0.2812533E+04  0.7818609E-02  0.8299388E-01
        2   -1    0    0  501    0  0.00000000000E+00  0.00000000000E+00  0.12130150446E+04  0.12130150446E+04  0.25500000920E-02 0. -1.
       -2   -1    0    0    0  501  0.00000000000E+00  0.00000000000E+00 -0.16303057385E+04  0.16303057385E+04  0.25500000920E-02 0.  1.
    10030    2    1    2    0    0  0.00000000000E+00  0.00000000000E+00 -0.41729069386E+03  0.28433207832E+04  0.28125329425E+04 0.  0.
        5    1    3    3  502    0 -0.62339217808E+03 -0.35944333713E+03 -0.14300705730E+04  0.16009188780E+04  0.46999998093E+01 0.  1.
       -5    1    3    3    0  502  0.62339217808E+03  0.35944333713E+03  0.10127798791E+04  0.12424019051E+04  0.46999998093E+01 0. -1.
</event>
<event>
 5   0  0.9426937E-06  0.2804875E+04  0.7818609E-02  0.8301757E-01
        2   -1    0    0  501    0  0.00000000000E+00  0.00000000000E+00  0.23544291957E+04  0.23544291957E+04  0.25500000920E-02 0.  1.
       -2   -1    0    0    0  501  0.00000000000E+00  0.00000000000E+00 -0.83537465548E+03  0.83537465549E+03  0.25500000920E-02 0. -1.
    10030    2    1    2    0    0  0.00000000000E+00  0.00000000000E+00  0.15190545402E+04  0.31898038512E+04  0.28048746697E+04 0.  0.
        4    1    3    3  502    0 -0.11417227843E+04 -0.11065134416E+03 -0.15808476245E+03  0.11579149542E+04  0.12699999809E+01 0. -1.
       -4    1    3    3    0  502  0.11417227843E+04  0.11065134416E+03  0.16771393027E+04  0.20318888970E+04  0.12699999809E+01 0.  1.
</event>
<event>
 5   0  0.3397882E-06  0.2823891E+04  0.7818609E-02  0.8295889E-01
       -1   -1    0    0    0  501  0.00000000000E+00  0.00000000000E+00  0.10456504182E+04  0.10456504182E+04  0.50400001928E-02 0. -1.
        1   -1    0    0  501    0  0.00000000000E+00  0.00000000000E+00 -0.19065545511E+04  0.19065545511E+04  0.50400001928E-02 0.  1.
    10030    2    1    2    0    0  0.00000000000E+00  0.00000000000E+00 -0.86090413291E+03  0.29522049692E+04  0.28238906236E+04 0.  0.
        2    1    3    3  502    0 -0.44657730656E+03 -0.57276968935E+03  0.83538969290E+03  0.11069653774E+04  0.25500000920E-02 0. -1.
       -2    1    3    3    0  502  0.44657730656E+03  0.57276968935E+03 -0.16962938258E+04  0.18452395918E+04  0.25500000920E-02 0.  1.
</event>
<event>
 5   0  0.3438130E-06  0.2795810E+04  0.7818609E-02  0.8304570E-01
        1   -1    0    0  501    0  0.00000000000E+00  0.00000000000E+00  0.87350176123E+03  0.87350176124E+03  0.50400001928E-02 0. -1.
       -1   -1    0    0    0  501  0.00000000000E+00  0.00000000000E+00 -0.22371314910E+04  0.22371314910E+04  0.50400001928E-02 0.  1.
    10030    2    1    2    0    0  0.00000000000E+00  0.00000000000E+00 -0.13636297298E+04  0.31106332522E+04  0.27958099345E+04 0.  0.
        3    1    3    3  502    0  0.88096962872E+03  0.97701842742E+03 -0.15586215990E+03  0.13247511152E+04  0.10100000352E+00 0. -1.
       -3    1    3    3    0  502 -0.88096962872E+03 -0.97701842742E+03 -0.12077675699E+04  0.17858821370E+04  0.10100000352E+00 0.  1.
</event>
<event>
 5   0  0.3397882E-06  0.2795507E+04  0.7818609E-02  0.8304665E-01
       -1   -1    0    0    0  501  0.00000000000E+00  0.00000000000E+00  0.10615086797E+04  0.10615086797E+04  0.50400001928E-02 0.  1.
        1   -1    0    0  501    0  0.00000000000E+00  0.00000000000E+00 -0.18405080534E+04  0.18405080534E+04  0.50400001928E-02 0. -1.
    10030    2    1    2    0    0  0.00000000000E+00  0.00000000000E+00 -0.77899937369E+03  0.29020167331E+04  0.27955073055E+04 0.  0.
        2    1    3    3  502    0  0.10548027164E+03 -0.11608097300E+04  0.41132580479E+03  0.12360397383E+04  0.25500000920E-02 0. -1.
       -2    1    3    3    0  502 -0.10548027164E+03  0.11608097300E+04 -0.11903251785E+04  0.16659769949E+04  0.25500000920E-02 0.  1.
</event>
<event>
 5   0  0.9065579E-06  0.2861912E+04  0.7818609E-02  0.8284301E-01
        2   -1    0    0  501    0  0.00000000000E+00  0.00000000000E+00  0.26818609324E+04  0.26818609324E+04  0.25500000920E-02 0.  1.
       -2   -1    0    0    0  501  0.00000000000E+00  0.00000000000E+00 -0.76351264351E+03  0.76351264352E+03  0.25500000920E-02 0. -1.
    10030    2    1    2    0    0  0.00000000000E+00  0.00000000000E+00  0.19183482889E+04  0.34453735759E+04  0.28619117597E+04 0.  0.
        3    1    3    3  502    0 -0.12456119672E+04  0.70308208702E+03  0.90865275739E+03  0.16945570034E+04  0.10100000352E+00 0. -1.
       -3    1    3    3    0  502  0.12456119672E+04 -0.70308208702E+03  0.10096955315E+04  0.17508165725E+04  0.10100000352E+00 0.  1.
</event>
<event>
 5   0  0.3006875E-06  0.2825995E+04  0.7818609E-02  0.8295243E-01
        3   -1    0    0  501    0  0.00000000000E+00  0.00000000000E+00  0.83989497348E+03  0.83989497955E+03  0.10100000352E+00 0.  1.
       -3   -1    0    0    0  501  0.00000000000E+00  0.00000000000E+00 -0.23771569777E+04  0.23771569799E+04  0.10100000352E+00 0. -1.
    10030    2    1    2    0    0  0.00000000000E+00  0.00000000000E+00 -0.15372620042E+04  0.32170519594E+04  0.28259951946E+04 0.  0.
        1    1    3    3  502    0  0.51824394752E+02  0.98535806940E+03  0.38273391740E+03  0.10583484985E+04  0.50400001928E-02 0.  1.
       -1    1    3    3    0  502 -0.51824394752E+02 -0.98535806940E+03 -0.19199959216E+04  0.21587034609E+04  0.50400001928E-02 0. -1.
</event>
<event>
 5   0  0.3357244E-06  0.2808097E+04  0.7818609E-02  0.8300759E-01
       -1   -1    0    0    0  501  0.00000000000E+00  0.00000000000E+00  0.87176571626E+03  0.87176571628E+03  0.50400001928E-02 0. -1.
        1   -1    0    0  501    0  0.00000000000E+00  0.00000000000E+00 -0.22613323488E+04  0.22613323488E+04  0.50400001928E-02 0.  1.
    10030    2    1    2    0    0  0.00000000000E+00  0.00000000000E+00 -0.13895666325E+04  0.31330980651E+04  0.28080968750E+04 0.  0.
        4    1    3    3  502    0  0.43967218491E+03 -0.12699388849E+04 -0.11484014917E+04  0.17677341430E+04  0.12699999809E+01 0.  1.
       -4    1    3    3    0  502 -0.43967218491E+03  0.12699388849E+04 -0.24116514087E+03  0.13653639220E+04  0.12699999809E+01 0. -1.
</event>
<event>
 5   0  0.3438130E-06  0.2815497E+04  0.7818609E-02  0.8298473E-01
        1   -1    0    0  501    0  0.00000000000E+00  0.00000000000E+00  0.25028229472E+04  0.25028229472E+04  0.50400001928E-02 0. -1.
       -1   -1    0    0    0  501  0.00000000000E+00  0.00000000000E+00 -0.79180798623E+03  0.79180798624E+03  0.50400001928E-02 0.  1.
    10030    2    1    2    0    0  0.00000000000E+00  0.00000000000E+00  0.17110149609E+04  0.32946309334E+04  0.28154965443E+04 0.  0.
        3    1    3    3  502    0  0.86200848036E+03 -0.10666427143E+04  0.48367467020E+03  0.14542099219E+04  0.10100000352E+00 0.  1.
       -3    1    3    3    0  502 -0.86200848036E+03  0.10666427143E+04  0.12273402907E+04  0.18404210115E+04  0.10100000352E+00 0. -1.
</event>
<event>
 5   0  0.9260173E-06  0.2819307E+04  0.7818609E-02  0.8297299E-01
       -2   -1    0    0    0  501  0.00000000000E+00  0.00000000000E+00  0.16718022609E+04  0.16718022609E+04  0.25500000920E-02 0. -1.
        2   -1    0    0  501    0  0.00000000000E+00  0.00000000000E+00 -0.11886111600E+04  0.11886111600E+04  0.25500000920E-02 0.  1.
    10030    2    1    2    0    0  0.00000000000E+00  0.00000000000E+00  0.48319110093E+03  0.28604134208E+04  0.28193068826E+04 0.  0.
        1    1    3    3  502    0 -0.60555815133E+02 -0.12426765372E+04 -0.43079713667E+03  0.13166237715E+04  0.50400001928E-02 0.  1.
       -1    1    3    3    0  502  0.60555815133E+02  0.12426765372E+04  0.91398823760E+03  0.15437896493E+04  0.50400001928E-02 0. -1.
</event>
<event>
 5   0  0.3371603E-06  0.2811599E+04  0.7818609E-02  0.8299676E-01
       -1   -1    0    0    0  501  0.00000000000E+00  0.00000000000E+00  0.16341054770E+04  0.16341054771E+04  0.50400001928E-02 0. -1.
        1   -1    0    0  501    0  0.00000000000E+00  0.00000000000E+00 -0.12093910122E+04  0.12093910122E+04  0.50400001928E-02 0.  1.
    10030    2    1    2    0    0  0.00000000000E+00  0.00000000000E+00  0.42471446482E+03  0.28434964893E+04  0.28115991727E+04 0.  0.
        1    1    3    3  502    0 -0.27273809535E+03 -0.85759972867E+03 -0.87989952872E+03  0.12586049992E+04  0.50400001928E-02 0.  1.
       -1    1    3    3    0  502  0.27273809535E+03  0.85759972867E+03  0.13046139935E+04  0.15848914901E+04  0.50400001928E-02 0. -1.
</event>
<event>
 5   0  0.9065579E-06  0.2810649E+04  0.7818609E-02  0.8299970E-01
       -2   -1    0    0    0  501  0.00000000000E+00  0.00000000000E+00  0.15479145927E+04  0.15479145927E+04  0.25500000920E-02 0.  1.
        2   -1    0    0  501    0  0.00000000000E+00  0.00000000000E+00 -0.12758694652E+04  0.12758694652E+04  0.25500000920E-02 0. -1.
    10030    2    1    2    0    0  0.00000000000E+00  0.00000000000E+00  0.27204512750E+03  0.28237840578E+04  0.28106490094E+04 0.  0.
        3    1    3    3  502    0  0.28846381993E+03 -0.11931631255E+04 -0.55134385677E+03  0.13456707168E+04  0.10100000352E+00 0. -1.
       -3    1    3    3    0  502 -0.28846381993E+03  0.11931631255E+04  0.82338898427E+03  0.14781133411E+04  0.10100000352E+00 0.  1.
</event>
<event>
 5   0  0.9065579E-06  0.2811432E+04  0.7818609E-02  0.8299728E-01
       -2   -1    0    0    0  501  0.00000000000E+00  0.00000000000E+00  0.26336281936E+04  0.26336281936E+04  0.25500000920E-02 0. -1.
        2   -1    0    0  501    0  0.00000000000E+00  0.00000000000E+00 -0.75030984954E+03  0.75030984955E+03  0.25500000920E-02 0.  1.
    10030    2    1    2    0    0  0.00000000000E+00  0.00000000000E+00  0.18833183440E+04  0.33839380431E+04  0.28114317873E+04 0.  0.
        3    1    3    3  502    0 -0.65708510876E+03  0.10368512138E+04  0.17661412215E+04  0.21508314913E+04  0.10100000352E+00 0. -1.
       -3    1    3    3    0  502  0.65708510876E+03 -0.10368512138E+04  0.11717712257E+03  0.12331065518E+04  0.10100000352E+00 0.  1.
</event>
<event>
 5   0  0.9426937E-06  0.2872978E+04  0.7818609E-02  0.8280963E-01
        2   -1    0    0  501    0  0.00000000000E+00  0.00000000000E+00  0.16312752399E+04  0.16312752399E+04  0.25500000920E-02 0.  1.
       -2   -1    0    0    0  501  0.00000000000E+00  0.00000000000E+00 -0.12649618621E+04  0.12649618621E+04  0.25500000920E-02 0. -1.
    10030    2    1    2    0    0  0.00000000000E+00  0.00000000000E+00  0.36631337780E+03  0.28962371020E+04  0.28729782214E+04 0.  0.
        4    1    3    3  502    0 -0.13472104444E+04 -0.49707522149E+03  0.14490752842E+03  0.14432808327E+04  0.12699999809E+01 0.  1.
       -4    1    3    3    0  502  0.13472104444E+04  0.49707522149E+03  0.22140584939E+03  0.14529562693E+04  0.12699999809E+01 0. -1.
</event>
<event>
 5   0  0.3600963E-06  0.2881219E+04  0.7818609E-02  0.8278487E-01
       -1   -1    0    0    0  501  0.00000000000E+00  0.00000000000E+00  0.16257384390E+04  0.16257384390E+04  0.50400001928E-02 0. -1.
        1   -1    0    0  501    0  0.00000000000E+00  0.00000000000E+00 -0.12765617835E+04  0.12765617836E+04  0.50400001928E-02 0.  1.
    10030    2    1    2    0    0  0.00000000000E+00  0.00000000000E+00  0.34917665541E+03  0.29023002225E+04  0.28812188818E+04 0.  0.
        5    1    3    3  502    0  0.31420114057E+03 -0.80330107802E+02  0.15884816128E+04  0.16212560584E+04  0.46999998093E+01 0. -1.
       -5    1    3    3    0  502 -0.31420114057E+03  0.80330107802E+02 -0.12393049574E+04  0.12810441641E+04  0.46999998093E+01 0.  1.
</event>
<event>
 5   0  0.9426937E-06  0.2823607E+04  0.7818609E-02  0.8295977E-01
       -2   -1    0    0    0  501  0.00000000000E+00  0.00000000000E+00  0.16193554757E+04  0.16193554757E+04  0.25500000920E-02 0. -1.
        2   -1    0    0  501    0  0.00000000000E+00  0.00000000000E+00 -0.12308529296E+04  0.12308529296E+04  0.25500000920E-02 0.  1.
    10030    2    1    2    0    0  0.00000000000E+00  0.00000000000E+00  0.38850254608E+03  0.28502084053E+04  0.28236065103E+04 0.  0.
        4    1    3    3  502    0  0.12952950054E+04  0.44870369807E+03 -0.14666221723E+03  0.13786354045E+04  0.12699999809E+01 0.  1.
       -4    1    3    3    0  502 -0.12952950054E+04 -0.44870369807E+03  0.53516476330E+03  0.14715730007E+04  0.12699999809E+01 0. -1.
</event>
<event>
 5   0  0.3600963E-06  0.2769473E+04  0.7818609E-02  0.8312809E-01
       -1   -1    0    0    0  501  0.00000000000E+00  0.00000000000E+00  0.16196345921E+04  0.16196345921E+04  0.50400001928E-02 0.  1.
        1   -1    0    0  501    0  0.00000000000E+00  0.00000000000E+00 -0.11839061186E+04  0.11839061186E+04  0.50400001928E-02 0. -1.
    10030    2    1    2    0    0  0.00000000000E+00  0.00000000000E+00  0.43572847347E+03  0.28035407108E+04  0.27694730933E+04 0.  0.
        5    1    3    3  502    0 -0.87927769884E+03 -0.40921841189E+03  0.12183968904E+04  0.15572739171E+04  0.46999998093E+01 0.  1.
       -5    1    3    3    0  502  0.87927769884E+03  0.40921841189E+03 -0.78266841689E+03  0.12462667937E+04  0.46999998093E+01 0. -1.
</event>
<event>
 5   0  0.9260173E-06  0.2704287E+04  0.7818609E-02  0.8333615E-01
       -2   -1    0    0    0  501  0.00000000000E+00  0.00000000000E+00  0.18125852582E+04  0.18125852582E+04  0.25500000920E-02 0.  1.
        2   -1    0    0  501    0  0.00000000000E+00  0.00000000000E+00 -0.10086650670E+04  0.10086650670E+04  0.25500000920E-02 0. -1.
    10030    2    1    2    0    0  0.00000000000E+00  0.00000000000E+00  0.80392019124E+03  0.28212503252E+04  0.27042865462E+04 0.  0.
        1    1    3    3  502    0 -0.60583751495E+03 -0.12008599177E+04  0.54647127474E+03  0.14518038747E+04  0.50400001928E-02 0. -1.
       -1    1    3    3    0  502  0.60583751495E+03  0.12008599177E+04  0.25744891650E+03  0.13694464506E+04  0.50400001928E-02 0.  1.
</event>
<event>
 5   0  0.3397882E-06  0.2790324E+04  0.7818609E-02  0.8306279E-01
       -1   -1    0    0    0  501  0.00000000000E+00  0.00000000000E+00  0.12570127687E+04  0.12570127687E+04  0.50400001928E-02 0. -1.
        1   -1    0    0  501    0  0.00000000000E+00  0.00000000000E+00 -0.15484938984E+04  0.15484938984E+04  0.50400001928E-02 0.  1.
    10030    2    1    2    0    0  0.00000000000E+00  0.00000000000E+00 -0.29148112965E+03  0.28055066671E+04  0.27903237106E+04 0.  0.
        2    1    3    3  502    0  0.20298505597E+02 -0.98276741836E+03 -0.11411948610E+04  0.15061771272E+04  0.25500000920E-02 0.  1.
       -2    1    3    3    0  502 -0.20298505597E+02  0.98276741836E+03  0.84971373131E+03  0.12993295398E+04  0.25500000920E-02 0. -1.
</event>
<event>
 5   0  0.3006875E-06  0.2705113E+04  0.7818609E-02  0.8333348E-01
        4   -1    0    0  501    0  0.00000000000E+00  0.00000000000E+00  0.12911927606E+04  0.12911933851E+04  0.12699999809E+01 0.  1.
       -4   -1    0    0    0  501  0.00000000000E+00  0.00000000000E+00 -0.14168352692E+04  0.14168358383E+04  0.12699999809E+01 0. -1.
    10030    2    1    2    0    0  0.00000000000E+00  0.00000000000E+00 -0.12564250858E+03  0.27080292235E+04  0.27051129801E+04 0.  0.
        2    1    3    3  502    0 -0.70417228029E+02  0.13413963098E+04  0.95799594861E+02  0.13466551929E+04  0.25500000920E-02 0. -1.
       -2    1    3    3    0  502  0.70417228029E+02 -0.13413963098E+04 -0.22144210344E+03  0.13613740306E+04  0.25500000920E-02 0.  1.
</event>
<event>
 5   0  0.3438130E-06  0.2789476E+04  0.7818609E-02  0.8306543E-01
        1   -1    0    0  501    0  0.00000000000E+00  0.00000000000E+00  0.10692008621E+04  0.10692008621E+04  0.50400001928E-02 0.  1.
       -1   -1    0    0    0  501  0.00000000000E+00  0.00000000000E+00 -0.18193902553E+04  0.18193902553E+04  0.50400001928E-02 0. -1.
    10030    2    1    2    0    0  0.00000000000E+00  0.00000000000E+00 -0.75018939319E+03  0.28885911174E+04  0.27894756708E+04 0.  0.
        3    1    3    3  502    0  0.19284757838E+03  0.67448245575E+03 -0.16234054983E+04  0.17684915023E+04  0.10100000352E+00 0. -1.
       -3    1    3    3    0  502 -0.19284757838E+03 -0.67448245575E+03  0.87321610506E+03  0.11200996152E+04  0.10100000352E+00 0.  1.
</event>
<event>
 5   0  0.3438130E-06  0.2810066E+04  0.7818609E-02  0.8300150E-01
        1   -1    0    0  501    0  0.00000000000E+00  0.00000000000E+00  0.21900066856E+04  0.21900066856E+04  0.50400001928E-02 0.  1.
       -1   -1    0    0    0  501  0.00000000000E+00  0.00000000000E+00 -0.90142085811E+03  0.90142085813E+03  0.50400001928E-02 0. -1.
    10030    2    1    2    0    0  0.00000000000E+00  0.00000000000E+00  0.12885858274E+04  0.30914275437E+04  0.28100659820E+04 0.  0.
        3    1    3    3  502    0 -0.11668025708E+04  0.76704559261E+03  0.47269254848E+03  0.14741863640E+04  0.10100000352E+00 0.  1.
       -3    1    3    3    0  502  0.11668025708E+04 -0.76704559261E+03  0.81589327897E+03  0.16172411797E+04  0.10100000352E+00 0. -1.
</event>
<event>
 5   0  0.3438130E-06  0.2749120E+04  0.7818609E-02  0.8319241E-01
       -1   -1    0    0    0  501  0.00000000000E+00  0.00000000000E+00  0.17470879586E+04  0.17470879586E+04  0.50400001928E-02 0. -1.
        1   -1    0    0  501    0  0.00000000000E+00  0.00000000000E+00 -0.10814657155E+04  0.10814657155E+04  0.50400001928E-02 0.  1.
    10030    2    1    2    0    0  0.00000000000E+00  0.00000000000E+00  0.66562224307E+03  0.28285536741E+04  0.27491203897E+04 0.  0.
        3    1    3    3  502    0  0.11035443960E+03  0.62464390068E+03  0.15874957081E+04  0.17095323157E+04  0.10100000352E+00 0. -1.
       -3    1    3    3    0  502 -0.11035443960E+03 -0.62464390068E+03 -0.92187346499E+03  0.11190213584E+04  0.10100000352E+00 0.  1.
</event>
<event>
 5   0  0.3357244E-06  0.2895299E+04  0.7818609E-02  0.8274278E-01
        1   -1    0    0  501    0  0.00000000000E+00  0.00000000000E+00  0.19591961272E+04  0.19591961272E+04  0.50400001928E-02 0. -1.
       -1   -1    0    0    0  501  0.00000000000E+00  0.00000000000E+00 -0.10696677028E+04  0.10696677028E+04  0.50400001928E-02 0.  1.
    10030    2    1    2    0    0  0.00000000000E+00  0.00000000000E+00  0.88952842445E+03  0.30288638300E+04  0.28952988244E+04 0.  0.
        4    1    3    3  502    0  0.12609109206E+04 -0.64247300134E+03  0.12570382364E+03  0.14207290281E+04  0.12699999809E+01 0. -1.
       -4    1    3    3    0  502 -0.12609109206E+04  0.64247300134E+03  0.76382460080E+03  0.16081348019E+04  0.12699999809E+01 0.  1.
</event>
<event>
 5   0  0.3600963E-06  0.2794191E+04  0.7818609E-02  0.8305074E-01
        1   -1    0    0  501    0  0.00000000000E+00  0.00000000000E+00  0.10252272276E+04  0.10252272276E+04  0.50400001928E-02 0.  1.
       -1   -1    0    0    0  501  0.00000000000E+00  0.00000000000E+00 -0.19038467366E+04  0.19038467366E+04  0.50400001928E-02 0. -1.
    10030    2    1    2    0    0  0.00000000000E+00  0.00000000000E+00 -0.87861950902E+03  0.29290739643E+04  0.27941907677E+04 0.  0.
        5    1    3    3  502    0 -0.67724742268E+02 -0.13022608751E+04 -0.96489428966E+03  0.16221939180E+04  0.46999998093E+01 0. -1.
       -5    1    3    3    0  502  0.67724742268E+02  0.13022608751E+04  0.86274780646E+02  0.13068800462E+04  0.46999998093E+01 0.  1.
</event>
<event>
 5   0  0.3006875E-06  0.2647522E+04  0.7818609E-02  0.8352236E-01
        4   -1    0    0  501    0  0.00000000000E+00  0.00000000000E+00  0.11711915280E+04  0.11711922166E+04  0.12699999809E+01 0. -1.
       -4   -1    0    0    0  501  0.00000000000E+00  0.00000000000E+00 -0.14962045379E+04  0.14962050769E+04  0.12699999809E+01 0.  1.
    10030    2    1    2    0    0  0.00000000000E+00  0.00000000000E+00 -0.32501300989E+03  0.26673972935E+04  0.26475224012E+04 0.  0.
        4    1    3    3  502    0  0.11012111050E+04  0.72858532452E+03 -0.67781395721E+02  0.13221567242E+04  0.12699999809E+01 0.  1.
       -4    1    3    3    0  502 -0.11012111050E+04 -0.72858532452E+03 -0.25723161417E+03  0.13452405693E+04  0.12699999809E+01 0. -1.
</event>
<event>
 5   0  0.3006875E-06  0.2785878E+04  0.7818609E-02  0.8307666E-01
        3   -1    0    0  501    0  0.00000000000E+00  0.00000000000E+00  0.15427507535E+04  0.15427507568E+04  0.10100000352E+00 0.  1.
       -3   -1    0    0    0  501  0.00000000000E+00  0.00000000000E+00 -0.12576746244E+04  0.12576746285E+04  0.10100000352E+00 0. -1.
    10030    2    1    2    0    0  0.00000000000E+00  0.00000000000E+00  0.28507612906E+03  0.28004253853E+04  0.27858775887E+04 0.  0.
        1    1    3    3  502    0 -0.72793537559E+01 -0.87114056053E+03  0.12351082897E+04  0.15114335422E+04  0.50400001928E-02 0.  1.
       -1    1    3    3    0  502  0.72793537559E+01  0.87114056053E+03 -0.95003216065E+03  0.12889918431E+04  0.50400001928E-02 0. -1.
</event>
<event>
 5   0  0.9260173E-06  0.2791836E+04  0.7818609E-02  0.8305808E-01
        2   -1    0    0  501    0  0.00000000000E+00  0.00000000000E+00  0.77439062814E+03  0.77439062814E+03  0.25500000920E-02 0.  1.
       -2   -1    0    0    0  501  0.00000000000E+00  0.00000000000E+00 -0.25162839782E+04  0.25162839782E+04  0.25500000920E-02 0. -1.
    10030    2    1    2    0    0  0.00000000000E+00  0.00000000000E+00 -0.17418933501E+04  0.32906746064E+04  0.27918357620E+04 0.  0.
        1    1    3    3  502    0  0.10480512231E+04  0.32947848805E+02  0.21515850887E+03  0.10704158589E+04  0.50400001928E-02 0.  1.
       -1    1    3    3    0  502 -0.10480512231E+04 -0.32947848805E+02 -0.19570518589E+04  0.22202587475E+04  0.50400001928E-02 0. -1.
</event>
<event>
 5   0  0.3371603E-06  0.2754405E+04  0.7818609E-02  0.8317565E-01
       -1   -1    0    0    0  501  0.00000000000E+00  0.00000000000E+00  0.17486814964E+04  0.17486814964E+04  0.50400001928E-02 0.  1.
        1   -1    0    0  501    0  0.00000000000E+00  0.00000000000E+00 -0.10846383600E+04  0.10846383601E+04  0.50400001928E-02 0. -1.
    10030    2    1    2    0    0  0.00000000000E+00  0.00000000000E+00  0.66404313636E+03  0.28333198565E+04  0.27544052211E+04 0.  0.
        1    1    3    3  502    0 -0.57737132066E+03 -0.12478145850E+04  0.41359133499E+03  0.14357773758E+04  0.50400001928E-02 0.  1.
       -1    1    3    3    0  502  0.57737132066E+03  0.12478145850E+04  0.25045180137E+03  0.13975424807E+04  0.50400001928E-02 0. -1.
</event>
<event>
 5   0  0.9260173E-06  0.2816573E+04  0.7818609E-02  0.8298142E-01
       -2   -1    0    0    0  501  0.00000000000E+00  0.00000000000E+00  0.71090310598E+03  0.71090310599E+03  0.25500000920E-02 0. -1.
        2   -1    0    0  501    0  0.00000000000E+00  0.00000000000E+00 -0.27897897976E+04  0.27897897976E+04  0.25500000920E-02 0.  1.
    10030    2    1    2    0    0  0.00000000000E+00  0.00000000000E+00 -0.20788866916E+04  0.35006929036E+04  0.28165725499E+04 0.  0.
        1    1    3    3  502    0  0.35470438896E+03  0.26752927589E+03  0.62151823647E+03  0.76398431613E+03  0.50400001928E-02 0. -1.
       -1    1    3    3    0  502 -0.35470438896E+03 -0.26752927589E+03 -0.27004049281E+04  0.27367085875E+04  0.50400001928E-02 0.  1.
</event>
<event>
 5   0  0.9065579E-06  0.2801068E+04  0.7818609E-02  0.8302937E-01
        2   -1    0    0  501    0  0.00000000000E+00  0.00000000000E+00  0.21092605823E+04  0.21092605823E+04  0.25500000920E-02 0. -1.
       -2   -1    0    0    0  501  0.00000000000E+00  0.00000000000E+00 -0.92994466345E+03  0.92994466346E+03  0.25500000920E-02 0.  1.
    10030    2    1    2    0    0  0.00000000000E+00  0.00000000000E+00  0.11793159188E+04  0.30392052457E+04  0.28010680980E+04 0.  0.
        3    1    3    3  502    0 -0.74289161509E+03 -0.71093020054E+03 -0.44207007271E+03  0.11192567450E+04  0.10100000352E+00 0.  1.
       -3    1    3    3    0  502  0.74289161509E+03  0.71093020054E+03  0.16213859915E+04  0.19199485008E+04  0.10100000352E+00 0. -1.
</event>
<event>
 5   0  0.3438130E-06  0.2646607E+04  0.7818609E-02  0.8352540E-01
        1   -1    0    0  501    0  0.00000000000E+00  0.00000000000E+00  0.12487828669E+04  0.12487828669E+04  0.50400001928E-02 0. -1.
       -1   -1    0    0    0  501  0.00000000000E+00  0.00000000000E+00 -0.14022707884E+04  0.14022707884E+04  0.50400001928E-02 0.  1.
    10030    2    1    2    0    0  0.00000000000E+00  0.00000000000E+00 -0.15348792144E+03  0.26510536553E+04  0.26466066843E+04 0.  0.
        3    1    3    3  502    0  0.11350401922E+04  0.58423399498E+03  0.27239028890E+03  0.13053130194E+04  0.10100000352E+00 0.  1.
       -3    1    3    3    0  502 -0.11350401922E+04 -0.58423399498E+03 -0.42587821034E+03  0.13457406359E+04  0.10100000352E+00 0. -1.
</event>
<event>
 5   0  0.3600963E-06  0.2810968E+04  0.7818609E-02  0.8299871E-01
        1   -1    0    0  501    0  0.00000000000E+00  0.00000000000E+00  0.21628891106E+04  0.21628891107E+04  0.50400001928E-02 0.  1.
       -1   -1    0    0    0  501  0.00000000000E+00  0.00000000000E+00 -0.91330866208E+03  0.91330866210E+03  0.50400001928E-02 0. -1.
    10030    2    1    2    0    0  0.00000000000E+00  0.00000000000E+00  0.12495804486E+04  0.30761977727E+04  0.28109680609E+04 0.  0.
        5    1    3    3  502    0 -0.29527437232E+03 -0.13261525682E+04  0.23098090975E+03  0.13781298414E+04  0.46999998093E+01 0. -1.
       -5    1    3    3    0  502  0.29527437232E+03  0.13261525682E+04  0.10185995388E+04  0.16980679314E+04  0.46999998093E+01 0.  1.
</event>
<event>
 5   0  0.3357244E-06  0.2804425E+04  0.7818609E-02  0.8301896E-01
       -1   -1    0    0    0  501  0.00000000000E+00  0.00000000000E+00  0.14910795690E+04  0.14910795690E+04  0.50400001928E-02 0.  1.
        1   -1    0    0  501    0  0.00000000000E+00  0.00000000000E+00 -0.13186414071E+04  0.13186414071E+04  0.50400001928E-02 0. -1.
    10030    2    1    2    0    0  0.00000000000E+00  0.00000000000E+00  0.17243816189E+03  0.28097209761E+04  0.28044245478E+04 0.  0.
        4    1    3    3  502    0 -0.23406436179E+02 -0.56013653500E+03  0.13739078153E+04  0.14838885056E+04  0.12699999809E+01 0.  1.
       -4    1    3    3    0  502  0.23406436179E+02  0.56013653500E+03 -0.12014696534E+04  0.13258324706E+04  0.12699999809E+01 0. -1.
</event>
<event>
 5   0  0.9252359E-06  0.2807661E+04  0.7818609E-02  0.8300894E-01
       -2   -1    0    0    0  501  0.00000000000E+00  0.00000000000E+00  0.10805697885E+04  0.10805697885E+04  0.25500000920E-02 0.  1.
        2   -1    0    0  501    0  0.00000000000E+00  0.00000000000E+00 -0.18237967195E+04  0.18237967195E+04  0.25500000920E-02 0. -1.
    10030    2    1    2    0    0  0.00000000000E+00  0.00000000000E+00 -0.74322693103E+03  0.29043665080E+04  0.28076606885E+04 0.  0.
        5    1    3    3  502    0 -0.13164275847E+04 -0.48752702109E+03 -0.36405683808E+03  0.14502495142E+04  0.46999998093E+01 0.  1.
       -5    1    3    3    0  502  0.13164275847E+04  0.48752702109E+03 -0.37917009295E+03  0.14541169938E+04  0.46999998093E+01 0. -1.
</event>
<event>
 5   0  0.9342133E-06  0.2672454E+04  0.7818609E-02  0.8343998E-01
       -2   -1    0    0    0  501  0.00000000000E+00  0.00000000000E+00  0.83538688600E+03  0.83538688601E+03  0.25500000920E-02 0. -1.
        2   -1    0    0  501    0  0.00000000000E+00  0.00000000000E+00 -0.21373358927E+04  0.21373358927E+04  0.25500000920E-02 0.  1.
    10030    2    1    2    0    0  0.00000000000E+00  0.00000000000E+00 -0.13019490067E+04  0.29727227787E+04  0.26724538355E+04 0.  0.
        2    1    3    3  502    0  0.11977307056E+04 -0.16534669119E+03 -0.12837521698E+04  0.17634959611E+04  0.25500000920E-02 0.  1.
       -2    1    3    3    0  502 -0.11977307056E+04  0.16534669119E+03 -0.18196836815E+02  0.12092268175E+04  0.25500000920E-02 0. -1.
</event>
<event>
 5   0  0.9065579E-06  0.2749537E+04  0.7818609E-02  0.8319109E-01
       -2   -1    0    0    0  501  0.00000000000E+00  0.00000000000E+00  0.10803947137E+04  0.10803947137E+04  0.25500000920E-02 0. -1.
        2   -1    0    0  501    0  0.00000000000E+00  0.00000000000E+00 -0.17493500662E+04  0.17493500662E+04  0.25500000920E-02 0.  1.
    10030    2    1    2    0    0  0.00000000000E+00  0.00000000000E+00 -0.66895535249E+03  0.28297447799E+04  0.27495370985E+04 0.  0.
        3    1    3    3  502    0 -0.69401751993E+03  0.10372997501E+04  0.25882640335E+03  0.12746145326E+04  0.10100000352E+00 0. -1.
       -3    1    3    3    0  502  0.69401751993E+03 -0.10372997501E+04 -0.92778175583E+03  0.15551302473E+04  0.10100000352E+00 0.  1.
</event>
<event>
 5   0  0.9342133E-06  0.2713151E+04  0.7818609E-02  0.8330751E-01
        2   -1    0    0  501    0  0.00000000000E+00  0.00000000000E+00  0.99518404509E+03  0.99518404509E+03  0.25500000920E-02 0.  1.
       -2   -1    0    0    0  501  0.00000000000E+00  0.00000000000E+00 -0.18492023328E+04  0.18492023328E+04  0.25500000920E-02 0. -1.
    10030    2    1    2    0    0  0.00000000000E+00  0.00000000000E+00 -0.85401828771E+03  0.28443863779E+04  0.27131506834E+04 0.  0.
        2    1    3    3  502    0  0.40403731502E+03 -0.23397149955E+03  0.90829842176E+03  0.10212711871E+04  0.25500000920E-02 0.  1.
       -2    1    3    3    0  502 -0.40403731502E+03  0.23397149955E+03 -0.17623167095E+04  0.18231151908E+04  0.25500000920E-02 0. -1.
</event>
<event>
 5   0  0.9065579E-06  0.2825659E+04  0.7818609E-02  0.8295346E-01
       -2   -1    0    0    0  501  0.00000000000E+00  0.00000000000E+00  0.10678329074E+04  0.10678329074E+04  0.25500000920E-02 0. -1.
        2   -1    0    0  501    0  0.00000000000E+00  0.00000000000E+00 -0.18692884964E+04  0.18692884964E+04  0.25500000920E-02 0.  1.
    10030    2    1    2    0    0  0.00000000000E+00  0.00000000000E+00 -0.80145558905E+03  0.29371214038E+04  0.28256594061E+04 0.  0.
        3    1    3    3  502    0  0.87580359084E+02  0.14089831870E+04 -0.45937890968E+03  0.14845648970E+04  0.10100000352E+00 0.  1.
       -3    1    3    3    0  502 -0.87580359084E+02 -0.14089831870E+04 -0.34207667937E+03  0.14525565068E+04  0.10100000352E+00 0. -1.
</event>
<event>
 5   0  0.9252359E-06  0.2801366E+04  0.7818609E-02  0.8302844E-01
       -2   -1    0    0    0  501  0.00000000000E+00  0.00000000000E+00  0.96601275918E+03  0.96601275919E+03  0.25500000920E-02 0. -1.
        2   -1    0    0  501    0  0.00000000000E+00  0.00000000000E+00 -0.20309393351E+04  0.20309393351E+04  0.25500000920E-02 0.  1.
    10030    2    1    2    0    0  0.00000000000E+00  0.00000000000E+00 -0.10649265759E+04  0.29969520943E+04  0.28013663172E+04 0.  0.
        5    1    3    3  502    0  0.14248334996E+03 -0.39514801732E+03 -0.19619610253E+04  0.20064288214E+04  0.46999998093E+01 0.  1.
       -5    1    3    3    0  502 -0.14248334996E+03  0.39514801732E+03  0.89703444942E+03  0.99052327284E+03  0.46999998093E+01 0. -1.
</event>
<event>
 5   0  0.9426937E-06  0.2797043E+04  0.7818609E-02  0.8304187E-01
       -2   -1    0    0    0  501  0.00000000000E+00  0.00000000000E+00  0.11970149526E+04  0.11970149526E+04  0.25500000920E-02 0.  1.
        2   -1    0    0  501    0  0.00000000000E+00  0.00000000000E+00 -0.16339500317E+04  0.16339500317E+04  0.25500000920E-02 0. -1.
    10030    2    1    2    0    0  0.00000000000E+00  0.00000000000E+00 -0.43693507902E+03  0.28309649843E+04  0.27970431672E+04 0.  0.
        4    1    3    3  502    0 -0.78028986765E+03  0.86202061750E+03  0.56808608603E+03  0.12940847100E+04  0.12699999809E+01 0.  1.
       -4    1    3    3    0  502  0.78028986765E+03 -0.86202061750E+03 -0.10050211650E+04  0.15368802743E+04  0.12699999809E+01 0. -1.
</event>
<event>
 5   0  0.9426937E-06  0.2784339E+04  0.7818609E-02  0.8308147E-01
       -2   -1    0    0    0  501  0.00000000000E+00  0.00000000000E+00  0.93659015222E+03  0.93659015222E+03  0.25500000920E-02 0. -1.
        2   -1    0    0  501    0  0.00000000000E+00  0.00000000000E+00 -0.20693529180E+04  0.20693529180E+04  0.25500000920E-02 0.  1.
    10030    2    1    2    0    0  0.00000000000E+00  0.00000000000E+00 -0.11327627658E+04  0.30059430702E+04  0.27843387469E+04 0.  0.
        4    1    3    3  502    0  0.67149255431E+03 -0.59977971421E+02 -0.18813703805E+04  0.19985133797E+04  0.12699999809E+01 0.  1.
       -4    1    3    3    0  502 -0.67149255431E+03  0.59977971421E+02  0.74860761471E+03  0.10074296905E+04  0.12699999809E+01 0. -1.
</event>
<event>
 5   0  0.3371603E-06  0.2963133E+04  0.7818609E-02  0.8254338E-01
       -1   -1    0    0    0  501  0.00000000000E+00  0.00000000000E+00  0.13513281447E+04  0.13513281447E+04  0.50400001928E-02 0.  1.
        1   -1    0    0  501    0  0.00000000000E+00  0.00000000000E+00 -0.16243566094E+04  0.16243566094E+04  0.50400001928E-02 0. -1.
    10030    2    1    2    0    0  0.00000000000E+00  0.00000000000E+00 -0.27302846468E+03  0.29756847541E+04  0.29631326689E+04 0.  0.
        1    1    3    3  502    0  0.25530070336E+03 -0.88484783511E+03 -0.13019926923E+04  0.15947787029E+04  0.50400001928E-02 0. -1.
       -1    1    3    3    0  502 -0.25530070336E+03  0.88484783511E+03  0.10289642276E+04  0.13809060512E+04  0.50400001928E-02 0.  1.
</event>
<event>
 5   0  0.9342133E-06  0.2530610E+04  0.7818609E-02  0.8392161E-01
       -2   -1    0    0    0  501  0.00000000000E+00  0.00000000000E+00  0.10044897657E+04  0.10044897657E+04  0.25500000920E-02 0. -1.
        2   -1    0    0  501    0  0.00000000000E+00  0.00000000000E+00 -0.15938412689E+04  0.15938412689E+04  0.25500000920E-02 0.  1.
    10030    2    1    2    0    0  0.00000000000E+00  0.00000000000E+00 -0.58935150321E+03  0.25983310345E+04  0.25306103949E+04 0.  0.
        2    1    3    3  502    0  0.46301098185E+03 -0.72082589110E+02 -0.15014677010E+04  0.15728891652E+04  0.25500000920E-02 0.  1.
       -2    1    3    3    0  502 -0.46301098185E+03  0.72082589110E+02  0.91211619780E+03  0.10254418693E+04  0.25500000920E-02 0. -1.
</event>
<event>
 5   0  0.3600963E-06  0.2822270E+04  0.7818609E-02  0.8296388E-01
       -1   -1    0    0    0  501  0.00000000000E+00  0.00000000000E+00  0.13100467465E+04  0.13100467465E+04  0.50400001928E-02 0. -1.
        1   -1    0    0  501    0  0.00000000000E+00  0.00000000000E+00 -0.15200234133E+04  0.15200234133E+04  0.50400001928E-02 0.  1.
    10030    2    1    2    0    0  0.00000000000E+00  0.00000000000E+00 -0.20997666682E+03  0.28300701598E+04  0.28222698150E+04 0.  0.
        5    1    3    3  502    0  0.41062386409E+03 -0.67248496222E+03  0.10689015560E+04  0.13279384808E+04  0.46999998093E+01 0. -1.
       -5    1    3    3    0  502 -0.41062386409E+03  0.67248496222E+03 -0.12788782229E+04  0.15021316790E+04  0.46999998093E+01 0.  1.
</event>
<event>
 5   0  0.3371603E-06  0.2796464E+04  0.7818609E-02  0.8304367E-01
        1   -1    0    0  501    0  0.00000000000E+00  0.00000000000E+00  0.69994497124E+03  0.69994497126E+03  0.50400001928E-02 0.  1.
       -1   -1    0    0    0  501  0.00000000000E+00  0.00000000000E+00 -0.27931528019E+04  0.27931528019E+04  0.50400001928E-02 0. -1.
    10030    2    1    2    0    0  0.00000000000E+00  0.00000000000E+00 -0.20932078307E+04  0.34930977732E+04  0.27964643803E+04 0.  0.
        1    1    3    3  502    0 -0.28562313514E+03 -0.76596307701E+03  0.37033935029E+03  0.89745821355E+03  0.50400001928E-02 0.  1.
       -1    1    3    3    0  502  0.28562313514E+03  0.76596307701E+03 -0.24635471810E+04  0.25956395596E+04  0.50400001928E-02 0. -1.
</event>
<event>
 5   0  0.3600963E-06  0.2837429E+04  0.7818609E-02  0.8291741E-01
        1   -1    0    0  501    0  0.00000000000E+00  0.00000000000E+00  0.15480426632E+04  0.15480426632E+04  0.50400001928E-02 0.  1.
       -1   -1    0    0    0  501  0.00000000000E+00  0.00000000000E+00 -0.13001908370E+04  0.13001908370E+04  0.50400001928E-02 0. -1.
    10030    2    1    2    0    0  0.00000000000E+00  0.00000000000E+00  0.24785182617E+03  0.28482335002E+04  0.28374290376E+04 0.  0.
        5    1    3    3  502    0 -0.12232584053E+04  0.40972038142E+03 -0.46865823234E+03  0.13725503800E+04  0.46999998093E+01 0. -1.
       -5    1    3    3    0  502  0.12232584053E+04 -0.40972038142E+03  0.71651005852E+03  0.14756831201E+04  0.46999998093E+01 0.  1.
</event>
<event>
 5   0  0.9260173E-06  0.2784423E+04  0.7818609E-02  0.8308121E-01
       -2   -1    0    0    0  501  0.00000000000E+00  0.00000000000E+00  0.83242881665E+03  0.83242881666E+03  0.25500000920E-02 0. -1.
        2   -1    0    0  501    0  0.00000000000E+00  0.00000000000E+00 -0.23284311933E+04  0.23284311933E+04  0.25500000920E-02 0.  1.
    10030    2    1    2    0    0  0.00000000000E+00  0.00000000000E+00 -0.14960023767E+04  0.31608600100E+04  0.27844232602E+04 0.  0.
        1    1    3    3  502    0  0.51178870642E+03 -0.12807946317E+04 -0.96306171102E+03  0.16822159278E+04  0.50400001928E-02 0.  1.
       -1    1    3    3    0  502 -0.51178870642E+03  0.12807946317E+04 -0.53294066564E+03  0.14786440822E+04  0.50400001928E-02 0. -1.
</event>
<event>
 5   0  0.9065579E-06  0.2807672E+04  0.7818609E-02  0.8300890E-01
       -2   -1    0    0    0  501  0.00000000000E+00  0.00000000000E+00  0.89578130358E+03  0.89578130359E+03  0.25500000920E-02 0.  1.
        2   -1    0    0  501    0  0.00000000000E+00  0.00000000000E+00 -0.22000414330E+04  0.22000414330E+04  0.25500000920E-02 0. -1.
    10030    2    1    2    0    0  0.00000000000E+00  0.00000000000E+00 -0.13042601294E+04  0.30958227366E+04  0.28076723333E+04 0.  0.
        3    1    3    3  502    0  0.81822983019E+03  0.76186263347E+03  0.28401564698E+03  0.11535162007E+04  0.10100000352E+00 0.  1.
       -3    1    3    3    0  502 -0.81822983019E+03 -0.76186263347E+03 -0.15882757764E+04  0.19423065359E+04  0.10100000352E+00 0. -1.
</event>
<event>
 5   0  0.9252359E-06  0.2785812E+04  0.7818609E-02  0.8307687E-01
        2   -1    0    0  501    0  0.00000000000E+00  0.00000000000E+00  0.19994287531E+04  0.19994287531E+04  0.25500000920E-02 0. -1.
       -2   -1    0    0    0  501  0.00000000000E+00  0.00000000000E+00 -0.97037042843E+03  0.97037042843E+03  0.25500000920E-02 0.  1.
    10030    2    1    2    0    0  0.00000000000E+00  0.00000000000E+00  0.10290583247E+04  0.29697991815E+04  0.27858115771E+04 0.  0.
        5    1    3    3  502    0 -0.53160005801E+03 -0.99118135406E+03 -0.36139710715E+03  0.11813843817E+04  0.46999998093E+01 0.  1.
       -5    1    3    3    0  502  0.53160005801E+03  0.99118135406E+03  0.13904554318E+04  0.17884147998E+04  0.46999998093E+01 0. -1.
</event>
<event>
 5   0  0.3600963E-06  0.2832900E+04  0.7818609E-02  0.8293127E-01
        1   -1    0    0  501    0  0.00000000000E+00  0.00000000000E+00  0.16170382548E+04  0.16170382548E+04  0.50400001928E-02 0. -1.
       -1   -1    0    0    0  501  0.00000000000E+00  0.00000000000E+00 -0.12407437460E+04  0.12407437460E+04  0.50400001928E-02 0.  1.
    10030    2    1    2    0    0  0.00000000000E+00  0.00000000000E+00  0.37629450878E+03  0.28577820008E+04  0.28328996465E+04 0.  0.
        5    1    3    3  502    0  0.12971581058E+04 -0.54388892517E+03  0.19726659584E+02  0.14067144506E+04  0.46999998093E+01 0. -1.
       -5    1    3    3    0  502 -0.12971581058E+04  0.54388892517E+03  0.35656784919E+03  0.14510675503E+04  0.46999998093E+01 0.  1.
</event>
<event>
 5   0  0.9065579E-06  0.2806191E+04  0.7818609E-02  0.8301349E-01
        2   -1    0    0  501    0  0.00000000000E+00  0.00000000000E+00  0.18608650404E+04  0.18608650404E+04  0.25500000920E-02 0.  1.
       -2   -1    0    0    0  501  0.00000000000E+00  0.00000000000E+00 -0.10579367955E+04  0.10579367955E+04  0.25500000920E-02 0. -1.
    10030    2    1    2    0    0  0.00000000000E+00  0.00000000000E+00  0.80292824488E+03  0.29188018359E+04  0.28061914387E+04 0.  0.
        3    1    3    3  502    0  0.36224464826E+03 -0.12580462762E+04  0.92647287854E+03  0.16038246859E+04  0.10100000352E+00 0. -1.
       -3    1    3    3    0  502 -0.36224464826E+03  0.12580462762E+04 -0.12354463366E+03  0.13149771500E+04  0.10100000352E+00 0.  1.
</event>
<event>
 5   0  0.9260173E-06  0.2790401E+04  0.7818609E-02  0.8306255E-01
        2   -1    0    0  501    0  0.00000000000E+00  0.00000000000E+00  0.27567069937E+04  0.27567069937E+04  0.25500000920E-02 0. -1.
       -2   -1    0    0    0  501  0.00000000000E+00  0.00000000000E+00 -0.70612667892E+03  0.70612667892E+03  0.25500000920E-02 0.  1.
    10030    2    1    2    0    0  0.00000000000E+00  0.00000000000E+00  0.20505803148E+04  0.34628336726E+04  0.27904009420E+04 0.  0.
        1    1    3    3  502    0 -0.13598445362E+04 -0.22209013746E+03  0.75316948627E+03  0.15702756022E+04  0.50400001928E-02 0. -1.
       -1    1    3    3    0  502  0.13598445362E+04  0.22209013746E+03  0.12974108285E+04  0.18925580704E+04  0.50400001928E-02 0.  1.
</event>
<event>
 5   0  0.3006875E-06  0.2773185E+04  0.7818609E-02  0.8311642E-01
       -4   -1    0    0    0  501  0.00000000000E+00  0.00000000000E+00  0.17881454614E+04  0.17881459124E+04  0.12699999809E+01 0.  1.
        4   -1    0    0  501    0  0.00000000000E+00  0.00000000000E+00 -0.10752125662E+04  0.10752133162E+04  0.12699999809E+01 0. -1.
    10030    2    1    2    0    0  0.00000000000E+00  0.00000000000E+00  0.71293289523E+03  0.28633592286E+04  0.27731845880E+04 0.  0.
        4    1    3    3  502    0 -0.11897791299E+04  0.63428831561E+03  0.22306460213E+02  0.13484788601E+04  0.12699999809E+01 0.  1.
       -4    1    3    3    0  502  0.11897791299E+04 -0.63428831561E+03  0.69062643501E+03  0.15148803685E+04  0.12699999809E+01 0. -1.
</event>
<event>
 5   0  0.3600963E-06  0.2723984E+04  0.7818609E-02  0.8327265E-01
        1   -1    0    0  501    0  0.00000000000E+00  0.00000000000E+00  0.16708148292E+04  0.16708148292E+04  0.50400001928E-02 0.  1.
       -1   -1    0    0    0  501  0.00000000000E+00  0.00000000000E+00 -0.11102499293E+04  0.11102499294E+04  0.50400001928E-02 0. -1.
    10030    2    1    2    0    0  0.00000000000E+00  0.00000000000E+00  0.56056489986E+03  0.27810647586E+04  0.27239838811E+04 0.  0.
        5    1    3    3  502    0 -0.25201088411E+03  0.87923430787E+03  0.13106063164E+04  0.15982094545E+04  0.46999998093E+01 0.  1.
       -5    1    3    3    0  502  0.25201088411E+03 -0.87923430787E+03 -0.75004141654E+03  0.11828553041E+04  0.46999998093E+01 0. -1.
</event>
<event>
 5   0  0.9065579E-06  0.2755845E+04  0.7818609E-02  0.8317109E-01
       -2   -1    0    0    0  501  0.00000000000E+00  0.00000000000E+00  0.99011093756E+03  0.99011093756E+03  0.25500000920E-02 0.  1.
        2   -1    0    0  501    0  0.00000000000E+00  0.00000000000E+00 -0.19176335718E+04  0.19176335718E+04  0.25500000920E-02 0. -1.
    10030    2    1    2    0    0  0.00000000000E+00  0.00000000000E+00 -0.92752263420E+03  0.29077445093E+04  0.27558446790E+04 0.  0.
        3    1    3    3  502    0  0.16922173001E+03 -0.10348914800E+04  0.47939575808E+03  0.11530206730E+04  0.10100000352E+00 0.  1.
       -3    1    3    3    0  502 -0.16922173001E+03  0.10348914800E+04 -0.14069183923E+04  0.17547238364E+04  0.10100000352E+00 0. -1.
</event>
<event>
 5   0  0.9260173E-06  0.2815470E+04  0.7818609E-02  0.8298481E-01
        2   -1    0    0  501    0  0.00000000000E+00  0.00000000000E+00  0.18262520291E+04  0.18262520291E+04  0.25500000920E-02 0.  1.
       -2   -1    0    0    0  501  0.00000000000E+00  0.00000000000E+00 -0.10851286123E+04  0.10851286123E+04  0.25500000920E-02 0. -1.
    10030    2    1    2    0    0  0.00000000000E+00  0.00000000000E+00  0.74112341675E+03  0.29113806414E+04  0.28154703550E+04 0.  0.
        1    1    3    3  502    0  0.13160439328E+04  0.17859184892E+03  0.85320742508E+03  0.15785530057E+04  0.50400001928E-02 0.  1.
       -1    1    3    3    0  502 -0.13160439328E+04 -0.17859184892E+03 -0.11208400833E+03  0.13328276357E+04  0.50400001928E-02 0. -1.
</event>
<event>
 5   0  0.9426937E-06  0.2803292E+04  0.7818609E-02  0.8302247E-01
        2   -1    0    0  501    0  0.00000000000E+00  0.00000000000E+00  0.17880385860E+04  0.17880385860E+04  0.25500000920E-02 0. -1.
       -2   -1    0    0    0  501  0.00000000000E+00  0.00000000000E+00 -0.10987524469E+04  0.10987524469E+04  0.25500000920E-02 0.  1.
    10030    2    1    2    0    0  0.00000000000E+00  0.00000000000E+00  0.68928613913E+03  0.28867910329E+04  0.28032921871E+04 0.  0.
        4    1    3    3  502    0  0.97673427085E+02 -0.12970259885E+04 -0.19321056265E+03  0.13149708923E+04  0.12699999809E+01 0.  1.
       -4    1    3    3    0  502 -0.97673427085E+02  0.12970259885E+04  0.88249670178E+03  0.15718201407E+04  0.12699999809E+01 0. -1.
</event>
<event>
 5   0  0.9260173E-06  0.2797672E+04  0.7818609E-02  0.8303991E-01
       -2   -1    0    0    0  501  0.00000000000E+00  0.00000000000E+00  0.81100401945E+03  0.81100401946E+03  0.25500000920E-02 0.  1.
        2   -1    0    0  501    0  0.00000000000E+00  0.00000000000E+00 -0.24127408766E+04  0.24127408766E+04  0.25500000920E-02 0. -1.
    10030    2    1    2    0    0  0.00000000000E+00  0.00000000000E+00 -0.16017368571E+04  0.32237448960E+04  0.27976722816E+04 0.  0.
        1    1    3    3  502    0 -0.17823159411E+03  0.29892733249E+02 -0.23992323543E+04  0.24060290868E+04  0.50400001928E-02 0. -1.
       -1    1    3    3    0  502  0.17823159411E+03 -0.29892733249E+02  0.79749549717E+03  0.81771580923E+03  0.50400001928E-02 0.  1.
</event>
<event>
 5   0  0.9065579E-06  0.2729777E+04  0.7818609E-02  0.8325407E-01
        2   -1    0    0  501    0  0.00000000000E+00  0.00000000000E+00  0.19672803595E+04  0.19672803595E+04  0.25500000920E-02 0.  1.
       -2   -1    0    0    0  501  0.00000000000E+00  0.00000000000E+00 -0.94695249827E+03  0.94695249828E+03  0.25500000920E-02 0. -1.
    10030    2    1    2    0    0  0.00000000000E+00  0.00000000000E+00  0.10203278613E+04  0.29142328578E+04  0.27297773179E+04 0.  0.
        3    1    3    3  502    0 -0.82854974019E+03  0.17119053908E+03  0.16535726177E+04  0.18574453653E+04  0.10100000352E+00 0.  1.
       -3    1    3    3    0  502  0.82854974019E+03 -0.17119053908E+03 -0.63324475646E+03  0.10567874926E+04  0.10100000352E+00 0. -1.
</event>
<event>
 5   0  0.9342133E-06  0.2804486E+04  0.7818609E-02  0.8301877E-01
       -2   -1    0    0    0  501  0.00000000000E+00  0.00000000000E+00  0.15484834554E+04  0.15484834554E+04  0.25500000920E-02 0. -1.
        2   -1    0    0  501    0  0.00000000000E+00  0.00000000000E+00 -0.12698135549E+04  0.12698135549E+04  0.25500000920E-02 0.  1.
    10030    2    1    2    0    0  0.00000000000E+00  0.00000000000E+00  0.27866990046E+03  0.28182970103E+04  0.28044858931E+04 0.  0.
        2    1    3    3  502    0 -0.21213029069E+03 -0.76869308794E+03  0.12984435330E+04  0.15237598013E+04  0.25500000920E-02 0. -1.
       -2    1    3    3    0  502  0.21213029069E+03  0.76869308794E+03 -0.10197736326E+04  0.12945372090E+04  0.25500000920E-02 0.  1.
</event>
<event>
 5   0  0.9260173E-06  0.2802624E+04  0.7818609E-02  0.8302454E-01
        2   -1    0    0  501    0  0.00000000000E+00  0.00000000000E+00  0.21172176865E+04  0.21172176865E+04  0.25500000920E-02 0.  1.
       -2   -1    0    0    0  501  0.00000000000E+00  0.00000000000E+00 -0.92747923486E+03  0.92747923486E+03  0.25500000920E-02 0. -1.
    10030    2    1    2    0    0  0.00000000000E+00  0.00000000000E+00  0.11897384517E+04  0.30446969214E+04  0.28026240846E+04 0.  0.
        1    1    3    3  502    0 -0.32316504070E+03  0.10841557500E+04 -0.30350732471E+03  0.11713009989E+04  0.50400001928E-02 0. -1.
       -1    1    3    3    0  502  0.32316504070E+03 -0.10841557500E+04  0.14932457764E+04  0.18733959225E+04  0.50400001928E-02 0.  1.
</event>
<event>
 5   0  0.9342133E-06  0.2870206E+04  0.7818609E-02  0.8281798E-01
        2   -1    0    0  501    0  0.00000000000E+00  0.00000000000E+00  0.16904838545E+04  0.16904838545E+04  0.25500000920E-02 0. -1.
       -2   -1    0    0    0  501  0.00000000000E+00  0.00000000000E+00 -0.12183026886E+04  0.12183026886E+04  0.25500000920E-02 0.  1.
    10030    2    1    2    0    0  0.00000000000E+00  0.00000000000E+00  0.47218116584E+03  0.29087865431E+04  0.28702062818E+04 0.  0.
        2    1    3    3  502    0 -0.29620535977E+03 -0.92557094712E+03  0.13062685523E+04  0.16281144689E+04  0.25500000920E-02 0. -1.
       -2    1    3    3    0  502  0.29620535977E+03  0.92557094712E+03 -0.83408738644E+03  0.12806720742E+04  0.25500000920E-02 0.  1.
</event>
<event>
 5   0  0.3371603E-06  0.2786055E+04  0.7818609E-02  0.8307611E-01
       -1   -1    0    0    0  501  0.00000000000E+00  0.00000000000E+00  0.10114356092E+04  0.10114356092E+04  0.50400001928E-02 0. -1.
        1   -1    0    0  501    0  0.00000000000E+00  0.00000000000E+00 -0.19185855281E+04  0.19185855281E+04  0.50400001928E-02 0.  1.
    10030    2    1    2    0    0  0.00000000000E+00  0.00000000000E+00 -0.90714991885E+03  0.29300211373E+04  0.27860550766E+04 0.  0.
        1    1    3    3  502    0 -0.96494033462E+03  0.51766682130E+03 -0.13591369058E+04  0.17453772990E+04  0.50400001928E-02 0.  1.
       -1    1    3    3    0  502  0.96494033462E+03 -0.51766682130E+03  0.45198698693E+03  0.11846438383E+04  0.50400001928E-02 0. -1.
</event>
<event>
 5   0  0.3397882E-06  0.2735610E+04  0.7818609E-02  0.8323542E-01
       -1   -1    0    0    0  501  0.00000000000E+00  0.00000000000E+00  0.82217854441E+03  0.82217854443E+03  0.50400001928E-02 0. -1.
        1   -1    0    0  501    0  0.00000000000E+00  0.00000000000E+00 -0.22755287591E+04  0.22755287591E+04  0.50400001928E-02 0.  1.
    10030    2    1    2    0    0  0.00000000000E+00  0.00000000000E+00 -0.14533502147E+04  0.30977073035E+04  0.27356102960E+04 0.  0.
        2    1    3    3  502    0  0.19611495630E+03  0.98711472559E+03 -0.17755857482E+04  0.20409706776E+04  0.25500000920E-02 0.  1.
       -2    1    3    3    0  502 -0.19611495630E+03 -0.98711472559E+03  0.32223553350E+03  0.10567366259E+04  0.25500000920E-02 0. -1.
</event>
<event>
 5   0  0.3357244E-06  0.2800934E+04  0.7818609E-02  0.8302978E-01
        1   -1    0    0  501    0  0.00000000000E+00  0.00000000000E+00  0.17767500436E+04  0.17767500436E+04  0.50400001928E-02 0. -1.
       -1   -1    0    0    0  501  0.00000000000E+00  0.00000000000E+00 -0.11038738998E+04  0.11038738998E+04  0.50400001928E-02 0.  1.
    10030    2    1    2    0    0  0.00000000000E+00  0.00000000000E+00  0.67287614372E+03  0.28806239434E+04  0.28009341296E+04 0.  0.
        4    1    3    3  502    0  0.47592937741E+03 -0.38435855508E+03  0.16320686235E+04  0.17429543528E+04  0.12699999809E+01 0. -1.
       -4    1    3    3    0  502 -0.47592937741E+03  0.38435855508E+03 -0.95919247981E+03  0.11376695906E+04  0.12699999809E+01 0.  1.
</event>
<event>
 5   0  0.3006875E-06  0.2801459E+04  0.7818609E-02  0.8302815E-01
       -3   -1    0    0    0  501  0.00000000000E+00  0.00000000000E+00  0.13613381329E+04  0.13613381366E+04  0.10100000352E+00 0.  1.
        3   -1    0    0  501    0  0.00000000000E+00  0.00000000000E+00 -0.14412609520E+04  0.14412609555E+04  0.10100000352E+00 0. -1.
    10030    2    1    2    0    0  0.00000000000E+00  0.00000000000E+00 -0.79922819110E+02  0.28025990921E+04  0.28014592651E+04 0.  0.
        2    1    3    3  502    0 -0.93991141841E+03  0.36444740204E+03 -0.10128734819E+04  0.14290444618E+04  0.25500000920E-02 0. -1.
       -2    1    3    3    0  502  0.93991141841E+03 -0.36444740204E+03  0.93295066280E+03  0.13735546303E+04  0.25500000920E-02 0.  1.
</event>
<event>
 5   0  0.9065579E-06  0.2810339E+04  0.7818609E-02  0.8300066E-01
       -2   -1    0    0    0  501  0.00000000000E+00  0.00000000000E+00  0.10673661775E+04  0.10673661775E+04  0.25500000920E-02 0.  1.
        2   -1    0    0  501    0  0.00000000000E+00  0.00000000000E+00 -0.18498821433E+04  0.18498821433E+04  0.25500000920E-02 0. -1.
    10030    2    1    2    0    0  0.00000000000E+00  0.00000000000E+00 -0.78251596581E+03  0.29172483208E+04  0.28103392194E+04 0.  0.
        3    1    3    3  502    0  0.89449059578E+03  0.66924746605E+03  0.49351382423E+03  0.12212950101E+04  0.10100000352E+00 0.  1.
       -3    1    3    3    0  502 -0.89449059578E+03 -0.66924746605E+03 -0.12760297900E+04  0.16959533107E+04  0.10100000352E+00 0. -1.
</event>
<event>
 5   0  0.9065579E-06  0.2708671E+04  0.7818609E-02  0.8332197E-01
        2   -1    0    0  501    0  0.00000000000E+00  0.00000000000E+00  0.26517919182E+04  0.26517919182E+04  0.25500000920E-02 0.  1.
       -2   -1    0    0    0  501  0.00000000000E+00  0.00000000000E+00 -0.69169257264E+03  0.69169257265E+03  0.25500000920E-02 0. -1.
    10030    2    1    2    0    0  0.00000000000E+00  0.00000000000E+00  0.19600993456E+04  0.33434844909E+04  0.27086710941E+04 0.  0.
        3    1    3    3  502    0  0.59094383415E+03 -0.14027159164E+03 -0.51415936015E+03  0.79577043949E+03  0.10100000352E+00 0. -1.
       -3    1    3    3    0  502 -0.59094383415E+03  0.14027159164E+03  0.24742587057E+04  0.25477140514E+04  0.10100000352E+00 0.  1.
</event>
<event>
 5   0  0.3438130E-06  0.2769666E+04  0.7818609E-02  0.8312748E-01
       -1   -1    0    0    0  501  0.00000000000E+00  0.00000000000E+00  0.14709826620E+04  0.14709826620E+04  0.50400001928E-02 0.  1.
        1   -1    0    0  501    0  0.00000000000E+00  0.00000000000E+00 -0.13037289281E+04  0.13037289281E+04  0.50400001928E-02 0. -1.
    10030    2    1    2    0    0  0.00000000000E+00  0.00000000000E+00  0.16725373388E+03  0.27747115901E+04  0.27696661526E+04 0.  0.
        3    1    3    3  502    0  0.13463615684E+04  0.31956269185E+03  0.13806601025E+03  0.13906372712E+04  0.10100000352E+00 0.  1.
       -3    1    3    3    0  502 -0.13463615684E+04 -0.31956269185E+03  0.29187723625E+02  0.13840743189E+04  0.10100000352E+00 0. -1.
</event>
<event>
 5   0  0.3357244E-06  0.2783300E+04  0.7818609E-02  0.8308472E-01
       -1   -1    0    0    0  501  0.00000000000E+00  0.00000000000E+00  0.10665052621E+04  0.10665052621E+04  0.50400001928E-02 0.  1.
        1   -1    0    0  501    0  0.00000000000E+00  0.00000000000E+00 -0.18159217117E+04  0.18159217117E+04  0.50400001928E-02 0. -1.
    10030    2    1    2    0    0  0.00000000000E+00  0.00000000000E+00 -0.74941644955E+03  0.28824269738E+04  0.27833002433E+04 0.  0.
        4    1    3    3  502    0  0.10987236740E+04  0.13448034341E+03 -0.12481986914E+04  0.16683165949E+04  0.12699999809E+01 0. -1.
       -4    1    3    3    0  502 -0.10987236740E+04 -0.13448034341E+03  0.49878224189E+03  0.12141103789E+04  0.12699999809E+01 0.  1.
</event>
<event>
 5   0  0.3600963E-06  0.2809343E+04  0.7818609E-02  0.8300374E-01
        1   -1    0    0  501    0  0.00000000000E+00  0.00000000000E+00  0.14077111754E+04  0.14077111754E+04  0.50400001928E-02 0.  1.
       -1   -1    0    0    0  501  0.00000000000E+00  0.00000000000E+00 -0.14016379839E+04  0.14016379840E+04  0.50400001928E-02 0. -1.
    10030    2    1    2    0    0  0.00000000000E+00  0.00000000000E+00  0.60731914274E+01  0.28093491593E+04  0.28093425949E+04 0.  0.
        5    1    3    3  502    0  0.15111909339E+03 -0.13437765874E+04 -0.37710488065E+03  0.14038527979E+04  0.46999998093E+01 0.  1.
       -5    1    3    3    0  502 -0.15111909339E+03  0.13437765874E+04  0.38317807208E+03  0.14054963614E+04  0.46999998093E+01 0. -1.
</event>
<event>
 5   0  0.9426937E-06  0.2842771E+04  0.7818609E-02  0.8290111E-01
        2   -1    0    0  501    0  0.00000000000E+00  0.00000000000E+00  0.12490112226E+04  0.12490112226E+04  0.25500000920E-02 0.  1.
       -2   -1    0    0    0  501  0.00000000000E+00  0.00000000000E+00 -0.16175483758E+04  0.16175483758E+04  0.25500000920E-02 0. -1.
    10030    2    1    2    0    0  0.00000000000E+00  0.00000000000E+00 -0.36853715326E+03  0.28665595984E+04  0.28427705320E+04 0.  0.
        4    1    3    3  502    0 -0.88028900222E+02 -0.13328430613E+04 -0.67425125571E+03  0.14962740665E+04  0.12699999809E+01 0.  1.
       -4    1    3    3    0  502  0.88028900222E+02  0.13328430613E+04  0.30571410245E+03  0.13702855318E+04  0.12699999809E+01 0. -1.
</event>
<event>
 5   0  0.9426937E-06  0.2659648E+04  0.7818609E-02  0.8348218E-01
       -2   -1    0    0    0  501  0.00000000000E+00  0.00000000000E+00  0.15473469945E+04  0.15473469945E+04  0.25500000920E-02 0. -1.
        2   -1    0    0  501    0  0.00000000000E+00  0.00000000000E+00 -0.11428796017E+04  0.11428796017E+04  0.25500000920E-02 0.  1.
    10030    2    1    2    0    0  0.00000000000E+00  0.00000000000E+00  0.40446739282E+03  0.26902265962E+04  0.26596475832E+04 0.  0.
        4    1    3    3  502    0  0.10461649698E+04 -0.10125483665E+03  0.10262881619E+04  0.14690073826E+04  0.12699999809E+01 0. -1.
       -4    1    3    3    0  502 -0.10461649698E+04  0.10125483665E+03 -0.62182076908E+03  0.12212192136E+04  0.12699999809E+01 0.  1.
</event>
<event>
 5   0  0.9065579E-06  0.2848405E+04  0.7818609E-02  0.8288396E-01
        2   -1    0    0  501    0  0.00000000000E+00  0.00000000000E+00  0.13778439546E+04  0.13778439546E+04  0.25500000920E-02 0.  1.
       -2   -1    0    0    0  501  0.00000000000E+00  0.00000000000E+00 -0.14721204633E+04  0.14721204633E+04  0.25500000920E-02 0. -1.
    10030    2    1    2    0    0  0.00000000000E+00  0.00000000000E+00 -0.94276508650E+02  0.28499644179E+04  0.28484046628E+04 0.  0.
        3    1    3    3  502    0  0.21277266475E+03  0.83158598447E+03 -0.11842221003E+04  0.14625968172E+04  0.10100000352E+00 0. -1.
       -3    1    3    3    0  502 -0.21277266475E+03 -0.83158598447E+03  0.10899455917E+04  0.13873676007E+04  0.10100000352E+00 0.  1.
</event>
<event>
 5   0  0.3371603E-06  0.2800086E+04  0.7818609E-02  0.8303242E-01
        1   -1    0    0  501    0  0.00000000000E+00  0.00000000000E+00  0.10648754726E+04  0.10648754726E+04  0.50400001928E-02 0.  1.
       -1   -1    0    0    0  501  0.00000000000E+00  0.00000000000E+00 -0.18407035209E+04  0.18407035209E+04  0.50400001928E-02 0. -1.
    10030    2    1    2    0    0  0.00000000000E+00  0.00000000000E+00 -0.77582804831E+03  0.29055789936E+04  0.28000857357E+04 0.  0.
        1    1    3    3  502    0 -0.55256500360E+03 -0.10020053242E+03 -0.17187101971E+04  0.18081296888E+04  0.50400001928E-02 0. -1.
       -1    1    3    3    0  502  0.55256500360E+03  0.10020053242E+03  0.94288214881E+03  0.10974493047E+04  0.50400001928E-02 0.  1.
</event>
<event>
 5   0  0.9426937E-06  0.2944786E+04  0.7818609E-02  0.8259676E-01
        2   -1    0    0  501    0  0.00000000000E+00  0.00000000000E+00  0.12060763156E+04  0.12060763156E+04  0.25500000920E-02 0.  1.
       -2   -1    0    0    0  501  0.00000000000E+00  0.00000000000E+00 -0.17975159805E+04  0.17975159805E+04  0.25500000920E-02 0. -1.
    10030    2    1    2    0    0  0.00000000000E+00  0.00000000000E+00 -0.59143966489E+03  0.30035922961E+04  0.29447862068E+04 0.  0.
        4    1    3    3  502    0 -0.94326856416E+03  0.11302956968E+04 -0.27040708117E+03  0.14968117947E+04  0.12699999809E+01 0. -1.
       -4    1    3    3    0  502  0.94326856416E+03 -0.11302956968E+04 -0.32103258373E+03  0.15067805013E+04  0.12699999809E+01 0.  1.
</event>
<event>
 5   0  0.3357244E-06  0.2807751E+04  0.7818609E-02  0.8300866E-01
        1   -1    0    0  501    0  0.00000000000E+00  0.00000000000E+00  0.21814007069E+04  0.21814007069E+04  0.50400001928E-02 0. -1.
       -1   -1    0    0    0  501  0.00000000000E+00  0.00000000000E+00 -0.90348651120E+03  0.90348651121E+03  0.50400001928E-02 0.  1.
    10030    2    1    2    0    0  0.00000000000E+00  0.00000000000E+00  0.12779141957E+04  0.30848872181E+04  0.28077507825E+04 0.  0.
        4    1    3    3  502    0  0.50504803442E+02  0.11711065084E+03  0.21750219606E+04  0.21787583119E+04  0.12699999809E+01 0. -1.
       -4    1    3    3    0  502 -0.50504803442E+02 -0.11711065084E+03 -0.89710776496E+03  0.90612890615E+03  0.12699999809E+01 0.  1.
</event>
<event>
 5   0  0.9260173E-06  0.2773453E+04  0.7818609E-02  0.8311558E-01
        2   -1    0    0  501    0  0.00000000000E+00  0.00000000000E+00  0.16467692839E+04  0.16467692839E+04  0.25500000920E-02 0. -1.
       -2   -1    0    0    0  501  0.00000000000E+00  0.00000000000E+00 -0.11677475226E+04  0.11677475227E+04  0.25500000920E-02 0.  1.
    10030    2    1    2    0    0  0.00000000000E+00  0.00000000000E+00  0.47902176126E+03  0.28145168066E+04  0.27734532638E+04 0.  0.
        1    1    3    3  502    0 -0.12593261515E+04  0.11556074902E+03  0.81692930734E+03  0.15055331733E+04  0.50400001928E-02 0.  1.
       -1    1    3    3    0  502  0.12593261515E+04 -0.11556074902E+03 -0.33790754608E+03  0.13089836333E+04  0.50400001928E-02 0. -1.
</event>
<event>
 5   0  0.9252359E-06  0.2733931E+04  0.7818609E-02  0.8324079E-01
       -2   -1    0    0    0  501  0.00000000000E+00  0.00000000000E+00  0.14537838322E+04  0.14537838322E+04  0.25500000920E-02 0.  1.
        2   -1    0    0  501    0  0.00000000000E+00  0.00000000000E+00 -0.12853321771E+04  0.12853321772E+04  0.25500000920E-02 0. -1.
    10030    2    1    2    0    0  0.00000000000E+00  0.00000000000E+00  0.16845165506E+03  0.27391160094E+04  0.27339313365E+04 0.  0.
        5    1    3    3  502    0 -0.10056680052E+04  0.32393358909E+03  0.95320677600E+03  0.14229990705E+04  0.46999998093E+01 0.  1.
       -5    1    3    3    0  502  0.10056680052E+04 -0.32393358909E+03 -0.78475512094E+03  0.13161169388E+04  0.46999998093E+01 0. -1.
</event>
<event>
 5   0  0.3371603E-06  0.2841759E+04  0.7818609E-02  0.8290420E-01
       -1   -1    0    0    0  501  0.00000000000E+00  0.00000000000E+00  0.11100165224E+04  0.11100165224E+04  0.50400001928E-02 0. -1.
        1   -1    0    0  501    0  0.00000000000E+00  0.00000000000E+00 -0.18188002418E+04  0.18188002418E+04  0.50400001928E-02 0.  1.
    10030    2    1    2    0    0  0.00000000000E+00  0.00000000000E+00 -0.70878371937E+03  0.29288167642E+04  0.28417588352E+04 0.  0.
        1    1    3    3  502    0  0.18264837954E+03  0.99720136765E+03 -0.13804446524E+04  0.17127166831E+04  0.50400001928E-02 0.  1.
       -1    1    3    3    0  502 -0.18264837954E+03 -0.99720136765E+03  0.67166093306E+03  0.12161000811E+04  0.50400001928E-02 0. -1.
</event>
<event>
 5   0  0.3371603E-06  0.2831601E+04  0.7818609E-02  0.8293524E-01
        1   -1    0    0  501    0  0.00000000000E+00  0.00000000000E+00  0.13153048551E+04  0.13153048551E+04  0.50400001928E-02 0. -1.
       -1   -1    0    0    0  501  0.00000000000E+00  0.00000000000E+00 -0.15239747556E+04  0.15239747556E+04  0.50400001928E-02 0.  1.
    10030    2    1    2    0    0  0.00000000000E+00  0.00000000000E+00 -0.20866990042E+03  0.28392796107E+04  0.28316012397E+04 0.  0.
        1    1    3    3  502    0 -0.12769244057E+04 -0.50526492662E+03 -0.44974374101E+03  0.14450252650E+04  0.50400001928E-02 0.  1.
       -1    1    3    3    0  502  0.12769244057E+04  0.50526492662E+03  0.24107384059E+03  0.13942543457E+04  0.50400001928E-02 0. -1.
</event>
<event>
 5   0  0.3357244E-06  0.2757955E+04  0.7818609E-02  0.8316442E-01
       -1   -1    0    0    0  501  0.00000000000E+00  0.00000000000E+00  0.11083365431E+04  0.11083365431E+04  0.50400001928E-02 0. -1.
        1   -1    0    0  501    0  0.00000000000E+00  0.00000000000E+00 -0.17157055261E+04  0.17157055261E+04  0.50400001928E-02 0.  1.
    10030    2    1    2    0    0  0.00000000000E+00  0.00000000000E+00 -0.60736898302E+03  0.28240420692E+04  0.27579551350E+04 0.  0.
        4    1    3    3  502    0  0.11813273120E+02  0.10896077358E+04  0.56166540015E+03  0.12259095423E+04  0.12699999809E+01 0. -1.
       -4    1    3    3    0  502 -0.11813273120E+02 -0.10896077358E+04 -0.11690343832E+04  0.15981325268E+04  0.12699999809E+01 0.  1.
</event>
<event>
 5   0  0.9426937E-06  0.2799147E+04  0.7818609E-02  0.8303533E-01
        2   -1    0    0  501    0  0.00000000000E+00  0.00000000000E+00  0.16893347409E+04  0.16893347409E+04  0.25500000920E-02 0. -1.
       -2   -1    0    0    0  501  0.00000000000E+00  0.00000000000E+00 -0.11595133560E+04  0.11595133561E+04  0.25500000920E-02 0.  1.
    10030    2    1    2    0    0  0.00000000000E+00  0.00000000000E+00  0.52982138485E+03  0.28488480969E+04  0.27991471522E+04 0.  0.
        4    1    3    3  502    0 -0.25108357855E+03 -0.25257502854E+03 -0.11126236732E+04  0.11682337777E+04  0.12699999809E+01 0.  1.
       -4    1    3    3    0  502  0.25108357855E+03  0.25257502854E+03  0.16424450580E+04  0.16806143192E+04  0.12699999809E+01 0. -1.
</event>
<event>
 5   0  0.3371603E-06  0.2786622E+04  0.7818609E-02  0.8307434E-01
        1   -1    0    0  501    0  0.00000000000E+00  0.00000000000E+00  0.14779028342E+04  0.14779028342E+04  0.50400001928E-02 0.  1.
       -1   -1    0    0    0  501  0.00000000000E+00  0.00000000000E+00 -0.13135606197E+04  0.13135606197E+04  0.50400001928E-02 0. -1.
    10030    2    1    2    0    0  0.00000000000E+00  0.00000000000E+00  0.16434221446E+03  0.27914634539E+04  0.27866215838E+04 0.  0.
        1    1    3    3  502    0  0.11380902240E+04 -0.51409465179E+02 -0.72135895512E+03  0.13484253903E+04  0.50400001928E-02 0. -1.
       -1    1    3    3    0  502 -0.11380902240E+04  0.51409465179E+02  0.88570116959E+03  0.14430380636E+04  0.50400001928E-02 0.  1.
</event>
<event>
 5   0  0.9260173E-06  0.2767038E+04  0.7818609E-02  0.8313575E-01
        2   -1    0    0  501    0  0.00000000000E+00  0.00000000000E+00  0.13788445176E+04  0.13788445176E+04  0.25500000920E-02 0.  1.
       -2   -1    0    0    0  501  0.00000000000E+00  0.00000000000E+00 -0.13882094488E+04  0.13882094488E+04  0.25500000920E-02 0. -1.
    10030    2    1    2    0    0  0.00000000000E+00  0.00000000000E+00 -0.93649312667E+01  0.27670539664E+04  0.27670381189E+04 0.  0.
        1    1    3    3  502    0 -0.11004519283E+04 -0.32643729437E+03 -0.77706583391E+03  0.13861410693E+04  0.50400001928E-02 0. -1.
       -1    1    3    3    0  502  0.11004519283E+04  0.32643729437E+03  0.76770090264E+03  0.13809128972E+04  0.50400001928E-02 0.  1.
</event>
<event>
 5   0  0.3006875E-06  0.2801379E+04  0.7818609E-02  0.8302840E-01
        3   -1    0    0  501    0  0.00000000000E+00  0.00000000000E+00  0.24183988456E+04  0.24183988477E+04  0.10100000352E+00 0.  1.
       -3   -1    0    0    0  501  0.00000000000E+00  0.00000000000E+00 -0.81125205859E+03  0.81125206487E+03  0.10100000352E+00 0. -1.
    10030    2    1    2    0    0  0.00000000000E+00  0.00000000000E+00  0.16071467870E+04  0.32296509126E+04  0.28013789858E+04 0.  0.
        4    1    3    3  502    0 -0.21661183614E+03  0.14087395863E+02  0.23988889262E+04  0.24086902739E+04  0.12699999809E+01 0.  1.
       -4    1    3    3    0  502  0.21661183614E+03 -0.14087395863E+02 -0.79174213924E+03  0.82096063866E+03  0.12699999809E+01 0. -1.
</event>
<event>
 5   0  0.9065579E-06  0.2727461E+04  0.7818609E-02  0.8326149E-01
        2   -1    0    0  501    0  0.00000000000E+00  0.00000000000E+00  0.13350960434E+04  0.13350960434E+04  0.25500000920E-02 0. -1.
       -2   -1    0    0    0  501  0.00000000000E+00  0.00000000000E+00 -0.13929792532E+04  0.13929792532E+04  0.25500000920E-02 0.  1.
    10030    2    1    2    0    0  0.00000000000E+00  0.00000000000E+00 -0.57883209798E+02  0.27280752967E+04  0.27274611562E+04 0.  0.
        3    1    3    3  502    0 -0.12245506331E+04 -0.52668396433E+03 -0.31682723981E+03  0.13701458905E+04  0.10100000352E+00 0. -1.
       -3    1    3    3    0  502  0.12245506331E+04  0.52668396433E+03  0.25894403001E+03  0.13579294062E+04  0.10100000352E+00 0.  1.
</event>
<event>
 5   0  0.3371603E-06  0.2789668E+04  0.7818609E-02  0.8306483E-01
        1   -1    0    0  501    0  0.00000000000E+00  0.00000000000E+00  0.25965258213E+04  0.25965258213E+04  0.50400001928E-02 0.  1.
       -1   -1    0    0    0  501  0.00000000000E+00  0.00000000000E+00 -0.74929445778E+03  0.74929445780E+03  0.50400001928E-02 0. -1.
    10030    2    1    2    0    0  0.00000000000E+00  0.00000000000E+00  0.18472313635E+04  0.33458202791E+04  0.27896683727E+04 0.  0.
        1    1    3    3  502    0 -0.19951313318E+03 -0.10314918291E+04 -0.17678214737E+03  0.10653791867E+04  0.50400001928E-02 0. -1.
       -1    1    3    3    0  502  0.19951313318E+03  0.10314918291E+04  0.20240135108E+04  0.22804410924E+04  0.50400001928E-02 0.  1.
</event>
<event>
 5   0  0.3006875E-06  0.2807152E+04  0.7818609E-02  0.8301051E-01
       -3   -1    0    0    0  501  0.00000000000E+00  0.00000000000E+00  0.11899533336E+04  0.11899533379E+04  0.10100000352E+00 0.  1.
        3   -1    0    0  501    0  0.00000000000E+00  0.00000000000E+00 -0.16555487344E+04  0.16555487375E+04  0.10100000352E+00 0. -1.
    10030    2    1    2    0    0  0.00000000000E+00  0.00000000000E+00 -0.46559540078E+03  0.28455020753E+04  0.28071521126E+04 0.  0.
        4    1    3    3  502    0  0.12550229759E+03 -0.12510179966E+04  0.39960628026E+03  0.13192739088E+04  0.12699999809E+01 0.  1.
       -4    1    3    3    0  502 -0.12550229759E+03  0.12510179966E+04 -0.86520168104E+03  0.15262281665E+04  0.12699999809E+01 0. -1.
</event>
<event>
 5   0  0.9252359E-06  0.2741588E+04  0.7818609E-02  0.8321636E-01
        2   -1    0    0  501    0  0.00000000000E+00  0.00000000000E+00  0.15920105206E+04  0.15920105206E+04  0.25500000920E-02 0. -1.
       -2   -1    0    0    0  501  0.00000000000E+00  0.00000000000E+00 -0.11803160512E+04  0.11803160512E+04  0.25500000920E-02 0.  1.
    10030    2    1    2    0    0  0.00000000000E+00  0.00000000000E+00  0.41169446932E+03  0.27723265718E+04  0.27415875483E+04 0.  0.
        5    1    3    3  502    0 -0.13050050039E+04  0.39431636610E+03  0.35073676350E+03  0.14076795886E+04  0.46999998093E+01 0.  1.
       -5    1    3    3    0  502  0.13050050039E+04 -0.39431636610E+03  0.60957705822E+02  0.13646469832E+04  0.46999998093E+01 0. -1.
</event>
<event>
 5   0  0.3371603E-06  0.2791451E+04  0.7818609E-02  0.8305927E-01
        1   -1    0    0  501    0  0.00000000000E+00  0.00000000000E+00  0.77462944451E+03  0.77462944452E+03  0.50400001928E-02 0. -1.
       -1   -1    0    0    0  501  0.00000000000E+00  0.00000000000E+00 -0.25148144018E+04  0.25148144018E+04  0.50400001928E-02 0.  1.
    10030    2    1    2    0    0  0.00000000000E+00  0.00000000000E+00 -0.17401849572E+04  0.32894438463E+04  0.27914507218E+04 0.  0.
        1    1    3    3  502    0  0.64624940274E+03 -0.11657245230E+04 -0.38209093966E+03  0.13865588485E+04  0.50400001928E-02 0. -1.
       -1    1    3    3    0  502 -0.64624940274E+03  0.11657245230E+04 -0.13580940176E+04  0.19028849978E+04  0.50400001928E-02 0.  1.
</event>
<event>
 5   0  0.3600963E-06  0.2794943E+04  0.7818609E-02  0.8304840E-01
       -1   -1    0    0    0  501  0.00000000000E+00  0.00000000000E+00  0.12174543670E+04  0.12174543670E+04  0.50400001928E-02 0. -1.
        1   -1    0    0  501    0  0.00000000000E+00  0.00000000000E+00 -0.16041063748E+04  0.16041063748E+04  0.50400001928E-02 0.  1.
    10030    2    1    2    0    0  0.00000000000E+00  0.00000000000E+00 -0.38665200777E+03  0.28215607418E+04  0.27949427981E+04 0.  0.
        5    1    3    3  502    0 -0.11278804534E+04 -0.81145662928E+03 -0.42477221941E+02  0.13901088385E+04  0.46999998093E+01 0. -1.
       -5    1    3    3    0  502  0.11278804534E+04  0.81145662928E+03 -0.34417478583E+03  0.14314519034E+04  0.46999998093E+01 0.  1.
</event>
<event>
 5   0  0.3438130E-06  0.2806324E+04  0.7818609E-02  0.8301308E-01
       -1   -1    0    0    0  501  0.00000000000E+00  0.00000000000E+00  0.15197416686E+04  0.15197416686E+04  0.50400001928E-02 0.  1.
        1   -1    0    0  501    0  0.00000000000E+00  0.00000000000E+00 -0.12955251853E+04  0.12955251853E+04  0.50400001928E-02 0. -1.
    10030    2    1    2    0    0  0.00000000000E+00  0.00000000000E+00  0.22421648323E+03  0.28152668539E+04  0.28063240061E+04 0.  0.
        3    1    3    3  502    0  0.80844650631E+03  0.86936672530E+03  0.86247533924E+03  0.14673949631E+04  0.10100000352E+00 0. -1.
       -3    1    3    3    0  502 -0.80844650631E+03 -0.86936672530E+03 -0.63825885601E+03  0.13478718908E+04  0.10100000352E+00 0.  1.
</event>
<event>
 5   0  0.9426937E-06  0.2800743E+04  0.7818609E-02  0.8303038E-01
       -2   -1    0    0    0  501  0.00000000000E+00  0.00000000000E+00  0.10877677659E+04  0.10877677659E+04  0.25500000920E-02 0. -1.
        2   -1    0    0  501    0  0.00000000000E+00  0.00000000000E+00 -0.18028113647E+04  0.18028113647E+04  0.25500000920E-02 0.  1.
    10030    2    1    2    0    0  0.00000000000E+00  0.00000000000E+00 -0.71504359877E+03  0.28905791306E+04  0.28007428233E+04 0.  0.
        4    1    3    3  502    0  0.13694689100E+04  0.25428482790E+03 -0.50684363047E+03  0.14822273603E+04  0.12699999809E+01 0. -1.
       -4    1    3    3    0  502 -0.13694689100E+04 -0.25428482790E+03 -0.20819996829E+03  0.14083517703E+04  0.12699999809E+01 0.  1.
</event>
<event>
 5   0  0.3397882E-06  0.2833064E+04  0.7818609E-02  0.8293076E-01
       -1   -1    0    0    0  501  0.00000000000E+00  0.00000000000E+00  0.11743897420E+04  0.11743897420E+04  0.50400001928E-02 0.  1.
        1   -1    0    0  501    0  0.00000000000E+00  0.00000000000E+00 -0.17086006801E+04  0.17086006801E+04  0.50400001928E-02 0. -1.
    10030    2    1    2    0    0  0.00000000000E+00  0.00000000000E+00 -0.53421093816E+03  0.28829904221E+04  0.28330641446E+04 0.  0.
        2    1    3    3  502    0 -0.93813041919E+03 -0.10547763419E+03  0.80760669139E+03  0.12423537269E+04  0.25500000920E-02 0.  1.
       -2    1    3    3    0  502  0.93813041919E+03  0.10547763419E+03 -0.13418176295E+04  0.16406366952E+04  0.25500000920E-02 0. -1.
</event>
<event>
 5   0  0.9260173E-06  0.2774663E+04  0.7818609E-02  0.8311178E-01
        2   -1    0    0  501    0  0.00000000000E+00  0.00000000000E+00  0.18022162413E+04  0.18022162413E+04  0.25500000920E-02 0.  1.
       -2   -1    0    0    0  501  0.00000000000E+00  0.00000000000E+00 -0.10679563999E+04  0.10679563999E+04  0.25500000920E-02 0. -1.
    10030    2    1    2    0    0  0.00000000000E+00  0.00000000000E+00  0.73425984139E+03  0.28701726413E+04  0.27746627680E+04 0.  0.
        1    1    3    3  502    0 -0.12823274808E+03  0.13474267575E+04  0.68205305567E+03  0.15156513040E+04  0.50400001928E-02 0. -1.
       -1    1    3    3    0  502  0.12823274808E+03 -0.13474267575E+04  0.52206785725E+02  0.13545213373E+04  0.50400001928E-02 0.  1.
</event>
<event>
 5   0  0.9260173E-06  0.2800774E+04  0.7818609E-02  0.8303028E-01
        2   -1    0    0  501    0  0.00000000000E+00  0.00000000000E+00  0.15327412744E+04  0.15327412744E+04  0.25500000920E-02 0. -1.
       -2   -1    0    0    0  501  0.00000000000E+00  0.00000000000E+00 -0.12794620306E+04  0.12794620306E+04  0.25500000920E-02 0.  1.
    10030    2    1    2    0    0  0.00000000000E+00  0.00000000000E+00  0.25327924383E+03  0.28122033051E+04  0.28007743668E+04 0.  0.
        1    1    3    3  502    0  0.10795868297E+04 -0.95203376291E+02 -0.76383491356E+03  0.13259016483E+04  0.50400001928E-02 0.  1.
       -1    1    3    3    0  502 -0.10795868297E+04  0.95203376291E+02  0.10171141574E+04  0.14863016568E+04  0.50400001928E-02 0. -1.
</event>
<event>
 5   0  0.9426937E-06  0.2764431E+04  0.7818609E-02  0.8314397E-01
        2   -1    0    0  501    0  0.00000000000E+00  0.00000000000E+00  0.19786149178E+04  0.19786149178E+04  0.25500000920E-02 0.  1.
       -2   -1    0    0    0  501  0.00000000000E+00  0.00000000000E+00 -0.96558408760E+03  0.96558408761E+03  0.25500000920E-02 0. -1.
    10030    2    1    2    0    0  0.00000000000E+00  0.00000000000E+00  0.10130308302E+04  0.29441990055E+04  0.27644305599E+04 0.  0.
        4    1    3    3  502    0 -0.47404804199E+03  0.94016822819E+03 -0.44719398964E+03  0.11439501391E+04  0.12699999809E+01 0. -1.
       -4    1    3    3    0  502  0.47404804199E+03 -0.94016822819E+03  0.14602248199E+04  0.18002488664E+04  0.12699999809E+01 0.  1.
</event>
<event>
 5   0  0.9426937E-06  0.2850429E+04  0.7818609E-02  0.8287781E-01
       -2   -1    0    0    0  501  0.00000000000E+00  0.00000000000E+00  0.11884092037E+04  0.11884092037E+04  0.25500000920E-02 0.  1.
        2   -1    0    0  501    0  0.00000000000E+00  0.00000000000E+00 -0.17092059792E+04  0.17092059792E+04  0.25500000920E-02 0. -1.
    10030    2    1    2    0    0  0.00000000000E+00  0.00000000000E+00 -0.52079677555E+03  0.28976151829E+04  0.28504288216E+04 0.  0.
        4    1    3    3  502    0 -0.43221445578E+03 -0.13515698169E+04 -0.39558173470E+03  0.14731044862E+04  0.12699999809E+01 0.  1.
       -4    1    3    3    0  502  0.43221445578E+03  0.13515698169E+04 -0.12521504086E+03  0.14245106967E+04  0.12699999809E+01 0. -1.
</event>
<event>
 5   0  0.9065579E-06  0.2808532E+04  0.7818609E-02  0.8300624E-01
        2   -1    0    0  501    0  0.00000000000E+00  0.00000000000E+00  0.18534634786E+04  0.18534634786E+04  0.25500000920E-02 0.  1.
       -2   -1    0    0    0  501  0.00000000000E+00  0.00000000000E+00 -0.10639340371E+04  0.10639340371E+04  0.25500000920E-02 0. -1.
    10030    2    1    2    0    0  0.00000000000E+00  0.00000000000E+00  0.78952944156E+03  0.29173975157E+04  0.28085319164E+04 0.  0.
        3    1    3    3  502    0 -0.10525512997E+04  0.92874701060E+03  0.43536456262E+03  0.14696862117E+04  0.10100000352E+00 0. -1.
       -3    1    3    3    0  502  0.10525512997E+04 -0.92874701060E+03  0.35416487894E+03  0.14477113040E+04  0.10100000352E+00 0.  1.
</event>
<event>
 5   0  0.3438130E-06  0.2804687E+04  0.7818609E-02  0.8301815E-01
        1   -1    0    0  501    0  0.00000000000E+00  0.00000000000E+00  0.20625974831E+04  0.20625974831E+04  0.50400001928E-02 0. -1.
       -1   -1    0    0    0  501  0.00000000000E+00  0.00000000000E+00 -0.95344217799E+03  0.95344217800E+03  0.50400001928E-02 0.  1.
    10030    2    1    2    0    0  0.00000000000E+00  0.00000000000E+00  0.11091553051E+04  0.30160396611E+04  0.28046871031E+04 0.  0.
        3    1    3    3  502    0 -0.43610576522E+03  0.12514500300E+04  0.61491610021E+02  0.13266863398E+04  0.10100000352E+00 0.  1.
       -3    1    3    3    0  502  0.43610576522E+03 -0.12514500300E+04  0.10476636951E+04  0.16893533213E+04  0.10100000352E+00 0. -1.
</event>
<event>
 5   0  0.3357244E-06  0.2733546E+04  0.7818609E-02  0.8324202E-01
       -1   -1    0    0    0  501  0.00000000000E+00  0.00000000000E+00  0.94899825929E+03  0.94899825930E+03  0.50400001928E-02 0. -1.
        1   -1    0    0  501    0  0.00000000000E+00  0.00000000000E+00 -0.19684634793E+04  0.19684634793E+04  0.50400001928E-02 0.  1.
    10030    2    1    2    0    0  0.00000000000E+00  0.00000000000E+00 -0.10194652200E+04  0.29174617386E+04  0.27335459867E+04 0.  0.
        4    1    3    3  502    0  0.12846949935E+04 -0.39167746717E+02 -0.13600209137E+02  0.12853645075E+04  0.12699999809E+01 0.  1.
       -4    1    3    3    0  502 -0.12846949935E+04  0.39167746717E+02 -0.10058650109E+04  0.16320972311E+04  0.12699999809E+01 0. -1.
</event>
<event>
 5   0  0.9065579E-06  0.2471012E+04  0.7818609E-02  0.8413386E-01
       -2   -1    0    0    0  501  0.00000000000E+00  0.00000000000E+00  0.53574468587E+03  0.53574468587E+03  0.25500000920E-02 0.  1.
        2   -1    0    0  501    0  0.00000000000E+00  0.00000000000E+00 -0.28492594271E+04  0.28492594271E+04  0.25500000920E-02 0. -1.
    10030    2    1    2    0    0  0.00000000000E+00  0.00000000000E+00 -0.23135147412E+04  0.33850041130E+04  0.24710124215E+04 0.  0.
        3    1    3    3  502    0  0.35834471625E+03 -0.77677140539E+03  0.64433008880E+02  0.85786734098E+03  0.10100000352E+00 0.  1.
       -3    1    3    3    0  502 -0.35834471625E+03  0.77677140539E+03 -0.23779477501E+04  0.25271367720E+04  0.10100000352E+00 0. -1.
</event>
<event>
 5   0  0.9342133E-06  0.2822772E+04  0.7818609E-02  0.8296233E-01
        2   -1    0    0  501    0  0.00000000000E+00  0.00000000000E+00  0.20536646761E+04  0.20536646761E+04  0.25500000920E-02 0. -1.
       -2   -1    0    0    0  501  0.00000000000E+00  0.00000000000E+00 -0.96997835222E+03  0.96997835222E+03  0.25500000920E-02 0.  1.
    10030    2    1    2    0    0  0.00000000000E+00  0.00000000000E+00  0.10836863239E+04  0.30236430284E+04  0.28227718849E+04 0.  0.
        2    1    3    3  502    0 -0.84083529092E+03  0.17071925748E+03  0.17422419826E+04  0.19420494786E+04  0.25500000920E-02 0. -1.
       -2    1    3    3    0  502  0.84083529092E+03 -0.17071925748E+03 -0.65855565869E+03  0.10815935498E+04  0.25500000920E-02 0.  1.
</event>
<event>
 5   0  0.3371603E-06  0.2806163E+04  0.7818609E-02  0.8301358E-01
        1   -1    0    0  501    0  0.00000000000E+00  0.00000000000E+00  0.24429802775E+04  0.24429802775E+04  0.50400001928E-02 0.  1.
       -1   -1    0    0    0  501  0.00000000000E+00  0.00000000000E+00 -0.80583448198E+03  0.80583448199E+03  0.50400001928E-02 0. -1.
    10030    2    1    2    0    0  0.00000000000E+00  0.00000000000E+00  0.16371457955E+04  0.32488147595E+04  0.28061630362E+04 0.  0.
        1    1    3    3  502    0  0.61289918566E+03 -0.43190439132E+03 -0.55443913198E+03  0.93251786370E+03  0.50400001928E-02 0. -1.
       -1    1    3    3    0  502 -0.61289918566E+03  0.43190439132E+03  0.21915849275E+04  0.23162968958E+04  0.50400001928E-02 0.  1.
</event>
<event>
 5   0  0.9260173E-06  0.2822175E+04  0.7818609E-02  0.8296417E-01
        2   -1    0    0  501    0  0.00000000000E+00  0.00000000000E+00  0.13531375557E+04  0.13531375557E+04  0.25500000920E-02 0. -1.
       -2   -1    0    0    0  501  0.00000000000E+00  0.00000000000E+00 -0.14715195053E+04  0.14715195053E+04  0.25500000920E-02 0.  1.
    10030    2    1    2    0    0  0.00000000000E+00  0.00000000000E+00 -0.11838194958E+03  0.28246570609E+04  0.28221752649E+04 0.  0.
        1    1    3    3  502    0  0.24090859155E+03  0.13416774797E+04  0.30586652239E+03  0.13970288968E+04  0.50400001928E-02 0. -1.
       -1    1    3    3    0  502 -0.24090859155E+03 -0.13416774797E+04 -0.42424847196E+03  0.14276281641E+04  0.50400001928E-02 0.  1.
</event>
<event>
 5   0  0.3397882E-06  0.2831587E+04  0.7818609E-02  0.8293528E-01
       -1   -1    0    0    0  501  0.00000000000E+00  0.00000000000E+00  0.12200891928E+04  0.12200891929E+04  0.50400001928E-02 0. -1.
        1   -1    0    0  501    0  0.00000000000E+00  0.00000000000E+00 -0.16428895302E+04  0.16428895302E+04  0.50400001928E-02 0.  1.
    10030    2    1    2    0    0  0.00000000000E+00  0.00000000000E+00 -0.42280033734E+03  0.28629787230E+04  0.28315873717E+04 0.  0.
        2    1    3    3  502    0  0.36394966756E+03 -0.88309576383E+03  0.84524737586E+03  0.12754452615E+04  0.25500000920E-02 0. -1.
       -2    1    3    3    0  502 -0.36394966756E+03  0.88309576383E+03 -0.12680477132E+04  0.15875334616E+04  0.25500000920E-02 0.  1.
</event>
<event>
 5   0  0.9252359E-06  0.2842820E+04  0.7818609E-02  0.8290096E-01
        2   -1    0    0  501    0  0.00000000000E+00  0.00000000000E+00  0.17297666364E+04  0.17297666364E+04  0.25500000920E-02 0. -1.
       -2   -1    0    0    0  501  0.00000000000E+00  0.00000000000E+00 -0.11680224492E+04  0.11680224492E+04  0.25500000920E-02 0.  1.
    10030    2    1    2    0    0  0.00000000000E+00  0.00000000000E+00  0.56174418728E+03  0.28977890856E+04  0.28428199121E+04 0.  0.
        5    1    3    3  502    0 -0.80723700597E+03  0.39327001740E+03  0.14040358846E+04  0.16666228565E+04  0.46999998093E+01 0. -1.
       -5    1    3    3    0  502  0.80723700597E+03 -0.39327001740E+03 -0.84229169734E+03  0.12311662291E+04  0.46999998093E+01 0.  1.
</event>
<event>
 5   0  0.3397882E-06  0.2790937E+04  0.7818609E-02  0.8306088E-01
       -1   -1    0    0    0  501  0.00000000000E+00  0.00000000000E+00  0.18017021636E+04  0.18017021636E+04  0.50400001928E-02 0. -1.
        1   -1    0    0  501    0  0.00000000000E+00  0.00000000000E+00 -0.10808292039E+04  0.10808292039E+04  0.50400001928E-02 0.  1.
    10030    2    1    2    0    0  0.00000000000E+00  0.00000000000E+00  0.72087295971E+03  0.28825313675E+04  0.27909369861E+04 0.  0.
        2    1    3    3  502    0 -0.96000327205E+03 -0.99956972111E+02 -0.68047582371E+03  0.11809508988E+04  0.25500000920E-02 0.  1.
       -2    1    3    3    0  502  0.96000327205E+03  0.99956972111E+02  0.14013487834E+04  0.17015804687E+04  0.25500000920E-02 0. -1.
</event>
<event>
 5   0  0.3438130E-06  0.2668955E+04  0.7818609E-02  0.8345149E-01
        1   -1    0    0  501    0  0.00000000000E+00  0.00000000000E+00  0.22227892179E+04  0.22227892179E+04  0.50400001928E-02 0. -1.
       -1   -1    0    0    0  501  0.00000000000E+00  0.00000000000E+00 -0.80116904475E+03  0.80116904476E+03  0.50400001928E-02 0.  1.
    10030    2    1    2    0    0  0.00000000000E+00  0.00000000000E+00  0.14216201731E+04  0.30239582626E+04  0.26689547875E+04 0.  0.
        3    1    3    3  502    0  0.73077581673E+03 -0.11151791667E+04  0.77462227492E+03  0.15419784522E+04  0.10100000352E+00 0. -1.
       -3    1    3    3    0  502 -0.73077581673E+03  0.11151791667E+04  0.64699789821E+03  0.14819798104E+04  0.10100000352E+00 0.  1.
</event>
<event>
 5   0  0.3600963E-06  0.2824462E+04  0.7818609E-02  0.8295714E-01
        1   -1    0    0  501    0  0.00000000000E+00  0.00000000000E+00  0.19843542355E+04  0.19843542355E+04  0.50400001928E-02 0.  1.
       -1   -1    0    0    0  501  0.00000000000E+00  0.00000000000E+00 -0.10050609114E+04  0.10050609114E+04  0.50400001928E-02 0. -1.
    10030    2    1    2    0    0  0.00000000000E+00  0.00000000000E+00  0.97929332407E+03  0.29894151469E+04  0.28244623392E+04 0.  0.
        5    1    3    3  502    0 -0.50459671671E+03 -0.10064073015E+03  0.18816069465E+04  0.19506955667E+04  0.46999998093E+01 0.  1.
       -5    1    3    3    0  502  0.50459671671E+03  0.10064073015E+03 -0.90231362238E+03  0.10387195802E+04  0.46999998093E+01 0. -1.
</event>
<event>
 5   0  0.9260173E-06  0.2827678E+04  0.7818609E-02  0.8294727E-01
        2   -1    0    0  501    0  0.00000000000E+00  0.00000000000E+00  0.10287144201E+04  0.10287144201E+04  0.25500000920E-02 0.  1.
       -2   -1    0    0    0  501  0.00000000000E+00  0.00000000000E+00 -0.19431448323E+04  0.19431448323E+04  0.25500000920E-02 0. -1.
    10030    2    1    2    0    0  0.00000000000E+00  0.00000000000E+00 -0.91443041220E+03  0.29718592525E+04  0.28276782769E+04 0.  0.
        1    1    3    3  502    0  0.68299122687E+03 -0.11429610094E+04 -0.95696494999E+03  0.16397008265E+04  0.50400001928E-02 0.  1.
       -1    1    3    3    0  502 -0.68299122687E+03  0.11429610094E+04  0.42534537787E+02  0.13321584260E+04  0.50400001928E-02 0. -1.
</event>
<event>
 5   0  0.3438130E-06  0.2804826E+04  0.7818609E-02  0.8301772E-01
        1   -1    0    0  501    0  0.00000000000E+00  0.00000000000E+00  0.21016830685E+04  0.21016830685E+04  0.50400001928E-02 0. -1.
       -1   -1    0    0    0  501  0.00000000000E+00  0.00000000000E+00 -0.93580344932E+03  0.93580344933E+03  0.50400001928E-02 0.  1.
    10030    2    1    2    0    0  0.00000000000E+00  0.00000000000E+00  0.11658796192E+04  0.30374865178E+04  0.28048260302E+04 0.  0.
        3    1    3    3  502    0  0.63134928595E+03 -0.44430521549E+03 -0.68496913433E+03  0.10320812810E+04  0.10100000352E+00 0.  1.
       -3    1    3    3    0  502 -0.63134928595E+03  0.44430521549E+03  0.18508487535E+04  0.20054052368E+04  0.10100000352E+00 0. -1.
</event>
<event>
 5   0  0.9342133E-06  0.2569767E+04  0.7818609E-02  0.8378544E-01
        2   -1    0    0  501    0  0.00000000000E+00  0.00000000000E+00  0.15597695407E+04  0.15597695407E+04  0.25500000920E-02 0. -1.
       -2   -1    0    0    0  501  0.00000000000E+00  0.00000000000E+00 -0.10584416848E+04  0.10584416848E+04  0.25500000920E-02 0.  1.
    10030    2    1    2    0    0  0.00000000000E+00  0.00000000000E+00  0.50132785590E+03  0.26182112255E+04  0.25697666046E+04 0.  0.
        2    1    3    3  502    0  0.86574394493E+03  0.46764282965E+03  0.10925109367E+04  0.14703001534E+04  0.25500000920E-02 0.  1.
       -2    1    3    3    0  502 -0.86574394493E+03 -0.46764282965E+03 -0.59118308085E+03  0.11479110721E+04  0.25500000920E-02 0. -1.
</event>
<event>
 5   0  0.3357244E-06  0.2739534E+04  0.7818609E-02  0.8322290E-01
       -1   -1    0    0    0  501  0.00000000000E+00  0.00000000000E+00  0.28787098190E+04  0.28787098190E+04  0.50400001928E-02 0.  1.
        1   -1    0    0  501    0  0.00000000000E+00  0.00000000000E+00 -0.65177176691E+03  0.65177176693E+03  0.50400001928E-02 0. -1.
    10030    2    1    2    0    0  0.00000000000E+00  0.00000000000E+00  0.22269380521E+04  0.35304815860E+04  0.27395341102E+04 0.  0.
        4    1    3    3  502    0 -0.46988812242E+03  0.12118270464E+04  0.55627175824E+03  0.14137749184E+04  0.12699999809E+01 0. -1.
       -4    1    3    3    0  502  0.46988812242E+03 -0.12118270464E+04  0.16706662939E+04  0.21167066675E+04  0.12699999809E+01 0.  1.
</event>
<event>
 5   0  0.3600963E-06  0.2568864E+04  0.7818609E-02  0.8378855E-01
       -1   -1    0    0    0  501  0.00000000000E+00  0.00000000000E+00  0.72791780409E+03  0.72791780411E+03  0.50400001928E-02 0.  1.
        1   -1    0    0  501    0  0.00000000000E+00  0.00000000000E+00 -0.22664174133E+04  0.22664174133E+04  0.50400001928E-02 0. -1.
    10030    2    1    2    0    0  0.00000000000E+00  0.00000000000E+00 -0.15384996092E+04  0.29943352174E+04  0.25688640187E+04 0.  0.
        5    1    3    3  502    0  0.24514125619E+03  0.53021506462E+03 -0.21026167720E+04  0.21822560872E+04  0.46999998093E+01 0. -1.
       -5    1    3    3    0  502 -0.24514125619E+03 -0.53021506462E+03  0.56411716284E+03  0.81207913016E+03  0.46999998093E+01 0.  1.
</event>
<event>
 5   0  0.9252359E-06  0.2802245E+04  0.7818609E-02  0.8302572E-01
       -2   -1    0    0    0  501  0.00000000000E+00  0.00000000000E+00  0.22083881918E+04  0.22083881919E+04  0.25500000920E-02 0.  1.
        2   -1    0    0  501    0  0.00000000000E+00  0.00000000000E+00 -0.88894879229E+03  0.88894879229E+03  0.25500000920E-02 0. -1.
    10030    2    1    2    0    0  0.00000000000E+00  0.00000000000E+00  0.13194393996E+04  0.30973369841E+04  0.28022448259E+04 0.  0.
        5    1    3    3  502    0  0.89110521426E+03 -0.39142426491E+02  0.18540234263E+04  0.20574317942E+04  0.46999998093E+01 0.  1.
       -5    1    3    3    0  502 -0.89110521426E+03  0.39142426491E+02 -0.53458402675E+03  0.10399051900E+04  0.46999998093E+01 0. -1.
</event>
<event>
 5   0  0.3600963E-06  0.2798376E+04  0.7818609E-02  0.8303773E-01
        1   -1    0    0  501    0  0.00000000000E+00  0.00000000000E+00  0.17754903766E+04  0.17754903766E+04  0.50400001928E-02 0.  1.
       -1   -1    0    0    0  501  0.00000000000E+00  0.00000000000E+00 -0.11026398808E+04  0.11026398808E+04  0.50400001928E-02 0. -1.
    10030    2    1    2    0    0  0.00000000000E+00  0.00000000000E+00  0.67285049579E+03  0.28781302574E+04  0.27983755982E+04 0.  0.
        5    1    3    3  502    0 -0.74004965960E+03 -0.92089630943E+01 -0.88482789929E+03  0.11535600570E+04  0.46999998093E+01 0. -1.
       -5    1    3    3    0  502  0.74004965960E+03  0.92089630943E+01  0.15576783951E+04  0.17245702004E+04  0.46999998093E+01 0.  1.
</event>
<event>
 5   0  0.3397882E-06  0.2764590E+04  0.7818609E-02  0.8314347E-01
       -1   -1    0    0    0  501  0.00000000000E+00  0.00000000000E+00  0.15041118600E+04  0.15041118600E+04  0.50400001928E-02 0.  1.
        1   -1    0    0  501    0  0.00000000000E+00  0.00000000000E+00 -0.12703436871E+04  0.12703436871E+04  0.50400001928E-02 0. -1.
    10030    2    1    2    0    0  0.00000000000E+00  0.00000000000E+00  0.23376817291E+03  0.27744555471E+04  0.27645896665E+04 0.  0.
        2    1    3    3  502    0 -0.27073624502E+02 -0.13229838341E+04  0.51795989602E+03  0.14210213441E+04  0.25500000920E-02 0.  1.
       -2    1    3    3    0  502  0.27073624502E+02  0.13229838341E+04 -0.28419172311E+03  0.13534342030E+04  0.25500000920E-02 0. -1.
</event>
<event>
 5   0  0.9260173E-06  0.2824929E+04  0.7818609E-02  0.8295570E-01
       -2   -1    0    0    0  501  0.00000000000E+00  0.00000000000E+00  0.95828614754E+03  0.95828614755E+03  0.25500000920E-02 0. -1.
        2   -1    0    0  501    0  0.00000000000E+00  0.00000000000E+00 -0.20818999317E+04  0.20818999317E+04  0.25500000920E-02 0.  1.
    10030    2    1    2    0    0  0.00000000000E+00  0.00000000000E+00 -0.11236137842E+04  0.30401860793E+04  0.28249289302E+04 0.  0.
        1    1    3    3  502    0 -0.48254746737E+03  0.14308160056E+03  0.85850341365E+03  0.99516456627E+03  0.50400001928E-02 0. -1.
       -1    1    3    3    0  502  0.48254746737E+03 -0.14308160056E+03 -0.19821171978E+04  0.20450215130E+04  0.50400001928E-02 0.  1.
</event>
<event>
 5   0  0.3371603E-06  0.2794734E+04  0.7818609E-02  0.8304905E-01
        1   -1    0    0  501    0  0.00000000000E+00  0.00000000000E+00  0.12748528536E+04  0.12748528536E+04  0.50400001928E-02 0.  1.
       -1   -1    0    0    0  501  0.00000000000E+00  0.00000000000E+00 -0.15316550610E+04  0.15316550610E+04  0.50400001928E-02 0. -1.
    10030    2    1    2    0    0  0.00000000000E+00  0.00000000000E+00 -0.25680220744E+03  0.28065079146E+04  0.27947342094E+04 0.  0.
        1    1    3    3  502    0 -0.16120399434E+03  0.11007496149E+04 -0.97753913011E+03  0.14809521239E+04  0.50400001928E-02 0. -1.
       -1    1    3    3    0  502  0.16120399434E+03 -0.11007496149E+04  0.72073692266E+03  0.13255557907E+04  0.50400001928E-02 0.  1.
</event>
<event>
 5   0  0.9260173E-06  0.2768912E+04  0.7818609E-02  0.8312985E-01
       -2   -1    0    0    0  501  0.00000000000E+00  0.00000000000E+00  0.12625190898E+04  0.12625190898E+04  0.25500000920E-02 0.  1.
        2   -1    0    0  501    0  0.00000000000E+00  0.00000000000E+00 -0.15181701238E+04  0.15181701238E+04  0.25500000920E-02 0. -1.
    10030    2    1    2    0    0  0.00000000000E+00  0.00000000000E+00 -0.25565103408E+03  0.27806892136E+04  0.27689122506E+04 0.  0.
        1    1    3    3  502    0  0.11093440650E+04  0.82073891370E+03 -0.15716733951E+02  0.13800375483E+04  0.50400001928E-02 0. -1.
       -1    1    3    3    0  502 -0.11093440650E+04 -0.82073891370E+03 -0.23993430013E+03  0.14006516653E+04  0.50400001928E-02 0.  1.
</event>
<event>
 5   0  0.9260173E-06  0.2795236E+04  0.7818609E-02  0.8304749E-01
       -2   -1    0    0    0  501  0.00000000000E+00  0.00000000000E+00  0.17187498358E+04  0.17187498358E+04  0.25500000920E-02 0.  1.
        2   -1    0    0  501    0  0.00000000000E+00  0.00000000000E+00 -0.11364867551E+04  0.11364867551E+04  0.25500000920E-02 0. -1.
    10030    2    1    2    0    0  0.00000000000E+00  0.00000000000E+00  0.58226308074E+03  0.28552365909E+04  0.27952362503E+04 0.  0.
        1    1    3    3  502    0  0.16650254571E+03 -0.31394822033E+02  0.17082199495E+04  0.17166024957E+04  0.50400001928E-02 0.  1.
       -1    1    3    3    0  502 -0.16650254571E+03  0.31394822033E+02 -0.11259568687E+04  0.11386340952E+04  0.50400001928E-02 0. -1.
</event>
<event>
 5   0  0.3357244E-06  0.2848696E+04  0.7818609E-02  0.8288308E-01
        1   -1    0    0  501    0  0.00000000000E+00  0.00000000000E+00  0.11684548894E+04  0.11684548894E+04  0.50400001928E-02 0.  1.
       -1   -1    0    0    0  501  0.00000000000E+00  0.00000000000E+00 -0.17362823841E+04  0.17362823841E+04  0.50400001928E-02 0. -1.
    10030    2    1    2    0    0  0.00000000000E+00  0.00000000000E+00 -0.56782749465E+03  0.29047372735E+04  0.28486962921E+04 0.  0.
        4    1    3    3  502    0 -0.99337176510E+03 -0.95178506092E+03 -0.66006616814E+03  0.15259001360E+04  0.12699999809E+01 0.  1.
       -4    1    3    3    0  502  0.99337176510E+03  0.95178506092E+03  0.92238673488E+02  0.13788371375E+04  0.12699999809E+01 0. -1.
</event>
<event>
 5   0  0.3438130E-06  0.2792582E+04  0.7818609E-02  0.8305575E-01
        1   -1    0    0  501    0  0.00000000000E+00  0.00000000000E+00  0.16657797046E+04  0.16657797046E+04  0.50400001928E-02 0. -1.
       -1   -1    0    0    0  501  0.00000000000E+00  0.00000000000E+00 -0.11704000888E+04  0.11704000888E+04  0.50400001928E-02 0.  1.
    10030    2    1    2    0    0  0.00000000000E+00  0.00000000000E+00  0.49537961579E+03  0.28361797935E+04  0.27925821129E+04 0.  0.
        3    1    3    3  502    0  0.10632818724E+04  0.25830321129E+03 -0.63322686450E+03  0.12642251228E+04  0.10100000352E+00 0.  1.
       -3    1    3    3    0  502 -0.10632818724E+04 -0.25830321129E+03  0.11286064803E+04  0.15719546707E+04  0.10100000352E+00 0. -1.
</event>
<event>
 5   0  0.9260173E-06  0.2780212E+04  0.7818609E-02  0.8309438E-01
        2   -1    0    0  501    0  0.00000000000E+00  0.00000000000E+00  0.11450903451E+04  0.11450903451E+04  0.25500000920E-02 0. -1.
       -2   -1    0    0    0  501  0.00000000000E+00  0.00000000000E+00 -0.16875474047E+04  0.16875474047E+04  0.25500000920E-02 0.  1.
    10030    2    1    2    0    0  0.00000000000E+00  0.00000000000E+00 -0.54245705961E+03  0.28326377499E+04  0.27802116755E+04 0.  0.
        1    1    3    3  502    0 -0.25179647550E+03  0.10403993819E+04  0.63237855845E+03  0.12432759067E+04  0.50400001928E-02 0. -1.
       -1    1    3    3    0  502  0.25179647550E+03 -0.10403993819E+04 -0.11748356181E+04  0.15893618432E+04  0.50400001928E-02 0.  1.
</event>
<event>
 5   0  0.3357244E-06  0.2761294E+04  0.7818609E-02  0.8315387E-01
        1   -1    0    0  501    0  0.00000000000E+00  0.00000000000E+00  0.17459134114E+04  0.17459134114E+04  0.50400001928E-02 0.  1.
       -1   -1    0    0    0  501  0.00000000000E+00  0.00000000000E+00 -0.10917986080E+04  0.10917986080E+04  0.50400001928E-02 0. -1.
    10030    2    1    2    0    0  0.00000000000E+00  0.00000000000E+00  0.65411480336E+03  0.28377120194E+04  0.27612937781E+04 0.  0.
        4    1    3    3  502    0 -0.16701362120E+02  0.59547908871E+03  0.16070427335E+04  0.17139026345E+04  0.12699999809E+01 0.  1.
       -4    1    3    3    0  502  0.16701362120E+02 -0.59547908871E+03 -0.95292793010E+03  0.11238093848E+04  0.12699999809E+01 0. -1.
</event>
<event>
 5   0  0.3371603E-06  0.2853925E+04  0.7818609E-02  0.8286720E-01
       -1   -1    0    0    0  501  0.00000000000E+00  0.00000000000E+00  0.86968303279E+03  0.86968303281E+03  0.50400001928E-02 0.  1.
        1   -1    0    0  501    0  0.00000000000E+00  0.00000000000E+00 -0.23413376482E+04  0.23413376482E+04  0.50400001928E-02 0. -1.
    10030    2    1    2    0    0  0.00000000000E+00  0.00000000000E+00 -0.14716546154E+04  0.32110206810E+04  0.28539247549E+04 0.  0.
        1    1    3    3  502    0 -0.83340609824E+02 -0.13527911730E+04 -0.23362333469E+03  0.13753434035E+04  0.50400001928E-02 0.  1.
       -1    1    3    3    0  502  0.83340609824E+02  0.13527911730E+04 -0.12380312807E+04  0.18356772775E+04  0.50400001928E-02 0. -1.
</event>
<event>
 5   0  0.3600963E-06  0.2788057E+04  0.7818609E-02  0.8306986E-01
        1   -1    0    0  501    0  0.00000000000E+00  0.00000000000E+00  0.18139491441E+04  0.18139491441E+04  0.50400001928E-02 0.  1.
       -1   -1    0    0    0  501  0.00000000000E+00  0.00000000000E+00 -0.10713172444E+04  0.10713172444E+04  0.50400001928E-02 0. -1.
    10030    2    1    2    0    0  0.00000000000E+00  0.00000000000E+00  0.74263189970E+03  0.28852663885E+04  0.27880566699E+04 0.  0.
        5    1    3    3  502    0  0.31199480280E+03 -0.28492081289E+03  0.17460815501E+04  0.17964808644E+04  0.46999998093E+01 0.  1.
       -5    1    3    3    0  502 -0.31199480280E+03  0.28492081289E+03 -0.10034496504E+04  0.10887855241E+04  0.46999998093E+01 0. -1.
</event>
<event>
 5   0  0.9260173E-06  0.2828724E+04  0.7818609E-02  0.8294406E-01
        2   -1    0    0  501    0  0.00000000000E+00  0.00000000000E+00  0.12609173757E+04  0.12609173757E+04  0.25500000920E-02 0. -1.
       -2   -1    0    0    0  501  0.00000000000E+00  0.00000000000E+00 -0.15864800543E+04  0.15864800543E+04  0.25500000920E-02 0.  1.
    10030    2    1    2    0    0  0.00000000000E+00  0.00000000000E+00 -0.32556267862E+03  0.28473974299E+04  0.28287242825E+04 0.  0.
        1    1    3    3  502    0  0.44237100796E+03  0.63977973368E+03 -0.13518539988E+04  0.15596536316E+04  0.50400001928E-02 0.  1.
       -1    1    3    3    0  502 -0.44237100796E+03 -0.63977973368E+03  0.10262913202E+04  0.12877437984E+04  0.50400001928E-02 0. -1.
</event>
<event>
 5   0  0.9342133E-06  0.2799034E+04  0.7818609E-02  0.8303568E-01
       -2   -1    0    0    0  501  0.00000000000E+00  0.00000000000E+00  0.13608661720E+04  0.13608661720E+04  0.25500000920E-02 0. -1.
        2   -1    0    0  501    0  0.00000000000E+00  0.00000000000E+00 -0.14392654527E+04  0.14392654527E+04  0.25500000920E-02 0.  1.
    10030    2    1    2    0    0  0.00000000000E+00  0.00000000000E+00 -0.78399280718E+02  0.28001316247E+04  0.27990338812E+04 0.  0.
        2    1    3    3  502    0 -0.12640606463E+04  0.56295146911E+03  0.17036758313E+03  0.13941982597E+04  0.25500000920E-02 0.  1.
       -2    1    3    3    0  502  0.12640606463E+04 -0.56295146911E+03 -0.24876686385E+03  0.14059333649E+04  0.25500000920E-02 0. -1.
</event>
<event>
 5   0  0.3600963E-06  0.2765374E+04  0.7818609E-02  0.8314100E-01
        1   -1    0    0  501    0  0.00000000000E+00  0.00000000000E+00  0.14729339412E+04  0.14729339412E+04  0.50400001928E-02 0. -1.
       -1   -1    0    0    0  501  0.00000000000E+00  0.00000000000E+00 -0.12979692542E+04  0.12979692542E+04  0.50400001928E-02 0.  1.
    10030    2    1    2    0    0  0.00000000000E+00  0.00000000000E+00  0.17496468699E+03  0.27709031954E+04  0.27653737318E+04 0.  0.
        5    1    3    3  502    0 -0.32476285488E+03 -0.81159196174E+03  0.11609079680E+04  0.14532315110E+04  0.46999998093E+01 0. -1.
       -5    1    3    3    0  502  0.32476285488E+03  0.81159196174E+03 -0.98594328106E+03  0.13176716844E+04  0.46999998093E+01 0.  1.
</event>
<event>
 5   0  0.3371603E-06  0.2787991E+04  0.7818609E-02  0.8307006E-01
       -1   -1    0    0    0  501  0.00000000000E+00  0.00000000000E+00  0.17047408292E+04  0.17047408292E+04  0.50400001928E-02 0.  1.
        1   -1    0    0  501    0  0.00000000000E+00  0.00000000000E+00 -0.11398938503E+04  0.11398938503E+04  0.50400001928E-02 0. -1.
    10030    2    1    2    0    0  0.00000000000E+00  0.00000000000E+00  0.56484697886E+03  0.28446346795E+04  0.27879910958E+04 0.  0.
        1    1    3    3  502    0 -0.13876370559E+04 -0.13131404025E+03  0.26093348338E+03  0.14180501609E+04  0.50400001928E-02 0.  1.
       -1    1    3    3    0  502  0.13876370559E+04  0.13131404025E+03  0.30391349548E+03  0.14265845186E+04  0.50400001928E-02 0. -1.
</event>
<event>
 5   0  0.9065579E-06  0.2814489E+04  0.7818609E-02  0.8298784E-01
        2   -1    0    0  501    0  0.00000000000E+00  0.00000000000E+00  0.16247424697E+04  0.16247424697E+04  0.25500000920E-02 0.  1.
       -2   -1    0    0    0  501  0.00000000000E+00  0.00000000000E+00 -0.12188618106E+04  0.12188618107E+04  0.25500000920E-02 0. -1.
    10030    2    1    2    0    0  0.00000000000E+00  0.00000000000E+00  0.40588065904E+03  0.28436042803E+04  0.28144886203E+04 0.  0.
        3    1    3    3  502    0 -0.12428744400E+03 -0.10622912626E+04 -0.72108428301E+03  0.12899118764E+04  0.10100000352E+00 0. -1.
       -3    1    3    3    0  502  0.12428744400E+03  0.10622912626E+04  0.11269649420E+04  0.15536924040E+04  0.10100000352E+00 0.  1.
</event>
<event>
 5   0  0.9426937E-06  0.2709548E+04  0.7818609E-02  0.8331914E-01
        2   -1    0    0  501    0  0.00000000000E+00  0.00000000000E+00  0.15357301459E+04  0.15357301459E+04  0.25500000920E-02 0. -1.
       -2   -1    0    0    0  501  0.00000000000E+00  0.00000000000E+00 -0.11951400196E+04  0.11951400196E+04  0.25500000920E-02 0.  1.
    10030    2    1    2    0    0  0.00000000000E+00  0.00000000000E+00  0.34059012630E+03  0.27308701654E+04  0.27095479745E+04 0.  0.
        4    1    3    3  502    0  0.11431367808E+03  0.87433574659E+03  0.12069219735E+04  0.14947216723E+04  0.12699999809E+01 0. -1.
       -4    1    3    3    0  502 -0.11431367808E+03 -0.87433574659E+03 -0.86633184715E+03  0.12361484931E+04  0.12699999809E+01 0.  1.
</event>
<event>
 5   0  0.9426937E-06  0.2748788E+04  0.7818609E-02  0.8319346E-01
        2   -1    0    0  501    0  0.00000000000E+00  0.00000000000E+00  0.12603859872E+04  0.12603859873E+04  0.25500000920E-02 0.  1.
       -2   -1    0    0    0  501  0.00000000000E+00  0.00000000000E+00 -0.14987142113E+04  0.14987142113E+04  0.25500000920E-02 0. -1.
    10030    2    1    2    0    0  0.00000000000E+00  0.00000000000E+00 -0.23832822405E+03  0.27591001985E+04  0.27487876534E+04 0.  0.
        4    1    3    3  502    0 -0.92195255770E+03  0.84685774154E+03  0.45023141904E+03  0.13303663017E+04  0.12699999809E+01 0.  1.
       -4    1    3    3    0  502  0.92195255770E+03 -0.84685774154E+03 -0.68855964309E+03  0.14287338969E+04  0.12699999809E+01 0. -1.
</event>
<event>
 5   0  0.3438130E-06  0.2817332E+04  0.7818609E-02  0.8297907E-01
        1   -1    0    0  501    0  0.00000000000E+00  0.00000000000E+00  0.16542882058E+04  0.16542882058E+04  0.50400001928E-02 0.  1.
       -1   -1    0    0    0  501  0.00000000000E+00  0.00000000000E+00 -0.11995131189E+04  0.11995131189E+04  0.50400001928E-02 0. -1.
    10030    2    1    2    0    0  0.00000000000E+00  0.00000000000E+00  0.45477508688E+03  0.28538013246E+04  0.28173323590E+04 0.  0.
        3    1    3    3  502    0  0.79542884650E+03  0.10652216153E+04 -0.24440570497E+03  0.13517167966E+04  0.10100000352E+00 0. -1.
       -3    1    3    3    0  502 -0.79542884650E+03 -0.10652216153E+04  0.69918079185E+03  0.15020845280E+04  0.10100000352E+00 0.  1.
</event>
<event>
 5   0  0.3438130E-06  0.2816855E+04  0.7818609E-02  0.8298054E-01
       -1   -1    0    0    0  501  0.00000000000E+00  0.00000000000E+00  0.91949272870E+03  0.91949272871E+03  0.50400001928E-02 0. -1.
        1   -1    0    0  501    0  0.00000000000E+00  0.00000000000E+00 -0.21573510547E+04  0.21573510547E+04  0.50400001928E-02 0.  1.
    10030    2    1    2    0    0  0.00000000000E+00  0.00000000000E+00 -0.12378583260E+04  0.30768437834E+04  0.28168554156E+04 0.  0.
        3    1    3    3  502    0  0.11712120977E+04 -0.57939749289E+03 -0.11930136531E+04  0.17693843051E+04  0.10100000352E+00 0.  1.
       -3    1    3    3    0  502 -0.11712120977E+04  0.57939749289E+03 -0.44844672925E+02  0.13074594783E+04  0.10100000352E+00 0. -1.
</event>
<event>
 5   0  0.3438130E-06  0.2806270E+04  0.7818609E-02  0.8301324E-01
        1   -1    0    0  501    0  0.00000000000E+00  0.00000000000E+00  0.20790027667E+04  0.20790027667E+04  0.50400001928E-02 0. -1.
       -1   -1    0    0    0  501  0.00000000000E+00  0.00000000000E+00 -0.94698668491E+03  0.94698668493E+03  0.50400001928E-02 0.  1.
    10030    2    1    2    0    0  0.00000000000E+00  0.00000000000E+00  0.11320160817E+04  0.30259894516E+04  0.28062700782E+04 0.  0.
        3    1    3    3  502    0  0.94909452494E+01  0.13169534122E+04  0.44028674573E+02  0.13177233785E+04  0.10100000352E+00 0.  1.
       -3    1    3    3    0  502 -0.94909452494E+01 -0.13169534122E+04  0.10879874072E+04  0.17082660731E+04  0.10100000352E+00 0. -1.
</event>
<event>
 5   0  0.3397882E-06  0.2787026E+04  0.7818609E-02  0.8307307E-01
       -1   -1    0    0    0  501  0.00000000000E+00  0.00000000000E+00  0.93333394634E+03  0.93333394635E+03  0.50400001928E-02 0. -1.
        1   -1    0    0  501    0  0.00000000000E+00  0.00000000000E+00 -0.20805832682E+04  0.20805832682E+04  0.50400001928E-02 0.  1.
    10030    2    1    2    0    0  0.00000000000E+00  0.00000000000E+00 -0.11472493219E+04  0.30139172146E+04  0.27870263669E+04 0.  0.
        2    1    3    3  502    0 -0.90066825398E+03  0.69185920098E+03  0.29958034320E+03  0.11745726200E+04  0.25500000920E-02 0. -1.
       -2    1    3    3    0  502  0.90066825398E+03 -0.69185920098E+03 -0.14468296651E+04  0.18393445945E+04  0.25500000920E-02 0.  1.
</event>
<event>
 5   0  0.9065579E-06  0.2972354E+04  0.7818609E-02  0.8251670E-01
       -2   -1    0    0    0  501  0.00000000000E+00  0.00000000000E+00  0.28297285024E+04  0.28297285024E+04  0.25500000920E-02 0.  1.
        2   -1    0    0  501    0  0.00000000000E+00  0.00000000000E+00 -0.78054218400E+03  0.78054218401E+03  0.25500000920E-02 0. -1.
    10030    2    1    2    0    0  0.00000000000E+00  0.00000000000E+00  0.20491863184E+04  0.36102706864E+04  0.29723542624E+04 0.  0.
        3    1    3    3  502    0 -0.46742570133E+03 -0.12748106576E+04  0.17585004797E+04  0.22217004627E+04  0.10100000352E+00 0.  1.
       -3    1    3    3    0  502  0.46742570133E+03  0.12748106576E+04  0.29068583869E+03  0.13885702236E+04  0.10100000352E+00 0. -1.
</event>
<event>
 5   0  0.9065579E-06  0.2841633E+04  0.7818609E-02  0.8290458E-01
       -2   -1    0    0    0  501  0.00000000000E+00  0.00000000000E+00  0.16836767533E+04  0.16836767533E+04  0.25500000920E-02 0. -1.
        2   -1    0    0  501    0  0.00000000000E+00  0.00000000000E+00 -0.11989950302E+04  0.11989950302E+04  0.25500000920E-02 0.  1.
    10030    2    1    2    0    0  0.00000000000E+00  0.00000000000E+00  0.48468172312E+03  0.28826717834E+04  0.28416333751E+04 0.  0.
        3    1    3    3  502    0 -0.93413967531E+03 -0.18504853374E+03 -0.82733509950E+03  0.12614845500E+04  0.10100000352E+00 0.  1.
       -3    1    3    3    0  502  0.93413967531E+03  0.18504853374E+03  0.13120168226E+04  0.16211872334E+04  0.10100000352E+00 0. -1.
</event>
<event>
 5   0  0.3438130E-06  0.2874357E+04  0.7818609E-02  0.8280548E-01
        1   -1    0    0  501    0  0.00000000000E+00  0.00000000000E+00  0.25755033759E+04  0.25755033759E+04  0.50400001928E-02 0. -1.
       -1   -1    0    0    0  501  0.00000000000E+00  0.00000000000E+00 -0.80197241341E+03  0.80197241342E+03  0.50400001928E-02 0.  1.
    10030    2    1    2    0    0  0.00000000000E+00  0.00000000000E+00  0.17735309625E+04  0.33774757893E+04  0.28743574295E+04 0.  0.
        3    1    3    3  502    0 -0.44799969748E+03 -0.13285477486E+04  0.12578610054E+04  0.18836021789E+04  0.10100000352E+00 0. -1.
       -3    1    3    3    0  502  0.44799969748E+03  0.13285477486E+04  0.51566995711E+03  0.14938736105E+04  0.10100000352E+00 0.  1.
</event>
<event>
 5   0  0.9426937E-06  0.2790283E+04  0.7818609E-02  0.8306292E-01
       -2   -1    0    0    0  501  0.00000000000E+00  0.00000000000E+00  0.12502632996E+04  0.12502632996E+04  0.25500000920E-02 0. -1.
        2   -1    0    0  501    0  0.00000000000E+00  0.00000000000E+00 -0.15568074886E+04  0.15568074886E+04  0.25500000920E-02 0.  1.
    10030    2    1    2    0    0  0.00000000000E+00  0.00000000000E+00 -0.30654418897E+03  0.28070707883E+04  0.27902826148E+04 0.  0.
        4    1    3    3  502    0 -0.13184655683E+04  0.45354451658E+03 -0.20218117916E+03  0.14088764763E+04  0.12699999809E+01 0.  1.
       -4    1    3    3    0  502  0.13184655683E+04 -0.45354451658E+03 -0.10436300981E+03  0.13981943120E+04  0.12699999809E+01 0. -1.
</event>
<event>
 5   0  0.9260173E-06  0.2796004E+04  0.7818609E-02  0.8304510E-01
        2   -1    0    0  501    0  0.00000000000E+00  0.00000000000E+00  0.11823735913E+04  0.11823735913E+04  0.25500000920E-02 0. -1.
       -2   -1    0    0    0  501  0.00000000000E+00  0.00000000000E+00 -0.16529542314E+04  0.16529542314E+04  0.25500000920E-02 0.  1.
    10030    2    1    2    0    0  0.00000000000E+00  0.00000000000E+00 -0.47058064004E+03  0.28353278227E+04  0.27960038847E+04 0.  0.
        1    1    3    3  502    0 -0.15007852926E+03  0.68302998763E+03  0.99225368032E+03  0.12139278789E+04  0.50400001928E-02 0. -1.
       -1    1    3    3    0  502  0.15007852926E+03 -0.68302998763E+03 -0.14628343204E+04  0.16213999438E+04  0.50400001928E-02 0.  1.
</event>
<event>
 5   0  0.9426937E-06  0.2555790E+04  0.7818609E-02  0.8383375E-01
       -2   -1    0    0    0  501  0.00000000000E+00  0.00000000000E+00  0.85410099118E+03  0.85410099119E+03  0.25500000920E-02 0.  1.
        2   -1    0    0  501    0  0.00000000000E+00  0.00000000000E+00 -0.19119708798E+04  0.19119708798E+04  0.25500000920E-02 0. -1.
    10030    2    1    2    0    0  0.00000000000E+00  0.00000000000E+00 -0.10578698886E+04  0.27660718710E+04  0.25557904637E+04 0.  0.
        4    1    3    3  502    0  0.43769723377E+03 -0.84159230180E+03 -0.14556304253E+04  0.17374458319E+04  0.12699999809E+01 0. -1.
       -4    1    3    3    0  502 -0.43769723377E+03  0.84159230180E+03  0.39776053664E+03  0.10286260391E+04  0.12699999809E+01 0.  1.
</event>
<event>
 5   0  0.3600963E-06  0.2805867E+04  0.7818609E-02  0.8301449E-01
       -1   -1    0    0    0  501  0.00000000000E+00  0.00000000000E+00  0.10932739372E+04  0.10932739373E+04  0.50400001928E-02 0. -1.
        1   -1    0    0  501    0  0.00000000000E+00  0.00000000000E+00 -0.18003015929E+04  0.18003015929E+04  0.50400001928E-02 0.  1.
    10030    2    1    2    0    0  0.00000000000E+00  0.00000000000E+00 -0.70702765562E+03  0.28935755301E+04  0.28058672889E+04 0.  0.
        5    1    3    3  502    0  0.19273101700E+02 -0.46719411037E+03 -0.17175691515E+04  0.17800864219E+04  0.46999998093E+01 0.  1.
       -5    1    3    3    0  502 -0.19273101700E+02  0.46719411037E+03  0.10105414959E+04  0.11134891082E+04  0.46999998093E+01 0. -1.
</event>
<event>
 5   0  0.9260173E-06  0.2808377E+04  0.7818609E-02  0.8300672E-01
       -2   -1    0    0    0  501  0.00000000000E+00  0.00000000000E+00  0.74424035628E+03  0.74424035629E+03  0.25500000920E-02 0.  1.
        2   -1    0    0  501    0  0.00000000000E+00  0.00000000000E+00 -0.26493403274E+04  0.26493403274E+04  0.25500000920E-02 0. -1.
    10030    2    1    2    0    0  0.00000000000E+00  0.00000000000E+00 -0.19050999711E+04  0.33935806837E+04  0.28083774598E+04 0.  0.
        1    1    3    3  502    0  0.65673253111E+03 -0.11551649301E+04 -0.15010554443E+04  0.20047122188E+04  0.50400001928E-02 0. -1.
       -1    1    3    3    0  502 -0.65673253111E+03  0.11551649301E+04 -0.40404452683E+03  0.13888684649E+04  0.50400001928E-02 0.  1.
</event>
<event>
 5   0  0.9252359E-06  0.2792541E+04  0.7818609E-02  0.8305588E-01
       -2   -1    0    0    0  501  0.00000000000E+00  0.00000000000E+00  0.14404115038E+04  0.14404115038E+04  0.25500000920E-02 0.  1.
        2   -1    0    0  501    0  0.00000000000E+00  0.00000000000E+00 -0.13534826041E+04  0.13534826041E+04  0.25500000920E-02 0. -1.
    10030    2    1    2    0    0  0.00000000000E+00  0.00000000000E+00  0.86928899760E+02  0.27938941079E+04  0.27925414325E+04 0.  0.
        5    1    3    3  502    0  0.13275226892E+04  0.31246805830E+03 -0.25600819627E+03  0.13876292965E+04  0.46999998093E+01 0.  1.
       -5    1    3    3    0  502 -0.13275226892E+04 -0.31246805830E+03  0.34293709603E+03  0.14062648114E+04  0.46999998093E+01 0. -1.
</event>
<event>
 5   0  0.3357244E-06  0.2790277E+04  0.7818609E-02  0.8306293E-01
        1   -1    0    0  501    0  0.00000000000E+00  0.00000000000E+00  0.13465397787E+04  0.13465397787E+04  0.50400001928E-02 0. -1.
       -1   -1    0    0    0  501  0.00000000000E+00  0.00000000000E+00 -0.14454914201E+04  0.14454914201E+04  0.50400001928E-02 0.  1.
    10030    2    1    2    0    0  0.00000000000E+00  0.00000000000E+00 -0.98951641398E+02  0.27920311988E+04  0.27902771884E+04 0.  0.
        4    1    3    3  502    0  0.10141626962E+03  0.31389965508E+03 -0.14059060006E+04  0.14440884837E+04  0.12699999809E+01 0.  1.
       -4    1    3    3    0  502 -0.10141626962E+03 -0.31389965508E+03  0.13069543592E+04  0.13479427151E+04  0.12699999809E+01 0. -1.
</event>
<event>
 5   0  0.9252359E-06  0.2835954E+04  0.7818609E-02  0.8292192E-01
       -2   -1    0    0    0  501  0.00000000000E+00  0.00000000000E+00  0.14327195866E+04  0.14327195866E+04  0.25500000920E-02 0.  1.
        2   -1    0    0  501    0  0.00000000000E+00  0.00000000000E+00 -0.14033863730E+04  0.14033863730E+04  0.25500000920E-02 0. -1.
    10030    2    1    2    0    0  0.00000000000E+00  0.00000000000E+00  0.29333213589E+02  0.28361059596E+04  0.28359542620E+04 0.  0.
        5    1    3    3  502    0 -0.97285128227E+03  0.10051448016E+04 -0.21746940723E+03  0.14156520486E+04  0.46999998093E+01 0. -1.
       -5    1    3    3    0  502  0.97285128227E+03 -0.10051448016E+04  0.24680262082E+03  0.14204539110E+04  0.46999998093E+01 0.  1.
</event>
<event>
 5   0  0.9342133E-06  0.2788613E+04  0.7818609E-02  0.8306812E-01
        2   -1    0    0  501    0  0.00000000000E+00  0.00000000000E+00  0.20928721383E+04  0.20928721383E+04  0.25500000920E-02 0.  1.
       -2   -1    0    0    0  501  0.00000000000E+00  0.00000000000E+00 -0.92891026415E+03  0.92891026415E+03  0.25500000920E-02 0. -1.
    10030    2    1    2    0    0  0.00000000000E+00  0.00000000000E+00  0.11639618741E+04  0.30217824024E+04  0.27886128529E+04 0.  0.
        2    1    3    3  502    0  0.13142269945E+04 -0.42301235736E+03  0.79310060859E+03  0.15922124930E+04  0.25500000920E-02 0. -1.
       -2    1    3    3    0  502 -0.13142269945E+04  0.42301235736E+03  0.37086126554E+03  0.14295699094E+04  0.25500000920E-02 0.  1.
</event>
<event>
 5   0  0.9342133E-06  0.2641229E+04  0.7818609E-02  0.8354330E-01
        2   -1    0    0  501    0  0.00000000000E+00  0.00000000000E+00  0.18561224649E+04  0.18561224649E+04  0.25500000920E-02 0. -1.
       -2   -1    0    0    0  501  0.00000000000E+00  0.00000000000E+00 -0.93960513478E+03  0.93960513479E+03  0.25500000920E-02 0.  1.
    10030    2    1    2    0    0  0.00000000000E+00  0.00000000000E+00  0.91651733009E+03  0.27957275997E+04  0.26412286526E+04 0.  0.
        2    1    3    3  502    0  0.25509635581E+03 -0.11347405326E+04  0.11203995750E+04  0.16149320217E+04  0.25500000920E-02 0. -1.
       -2    1    3    3    0  502 -0.25509635581E+03  0.11347405326E+04 -0.20388224487E+03  0.11807955780E+04  0.25500000920E-02 0.  1.
</event>
<event>
 5   0  0.3438130E-06  0.2792526E+04  0.7818609E-02  0.8305593E-01
       -1   -1    0    0    0  501  0.00000000000E+00  0.00000000000E+00  0.34036608274E+04  0.34036608274E+04  0.50400001928E-02 0.  1.
        1   -1    0    0  501    0  0.00000000000E+00  0.00000000000E+00 -0.57278028630E+03  0.57278028632E+03  0.50400001928E-02 0. -1.
    10030    2    1    2    0    0  0.00000000000E+00  0.00000000000E+00  0.28308805411E+04  0.39764411138E+04  0.27925256119E+04 0.  0.
        3    1    3    3  502    0 -0.28594270111E+03  0.37261266940E+03 -0.45691455031E+03  0.65526662222E+03  0.10100000352E+00 0. -1.
       -3    1    3    3    0  502  0.28594270111E+03 -0.37261266940E+03  0.32877950914E+04  0.33211744915E+04  0.10100000352E+00 0.  1.
</event>
<event>
 5   0  0.3397882E-06  0.2827571E+04  0.7818609E-02  0.8294760E-01
       -1   -1    0    0    0  501  0.00000000000E+00  0.00000000000E+00  0.11423888022E+04  0.11423888022E+04  0.50400001928E-02 0.  1.
        1   -1    0    0  501    0  0.00000000000E+00  0.00000000000E+00 -0.17496573215E+04  0.17496573215E+04  0.50400001928E-02 0. -1.
    10030    2    1    2    0    0  0.00000000000E+00  0.00000000000E+00 -0.60726851935E+03  0.28920461238E+04  0.28275706406E+04 0.  0.
        2    1    3    3  502    0  0.95952171678E+03  0.99251909884E+03 -0.61556862023E+03  0.15115226802E+04  0.25500000920E-02 0. -1.
       -2    1    3    3    0  502 -0.95952171678E+03 -0.99251909884E+03  0.83001008844E+01  0.13805234436E+04  0.25500000920E-02 0.  1.
</event>
<event>
 5   0  0.9260173E-06  0.2817680E+04  0.7818609E-02  0.8297800E-01
       -2   -1    0    0    0  501  0.00000000000E+00  0.00000000000E+00  0.90266581988E+03  0.90266581989E+03  0.25500000920E-02 0.  1.
        2   -1    0    0  501    0  0.00000000000E+00  0.00000000000E+00 -0.21988532055E+04  0.21988532055E+04  0.25500000920E-02 0. -1.
    10030    2    1    2    0    0  0.00000000000E+00  0.00000000000E+00 -0.12961873856E+04  0.31015190254E+04  0.28176796351E+04 0.  0.
        1    1    3    3  502    0 -0.82176843754E+03 -0.47063977913E+03  0.50006565731E+03  0.10709205518E+04  0.50400001928E-02 0.  1.
       -1    1    3    3    0  502  0.82176843754E+03  0.47063977913E+03 -0.17962530429E+04  0.20305984735E+04  0.50400001928E-02 0. -1.
</event>
<event>
 5   0  0.3397882E-06  0.2381846E+04  0.7818609E-02  0.8446332E-01
       -1   -1    0    0    0  501  0.00000000000E+00  0.00000000000E+00  0.15362686576E+04  0.15362686577E+04  0.50400001928E-02 0. -1.
        1   -1    0    0  501    0  0.00000000000E+00  0.00000000000E+00 -0.92320900962E+03  0.92320900964E+03  0.50400001928E-02 0.  1.
    10030    2    1    2    0    0  0.00000000000E+00  0.00000000000E+00  0.61305964803E+03  0.24594776673E+04  0.23818455584E+04 0.  0.
        2    1    3    3  502    0 -0.62997959954E+03  0.85623666048E+03  0.86094832050E+03  0.13679354975E+04  0.25500000920E-02 0. -1.
       -2    1    3    3    0  502  0.62997959954E+03 -0.85623666048E+03 -0.24788867248E+03  0.10915421698E+04  0.25500000920E-02 0.  1.
</event>
<event>
 5   0  0.3600963E-06  0.2831458E+04  0.7818609E-02  0.8293568E-01
        1   -1    0    0  501    0  0.00000000000E+00  0.00000000000E+00  0.20685962417E+04  0.20685962417E+04  0.50400001928E-02 0.  1.
       -1   -1    0    0    0  501  0.00000000000E+00  0.00000000000E+00 -0.96891274612E+03  0.96891274613E+03  0.50400001928E-02 0. -1.
    10030    2    1    2    0    0  0.00000000000E+00  0.00000000000E+00  0.10996834956E+04  0.30375089878E+04  0.28314584688E+04 0.  0.
        5    1    3    3  502    0  0.11154541901E+04  0.87163137848E+03  0.53164047485E+03  0.15121650025E+04  0.46999998093E+01 0. -1.
       -5    1    3    3    0  502 -0.11154541901E+04 -0.87163137848E+03  0.56804302073E+03  0.15253439854E+04  0.46999998093E+01 0.  1.
</event>
<event>
 5   0  0.9252359E-06  0.2802024E+04  0.7818609E-02  0.8302640E-01
       -2   -1    0    0    0  501  0.00000000000E+00  0.00000000000E+00  0.11949072044E+04  0.11949072044E+04  0.25500000920E-02 0. -1.
        2   -1    0    0  501    0  0.00000000000E+00  0.00000000000E+00 -0.16426668092E+04  0.16426668092E+04  0.25500000920E-02 0.  1.
    10030    2    1    2    0    0  0.00000000000E+00  0.00000000000E+00 -0.44775960480E+03  0.28375740136E+04  0.28020238434E+04 0.  0.
        5    1    3    3  502    0 -0.12245217779E+04  0.21593731550E+03 -0.87761618214E+03  0.15219444017E+04  0.46999998093E+01 0. -1.
       -5    1    3    3    0  502  0.12245217779E+04 -0.21593731550E+03  0.42985657734E+03  0.13156296119E+04  0.46999998093E+01 0.  1.
</event>
<event>
 5   0  0.3397882E-06  0.2791146E+04  0.7818609E-02  0.8306022E-01
        1   -1    0    0  501    0  0.00000000000E+00  0.00000000000E+00  0.14932852980E+04  0.14932852980E+04  0.50400001928E-02 0.  1.
       -1   -1    0    0    0  501  0.00000000000E+00  0.00000000000E+00 -0.13042543697E+04  0.13042543697E+04  0.50400001928E-02 0. -1.
    10030    2    1    2    0    0  0.00000000000E+00  0.00000000000E+00  0.18903092833E+03  0.27975396678E+04  0.27911459118E+04 0.  0.
        2    1    3    3  502    0 -0.57031437619E+03  0.78740489197E+03 -0.90895673110E+03  0.13309647969E+04  0.25500000920E-02 0. -1.
       -2    1    3    3    0  502  0.57031437619E+03 -0.78740489197E+03  0.10979876594E+04  0.14665748709E+04  0.25500000920E-02 0.  1.
</event>
<event>
 5   0  0.3438130E-06  0.2777164E+04  0.7818609E-02  0.8310393E-01
        1   -1    0    0  501    0  0.00000000000E+00  0.00000000000E+00  0.22976335570E+04  0.22976335570E+04  0.50400001928E-02 0. -1.
       -1   -1    0    0    0  501  0.00000000000E+00  0.00000000000E+00 -0.83919412187E+03  0.83919412189E+03  0.50400001928E-02 0.  1.
    10030    2    1    2    0    0  0.00000000000E+00  0.00000000000E+00  0.14584394351E+04  0.31368276789E+04  0.27771644354E+04 0.  0.
        3    1    3    3  502    0 -0.51556766835E+03 -0.12721200172E+04  0.49212752246E+03  0.14581799846E+04  0.10100000352E+00 0.  1.
       -3    1    3    3    0  502  0.51556766835E+03  0.12721200172E+04  0.96631191266E+03  0.16786476943E+04  0.10100000352E+00 0. -1.
</event>
<event>
 5   0  0.3600963E-06  0.2664792E+04  0.7818609E-02  0.8346520E-01
       -1   -1    0    0    0  501  0.00000000000E+00  0.00000000000E+00  0.10329908720E+04  0.10329908720E+04  0.50400001928E-02 0.  1.
        1   -1    0    0  501    0  0.00000000000E+00  0.00000000000E+00 -0.17185815076E+04  0.17185815076E+04  0.50400001928E-02 0. -1.
    10030    2    1    2    0    0  0.00000000000E+00  0.00000000000E+00 -0.68559063560E+03  0.27515723795E+04  0.26647919319E+04 0.  0.
        5    1    3    3  502    0  0.11217891916E+03 -0.17584638348E+03  0.10160197137E+04  0.10372194604E+04  0.46999998093E+01 0.  1.
       -5    1    3    3    0  502 -0.11217891916E+03  0.17584638348E+03 -0.17016103493E+04  0.17143529191E+04  0.46999998093E+01 0. -1.
</event>
<event>
 5   0  0.9342133E-06  0.2778810E+04  0.7818609E-02  0.8309877E-01
       -2   -1    0    0    0  501  0.00000000000E+00  0.00000000000E+00  0.86602141339E+03  0.86602141339E+03  0.25500000920E-02 0.  1.
        2   -1    0    0  501    0  0.00000000000E+00  0.00000000000E+00 -0.22290978197E+04  0.22290978197E+04  0.25500000920E-02 0. -1.
    10030    2    1    2    0    0  0.00000000000E+00  0.00000000000E+00 -0.13630764063E+04  0.30951192331E+04  0.27788101370E+04 0.  0.
        2    1    3    3  502    0  0.29220813874E+03 -0.12737316579E+04 -0.15594721192E+03  0.13160917390E+04  0.25500000920E-02 0.  1.
       -2    1    3    3    0  502 -0.29220813874E+03  0.12737316579E+04 -0.12071291944E+04  0.17790274940E+04  0.25500000920E-02 0. -1.
</event>
<event>
 5   0  0.9065579E-06  0.2796564E+04  0.7818609E-02  0.8304336E-01
        2   -1    0    0  501    0  0.00000000000E+00  0.00000000000E+00  0.28668478766E+04  0.28668478766E+04  0.25500000920E-02 0.  1.
       -2   -1    0    0    0  501  0.00000000000E+00  0.00000000000E+00 -0.68200070380E+03  0.68200070381E+03  0.25500000920E-02 0. -1.
    10030    2    1    2    0    0  0.00000000000E+00  0.00000000000E+00  0.21848471728E+04  0.35488485804E+04  0.27965637984E+04 0.  0.
        3    1    3    3  502    0 -0.62232923106E+03 -0.69292862411E+03  0.24159328538E+04  0.25892422278E+04  0.10100000352E+00 0.  1.
       -3    1    3    3    0  502  0.62232923106E+03  0.69292862411E+03 -0.23108568094E+03  0.95960635267E+03  0.10100000352E+00 0. -1.
</event>
<event>
 5   0  0.3438130E-06  0.2700232E+04  0.7818609E-02  0.8334930E-01
        1   -1    0    0  501    0  0.00000000000E+00  0.00000000000E+00  0.18190136789E+04  0.18190136789E+04  0.50400001928E-02 0. -1.
       -1   -1    0    0    0  501  0.00000000000E+00  0.00000000000E+00 -0.10020884346E+04  0.10020884346E+04  0.50400001928E-02 0.  1.
    10030    2    1    2    0    0  0.00000000000E+00  0.00000000000E+00  0.81692524426E+03  0.28211021135E+04  0.27002315234E+04 0.  0.
        3    1    3    3  502    0  0.91766340446E+03 -0.12155554714E+03  0.14352742653E+04  0.17078917125E+04  0.10100000352E+00 0. -1.
       -3    1    3    3    0  502 -0.91766340446E+03  0.12155554714E+03 -0.61834902101E+03  0.11132104010E+04  0.10100000352E+00 0.  1.
</event>
<event>
 5   0  0.9260173E-06  0.2787344E+04  0.7818609E-02  0.8307208E-01
       -2   -1    0    0    0  501  0.00000000000E+00  0.00000000000E+00  0.15148631486E+04  0.15148631486E+04  0.25500000920E-02 0.  1.
        2   -1    0    0  501    0  0.00000000000E+00  0.00000000000E+00 -0.12821765380E+04  0.12821765380E+04  0.25500000920E-02 0. -1.
    10030    2    1    2    0    0  0.00000000000E+00  0.00000000000E+00  0.23268661059E+03  0.27970396866E+04  0.27873442467E+04 0.  0.
        1    1    3    3  502    0  0.10853248458E+04 -0.25328636126E+03  0.95605625875E+03  0.14683758278E+04  0.50400001928E-02 0.  1.
       -1    1    3    3    0  502 -0.10853248458E+04  0.25328636126E+03 -0.72336964816E+03  0.13286638588E+04  0.50400001928E-02 0. -1.
</event>
<event>
 5   0  0.9260173E-06  0.2814354E+04  0.7818609E-02  0.8298826E-01
       -2   -1    0    0    0  501  0.00000000000E+00  0.00000000000E+00  0.11416008856E+04  0.11416008856E+04  0.25500000920E-02 0. -1.
        2   -1    0    0  501    0  0.00000000000E+00  0.00000000000E+00 -0.17345349821E+04  0.17345349821E+04  0.25500000920E-02 0.  1.
    10030    2    1    2    0    0  0.00000000000E+00  0.00000000000E+00 -0.59293409653E+03  0.28761358677E+04  0.28143536890E+04 0.  0.
        1    1    3    3  502    0 -0.12528572418E+04  0.48698960533E+03 -0.72194373496E+03  0.15257827173E+04  0.50400001928E-02 0. -1.
       -1    1    3    3    0  502  0.12528572418E+04 -0.48698960533E+03  0.12900963843E+03  0.13503531504E+04  0.50400001928E-02 0.  1.
</event>
<event>
 5   0  0.9252359E-06  0.2820723E+04  0.7818609E-02  0.8296864E-01
        2   -1    0    0  501    0  0.00000000000E+00  0.00000000000E+00  0.12971817458E+04  0.12971817458E+04  0.25500000920E-02 0.  1.
       -2   -1    0    0    0  501  0.00000000000E+00  0.00000000000E+00 -0.15334159009E+04  0.15334159009E+04  0.25500000920E-02 0. -1.
    10030    2    1    2    0    0  0.00000000000E+00  0.00000000000E+00 -0.23623415507E+03  0.28305976467E+04  0.28207226842E+04 0.  0.
        5    1    3    3  502    0 -0.76422785743E+03  0.99744925056E+03  0.52455279787E+03  0.13616633039E+04  0.46999998093E+01 0.  1.
       -5    1    3    3    0  502  0.76422785743E+03 -0.99744925056E+03 -0.76078695294E+03  0.14689343427E+04  0.46999998093E+01 0. -1.
</event>
<event>
 5   0  0.9065579E-06  0.2778672E+04  0.7818609E-02  0.8309921E-01
       -2   -1    0    0    0  501  0.00000000000E+00  0.00000000000E+00  0.76239226319E+03  0.76239226320E+03  0.25500000920E-02 0. -1.
        2   -1    0    0  501    0  0.00000000000E+00  0.00000000000E+00 -0.25318383454E+04  0.25318383454E+04  0.25500000920E-02 0.  1.
    10030    2    1    2    0    0  0.00000000000E+00  0.00000000000E+00 -0.17694460822E+04  0.32942306086E+04  0.27786716008E+04 0.  0.
        3    1    3    3  502    0 -0.18901478150E+03 -0.63036340306E+03 -0.23353382930E+04  0.24262913182E+04  0.10100000352E+00 0.  1.
       -3    1    3    3    0  502  0.18901478150E+03  0.63036340306E+03  0.56589221077E+03  0.86793929048E+03  0.10100000352E+00 0. -1.
</event>
<event>
 5   0  0.3371603E-06  0.2846856E+04  0.7818609E-02  0.8288867E-01
        1   -1    0    0  501    0  0.00000000000E+00  0.00000000000E+00  0.18673655670E+04  0.18673655670E+04  0.50400001928E-02 0. -1.
       -1   -1    0    0    0  501  0.00000000000E+00  0.00000000000E+00 -0.10850300836E+04  0.10850300836E+04  0.50400001928E-02 0.  1.
    10030    2    1    2    0    0  0.00000000000E+00  0.00000000000E+00  0.78233548342E+03  0.29523956506E+04  0.28468563837E+04 0.  0.
        1    1    3    3  502    0  0.58486226558E+03 -0.23061698176E+03 -0.93324280936E+03  0.11252511734E+04  0.50400001928E-02 0.  1.
       -1    1    3    3    0  502 -0.58486226558E+03  0.23061698176E+03  0.17155782928E+04  0.18271444772E+04  0.50400001928E-02 0. -1.
</event>
<event>
 5   0  0.3371603E-06  0.2819498E+04  0.7818609E-02  0.8297240E-01
       -1   -1    0    0    0  501  0.00000000000E+00  0.00000000000E+00  0.14817971722E+04  0.14817971722E+04  0.50400001928E-02 0.  1.
        1   -1    0    0  501    0  0.00000000000E+00  0.00000000000E+00 -0.13412039751E+04  0.13412039751E+04  0.50400001928E-02 0. -1.
    10030    2    1    2    0    0  0.00000000000E+00  0.00000000000E+00  0.14059319717E+03  0.28230011473E+04  0.28194980104E+04 0.  0.
        1    1    3    3  502    0 -0.10950269977E+03  0.59594303601E+03  0.13447698397E+04  0.14749728354E+04  0.50400001928E-02 0.  1.
       -1    1    3    3    0  502  0.10950269977E+03 -0.59594303601E+03 -0.12041766425E+04  0.13480283119E+04  0.50400001928E-02 0. -1.
</event>
<event>
 5   0  0.3438130E-06  0.2804699E+04  0.7818609E-02  0.8301811E-01
       -1   -1    0    0    0  501  0.00000000000E+00  0.00000000000E+00  0.10851944274E+04  0.10851944274E+04  0.50400001928E-02 0.  1.
        1   -1    0    0  501    0  0.00000000000E+00  0.00000000000E+00 -0.18121957642E+04  0.18121957642E+04  0.50400001928E-02 0. -1.
    10030    2    1    2    0    0  0.00000000000E+00  0.00000000000E+00 -0.72700133686E+03  0.28973901916E+04  0.28046994453E+04 0.  0.
        3    1    3    3  502    0  0.13953811476E+04  0.13903926612E+03 -0.37674102538E+03  0.14520173122E+04  0.10100000352E+00 0.  1.
       -3    1    3    3    0  502 -0.13953811476E+04 -0.13903926612E+03 -0.35026031147E+03  0.14453728794E+04  0.10100000352E+00 0. -1.
</event>
<event>
 5   0  0.9252359E-06  0.2807865E+04  0.7818609E-02  0.8300831E-01
        2   -1    0    0  501    0  0.00000000000E+00  0.00000000000E+00  0.15225378056E+04  0.15225378056E+04  0.25500000920E-02 0.  1.
       -2   -1    0    0    0  501  0.00000000000E+00  0.00000000000E+00 -0.12945662974E+04  0.12945662974E+04  0.25500000920E-02 0. -1.
    10030    2    1    2    0    0  0.00000000000E+00  0.00000000000E+00  0.22797150819E+03  0.28171041030E+04  0.28078647615E+04 0.  0.
        5    1    3    3  502    0 -0.11797892191E+04  0.34546970729E+03 -0.56629561917E+03  0.13535009192E+04  0.46999998093E+01 0. -1.
       -5    1    3    3    0  502  0.11797892191E+04 -0.34546970729E+03  0.79426712737E+03  0.14636031838E+04  0.46999998093E+01 0.  1.
</event>
<event>
 5   0  0.9260173E-06  0.2770395E+04  0.7818609E-02  0.8312519E-01
       -2   -1    0    0    0  501  0.00000000000E+00  0.00000000000E+00  0.21697458546E+04  0.21697458546E+04  0.25500000920E-02 0. -1.
        2   -1    0    0  501    0  0.00000000000E+00  0.00000000000E+00 -0.88433030926E+03  0.88433030926E+03  0.25500000920E-02 0.  1.
    10030    2    1    2    0    0  0.00000000000E+00  0.00000000000E+00  0.12854155453E+04  0.30540761639E+04  0.27703949340E+04 0.  0.
        1    1    3    3  502    0  0.46719380162E+02  0.71552257079E+03 -0.66381536181E+03  0.97714179340E+03  0.50400001928E-02 0.  1.
       -1    1    3    3    0  502 -0.46719380162E+02 -0.71552257079E+03  0.19492309071E+04  0.20769343705E+04  0.50400001928E-02 0. -1.
</event>
<event>
 5   0  0.3600963E-06  0.2826352E+04  0.7818609E-02  0.8295133E-01
        1   -1    0    0  501    0  0.00000000000E+00  0.00000000000E+00  0.24789906137E+04  0.24789906137E+04  0.50400001928E-02 0. -1.
       -1   -1    0    0    0  501  0.00000000000E+00  0.00000000000E+00 -0.80559688015E+03  0.80559688016E+03  0.50400001928E-02 0.  1.
    10030    2    1    2    0    0  0.00000000000E+00  0.00000000000E+00  0.16733937336E+04  0.32845874939E+04  0.28263524935E+04 0.  0.
        5    1    3    3  502    0 -0.13727604122E+04  0.13909659500E+03  0.48186465297E+03  0.14615179253E+04  0.46999998093E+01 0.  1.
       -5    1    3    3    0  502  0.13727604122E+04 -0.13909659500E+03  0.11915290806E+04  0.18230695686E+04  0.46999998093E+01 0. -1.
</event>
<event>
 5   0  0.3600963E-06  0.2690685E+04  0.7818609E-02  0.8338034E-01
        1   -1    0    0  501    0  0.00000000000E+00  0.00000000000E+00  0.17218187883E+04  0.17218187883E+04  0.50400001928E-02 0. -1.
       -1   -1    0    0    0  501  0.00000000000E+00  0.00000000000E+00 -0.10511831482E+04  0.10511831482E+04  0.50400001928E-02 0.  1.
    10030    2    1    2    0    0  0.00000000000E+00  0.00000000000E+00  0.67063564012E+03  0.27730019365E+04  0.26906853362E+04 0.  0.
        5    1    3    3  502    0 -0.78218039699E+03 -0.20045064937E+03  0.14443137333E+04  0.16547056797E+04  0.46999998093E+01 0. -1.
       -5    1    3    3    0  502  0.78218039699E+03  0.20045064937E+03 -0.77367809316E+03  0.11182962569E+04  0.46999998093E+01 0.  1.
</event>
<event>
 5   0  0.9260173E-06  0.2808672E+04  0.7818609E-02  0.8300581E-01
        2   -1    0    0  501    0  0.00000000000E+00  0.00000000000E+00  0.19191492165E+04  0.19191492165E+04  0.25500000920E-02 0.  1.
       -2   -1    0    0    0  501  0.00000000000E+00  0.00000000000E+00 -0.10276216997E+04  0.10276216997E+04  0.25500000920E-02 0. -1.
    10030    2    1    2    0    0  0.00000000000E+00  0.00000000000E+00  0.89152751686E+03  0.29467709162E+04  0.28086718426E+04 0.  0.
        1    1    3    3  502    0  0.47380024480E+03  0.13144964528E+04  0.29823784997E+03  0.14287523968E+04  0.50400001928E-02 0. -1.
       -1    1    3    3    0  502 -0.47380024480E+03 -0.13144964528E+04  0.59328966689E+03  0.15180185194E+04  0.50400001928E-02 0.  1.
</event>
<event>
 5   0  0.3438130E-06  0.2796316E+04  0.7818609E-02  0.8304413E-01
        1   -1    0    0  501    0  0.00000000000E+00  0.00000000000E+00  0.23458254711E+04  0.23458254711E+04  0.50400001928E-02 0. -1.
       -1   -1    0    0    0  501  0.00000000000E+00  0.00000000000E+00 -0.83332937575E+03  0.83332937576E+03  0.50400001928E-02 0.  1.
    10030    2    1    2    0    0  0.00000000000E+00  0.00000000000E+00  0.15124960953E+04  0.31791548468E+04  0.27963156299E+04 0.  0.
        3    1    3    3  502    0 -0.71710844977E+03  0.44765489778E+03  0.20223607780E+04  0.21919358027E+04  0.10100000352E+00 0. -1.
       -3    1    3    3    0  502  0.71710844977E+03 -0.44765489778E+03 -0.50986468274E+03  0.98721904416E+03  0.10100000352E+00 0.  1.
</event>
<event>
 5   0  0.3397882E-06  0.2851213E+04  0.7818609E-02  0.8287543E-01
       -1   -1    0    0    0  501  0.00000000000E+00  0.00000000000E+00  0.14729792847E+04  0.14729792847E+04  0.50400001928E-02 0.  1.
        1   -1    0    0  501    0  0.00000000000E+00  0.00000000000E+00 -0.13797571738E+04  0.13797571738E+04  0.50400001928E-02 0. -1.
    10030    2    1    2    0    0  0.00000000000E+00  0.00000000000E+00  0.93222110930E+02  0.28527364586E+04  0.28512128893E+04 0.  0.
        2    1    3    3  502    0  0.20803786372E+03  0.13750207280E+04 -0.26723151844E+03  0.14161124389E+04  0.25500000920E-02 0. -1.
       -2    1    3    3    0  502 -0.20803786372E+03 -0.13750207280E+04  0.36045362937E+03  0.14366240197E+04  0.25500000920E-02 0.  1.
</event>
<event>
 5   0  0.3357244E-06  0.2797328E+04  0.7818609E-02  0.8304098E-01
       -1   -1    0    0    0  501  0.00000000000E+00  0.00000000000E+00  0.10854243716E+04  0.10854243716E+04  0.50400001928E-02 0.  1.
        1   -1    0    0  501    0  0.00000000000E+00  0.00000000000E+00 -0.18023003817E+04  0.18023003817E+04  0.50400001928E-02 0. -1.
    10030    2    1    2    0    0  0.00000000000E+00  0.00000000000E+00 -0.71687601008E+03  0.28877247533E+04  0.27973278386E+04 0.  0.
        4    1    3    3  502    0 -0.11786015315E+04  0.36420942430E+03 -0.10389125003E+04  0.16127897789E+04  0.12699999809E+01 0. -1.
       -4    1    3    3    0  502  0.11786015315E+04 -0.36420942430E+03  0.32203649025E+03  0.12749349743E+04  0.12699999809E+01 0.  1.
</event>
<event>
 5   0  0.3357244E-06  0.2794962E+04  0.7818609E-02  0.8304834E-01
        1   -1    0    0  501    0  0.00000000000E+00  0.00000000000E+00  0.18441332641E+04  0.18441332641E+04  0.50400001928E-02 0.  1.
       -1   -1    0    0    0  501  0.00000000000E+00  0.00000000000E+00 -0.10590088129E+04  0.10590088129E+04  0.50400001928E-02 0. -1.
    10030    2    1    2    0    0  0.00000000000E+00  0.00000000000E+00  0.78512445120E+03  0.29031420769E+04  0.27949621670E+04 0.  0.
        4    1    3    3  502    0  0.11135426107E+04 -0.25577203537E+03 -0.44329246337E+03  0.12255228684E+04  0.12699999809E+01 0. -1.
       -4    1    3    3    0  502 -0.11135426107E+04  0.25577203537E+03  0.12284169146E+04  0.16776192085E+04  0.12699999809E+01 0.  1.
</event>
<event>
 5   0  0.3371603E-06  0.2829813E+04  0.7818609E-02  0.8294072E-01
        1   -1    0    0  501    0  0.00000000000E+00  0.00000000000E+00  0.79188329830E+03  0.79188329831E+03  0.50400001928E-02 0.  1.
       -1   -1    0    0    0  501  0.00000000000E+00  0.00000000000E+00 -0.25281001512E+04  0.25281001512E+04  0.50400001928E-02 0. -1.
    10030    2    1    2    0    0  0.00000000000E+00  0.00000000000E+00 -0.17362168529E+04  0.33199834495E+04  0.28298129169E+04 0.  0.
        1    1    3    3  502    0 -0.32153762517E+03  0.13042884125E+04 -0.13893726336E+04  0.19325917889E+04  0.50400001928E-02 0. -1.
       -1    1    3    3    0  502  0.32153762517E+03 -0.13042884125E+04 -0.34684421931E+03  0.13873916606E+04  0.50400001928E-02 0.  1.
</event>
<event>
 5   0  0.3438130E-06  0.2788561E+04  0.7818609E-02  0.8306829E-01
       -1   -1    0    0    0  501  0.00000000000E+00  0.00000000000E+00  0.25878513069E+04  0.25878513069E+04  0.50400001928E-02 0. -1.
        1   -1    0    0  501    0  0.00000000000E+00  0.00000000000E+00 -0.75120915970E+03  0.75120915971E+03  0.50400001928E-02 0.  1.
    10030    2    1    2    0    0  0.00000000000E+00  0.00000000000E+00  0.18366421472E+04  0.33390604666E+04  0.27885606364E+04 0.  0.
        3    1    3    3  502    0  0.15156883230E+03 -0.32313179477E+03  0.25322242312E+04  0.25572537682E+04  0.10100000352E+00 0. -1.
       -3    1    3    3    0  502 -0.15156883230E+03  0.32313179477E+03 -0.69558208406E+03  0.78180669835E+03  0.10100000352E+00 0.  1.
</event>
<event>
 5   0  0.3357244E-06  0.2804098E+04  0.7818609E-02  0.8301997E-01
       -1   -1    0    0    0  501  0.00000000000E+00  0.00000000000E+00  0.10174494230E+04  0.10174494230E+04  0.50400001928E-02 0. -1.
        1   -1    0    0  501    0  0.00000000000E+00  0.00000000000E+00 -0.19320282334E+04  0.19320282334E+04  0.50400001928E-02 0.  1.
    10030    2    1    2    0    0  0.00000000000E+00  0.00000000000E+00 -0.91457881034E+03  0.29494776564E+04  0.28040977239E+04 0.  0.
        4    1    3    3  502    0 -0.36302497156E+03  0.96394211771E+03 -0.14577973660E+04  0.17849779577E+04  0.12699999809E+01 0.  1.
       -4    1    3    3    0  502  0.36302497156E+03 -0.96394211771E+03  0.54321855564E+03  0.11644996987E+04  0.12699999809E+01 0. -1.
</event>
<event>
 5   0  0.9252359E-06  0.2785620E+04  0.7818609E-02  0.8307747E-01
        2   -1    0    0  501    0  0.00000000000E+00  0.00000000000E+00  0.18962222575E+04  0.18962222575E+04  0.25500000920E-02 0. -1.
       -2   -1    0    0    0  501  0.00000000000E+00  0.00000000000E+00 -0.10230444565E+04  0.10230444565E+04  0.25500000920E-02 0.  1.
    10030    2    1    2    0    0  0.00000000000E+00  0.00000000000E+00  0.87317780098E+03  0.29192667140E+04  0.27856199804E+04 0.  0.
        5    1    3    3  502    0 -0.12860947854E+04  0.47991580263E+02  0.99463521908E+03  0.16265498141E+04  0.46999998093E+01 0. -1.
       -5    1    3    3    0  502  0.12860947854E+04 -0.47991580263E+02 -0.12145741810E+03  0.12927168999E+04  0.46999998093E+01 0.  1.
</event>
<event>
 5   0  0.3397882E-06  0.2788224E+04  0.7818609E-02  0.8306934E-01
        1   -1    0    0  501    0  0.00000000000E+00  0.00000000000E+00  0.17857274323E+04  0.17857274323E+04  0.50400001928E-02 0.  1.
       -1   -1    0    0    0  501  0.00000000000E+00  0.00000000000E+00 -0.10883787295E+04  0.10883787295E+04  0.50400001928E-02 0. -1.
    10030    2    1    2    0    0  0.00000000000E+00  0.00000000000E+00  0.69734870282E+03  0.28741061618E+04  0.27882236309E+04 0.  0.
        2    1    3    3  502    0  0.96437519101E+02 -0.12853295239E+04 -0.19888967782E+03  0.13041967965E+04  0.25500000920E-02 0.  1.
       -2    1    3    3    0  502 -0.96437519101E+02  0.12853295239E+04  0.89623838064E+03  0.15699093652E+04  0.25500000920E-02 0. -1.
</event>
<event>
 5   0  0.3438130E-06  0.2803556E+04  0.7818609E-02  0.8302165E-01
        1   -1    0    0  501    0  0.00000000000E+00  0.00000000000E+00  0.13972172944E+04  0.13972172944E+04  0.50400001928E-02 0.  1.
       -1   -1    0    0    0  501  0.00000000000E+00  0.00000000000E+00 -0.14063540924E+04  0.14063540924E+04  0.50400001928E-02 0. -1.
    10030    2    1    2    0    0  0.00000000000E+00  0.00000000000E+00 -0.91367979992E+01  0.28035713868E+04  0.28035564984E+04 0.  0.
        3    1    3    3  502    0 -0.13360710063E+04  0.28122975654E+03 -0.32207022655E+03  0.14028204272E+04  0.10100000352E+00 0. -1.
       -3    1    3    3    0  502  0.13360710063E+04 -0.28122975654E+03  0.31293342855E+03  0.14007509596E+04  0.10100000352E+00 0.  1.
</event>
<event>
 5   0  0.3397882E-06  0.2812683E+04  0.7818609E-02  0.8299341E-01
       -1   -1    0    0    0  501  0.00000000000E+00  0.00000000000E+00  0.14557184563E+04  0.14557184563E+04  0.50400001928E-02 0. -1.
        1   -1    0    0  501    0  0.00000000000E+00  0.00000000000E+00 -0.13586397192E+04  0.13586397192E+04  0.50400001928E-02 0.  1.
    10030    2    1    2    0    0  0.00000000000E+00  0.00000000000E+00  0.97078737138E+02  0.28143581755E+04  0.28126833556E+04 0.  0.
        2    1    3    3  502    0  0.13894694756E+01 -0.21610610469E+03 -0.13419258664E+04  0.13592162484E+04  0.25500000920E-02 0.  1.
       -2    1    3    3    0  502 -0.13894694756E+01  0.21610610469E+03  0.14390046035E+04  0.14551419271E+04  0.25500000920E-02 0. -1.
</event>
<event>
 5   0  0.9260173E-06  0.2780902E+04  0.7818609E-02  0.8309222E-01
        2   -1    0    0  501    0  0.00000000000E+00  0.00000000000E+00  0.19459570751E+04  0.19459570751E+04  0.25500000920E-02 0. -1.
       -2   -1    0    0    0  501  0.00000000000E+00  0.00000000000E+00 -0.99352373508E+03  0.99352373509E+03  0.25500000920E-02 0.  1.
    10030    2    1    2    0    0  0.00000000000E+00  0.00000000000E+00  0.95243334003E+03  0.29394808102E+04  0.27809024014E+04 0.  0.
        1    1    3    3  502    0  0.10716778926E+03 -0.10367947579E+04  0.14489810861E+04  0.17849298286E+04  0.50400001928E-02 0. -1.
       -1    1    3    3    0  502 -0.10716778926E+03  0.10367947579E+04 -0.49654774608E+03  0.11545509816E+04  0.50400001928E-02 0.  1.
</event>
<event>
 5   0  0.3371603E-06  0.2617469E+04  0.7818609E-02  0.8362291E-01
        1   -1    0    0  501    0  0.00000000000E+00  0.00000000000E+00  0.17566659316E+04  0.17566659316E+04  0.50400001928E-02 0. -1.
       -1   -1    0    0    0  501  0.00000000000E+00  0.00000000000E+00 -0.97502090984E+03  0.97502090986E+03  0.50400001928E-02 0.  1.
    10030    2    1    2    0    0  0.00000000000E+00  0.00000000000E+00  0.78164502179E+03  0.27316868415E+04  0.26174690179E+04 0.  0.
        1    1    3    3  502    0 -0.11778199557E+04 -0.23560067715E+03 -0.15148561432E+03  0.12106673442E+04  0.50400001928E-02 0.  1.
       -1    1    3    3    0  502  0.11778199557E+04  0.23560067715E+03  0.93313063610E+03  0.15210194973E+04  0.50400001928E-02 0. -1.
</event>
<event>
 5   0  0.9342133E-06  0.2808498E+04  0.7818609E-02  0.8300635E-01
       -2   -1    0    0    0  501  0.00000000000E+00  0.00000000000E+00  0.21959405203E+04  0.21959405203E+04  0.25500000920E-02 0. -1.
        2   -1    0    0  501    0  0.00000000000E+00  0.00000000000E+00 -0.89798186416E+03  0.89798186416E+03  0.25500000920E-02 0.  1.
    10030    2    1    2    0    0  0.00000000000E+00  0.00000000000E+00  0.12979586561E+04  0.30939223844E+04  0.28084976496E+04 0.  0.
        2    1    3    3  502    0 -0.11666385613E+04 -0.33617434272E+02  0.15091950417E+04  0.19078378701E+04  0.25500000920E-02 0. -1.
       -2    1    3    3    0  502  0.11666385613E+04  0.33617434272E+02 -0.21123638562E+03  0.11860845143E+04  0.25500000920E-02 0.  1.
</event>
<event>
 5   0  0.3006875E-06  0.2794237E+04  0.7818609E-02  0.8305060E-01
        3   -1    0    0  501    0  0.00000000000E+00  0.00000000000E+00  0.13067691131E+04  0.13067691170E+04  0.10100000352E+00 0. -1.
       -3   -1    0    0    0  501  0.00000000000E+00  0.00000000000E+00 -0.14937141270E+04  0.14937141304E+04  0.10100000352E+00 0.  1.
    10030    2    1    2    0    0  0.00000000000E+00  0.00000000000E+00 -0.18694501385E+03  0.28004832474E+04  0.27942365649E+04 0.  0.
        3    1    3    3  502    0  0.36982595012E+03 -0.53763655072E+03 -0.13315945773E+04  0.14828919119E+04  0.10100000352E+00 0.  1.
       -3    1    3    3    0  502 -0.36982595012E+03  0.53763655072E+03  0.11446495634E+04  0.13175913355E+04  0.10100000352E+00 0. -1.
</event>
<event>
 5   0  0.3371603E-06  0.2830626E+04  0.7818609E-02  0.8293823E-01
       -1   -1    0    0    0  501  0.00000000000E+00  0.00000000000E+00  0.18207515563E+04  0.18207515563E+04  0.50400001928E-02 0. -1.
        1   -1    0    0  501    0  0.00000000000E+00  0.00000000000E+00 -0.11001560980E+04  0.11001560980E+04  0.50400001928E-02 0.  1.
    10030    2    1    2    0    0  0.00000000000E+00  0.00000000000E+00  0.72059545829E+03  0.29209076543E+04  0.28306260280E+04 0.  0.
        1    1    3    3  502    0  0.64865876578E+03  0.22429977354E+03  0.16375324486E+04  0.17755509295E+04  0.50400001928E-02 0. -1.
       -1    1    3    3    0  502 -0.64865876578E+03 -0.22429977354E+03 -0.91693699033E+03  0.11453567248E+04  0.50400001928E-02 0.  1.
</event>
<event>
 5   0  0.3438130E-06  0.2762786E+04  0.7818609E-02  0.8314916E-01
        1   -1    0    0  501    0  0.00000000000E+00  0.00000000000E+00  0.15915646119E+04  0.15915646119E+04  0.50400001928E-02 0. -1.
       -1   -1    0    0    0  501  0.00000000000E+00  0.00000000000E+00 -0.11989750137E+04  0.11989750137E+04  0.50400001928E-02 0.  1.
    10030    2    1    2    0    0  0.00000000000E+00  0.00000000000E+00  0.39258959827E+03  0.27905396256E+04  0.27627856974E+04 0.  0.
        3    1    3    3  502    0  0.69654629846E+03 -0.19975777990E+03  0.13841901717E+04  0.15623899507E+04  0.10100000352E+00 0. -1.
       -3    1    3    3    0  502 -0.69654629846E+03  0.19975777990E+03 -0.99160057343E+03  0.12281496749E+04  0.10100000352E+00 0.  1.
</event>
<event>
 5   0  0.9252359E-06  0.2806151E+04  0.7818609E-02  0.8301361E-01
        2   -1    0    0  501    0  0.00000000000E+00  0.00000000000E+00  0.14080085428E+04  0.14080085428E+04  0.25500000920E-02 0. -1.
       -2   -1    0    0    0  501  0.00000000000E+00  0.00000000000E+00 -0.13981602197E+04  0.13981602197E+04  0.25500000920E-02 0.  1.
    10030    2    1    2    0    0  0.00000000000E+00  0.00000000000E+00  0.98483230645E+01  0.28061687625E+04  0.28061514810E+04 0.  0.
        5    1    3    3  502    0 -0.10473817008E+04  0.39532801493E+03 -0.84083915490E+03  0.14001161527E+04  0.46999998093E+01 0.  1.
       -5    1    3    3    0  502  0.10473817008E+04 -0.39532801493E+03  0.85068747797E+03  0.14060526099E+04  0.46999998093E+01 0. -1.
</event>
<event>
 5   0  0.9426937E-06  0.2767584E+04  0.7818609E-02  0.8313404E-01
       -2   -1    0    0    0  501  0.00000000000E+00  0.00000000000E+00  0.74604980325E+03  0.74604980325E+03  0.25500000920E-02 0.  1.
        2   -1    0    0  501    0  0.00000000000E+00  0.00000000000E+00 -0.25666918549E+04  0.25666918550E+04  0.25500000920E-02 0. -1.
    10030    2    1    2    0    0  0.00000000000E+00  0.00000000000E+00 -0.18206420517E+04  0.33127416582E+04  0.27675837501E+04 0.  0.
        4    1    3    3  502    0  0.98659395224E+03 -0.83543774464E+03 -0.31959668534E+03  0.13317160005E+04  0.12699999809E+01 0.  1.
       -4    1    3    3    0  502 -0.98659395224E+03  0.83543774464E+03 -0.15010453664E+04  0.19810256577E+04  0.12699999809E+01 0. -1.
</event>
<event>
 5   0  0.3371603E-06  0.3040780E+04  0.7818609E-02  0.8232181E-01
        1   -1    0    0  501    0  0.00000000000E+00  0.00000000000E+00  0.15404568666E+04  0.15404568666E+04  0.50400001928E-02 0. -1.
       -1   -1    0    0    0  501  0.00000000000E+00  0.00000000000E+00 -0.15005846618E+04  0.15005846618E+04  0.50400001928E-02 0.  1.
    10030    2    1    2    0    0  0.00000000000E+00  0.00000000000E+00  0.39872204834E+02  0.30410415284E+04  0.30407801276E+04 0.  0.
        1    1    3    3  502    0 -0.96189211892E+02 -0.19599805540E+03 -0.14848255386E+04  0.15007912854E+04  0.50400001928E-02 0.  1.
       -1    1    3    3    0  502  0.96189211892E+02  0.19599805540E+03  0.15246977434E+04  0.15402502430E+04  0.50400001928E-02 0. -1.
</event>
<event>
 5   0  0.3600963E-06  0.2722708E+04  0.7818609E-02  0.8327674E-01
       -1   -1    0    0    0  501  0.00000000000E+00  0.00000000000E+00  0.52939574167E+03  0.52939574170E+03  0.50400001928E-02 0.  1.
        1   -1    0    0  501    0  0.00000000000E+00  0.00000000000E+00 -0.35007555370E+04  0.35007555370E+04  0.50400001928E-02 0. -1.
    10030    2    1    2    0    0  0.00000000000E+00  0.00000000000E+00 -0.29713597953E+04  0.40301512787E+04  0.27227082649E+04 0.  0.
        5    1    3    3  502    0 -0.86083673718E+03 -0.52147541946E+03 -0.12882337275E+03  0.10146891408E+04  0.46999998093E+01 0.  1.
       -5    1    3    3    0  502  0.86083673718E+03  0.52147541946E+03 -0.28425364226E+04  0.30154621379E+04  0.46999998093E+01 0. -1.
</event>
<event>
 5   0  0.9065579E-06  0.2781948E+04  0.7818609E-02  0.8308895E-01
       -2   -1    0    0    0  501  0.00000000000E+00  0.00000000000E+00  0.83037713849E+03  0.83037713849E+03  0.25500000920E-02 0.  1.
        2   -1    0    0  501    0  0.00000000000E+00  0.00000000000E+00 -0.23300352807E+04  0.23300352807E+04  0.25500000920E-02 0. -1.
    10030    2    1    2    0    0  0.00000000000E+00  0.00000000000E+00 -0.14996581423E+04  0.31604124192E+04  0.27819475401E+04 0.  0.
        3    1    3    3  502    0 -0.16916893249E+03  0.56738768749E+02  0.81732199807E+03  0.83657197797E+03  0.10100000352E+00 0.  1.
       -3    1    3    3    0  502  0.16916893249E+03 -0.56738768749E+02 -0.23169801403E+04  0.23238404413E+04  0.10100000352E+00 0. -1.
</event>
<event>
 5   0  0.3357244E-06  0.2764350E+04  0.7818609E-02  0.8314422E-01
       -1   -1    0    0    0  501  0.00000000000E+00  0.00000000000E+00  0.20249265854E+04  0.20249265854E+04  0.50400001928E-02 0. -1.
        1   -1    0    0  501    0  0.00000000000E+00  0.00000000000E+00 -0.94344570069E+03  0.94344570070E+03  0.50400001928E-02 0.  1.
    10030    2    1    2    0    0  0.00000000000E+00  0.00000000000E+00  0.10814808847E+04  0.29683722861E+04  0.27643503984E+04 0.  0.
        4    1    3    3  502    0  0.15961360870E+03 -0.13179490247E+04  0.12772255058E+03  0.13337094131E+04  0.12699999809E+01 0. -1.
       -4    1    3    3    0  502 -0.15961360870E+03  0.13179490247E+04  0.95375833413E+03  0.16346628730E+04  0.12699999809E+01 0.  1.
</event>
<event>
 5   0  0.9065579E-06  0.2896965E+04  0.7818609E-02  0.8273781E-01
        2   -1    0    0  501    0  0.00000000000E+00  0.00000000000E+00  0.21413717521E+04  0.21413717521E+04  0.25500000920E-02 0. -1.
       -2   -1    0    0    0  501  0.00000000000E+00  0.00000000000E+00 -0.97979299565E+03  0.97979299565E+03  0.25500000920E-02 0.  1.
    10030    2    1    2    0    0  0.00000000000E+00  0.00000000000E+00  0.11615787565E+04  0.31211647478E+04  0.28969646486E+04 0.  0.
        3    1    3    3  502    0 -0.37956654821E+03 -0.96053228669E+03 -0.51339055149E+03  0.11533702384E+04  0.10100000352E+00 0.  1.
       -3    1    3    3    0  502  0.37956654821E+03  0.96053228669E+03  0.16749693080E+04  0.19677945094E+04  0.10100000352E+00 0. -1.
</event>
<event>
 5   0  0.3006875E-06  0.2787723E+04  0.7818609E-02  0.8307090E-01
        3   -1    0    0  501    0  0.00000000000E+00  0.00000000000E+00  0.19178549807E+04  0.19178549834E+04  0.10100000352E+00 0. -1.
       -3   -1    0    0    0  501  0.00000000000E+00  0.00000000000E+00 -0.10130327668E+04  0.10130327718E+04  0.10100000352E+00 0.  1.
    10030    2    1    2    0    0  0.00000000000E+00  0.00000000000E+00  0.90482221390E+03  0.29308877552E+04  0.27877230484E+04 0.  0.
        4    1    3    3  502    0 -0.11837566578E+03  0.29722926241E+03  0.18787289905E+04  0.19057760271E+04  0.12699999809E+01 0. -1.
       -4    1    3    3    0  502  0.11837566578E+03 -0.29722926241E+03 -0.97390677662E+03  0.10251117281E+04  0.12699999809E+01 0.  1.
</event>
<event>
 5   0  0.3397882E-06  0.2826397E+04  0.7818609E-02  0.8295120E-01
       -1   -1    0    0    0  501  0.00000000000E+00  0.00000000000E+00  0.10542761984E+04  0.10542761984E+04  0.50400001928E-02 0. -1.
        1   -1    0    0  501    0  0.00000000000E+00  0.00000000000E+00 -0.18943133948E+04  0.18943133948E+04  0.50400001928E-02 0.  1.
    10030    2    1    2    0    0  0.00000000000E+00  0.00000000000E+00 -0.84003719642E+03  0.29485895932E+04  0.28263966632E+04 0.  0.
        2    1    3    3  502    0  0.98997478487E+03  0.95340431124E+03 -0.76301802859E+03  0.15720134756E+04  0.25500000920E-02 0. -1.
       -2    1    3    3    0  502 -0.98997478487E+03 -0.95340431124E+03 -0.77019167834E+02  0.13765761176E+04  0.25500000920E-02 0.  1.
</event>
<event>
 5   0  0.9252359E-06  0.2849175E+04  0.7818609E-02  0.8288162E-01
       -2   -1    0    0    0  501  0.00000000000E+00  0.00000000000E+00  0.10896845328E+04  0.10896845328E+04  0.25500000920E-02 0. -1.
        2   -1    0    0  501    0  0.00000000000E+00  0.00000000000E+00 -0.18624196804E+04  0.18624196804E+04  0.25500000920E-02 0.  1.
    10030    2    1    2    0    0  0.00000000000E+00  0.00000000000E+00 -0.77273514762E+03  0.29521042132E+04  0.28491752626E+04 0.  0.
        5    1    3    3  502    0  0.22465197517E+03  0.12508671020E+04 -0.10532744123E+04  0.16506199121E+04  0.46999998093E+01 0.  1.
       -5    1    3    3    0  502 -0.22465197517E+03 -0.12508671020E+04  0.28053926468E+03  0.13014843010E+04  0.46999998093E+01 0. -1.
</event>
<event>
 5   0  0.3371603E-06  0.2646619E+04  0.7818609E-02  0.8352536E-01
       -1   -1    0    0    0  501  0.00000000000E+00  0.00000000000E+00  0.91965816282E+03  0.91965816283E+03  0.50400001928E-02 0. -1.
        1   -1    0    0  501    0  0.00000000000E+00  0.00000000000E+00 -0.19041292846E+04  0.19041292846E+04  0.50400001928E-02 0.  1.
    10030    2    1    2    0    0  0.00000000000E+00  0.00000000000E+00 -0.98447112180E+03  0.28237874475E+04  0.26466190052E+04 0.  0.
        1    1    3    3  502    0  0.51402544972E+03  0.96725830559E+03 -0.12844618378E+04  0.16880915276E+04  0.50400001928E-02 0.  1.
       -1    1    3    3    0  502 -0.51402544972E+03 -0.96725830559E+03  0.29999071601E+03  0.11356959199E+04  0.50400001928E-02 0. -1.
</event>
<event>
 5   0  0.3371603E-06  0.2857078E+04  0.7818609E-02  0.8285764E-01
       -1   -1    0    0    0  501  0.00000000000E+00  0.00000000000E+00  0.15613131853E+04  0.15613131853E+04  0.50400001928E-02 0. -1.
        1   -1    0    0  501    0  0.00000000000E+00  0.00000000000E+00 -0.13070555204E+04  0.13070555204E+04  0.50400001928E-02 0.  1.
    10030    2    1    2    0    0  0.00000000000E+00  0.00000000000E+00  0.25425766496E+03  0.28683687057E+04  0.28570775404E+04 0.  0.
        1    1    3    3  502    0 -0.13210372329E+04 -0.25939635884E+03  0.60682165289E+03  0.14767052380E+04  0.50400001928E-02 0. -1.
       -1    1    3    3    0  502  0.13210372329E+04  0.25939635884E+03 -0.35256398793E+03  0.13916634677E+04  0.50400001928E-02 0.  1.
</event>
<event>
 5   0  0.9252359E-06  0.2812692E+04  0.7818609E-02  0.8299339E-01
       -2   -1    0    0    0  501  0.00000000000E+00  0.00000000000E+00  0.77739111543E+03  0.77739111543E+03  0.25500000920E-02 0. -1.
        2   -1    0    0  501    0  0.00000000000E+00  0.00000000000E+00 -0.25441626003E+04  0.25441626003E+04  0.25500000920E-02 0.  1.
    10030    2    1    2    0    0  0.00000000000E+00  0.00000000000E+00 -0.17667714849E+04  0.33215537158E+04  0.28126922347E+04 0.  0.
        5    1    3    3  502    0 -0.27267502061E+03 -0.88494287196E+02  0.74251084956E+03  0.79594431806E+03  0.46999998093E+01 0. -1.
       -5    1    3    3    0  502  0.27267502061E+03  0.88494287196E+02 -0.25092823345E+04  0.25256093977E+04  0.46999998093E+01 0.  1.
</event>
<event>
 5   0  0.3357244E-06  0.2791303E+04  0.7818609E-02  0.8305974E-01
        1   -1    0    0  501    0  0.00000000000E+00  0.00000000000E+00  0.19100413741E+04  0.19100413741E+04  0.50400001928E-02 0. -1.
       -1   -1    0    0    0  501  0.00000000000E+00  0.00000000000E+00 -0.10197907609E+04  0.10197907609E+04  0.50400001928E-02 0.  1.
    10030    2    1    2    0    0  0.00000000000E+00  0.00000000000E+00  0.89025061316E+03  0.29298321350E+04  0.27913025965E+04 0.  0.
        4    1    3    3  502    0  0.37678367656E+03 -0.10901954989E+04  0.12698350238E+04  0.17155100598E+04  0.12699999809E+01 0. -1.
       -4    1    3    3    0  502 -0.37678367656E+03  0.10901954989E+04 -0.37958441066E+03  0.12143220752E+04  0.12699999809E+01 0.  1.
</event>
<event>
 5   0  0.3371603E-06  0.2728887E+04  0.7818609E-02  0.8325692E-01
       -1   -1    0    0    0  501  0.00000000000E+00  0.00000000000E+00  0.74006044457E+03  0.74006044458E+03  0.50400001928E-02 0.  1.
        1   -1    0    0  501    0  0.00000000000E+00  0.00000000000E+00 -0.25156140068E+04  0.25156140068E+04  0.50400001928E-02 0. -1.
    10030    2    1    2    0    0  0.00000000000E+00  0.00000000000E+00 -0.17755535622E+04  0.32556744514E+04  0.27288872606E+04 0.  0.
        1    1    3    3  502    0 -0.38698968105E+03  0.79551314817E+03 -0.21271071065E+04  0.23037332365E+04  0.50400001928E-02 0. -1.
       -1    1    3    3    0  502  0.38698968105E+03 -0.79551314817E+03  0.35155354428E+03  0.95194121493E+03  0.50400001928E-02 0.  1.
</event>
<event>
 5   0  0.9252359E-06  0.2686305E+04  0.7818609E-02  0.8339462E-01
        2   -1    0    0  501    0  0.00000000000E+00  0.00000000000E+00  0.16345203993E+04  0.16345203993E+04  0.25500000920E-02 0. -1.
       -2   -1    0    0    0  501  0.00000000000E+00  0.00000000000E+00 -0.11037236914E+04  0.11037236914E+04  0.25500000920E-02 0.  1.
    10030    2    1    2    0    0  0.00000000000E+00  0.00000000000E+00  0.53079670790E+03  0.27382440908E+04  0.26863051866E+04 0.  0.
        5    1    3    3  502    0  0.12603390696E+03 -0.73827922074E+02  0.16263921539E+04  0.16329447743E+04  0.46999998093E+01 0. -1.
       -5    1    3    3    0  502 -0.12603390696E+03  0.73827922074E+02 -0.10955954460E+04  0.11052993165E+04  0.46999998093E+01 0.  1.
</event>
<event>
 5   0  0.3600963E-06  0.2812269E+04  0.7818609E-02  0.8299469E-01
        1   -1    0    0  501    0  0.00000000000E+00  0.00000000000E+00  0.15271836335E+04  0.15271836335E+04  0.50400001928E-02 0. -1.
       -1   -1    0    0    0  501  0.00000000000E+00  0.00000000000E+00 -0.12946802747E+04  0.12946802747E+04  0.50400001928E-02 0.  1.
    10030    2    1    2    0    0  0.00000000000E+00  0.00000000000E+00  0.23250335881E+03  0.28218639082E+04  0.28122692091E+04 0.  0.
        5    1    3    3  502    0  0.27233637662E+02  0.13837741912E+04  0.36533184673E+03  0.14314545510E+04  0.46999998093E+01 0.  1.
       -5    1    3    3    0  502 -0.27233637662E+02 -0.13837741912E+04 -0.13282848792E+03  0.13904093572E+04  0.46999998093E+01 0. -1.
</event>
<event>
 5   0  0.9065579E-06  0.2803601E+04  0.7818609E-02  0.8302151E-01
        2   -1    0    0  501    0  0.00000000000E+00  0.00000000000E+00  0.19405575973E+04  0.19405575973E+04  0.25500000920E-02 0.  1.
       -2   -1    0    0    0  501  0.00000000000E+00  0.00000000000E+00 -0.10126187318E+04  0.10126187318E+04  0.25500000920E-02 0. -1.
    10030    2    1    2    0    0  0.00000000000E+00  0.00000000000E+00  0.92793886547E+03  0.29531763290E+04  0.28036012363E+04 0.  0.
        3    1    3    3  502    0  0.80333363136E+03 -0.11317932702E+04  0.25663303476E+03  0.14114394973E+04  0.10100000352E+00 0. -1.
       -3    1    3    3    0  502 -0.80333363136E+03  0.11317932702E+04  0.67130583070E+03  0.15417368317E+04  0.10100000352E+00 0.  1.
</event>
<event>
 5   0  0.3397882E-06  0.2803563E+04  0.7818609E-02  0.8302163E-01
        1   -1    0    0  501    0  0.00000000000E+00  0.00000000000E+00  0.18887282570E+04  0.18887282570E+04  0.50400001928E-02 0. -1.
       -1   -1    0    0    0  501  0.00000000000E+00  0.00000000000E+00 -0.10403782775E+04  0.10403782775E+04  0.50400001928E-02 0.  1.
    10030    2    1    2    0    0  0.00000000000E+00  0.00000000000E+00  0.84834997951E+03  0.29291065346E+04  0.28035633403E+04 0.  0.
        2    1    3    3  502    0 -0.21685348935E+03 -0.63338512599E+03  0.17109051487E+04  0.18372257840E+04  0.25500000920E-02 0. -1.
       -2    1    3    3    0  502  0.21685348935E+03  0.63338512599E+03 -0.86255516915E+03  0.10918807506E+04  0.25500000920E-02 0.  1.
</event>
<event>
 5   0  0.3357244E-06  0.2790144E+04  0.7818609E-02  0.8306335E-01
       -1   -1    0    0    0  501  0.00000000000E+00  0.00000000000E+00  0.95166758402E+03  0.95166758403E+03  0.50400001928E-02 0.  1.
        1   -1    0    0  501    0  0.00000000000E+00  0.00000000000E+00 -0.20450683635E+04  0.20450683635E+04  0.50400001928E-02 0. -1.
    10030    2    1    2    0    0  0.00000000000E+00  0.00000000000E+00 -0.10934007794E+04  0.29967359475E+04  0.27901435581E+04 0.  0.
        4    1    3    3  502    0  0.35762212940E+03  0.10712299268E+04  0.33296463793E+03  0.11774099568E+04  0.12699999809E+01 0.  1.
       -4    1    3    3    0  502 -0.35762212940E+03 -0.10712299268E+04 -0.14263654174E+04  0.18193259907E+04  0.12699999809E+01 0. -1.
</event>
<event>
 5   0  0.3371603E-06  0.2800984E+04  0.7818609E-02  0.8302963E-01
       -1   -1    0    0    0  501  0.00000000000E+00  0.00000000000E+00  0.12034073547E+04  0.12034073547E+04  0.50400001928E-02 0.  1.
        1   -1    0    0  501    0  0.00000000000E+00  0.00000000000E+00 -0.16298535937E+04  0.16298535938E+04  0.50400001928E-02 0. -1.
    10030    2    1    2    0    0  0.00000000000E+00  0.00000000000E+00 -0.42644623902E+03  0.28332609485E+04  0.28009839713E+04 0.  0.
        1    1    3    3  502    0 -0.95533162949E+03  0.32671251395E+03  0.76851664283E+03  0.12688646182E+04  0.50400001928E-02 0.  1.
       -1    1    3    3    0  502  0.95533162949E+03 -0.32671251395E+03 -0.11949628819E+04  0.15643963303E+04  0.50400001928E-02 0. -1.
</event>
<event>
 5   0  0.3357244E-06  0.2760011E+04  0.7818609E-02  0.8315792E-01
        1   -1    0    0  501    0  0.00000000000E+00  0.00000000000E+00  0.10338972946E+04  0.10338972946E+04  0.50400001928E-02 0.  1.
       -1   -1    0    0    0  501  0.00000000000E+00  0.00000000000E+00 -0.18419775358E+04  0.18419775358E+04  0.50400001928E-02 0. -1.
    10030    2    1    2    0    0  0.00000000000E+00  0.00000000000E+00 -0.80808024123E+03  0.28758748305E+04  0.27600112978E+04 0.  0.
        4    1    3    3  502    0 -0.84080724803E+03 -0.71308841030E+03 -0.12689219565E+04  0.16809570054E+04  0.12699999809E+01 0. -1.
       -4    1    3    3    0  502  0.84080724803E+03  0.71308841030E+03  0.46084171531E+03  0.11949178251E+04  0.12699999809E+01 0.  1.
</event>
<event>
 5   0  0.9342133E-06  0.2765630E+04  0.7818609E-02  0.8314019E-01
        2   -1    0    0  501    0  0.00000000000E+00  0.00000000000E+00  0.26686404664E+04  0.26686404664E+04  0.25500000920E-02 0.  1.
       -2   -1    0    0    0  501  0.00000000000E+00  0.00000000000E+00 -0.71653631039E+03  0.71653631040E+03  0.25500000920E-02 0. -1.
    10030    2    1    2    0    0  0.00000000000E+00  0.00000000000E+00  0.19521041560E+04  0.33851767768E+04  0.27656303394E+04 0.  0.
        2    1    3    3  502    0  0.11681355217E+04 -0.60139403976E+03  0.44821511480E+03  0.13882046597E+04  0.25500000920E-02 0. -1.
       -2    1    3    3    0  502 -0.11681355217E+04  0.60139403976E+03  0.15038890412E+04  0.19969721171E+04  0.25500000920E-02 0.  1.
</event>
<event>
 5   0  0.9260173E-06  0.2810804E+04  0.7818609E-02  0.8299922E-01
       -2   -1    0    0    0  501  0.00000000000E+00  0.00000000000E+00  0.11213630551E+04  0.11213630551E+04  0.25500000920E-02 0.  1.
        2   -1    0    0  501    0  0.00000000000E+00  0.00000000000E+00 -0.17613876342E+04  0.17613876342E+04  0.25500000920E-02 0. -1.
    10030    2    1    2    0    0  0.00000000000E+00  0.00000000000E+00 -0.64002457913E+03  0.28827506893E+04  0.28108041687E+04 0.  0.
        1    1    3    3  502    0  0.13242725931E+04  0.15418960677E+02  0.16236635700E+03  0.13342782615E+04  0.50400001928E-02 0. -1.
       -1    1    3    3    0  502 -0.13242725931E+04 -0.15418960677E+02 -0.80239093613E+03  0.15484724278E+04  0.50400001928E-02 0.  1.
</event>
<event>
 5   0  0.9065579E-06  0.2845638E+04  0.7818609E-02  0.8289238E-01
        2   -1    0    0  501    0  0.00000000000E+00  0.00000000000E+00  0.22632193186E+04  0.22632193186E+04  0.25500000920E-02 0. -1.
       -2   -1    0    0    0  501  0.00000000000E+00  0.00000000000E+00 -0.89448434677E+03  0.89448434677E+03  0.25500000920E-02 0.  1.
    10030    2    1    2    0    0  0.00000000000E+00  0.00000000000E+00  0.13687349718E+04  0.31577036653E+04  0.28456382439E+04 0.  0.
        3    1    3    3  502    0  0.81670957289E+03  0.86081203040E+03 -0.18684447783E+03  0.12012171940E+04  0.10100000352E+00 0.  1.
       -3    1    3    3    0  502 -0.81670957289E+03 -0.86081203040E+03  0.15555794496E+04  0.19564864713E+04  0.10100000352E+00 0. -1.
</event>
<event>
 5   0  0.9260173E-06  0.2811636E+04  0.7818609E-02  0.8299665E-01
        2   -1    0    0  501    0  0.00000000000E+00  0.00000000000E+00  0.13988899906E+04  0.13988899906E+04  0.25500000920E-02 0. -1.
       -2   -1    0    0    0  501  0.00000000000E+00  0.00000000000E+00 -0.14127802969E+04  0.14127802969E+04  0.25500000920E-02 0.  1.
    10030    2    1    2    0    0  0.00000000000E+00  0.00000000000E+00 -0.13890306277E+02  0.28116702875E+04  0.28116359766E+04 0.  0.
        1    1    3    3  502    0 -0.13066688139E+04 -0.17377643121E+03 -0.49556402906E+03  0.14082490348E+04  0.50400001928E-02 0.  1.
       -1    1    3    3    0  502  0.13066688139E+04  0.17377643121E+03  0.48167372279E+03  0.14034212527E+04  0.50400001928E-02 0. -1.
</event>
<event>
 5   0  0.9426937E-06  0.2600062E+04  0.7818609E-02  0.8368180E-01
       -2   -1    0    0    0  501  0.00000000000E+00  0.00000000000E+00  0.70254246659E+03  0.70254246660E+03  0.25500000920E-02 0. -1.
        2   -1    0    0  501    0  0.00000000000E+00  0.00000000000E+00 -0.24056626451E+04  0.24056626451E+04  0.25500000920E-02 0.  1.
    10030    2    1    2    0    0  0.00000000000E+00  0.00000000000E+00 -0.17031201785E+04  0.31082051117E+04  0.26000616673E+04 0.  0.
        4    1    3    3  502    0 -0.74617471309E+02  0.55397793910E+03 -0.22546665367E+04  0.23229253386E+04  0.12699999809E+01 0.  1.
       -4    1    3    3    0  502  0.74617471309E+02 -0.55397793910E+03  0.55154635815E+03  0.78527977315E+03  0.12699999809E+01 0. -1.
</event>
<event>
 5   0  0.3438130E-06  0.2774946E+04  0.7818609E-02  0.8311089E-01
        1   -1    0    0  501    0  0.00000000000E+00  0.00000000000E+00  0.21522337033E+04  0.21522337033E+04  0.50400001928E-02 0. -1.
       -1   -1    0    0    0  501  0.00000000000E+00  0.00000000000E+00 -0.89445750628E+03  0.89445750629E+03  0.50400001928E-02 0.  1.
    10030    2    1    2    0    0  0.00000000000E+00  0.00000000000E+00  0.12577761970E+04  0.30466912096E+04  0.27749461913E+04 0.  0.
        3    1    3    3  502    0  0.61506375071E+02 -0.69902241158E+03  0.19430424671E+04  0.20658725530E+04  0.10100000352E+00 0. -1.
       -3    1    3    3    0  502 -0.61506375071E+02  0.69902241158E+03 -0.68526627006E+03  0.98081865661E+03  0.10100000352E+00 0.  1.
</event>
<event>
 5   0  0.3371603E-06  0.2761436E+04  0.7818609E-02  0.8315342E-01
        1   -1    0    0  501    0  0.00000000000E+00  0.00000000000E+00  0.14851009077E+04  0.14851009077E+04  0.50400001928E-02 0. -1.
       -1   -1    0    0    0  501  0.00000000000E+00  0.00000000000E+00 -0.12836718376E+04  0.12836718376E+04  0.50400001928E-02 0.  1.
    10030    2    1    2    0    0  0.00000000000E+00  0.00000000000E+00  0.20142907010E+03  0.27687727453E+04  0.27614360114E+04 0.  0.
        1    1    3    3  502    0  0.10827235139E+04  0.72547332917E+03 -0.35632594886E+03  0.13511365367E+04  0.50400001928E-02 0.  1.
       -1    1    3    3    0  502 -0.10827235139E+04 -0.72547332917E+03  0.55775501896E+03  0.14176362086E+04  0.50400001928E-02 0. -1.
</event>
<event>
 5   0  0.3006875E-06  0.2694656E+04  0.7818609E-02  0.8336741E-01
       -3   -1    0    0    0  501  0.00000000000E+00  0.00000000000E+00  0.10189683041E+04  0.10189683091E+04  0.10100000352E+00 0.  1.
        3   -1    0    0  501    0  0.00000000000E+00  0.00000000000E+00 -0.17815008414E+04  0.17815008442E+04  0.10100000352E+00 0. -1.
    10030    2    1    2    0    0  0.00000000000E+00  0.00000000000E+00 -0.76253253726E+03  0.28004691533E+04  0.26946561206E+04 0.  0.
        3    1    3    3  502    0 -0.27824581600E+03  0.94055587827E+03  0.57870820818E+03  0.11388455974E+04  0.10100000352E+00 0.  1.
       -3    1    3    3    0  502  0.27824581600E+03 -0.94055587827E+03 -0.13412407454E+04  0.16616235560E+04  0.10100000352E+00 0. -1.
</event>
<event>
 5   0  0.3371603E-06  0.2804188E+04  0.7818609E-02  0.8301969E-01
       -1   -1    0    0    0  501  0.00000000000E+00  0.00000000000E+00  0.15526895867E+04  0.15526895867E+04  0.50400001928E-02 0. -1.
        1   -1    0    0  501    0  0.00000000000E+00  0.00000000000E+00 -0.12661045781E+04  0.12661045781E+04  0.50400001928E-02 0.  1.
    10030    2    1    2    0    0  0.00000000000E+00  0.00000000000E+00  0.28658500863E+03  0.28187941648E+04  0.28041878639E+04 0.  0.
        1    1    3    3  502    0 -0.11624661769E+04  0.64418339951E+03 -0.30576421461E+03  0.13637417716E+04  0.50400001928E-02 0.  1.
       -1    1    3    3    0  502  0.11624661769E+04 -0.64418339951E+03  0.59234922324E+03  0.14550523932E+04  0.50400001928E-02 0. -1.
</event>
<event>
 5   0  0.3357244E-06  0.2817996E+04  0.7818609E-02  0.8297703E-01
        1   -1    0    0  501    0  0.00000000000E+00  0.00000000000E+00  0.19016142217E+04  0.19016142217E+04  0.50400001928E-02 0.  1.
       -1   -1    0    0    0  501  0.00000000000E+00  0.00000000000E+00 -0.10439948757E+04  0.10439948757E+04  0.50400001928E-02 0. -1.
    10030    2    1    2    0    0  0.00000000000E+00  0.00000000000E+00  0.85761934598E+03  0.29456090974E+04  0.28179960987E+04 0.  0.
        4    1    3    3  502    0  0.60456405634E+03  0.27684133379E+03 -0.86967460422E+03  0.10947485339E+04  0.12699999809E+01 0. -1.
       -4    1    3    3    0  502 -0.60456405634E+03 -0.27684133379E+03  0.17272939502E+04  0.18508605635E+04  0.12699999809E+01 0.  1.
</event>
<event>
 5   0  0.3438130E-06  0.2805487E+04  0.7818609E-02  0.8301567E-01
       -1   -1    0    0    0  501  0.00000000000E+00  0.00000000000E+00  0.13141725136E+04  0.13141725136E+04  0.50400001928E-02 0. -1.
        1   -1    0    0  501    0  0.00000000000E+00  0.00000000000E+00 -0.14972838541E+04  0.14972838541E+04  0.50400001928E-02 0.  1.
    10030    2    1    2    0    0  0.00000000000E+00  0.00000000000E+00 -0.18311134050E+03  0.28114563678E+04  0.28054869711E+04 0.  0.
        3    1    3    3  502    0 -0.25409751421E+03 -0.13455216183E+04  0.21355117972E+03  0.13858564459E+04  0.10100000352E+00 0. -1.
       -3    1    3    3    0  502  0.25409751421E+03  0.13455216183E+04 -0.39666252022E+03  0.14255999219E+04  0.10100000352E+00 0.  1.
</event>
<event>
 5   0  0.9426937E-06  0.2752693E+04  0.7818609E-02  0.8318108E-01
       -2   -1    0    0    0  501  0.00000000000E+00  0.00000000000E+00  0.67706159431E+03  0.67706159432E+03  0.25500000920E-02 0.  1.
        2   -1    0    0  501    0  0.00000000000E+00  0.00000000000E+00 -0.27978690506E+04  0.27978690506E+04  0.25500000920E-02 0. -1.
    10030    2    1    2    0    0  0.00000000000E+00  0.00000000000E+00 -0.21208074563E+04  0.34749306449E+04  0.27526929942E+04 0.  0.
        4    1    3    3  502    0  0.13538975309E+04  0.21609264197E+03 -0.90790427445E+03  0.16443923919E+04  0.12699999809E+01 0. -1.
       -4    1    3    3    0  502 -0.13538975309E+04 -0.21609264197E+03 -0.12129031818E+04  0.18305382530E+04  0.12699999809E+01 0.  1.
</event>
<event>
 5   0  0.3397882E-06  0.2841729E+04  0.7818609E-02  0.8290429E-01
       -1   -1    0    0    0  501  0.00000000000E+00  0.00000000000E+00  0.14429141041E+04  0.14429141041E+04  0.50400001928E-02 0. -1.
        1   -1    0    0  501    0  0.00000000000E+00  0.00000000000E+00 -0.13991521306E+04  0.13991521306E+04  0.50400001928E-02 0.  1.
    10030    2    1    2    0    0  0.00000000000E+00  0.00000000000E+00  0.43761973586E+02  0.28420662347E+04  0.28417292926E+04 0.  0.
        2    1    3    3  502    0  0.56006403448E+03 -0.11387959637E+04  0.66096252268E+03  0.14308736584E+04  0.25500000920E-02 0. -1.
       -2    1    3    3    0  502 -0.56006403448E+03  0.11387959637E+04 -0.61720054910E+03  0.14111925764E+04  0.25500000920E-02 0.  1.
</event>
<event>
 5   0  0.3438130E-06  0.2812709E+04  0.7818609E-02  0.8299334E-01
       -1   -1    0    0    0  501  0.00000000000E+00  0.00000000000E+00  0.10083933657E+04  0.10083933657E+04  0.50400001928E-02 0.  1.
        1   -1    0    0  501    0  0.00000000000E+00  0.00000000000E+00 -0.19613706909E+04  0.19613706909E+04  0.50400001928E-02 0. -1.
    10030    2    1    2    0    0  0.00000000000E+00  0.00000000000E+00 -0.95297732521E+03  0.29697640567E+04  0.28127091513E+04 0.  0.
        3    1    3    3  502    0 -0.13140663331E+04 -0.49766315543E+03 -0.53800185756E+03  0.15046211992E+04  0.10100000352E+00 0.  1.
       -3    1    3    3    0  502  0.13140663331E+04  0.49766315543E+03 -0.41497546764E+03  0.14651428575E+04  0.10100000352E+00 0. -1.
</event>
<event>
 5   0  0.9252359E-06  0.2791639E+04  0.7818609E-02  0.8305869E-01
       -2   -1    0    0    0  501  0.00000000000E+00  0.00000000000E+00  0.14757658351E+04  0.14757658351E+04  0.25500000920E-02 0.  1.
        2   -1    0    0  501    0  0.00000000000E+00  0.00000000000E+00 -0.13202044577E+04  0.13202044577E+04  0.25500000920E-02 0. -1.
    10030    2    1    2    0    0  0.00000000000E+00  0.00000000000E+00  0.15556137738E+03  0.27959702928E+04  0.27916393994E+04 0.  0.
        5    1    3    3  502    0 -0.38462854669E+03  0.45319446835E+03  0.13426596690E+04  0.14683601132E+04  0.46999998093E+01 0.  1.
       -5    1    3    3    0  502  0.38462854669E+03 -0.45319446835E+03 -0.11870982917E+04  0.13276101797E+04  0.46999998093E+01 0. -1.
</event>
<event>
 5   0  0.3397882E-06  0.2804912E+04  0.7818609E-02  0.8301745E-01
       -1   -1    0    0    0  501  0.00000000000E+00  0.00000000000E+00  0.84426539500E+03  0.84426539501E+03  0.50400001928E-02 0.  1.
        1   -1    0    0  501    0  0.00000000000E+00  0.00000000000E+00 -0.23296965703E+04  0.23296965703E+04  0.50400001928E-02 0. -1.
    10030    2    1    2    0    0  0.00000000000E+00  0.00000000000E+00 -0.14854311753E+04  0.31739619653E+04  0.28049115460E+04 0.  0.
        2    1    3    3  502    0  0.62037821898E+03 -0.71094875321E+03 -0.19168090297E+04  0.21364629930E+04  0.25500000920E-02 0. -1.
       -2    1    3    3    0  502 -0.62037821898E+03  0.71094875321E+03  0.43137785437E+03  0.10374989723E+04  0.25500000920E-02 0.  1.
</event>
<event>
 5   0  0.3600963E-06  0.2825822E+04  0.7818609E-02  0.8295296E-01
        1   -1    0    0  501    0  0.00000000000E+00  0.00000000000E+00  0.17880841481E+04  0.17880841481E+04  0.50400001928E-02 0. -1.
       -1   -1    0    0    0  501  0.00000000000E+00  0.00000000000E+00 -0.11164559647E+04  0.11164559647E+04  0.50400001928E-02 0.  1.
    10030    2    1    2    0    0  0.00000000000E+00  0.00000000000E+00  0.67162818332E+03  0.29045401128E+04  0.28258218009E+04 0.  0.
        5    1    3    3  502    0 -0.76370130504E+03 -0.43981846722E+03 -0.79931175722E+03  0.11897904617E+04  0.46999998093E+01 0.  1.
       -5    1    3    3    0  502  0.76370130504E+03  0.43981846722E+03  0.14709399405E+04  0.17147496512E+04  0.46999998093E+01 0. -1.
</event>
<event>
 5   0  0.3600963E-06  0.2828781E+04  0.7818609E-02  0.8294388E-01
       -1   -1    0    0    0  501  0.00000000000E+00  0.00000000000E+00  0.10662634944E+04  0.10662634944E+04  0.50400001928E-02 0.  1.
        1   -1    0    0  501    0  0.00000000000E+00  0.00000000000E+00 -0.18761779479E+04  0.18761779479E+04  0.50400001928E-02 0. -1.
    10030    2    1    2    0    0  0.00000000000E+00  0.00000000000E+00 -0.80991445358E+03  0.29424414423E+04  0.28287806948E+04 0.  0.
        5    1    3    3  502    0 -0.87369677241E+03  0.99035426599E+03 -0.93159081939E+03  0.16161779503E+04  0.46999998093E+01 0. -1.
       -5    1    3    3    0  502  0.87369677241E+03 -0.99035426599E+03  0.12167636581E+03  0.13262634920E+04  0.46999998093E+01 0.  1.
</event>
<event>
 5   0  0.9342133E-06  0.2841298E+04  0.7818609E-02  0.8290560E-01
        2   -1    0    0  501    0  0.00000000000E+00  0.00000000000E+00  0.13464148043E+04  0.13464148043E+04  0.25500000920E-02 0. -1.
       -2   -1    0    0    0  501  0.00000000000E+00  0.00000000000E+00 -0.14989762639E+04  0.14989762639E+04  0.25500000920E-02 0.  1.
    10030    2    1    2    0    0  0.00000000000E+00  0.00000000000E+00 -0.15256145962E+03  0.28453910681E+04  0.28412981772E+04 0.  0.
        2    1    3    3  502    0  0.11388393141E+04  0.75995598655E+03 -0.45597825006E+03  0.14430537929E+04  0.25500000920E-02 0.  1.
       -2    1    3    3    0  502 -0.11388393141E+04 -0.75995598655E+03  0.30341679044E+03  0.14023372752E+04  0.25500000920E-02 0. -1.
</event>
<event>
 5   0  0.9342133E-06  0.2791209E+04  0.7818609E-02  0.8306003E-01
       -2   -1    0    0    0  501  0.00000000000E+00  0.00000000000E+00  0.73080148245E+03  0.73080148245E+03  0.25500000920E-02 0.  1.
        2   -1    0    0  501    0  0.00000000000E+00  0.00000000000E+00 -0.26651719725E+04  0.26651719725E+04  0.25500000920E-02 0. -1.
    10030    2    1    2    0    0  0.00000000000E+00  0.00000000000E+00 -0.19343704900E+04  0.33959734549E+04  0.27912087908E+04 0.  0.
        2    1    3    3  502    0  0.10243878018E+03 -0.13629275519E+04 -0.62382099706E+03  0.15024040242E+04  0.25500000920E-02 0. -1.
       -2    1    3    3    0  502 -0.10243878018E+03  0.13629275519E+04 -0.13105494930E+04  0.18935694307E+04  0.25500000920E-02 0.  1.
</event>
<event>
 5   0  0.9252359E-06  0.2809882E+04  0.7818609E-02  0.8300207E-01
       -2   -1    0    0    0  501  0.00000000000E+00  0.00000000000E+00  0.11269192732E+04  0.11269192732E+04  0.25500000920E-02 0. -1.
        2   -1    0    0  501    0  0.00000000000E+00  0.00000000000E+00 -0.17515532557E+04  0.17515532558E+04  0.25500000920E-02 0.  1.
    10030    2    1    2    0    0  0.00000000000E+00  0.00000000000E+00 -0.62463398252E+03  0.28784725290E+04  0.28098819349E+04 0.  0.
        5    1    3    3  502    0  0.13623104584E+04 -0.26810124653E+03 -0.92440771874E+02  0.13915227091E+04  0.46999998093E+01 0. -1.
       -5    1    3    3    0  502 -0.13623104584E+04  0.26810124653E+03 -0.53219321065E+03  0.14869498199E+04  0.46999998093E+01 0.  1.
</event>
<event>
 5   0  0.9426937E-06  0.2793788E+04  0.7818609E-02  0.8305199E-01
       -2   -1    0    0    0  501  0.00000000000E+00  0.00000000000E+00  0.14690688345E+04  0.14690688345E+04  0.25500000920E-02 0.  1.
        2   -1    0    0  501    0  0.00000000000E+00  0.00000000000E+00 -0.13282654398E+04  0.13282654398E+04  0.25500000920E-02 0. -1.
    10030    2    1    2    0    0  0.00000000000E+00  0.00000000000E+00  0.14080339465E+03  0.27973342743E+04  0.27937883682E+04 0.  0.
        4    1    3    3  502    0  0.35330989280E+03 -0.10902242185E+04  0.87009869976E+03  0.14389197640E+04  0.12699999809E+01 0.  1.
       -4    1    3    3    0  502 -0.35330989280E+03  0.10902242185E+04 -0.72929530511E+03  0.13584145103E+04  0.12699999809E+01 0. -1.
</event>
<event>
 5   0  0.3371603E-06  0.2773792E+04  0.7818609E-02  0.8311451E-01
        1   -1    0    0  501    0  0.00000000000E+00  0.00000000000E+00  0.14486030652E+04  0.14486030652E+04  0.50400001928E-02 0.  1.
       -1   -1    0    0    0  501  0.00000000000E+00  0.00000000000E+00 -0.13278179702E+04  0.13278179702E+04  0.50400001928E-02 0. -1.
    10030    2    1    2    0    0  0.00000000000E+00  0.00000000000E+00  0.12078509496E+03  0.27764210355E+04  0.27737924809E+04 0.  0.
        1    1    3    3  502    0 -0.34993787393E+03  0.71639340298E+02  0.14017716140E+04  0.14465657152E+04  0.50400001928E-02 0.  1.
       -1    1    3    3    0  502  0.34993787393E+03 -0.71639340298E+02 -0.12809865190E+04  0.13298553202E+04  0.50400001928E-02 0. -1.
</event>
<event>
 5   0  0.9426937E-06  0.2553603E+04  0.7818609E-02  0.8384134E-01
        2   -1    0    0  501    0  0.00000000000E+00  0.00000000000E+00  0.15453547104E+04  0.15453547104E+04  0.25500000920E-02 0.  1.
       -2   -1    0    0    0  501  0.00000000000E+00  0.00000000000E+00 -0.10549177834E+04  0.10549177834E+04  0.25500000920E-02 0. -1.
    10030    2    1    2    0    0  0.00000000000E+00  0.00000000000E+00  0.49043692699E+03  0.26002724938E+04  0.25536030746E+04 0.  0.
        4    1    3    3  502    0  0.65916689902E+03  0.95090541992E+03  0.79499168549E+03  0.14038288754E+04  0.12699999809E+01 0. -1.
       -4    1    3    3    0  502 -0.65916689902E+03 -0.95090541992E+03 -0.30455475850E+03  0.11964436185E+04  0.12699999809E+01 0.  1.
</event>
<event>
 5   0  0.3357244E-06  0.2864993E+04  0.7818609E-02  0.8283370E-01
        1   -1    0    0  501    0  0.00000000000E+00  0.00000000000E+00  0.12814208289E+04  0.12814208290E+04  0.50400001928E-02 0. -1.
       -1   -1    0    0    0  501  0.00000000000E+00  0.00000000000E+00 -0.16013840837E+04  0.16013840837E+04  0.50400001928E-02 0.  1.
    10030    2    1    2    0    0  0.00000000000E+00  0.00000000000E+00 -0.31996325471E+03  0.28828049126E+04  0.28649934869E+04 0.  0.
        4    1    3    3  502    0 -0.12547562295E+04 -0.64958330496E+03 -0.39740115071E+03  0.14677537099E+04  0.12699999809E+01 0. -1.
       -4    1    3    3    0  502  0.12547562295E+04  0.64958330496E+03  0.77437895995E+02  0.14150512027E+04  0.12699999809E+01 0.  1.
</event>
<event>
 5   0  0.9260173E-06  0.2803638E+04  0.7818609E-02  0.8302140E-01
        2   -1    0    0  501    0  0.00000000000E+00  0.00000000000E+00  0.13955260140E+04  0.13955260140E+04  0.25500000920E-02 0. -1.
       -2   -1    0    0    0  501  0.00000000000E+00  0.00000000000E+00 -0.14081399509E+04  0.14081399509E+04  0.25500000920E-02 0.  1.
    10030    2    1    2    0    0  0.00000000000E+00  0.00000000000E+00 -0.12613936860E+02  0.28036659649E+04  0.28036375892E+04 0.  0.
        1    1    3    3  502    0  0.11618725470E+04  0.72953962147E+03  0.28165437707E+03  0.14005374193E+04  0.50400001928E-02 0. -1.
       -1    1    3    3    0  502 -0.11618725470E+04 -0.72953962147E+03 -0.29426831393E+03  0.14031285456E+04  0.50400001928E-02 0.  1.
</event>
<event>
 5   0  0.3438130E-06  0.2808214E+04  0.7818609E-02  0.8300723E-01
        1   -1    0    0  501    0  0.00000000000E+00  0.00000000000E+00  0.15223441221E+04  0.15223441222E+04  0.50400001928E-02 0.  1.
       -1   -1    0    0    0  501  0.00000000000E+00  0.00000000000E+00 -0.12950527008E+04  0.12950527008E+04  0.50400001928E-02 0. -1.
    10030    2    1    2    0    0  0.00000000000E+00  0.00000000000E+00  0.22729142131E+03  0.28173968230E+04  0.28082135724E+04 0.  0.
        3    1    3    3  502    0  0.11110169380E+04  0.84741189082E+03 -0.24828494743E+02  0.13975271066E+04  0.10100000352E+00 0.  1.
       -3    1    3    3    0  502 -0.11110169380E+04 -0.84741189082E+03  0.25211991605E+03  0.14198697164E+04  0.10100000352E+00 0. -1.
</event>
<event>
 5   0  0.9065579E-06  0.2815601E+04  0.7818609E-02  0.8298441E-01
        2   -1    0    0  501    0  0.00000000000E+00  0.00000000000E+00  0.18114264660E+04  0.18114264660E+04  0.25500000920E-02 0. -1.
       -2   -1    0    0    0  501  0.00000000000E+00  0.00000000000E+00 -0.10941112602E+04  0.10941112602E+04  0.25500000920E-02 0.  1.
    10030    2    1    2    0    0  0.00000000000E+00  0.00000000000E+00  0.71731520576E+03  0.29055377262E+04  0.28156008904E+04 0.  0.
        3    1    3    3  502    0 -0.28027764963E+03 -0.11425678587E+04 -0.43927154580E+03  0.12557771991E+04  0.10100000352E+00 0.  1.
       -3    1    3    3    0  502  0.28027764963E+03  0.11425678587E+04  0.11565867516E+04  0.16497605271E+04  0.10100000352E+00 0. -1.
</event>
<event>
 5   0  0.3600963E-06  0.2787872E+04  0.7818609E-02  0.8307044E-01
       -1   -1    0    0    0  501  0.00000000000E+00  0.00000000000E+00  0.12426524970E+04  0.12426524970E+04  0.50400001928E-02 0.  1.
        1   -1    0    0  501    0  0.00000000000E+00  0.00000000000E+00 -0.15636368410E+04  0.15636368410E+04  0.50400001928E-02 0. -1.
    10030    2    1    2    0    0  0.00000000000E+00  0.00000000000E+00 -0.32098434404E+03  0.28062893380E+04  0.27878717509E+04 0.  0.
        5    1    3    3  502    0  0.26733492189E+02  0.66729630802E+03  0.10711251560E+04  0.12622718535E+04  0.46999998093E+01 0.  1.
       -5    1    3    3    0  502 -0.26733492189E+02 -0.66729630802E+03 -0.13921095000E+04  0.15440174845E+04  0.46999998093E+01 0. -1.
</event>
<event>
 5   0  0.9260173E-06  0.2816063E+04  0.7818609E-02  0.8298299E-01
       -2   -1    0    0    0  501  0.00000000000E+00  0.00000000000E+00  0.13373455114E+04  0.13373455114E+04  0.25500000920E-02 0. -1.
        2   -1    0    0  501    0  0.00000000000E+00  0.00000000000E+00 -0.14824534149E+04  0.14824534149E+04  0.25500000920E-02 0.  1.
    10030    2    1    2    0    0  0.00000000000E+00  0.00000000000E+00 -0.14510790355E+03  0.28197989263E+04  0.28160627978E+04 0.  0.
        1    1    3    3  502    0  0.79121159076E+03 -0.80706087037E+03 -0.91342362670E+03  0.14531709300E+04  0.50400001928E-02 0.  1.
       -1    1    3    3    0  502 -0.79121159076E+03  0.80706087037E+03  0.76831572315E+03  0.13666279963E+04  0.50400001928E-02 0. -1.
</event>
<event>
 5   0  0.9065579E-06  0.2727813E+04  0.7818609E-02  0.8326037E-01
       -2   -1    0    0    0  501  0.00000000000E+00  0.00000000000E+00  0.18207832947E+04  0.18207832947E+04  0.25500000920E-02 0. -1.
        2   -1    0    0  501    0  0.00000000000E+00  0.00000000000E+00 -0.10216709193E+04  0.10216709193E+04  0.25500000920E-02 0.  1.
    10030    2    1    2    0    0  0.00000000000E+00  0.00000000000E+00  0.79911237547E+03  0.28424542140E+04  0.27278132946E+04 0.  0.
        3    1    3    3  502    0 -0.88748773797E+03  0.87606628174E+03  0.97514244265E+03  0.15830443483E+04  0.10100000352E+00 0. -1.
       -3    1    3    3    0  502  0.88748773797E+03 -0.87606628174E+03 -0.17603006718E+03  0.12594098657E+04  0.10100000352E+00 0.  1.
</event>
<event>
 5   0  0.3006875E-06  0.2782434E+04  0.7818609E-02  0.8308743E-01
        3   -1    0    0  501    0  0.00000000000E+00  0.00000000000E+00  0.21480034406E+04  0.21480034430E+04  0.10100000352E+00 0.  1.
       -3   -1    0    0    0  501  0.00000000000E+00  0.00000000000E+00 -0.90106217866E+03  0.90106218432E+03  0.10100000352E+00 0. -1.
    10030    2    1    2    0    0  0.00000000000E+00  0.00000000000E+00  0.12469412619E+04  0.30490656273E+04  0.27824339505E+04 0.  0.
        3    1    3    3  502    0  0.98844852742E+03 -0.88910029620E+03  0.17437569057E+03  0.13408716269E+04  0.10100000352E+00 0. -1.
       -3    1    3    3    0  502 -0.98844852742E+03  0.88910029620E+03  0.10725655714E+04  0.17081940005E+04  0.10100000352E+00 0.  1.
</event>
<event>
 5   0  0.3357244E-06  0.2803468E+04  0.7818609E-02  0.8302192E-01
       -1   -1    0    0    0  501  0.00000000000E+00  0.00000000000E+00  0.23007740635E+04  0.23007740635E+04  0.50400001928E-02 0.  1.
        1   -1    0    0  501    0  0.00000000000E+00  0.00000000000E+00 -0.85399897985E+03  0.85399897987E+03  0.50400001928E-02 0. -1.
    10030    2    1    2    0    0  0.00000000000E+00  0.00000000000E+00  0.14467750836E+04  0.31547730433E+04  0.28034683541E+04 0.  0.
        4    1    3    3  502    0  0.84732450734E+03 -0.11061728035E+04  0.55169005627E+03  0.14986462635E+04  0.12699999809E+01 0.  1.
       -4    1    3    3    0  502 -0.84732450734E+03  0.11061728035E+04  0.89508502735E+03  0.16561267799E+04  0.12699999809E+01 0. -1.
</event>
<event>
 5   0  0.3357244E-06  0.2909116E+04  0.7818609E-02  0.8270170E-01
       -1   -1    0    0    0  501  0.00000000000E+00  0.00000000000E+00  0.24145812378E+04  0.24145812378E+04  0.50400001928E-02 0. -1.
        1   -1    0    0  501    0  0.00000000000E+00  0.00000000000E+00 -0.87623459497E+03  0.87623459499E+03  0.50400001928E-02 0.  1.
    10030    2    1    2    0    0  0.00000000000E+00  0.00000000000E+00  0.15383466428E+04  0.32908158328E+04  0.29091164384E+04 0.  0.
        4    1    3    3  502    0 -0.44424887413E+03 -0.13681233387E+04  0.52492806898E+03  0.15312314072E+04  0.12699999809E+01 0.  1.
       -4    1    3    3    0  502  0.44424887413E+03  0.13681233387E+04  0.10134185739E+04  0.17595844256E+04  0.12699999809E+01 0. -1.
</event>
<event>
 5   0  0.9426937E-06  0.2825067E+04  0.7818609E-02  0.8295528E-01
        2   -1    0    0  501    0  0.00000000000E+00  0.00000000000E+00  0.20475067686E+04  0.20475067686E+04  0.25500000920E-02 0.  1.
       -2   -1    0    0    0  501  0.00000000000E+00  0.00000000000E+00 -0.97447824561E+03  0.97447824561E+03  0.25500000920E-02 0. -1.
    10030    2    1    2    0    0  0.00000000000E+00  0.00000000000E+00  0.10730285230E+04  0.30219850142E+04  0.28250669399E+04 0.  0.
        4    1    3    3  502    0  0.91608703822E+01 -0.10502484857E+04 -0.47385678847E+03  0.11522359447E+04  0.12699999809E+01 0. -1.
       -4    1    3    3    0  502 -0.91608703822E+01  0.10502484857E+04  0.15468853114E+04  0.18697490695E+04  0.12699999809E+01 0.  1.
</event>
<event>
 5   0  0.9260173E-06  0.2898004E+04  0.7818609E-02  0.8273472E-01
       -2   -1    0    0    0  501  0.00000000000E+00  0.00000000000E+00  0.12475920521E+04  0.12475920521E+04  0.25500000920E-02 0. -1.
        2   -1    0    0  501    0  0.00000000000E+00  0.00000000000E+00 -0.16829275220E+04  0.16829275220E+04  0.25500000920E-02 0.  1.
    10030    2    1    2    0    0  0.00000000000E+00  0.00000000000E+00 -0.43533546988E+03  0.29305195741E+04  0.28980041413E+04 0.  0.
        1    1    3    3  502    0 -0.12870188335E+04  0.18157882598E+03  0.43000158770E+03  0.13690470092E+04  0.50400001928E-02 0. -1.
       -1    1    3    3    0  502  0.12870188335E+04 -0.18157882598E+03 -0.86533705757E+03  0.15614725650E+04  0.50400001928E-02 0.  1.
</event>
<event>
 5   0  0.3371603E-06  0.2785423E+04  0.7818609E-02  0.8307808E-01
        1   -1    0    0  501    0  0.00000000000E+00  0.00000000000E+00  0.22246814313E+04  0.22246814313E+04  0.50400001928E-02 0. -1.
       -1   -1    0    0    0  501  0.00000000000E+00  0.00000000000E+00 -0.87187572635E+03  0.87187572637E+03  0.50400001928E-02 0.  1.
    10030    2    1    2    0    0  0.00000000000E+00  0.00000000000E+00  0.13528057049E+04  0.30965571577E+04  0.27854232991E+04 0.  0.
        1    1    3    3  502    0 -0.39968633982E+03  0.91969663841E+03 -0.39801704611E+03  0.10788923236E+04  0.50400001928E-02 0.  1.
       -1    1    3    3    0  502  0.39968633982E+03 -0.91969663841E+03  0.17508227510E+04  0.20176648340E+04  0.50400001928E-02 0. -1.
</event>
<event>
 5   0  0.9252359E-06  0.2830086E+04  0.7818609E-02  0.8293988E-01
       -2   -1    0    0    0  501  0.00000000000E+00  0.00000000000E+00  0.14494067608E+04  0.14494067608E+04  0.25500000920E-02 0.  1.
        2   -1    0    0  501    0  0.00000000000E+00  0.00000000000E+00 -0.13814941280E+04  0.13814941280E+04  0.25500000920E-02 0. -1.
    10030    2    1    2    0    0  0.00000000000E+00  0.00000000000E+00  0.67912632802E+02  0.28309008888E+04  0.28300861677E+04 0.  0.
        5    1    3    3  502    0  0.89036902459E+03  0.56176722310E+03  0.97973653336E+03  0.14381394848E+04  0.46999998093E+01 0.  1.
       -5    1    3    3    0  502 -0.89036902459E+03 -0.56176722310E+03 -0.91182390055E+03  0.13927614040E+04  0.46999998093E+01 0. -1.
</event>
<event>
 5   0  0.3357244E-06  0.2918655E+04  0.7818609E-02  0.8267348E-01
       -1   -1    0    0    0  501  0.00000000000E+00  0.00000000000E+00  0.16344087516E+04  0.16344087516E+04  0.50400001928E-02 0. -1.
        1   -1    0    0  501    0  0.00000000000E+00  0.00000000000E+00 -0.13030017480E+04  0.13030017480E+04  0.50400001928E-02 0.  1.
    10030    2    1    2    0    0  0.00000000000E+00  0.00000000000E+00  0.33140700360E+03  0.29374104996E+04  0.29186554852E+04 0.  0.
        4    1    3    3  502    0  0.23379614230E+03  0.12359054876E+04 -0.57899239619E+03  0.13846865414E+04  0.12699999809E+01 0.  1.
       -4    1    3    3    0  502 -0.23379614230E+03 -0.12359054876E+04  0.91039939979E+03  0.15527239582E+04  0.12699999809E+01 0. -1.
</event>
<event>
 5   0  0.3600963E-06  0.2767613E+04  0.7818609E-02  0.8313394E-01
        1   -1    0    0  501    0  0.00000000000E+00  0.00000000000E+00  0.12802719697E+04  0.12802719697E+04  0.50400001928E-02 0.  1.
       -1   -1    0    0    0  501  0.00000000000E+00  0.00000000000E+00 -0.14957143025E+04  0.14957143025E+04  0.50400001928E-02 0. -1.
    10030    2    1    2    0    0  0.00000000000E+00  0.00000000000E+00 -0.21544233279E+03  0.27759862722E+04  0.27676134818E+04 0.  0.
        5    1    3    3  502    0  0.46759496112E+03  0.12259965798E+04  0.33313821750E+03  0.13537783509E+04  0.46999998093E+01 0.  1.
       -5    1    3    3    0  502 -0.46759496112E+03 -0.12259965798E+04 -0.54858055029E+03  0.14222079213E+04  0.46999998093E+01 0. -1.
</event>
<event>
 5   0  0.3397882E-06  0.2793202E+04  0.7818609E-02  0.8305382E-01
        1   -1    0    0  501    0  0.00000000000E+00  0.00000000000E+00  0.12664248225E+04  0.12664248225E+04  0.50400001928E-02 0.  1.
       -1   -1    0    0    0  501  0.00000000000E+00  0.00000000000E+00 -0.15401584937E+04  0.15401584937E+04  0.50400001928E-02 0. -1.
    10030    2    1    2    0    0  0.00000000000E+00  0.00000000000E+00 -0.27373367125E+03  0.28065833162E+04  0.27932024252E+04 0.  0.
        2    1    3    3  502    0  0.17680417411E+03  0.16686193495E+03 -0.15187341359E+04  0.15380689181E+04  0.25500000920E-02 0. -1.
       -2    1    3    3    0  502 -0.17680417411E+03 -0.16686193495E+03  0.12450004646E+04  0.12685143981E+04  0.25500000920E-02 0.  1.
</event>
<event>
 5   0  0.9426937E-06  0.2716282E+04  0.7818609E-02  0.8329741E-01
        2   -1    0    0  501    0  0.00000000000E+00  0.00000000000E+00  0.18309480397E+04  0.18309480397E+04  0.25500000920E-02 0. -1.
       -2   -1    0    0    0  501  0.00000000000E+00  0.00000000000E+00 -0.10074270273E+04  0.10074270273E+04  0.25500000920E-02 0.  1.
    10030    2    1    2    0    0  0.00000000000E+00  0.00000000000E+00  0.82352101248E+03  0.28383750670E+04  0.27162816796E+04 0.  0.
        4    1    3    3  502    0  0.10417827732E+04 -0.51339668246E+03 -0.32391413843E+03  0.12057402216E+04  0.12699999809E+01 0.  1.
       -4    1    3    3    0  502 -0.10417827732E+04  0.51339668246E+03  0.11474351509E+04  0.16326348454E+04  0.12699999809E+01 0. -1.
</event>
<event>
 5   0  0.3371603E-06  0.3015047E+04  0.7818609E-02  0.8239447E-01
       -1   -1    0    0    0  501  0.00000000000E+00  0.00000000000E+00  0.28867867024E+04  0.28867867024E+04  0.50400001928E-02 0. -1.
        1   -1    0    0  501    0  0.00000000000E+00  0.00000000000E+00 -0.78725169723E+03  0.78725169725E+03  0.50400001928E-02 0.  1.
    10030    2    1    2    0    0  0.00000000000E+00  0.00000000000E+00  0.20995350052E+04  0.36740383996E+04  0.30150474166E+04 0.  0.
        1    1    3    3  502    0  0.14304152172E+04 -0.46076650491E+03  0.90438334894E+03  0.17539391972E+04  0.50400001928E-02 0.  1.
       -1    1    3    3    0  502 -0.14304152172E+04  0.46076650491E+03  0.11951516562E+04  0.19200992024E+04  0.50400001928E-02 0. -1.
</event>
<event>
 5   0  0.3438130E-06  0.2790854E+04  0.7818609E-02  0.8306113E-01
        1   -1    0    0  501    0  0.00000000000E+00  0.00000000000E+00  0.19649771038E+04  0.19649771038E+04  0.50400001928E-02 0. -1.
       -1   -1    0    0    0  501  0.00000000000E+00  0.00000000000E+00 -0.99096172856E+03  0.99096172857E+03  0.50400001928E-02 0.  1.
    10030    2    1    2    0    0  0.00000000000E+00  0.00000000000E+00  0.97401537527E+03  0.29559388324E+04  0.27908544265E+04 0.  0.
        3    1    3    3  502    0  0.19238149227E+03  0.17263862125E+03 -0.96538366131E+03  0.99938999187E+03  0.10100000352E+00 0.  1.
       -3    1    3    3    0  502 -0.19238149227E+03 -0.17263862125E+03  0.19393990366E+04  0.19565488405E+04  0.10100000352E+00 0. -1.
</event>
<event>
 5   0  0.9342133E-06  0.2807840E+04  0.7818609E-02  0.8300838E-01
       -2   -1    0    0    0  501  0.00000000000E+00  0.00000000000E+00  0.10122721107E+04  0.10122721107E+04  0.25500000920E-02 0.  1.
        2   -1    0    0  501    0  0.00000000000E+00  0.00000000000E+00 -0.19470966267E+04  0.19470966267E+04  0.25500000920E-02 0. -1.
    10030    2    1    2    0    0  0.00000000000E+00  0.00000000000E+00 -0.93482451600E+03  0.29593687374E+04  0.28078401750E+04 0.  0.
        2    1    3    3  502    0 -0.69691128389E+03 -0.84933037352E+03  0.45379534658E+03  0.11886873591E+04  0.25500000920E-02 0.  1.
       -2    1    3    3    0  502  0.69691128389E+03  0.84933037352E+03 -0.13886198626E+04  0.17706813784E+04  0.25500000920E-02 0. -1.
</event>
<event>
 5   0  0.9426937E-06  0.2817123E+04  0.7818609E-02  0.8297972E-01
       -2   -1    0    0    0  501  0.00000000000E+00  0.00000000000E+00  0.11641776366E+04  0.11641776366E+04  0.25500000920E-02 0.  1.
        2   -1    0    0  501    0  0.00000000000E+00  0.00000000000E+00 -0.17042462678E+04  0.17042462678E+04  0.25500000920E-02 0. -1.
    10030    2    1    2    0    0  0.00000000000E+00  0.00000000000E+00 -0.54006863121E+03  0.28684239044E+04  0.28171229240E+04 0.  0.
        4    1    3    3  502    0  0.12677486484E+03 -0.28940374655E+03  0.11276305198E+04  0.11710587504E+04  0.12699999809E+01 0.  1.
       -4    1    3    3    0  502 -0.12677486484E+03  0.28940374655E+03 -0.16676991510E+04  0.16973651540E+04  0.12699999809E+01 0. -1.
</event>
<event>
 5   0  0.3600963E-06  0.2777301E+04  0.7818609E-02  0.8310350E-01
       -1   -1    0    0    0  501  0.00000000000E+00  0.00000000000E+00  0.84672362627E+03  0.84672362629E+03  0.50400001928E-02 0.  1.
        1   -1    0    0  501    0  0.00000000000E+00  0.00000000000E+00 -0.22774264980E+04  0.22774264980E+04  0.50400001928E-02 0. -1.
    10030    2    1    2    0    0  0.00000000000E+00  0.00000000000E+00 -0.14307028718E+04  0.31241501243E+04  0.27773014406E+04 0.  0.
        5    1    3    3  502    0  0.10348511394E+04  0.41798067940E+03  0.21409657068E+03  0.11364348467E+04  0.46999998093E+01 0.  1.
       -5    1    3    3    0  502 -0.10348511394E+04 -0.41798067940E+03 -0.16447994425E+04  0.19877152777E+04  0.46999998093E+01 0. -1.
</event>
<event>
 5   0  0.9426937E-06  0.2809692E+04  0.7818609E-02  0.8300266E-01
        2   -1    0    0  501    0  0.00000000000E+00  0.00000000000E+00  0.15565620235E+04  0.15565620235E+04  0.25500000920E-02 0. -1.
       -2   -1    0    0    0  501  0.00000000000E+00  0.00000000000E+00 -0.12679172641E+04  0.12679172641E+04  0.25500000920E-02 0.  1.
    10030    2    1    2    0    0  0.00000000000E+00  0.00000000000E+00  0.28864475945E+03  0.28244792877E+04  0.28096917000E+04 0.  0.
        4    1    3    3  502    0  0.69801922191E+03  0.30377598014E+03 -0.10426032478E+04  0.12909429985E+04  0.12699999809E+01 0.  1.
       -4    1    3    3    0  502 -0.69801922191E+03 -0.30377598014E+03  0.13312480073E+04  0.15335362891E+04  0.12699999809E+01 0. -1.
</event>
<event>
 5   0  0.3397882E-06  0.2819752E+04  0.7818609E-02  0.8297162E-01
        1   -1    0    0  501    0  0.00000000000E+00  0.00000000000E+00  0.21148431457E+04  0.21148431457E+04  0.50400001928E-02 0. -1.
       -1   -1    0    0    0  501  0.00000000000E+00  0.00000000000E+00 -0.93990446474E+03  0.93990446475E+03  0.50400001928E-02 0.  1.
    10030    2    1    2    0    0  0.00000000000E+00  0.00000000000E+00  0.11749386810E+04  0.30547476105E+04  0.28197521274E+04 0.  0.
        2    1    3    3  502    0 -0.13298988976E+04 -0.24719980909E+03  0.10181040306E+04  0.16930075725E+04  0.25500000920E-02 0. -1.
       -2    1    3    3    0  502  0.13298988976E+04  0.24719980909E+03  0.15683465040E+03  0.13617400380E+04  0.25500000920E-02 0.  1.
</event>
<event>
 5   0  0.9252359E-06  0.2818109E+04  0.7818609E-02  0.8297668E-01
       -2   -1    0    0    0  501  0.00000000000E+00  0.00000000000E+00  0.95221070785E+03  0.95221070785E+03  0.25500000920E-02 0.  1.
        2   -1    0    0  501    0  0.00000000000E+00  0.00000000000E+00 -0.20850787411E+04  0.20850787412E+04  0.25500000920E-02 0. -1.
    10030    2    1    2    0    0  0.00000000000E+00  0.00000000000E+00 -0.11328680333E+04  0.30372894490E+04  0.28181088013E+04 0.  0.
        5    1    3    3  502    0 -0.53150526650E+03 -0.82512081444E+03  0.52318079039E+03  0.11122330854E+04  0.46999998093E+01 0.  1.
       -5    1    3    3    0  502  0.53150526650E+03  0.82512081444E+03 -0.16560488237E+04  0.19250563636E+04  0.46999998093E+01 0. -1.
</event>
<event>
 5   0  0.3357244E-06  0.2755324E+04  0.7818609E-02  0.8317274E-01
       -1   -1    0    0    0  501  0.00000000000E+00  0.00000000000E+00  0.10764284871E+04  0.10764284871E+04  0.50400001928E-02 0. -1.
        1   -1    0    0  501    0  0.00000000000E+00  0.00000000000E+00 -0.17631938554E+04  0.17631938554E+04  0.50400001928E-02 0.  1.
    10030    2    1    2    0    0  0.00000000000E+00  0.00000000000E+00 -0.68676536833E+03  0.28396223426E+04  0.27553236429E+04 0.  0.
        4    1    3    3  502    0  0.72094988337E+03  0.10091222072E+04 -0.96161429071E+03  0.15693310742E+04  0.12699999809E+01 0.  1.
       -4    1    3    3    0  502 -0.72094988337E+03 -0.10091222072E+04  0.27484892237E+03  0.12702912684E+04  0.12699999809E+01 0. -1.
</event>
<event>
 5   0  0.9065579E-06  0.2703137E+04  0.7818609E-02  0.8333988E-01
       -2   -1    0    0    0  501  0.00000000000E+00  0.00000000000E+00  0.91770893606E+03  0.91770893606E+03  0.25500000920E-02 0. -1.
        2   -1    0    0  501    0  0.00000000000E+00  0.00000000000E+00 -0.19905410900E+04  0.19905410900E+04  0.25500000920E-02 0.  1.
    10030    2    1    2    0    0  0.00000000000E+00  0.00000000000E+00 -0.10728321539E+04  0.29082500261E+04  0.27031369524E+04 0.  0.
        3    1    3    3  502    0 -0.11859582683E+04  0.64132285783E+03 -0.63817241598E+03  0.14916621819E+04  0.10100000352E+00 0. -1.
       -3    1    3    3    0  502  0.11859582683E+04 -0.64132285783E+03 -0.43465973796E+03  0.14165878442E+04  0.10100000352E+00 0.  1.
</event>
<event>
 5   0  0.3397882E-06  0.2769081E+04  0.7818609E-02  0.8312932E-01
       -1   -1    0    0    0  501  0.00000000000E+00  0.00000000000E+00  0.73992088475E+03  0.73992088477E+03  0.50400001928E-02 0.  1.
        1   -1    0    0  501    0  0.00000000000E+00  0.00000000000E+00 -0.25907522992E+04  0.25907522992E+04  0.50400001928E-02 0. -1.
    10030    2    1    2    0    0  0.00000000000E+00  0.00000000000E+00 -0.18508314144E+04  0.33306731840E+04  0.27690805213E+04 0.  0.
        2    1    3    3  502    0  0.99086046931E+03  0.96654627463E+03 -0.88862544339E+03  0.16448925039E+04  0.25500000920E-02 0.  1.
       -2    1    3    3    0  502 -0.99086046931E+03 -0.96654627463E+03 -0.96220597104E+03  0.16857806801E+04  0.25500000920E-02 0. -1.
</event>
<event>
 5   0  0.9342133E-06  0.2823321E+04  0.7818609E-02  0.8296065E-01
        2   -1    0    0  501    0  0.00000000000E+00  0.00000000000E+00  0.18981320982E+04  0.18981320982E+04  0.25500000920E-02 0. -1.
       -2   -1    0    0    0  501  0.00000000000E+00  0.00000000000E+00 -0.10498665106E+04  0.10498665106E+04  0.25500000920E-02 0.  1.
    10030    2    1    2    0    0  0.00000000000E+00  0.00000000000E+00  0.84826558756E+03  0.29479986089E+04  0.28233209684E+04 0.  0.
        2    1    3    3  502    0  0.11660294992E+03  0.62410892004E+03 -0.89236908698E+03  0.10951852717E+04  0.25500000920E-02 0.  1.
       -2    1    3    3    0  502 -0.11660294992E+03 -0.62410892004E+03  0.17406346745E+04  0.18528133371E+04  0.25500000920E-02 0. -1.
</event>
<event>
 5   0  0.9426937E-06  0.2845513E+04  0.7818609E-02  0.8289276E-01
       -2   -1    0    0    0  501  0.00000000000E+00  0.00000000000E+00  0.13287611992E+04  0.13287611992E+04  0.25500000920E-02 0. -1.
        2   -1    0    0  501    0  0.00000000000E+00  0.00000000000E+00 -0.15234014508E+04  0.15234014508E+04  0.25500000920E-02 0.  1.
    10030    2    1    2    0    0  0.00000000000E+00  0.00000000000E+00 -0.19464025158E+03  0.28521626500E+04  0.28455134781E+04 0.  0.
        4    1    3    3  502    0 -0.10510890661E+04  0.19289347928E+03 -0.10387907397E+04  0.14903301423E+04  0.12699999809E+01 0.  1.
       -4    1    3    3    0  502  0.10510890661E+04 -0.19289347928E+03  0.84415048814E+03  0.13618325076E+04  0.12699999809E+01 0. -1.
</event>
<event>
 5   0  0.9252359E-06  0.2805437E+04  0.7818609E-02  0.8301582E-01
       -2   -1    0    0    0  501  0.00000000000E+00  0.00000000000E+00  0.10560047862E+04  0.10560047862E+04  0.25500000920E-02 0. -1.
        2   -1    0    0  501    0  0.00000000000E+00  0.00000000000E+00 -0.18632673996E+04  0.18632673997E+04  0.25500000920E-02 0.  1.
    10030    2    1    2    0    0  0.00000000000E+00  0.00000000000E+00 -0.80726261341E+03  0.29192721859E+04  0.28054370726E+04 0.  0.
        5    1    3    3  502    0 -0.26808235064E+01 -0.11598251083E+04  0.41730102660E+03  0.12326247221E+04  0.46999998093E+01 0. -1.
       -5    1    3    3    0  502  0.26808235064E+01  0.11598251083E+04 -0.12245636400E+04  0.16866474638E+04  0.46999998093E+01 0.  1.
</event>
<event>
 5   0  0.3371603E-06  0.2799348E+04  0.7818609E-02  0.8303471E-01
       -1   -1    0    0    0  501  0.00000000000E+00  0.00000000000E+00  0.11648662508E+04  0.11648662508E+04  0.50400001928E-02 0.  1.
        1   -1    0    0  501    0  0.00000000000E+00  0.00000000000E+00 -0.16818129930E+04  0.16818129930E+04  0.50400001928E-02 0. -1.
    10030    2    1    2    0    0  0.00000000000E+00  0.00000000000E+00 -0.51694674222E+03  0.28466792438E+04  0.27993479210E+04 0.  0.
        1    1    3    3  502    0  0.50284101246E+03 -0.11841570564E+04  0.30222038212E+03  0.13215196470E+04  0.50400001928E-02 0.  1.
       -1    1    3    3    0  502 -0.50284101246E+03  0.11841570564E+04 -0.81916712434E+03  0.15251595968E+04  0.50400001928E-02 0. -1.
</event>
<event>
 5   0  0.3397882E-06  0.2741679E+04  0.7818609E-02  0.8321607E-01
       -1   -1    0    0    0  501  0.00000000000E+00  0.00000000000E+00  0.94040624291E+03  0.94040624292E+03  0.50400001928E-02 0.  1.
        1   -1    0    0  501    0  0.00000000000E+00  0.00000000000E+00 -0.19982867615E+04  0.19982867615E+04  0.50400001928E-02 0. -1.
    10030    2    1    2    0    0  0.00000000000E+00  0.00000000000E+00 -0.10578805186E+04  0.29386930045E+04  0.27416792998E+04 0.  0.
        2    1    3    3  502    0  0.13129559928E+04  0.14317143676E+02 -0.10675452425E+03  0.13173666718E+04  0.25500000920E-02 0. -1.
       -2    1    3    3    0  502 -0.13129559928E+04 -0.14317143676E+02 -0.95112599437E+03  0.16213263326E+04  0.25500000920E-02 0.  1.
</event>
<event>
 5   0  0.9252359E-06  0.2805317E+04  0.7818609E-02  0.8301620E-01
        2   -1    0    0  501    0  0.00000000000E+00  0.00000000000E+00  0.16942315484E+04  0.16942315484E+04  0.25500000920E-02 0.  1.
       -2   -1    0    0    0  501  0.00000000000E+00  0.00000000000E+00 -0.11612643203E+04  0.11612643203E+04  0.25500000920E-02 0. -1.
    10030    2    1    2    0    0  0.00000000000E+00  0.00000000000E+00  0.53296722811E+03  0.28554958687E+04  0.28053168430E+04 0.  0.
        5    1    3    3  502    0  0.20615755813E+02  0.11654930944E+04  0.10605852281E+04  0.15759639205E+04  0.46999998093E+01 0.  1.
       -5    1    3    3    0  502 -0.20615755813E+02 -0.11654930944E+04 -0.52761800002E+03  0.12795319482E+04  0.46999998093E+01 0. -1.
</event>
<event>
 5   0  0.3438130E-06  0.2761912E+04  0.7818609E-02  0.8315192E-01
        1   -1    0    0  501    0  0.00000000000E+00  0.00000000000E+00  0.20144007053E+04  0.20144007053E+04  0.50400001928E-02 0.  1.
       -1   -1    0    0    0  501  0.00000000000E+00  0.00000000000E+00 -0.94670322352E+03  0.94670322353E+03  0.50400001928E-02 0. -1.
    10030    2    1    2    0    0  0.00000000000E+00  0.00000000000E+00  0.10676974818E+04  0.29611039288E+04  0.27619121211E+04 0.  0.
        3    1    3    3  502    0 -0.90229661280E+03  0.10424810618E+04  0.44988250543E+03  0.14502759119E+04  0.10100000352E+00 0.  1.
       -3    1    3    3    0  502  0.90229661280E+03 -0.10424810618E+04  0.61781497633E+03  0.15108280170E+04  0.10100000352E+00 0. -1.
</event>
<event>
 5   0  0.9260173E-06  0.2854411E+04  0.7818609E-02  0.8286572E-01
        2   -1    0    0  501    0  0.00000000000E+00  0.00000000000E+00  0.22030983303E+04  0.22030983303E+04  0.25500000920E-02 0. -1.
       -2   -1    0    0    0  501  0.00000000000E+00  0.00000000000E+00 -0.92456866982E+03  0.92456866982E+03  0.25500000920E-02 0.  1.
    10030    2    1    2    0    0  0.00000000000E+00  0.00000000000E+00  0.12785296605E+04  0.31276670001E+04  0.28544111076E+04 0.  0.
        1    1    3    3  502    0  0.68744431392E+03  0.12459689290E+04  0.75878210234E+03  0.16126898448E+04  0.50400001928E-02 0. -1.
       -1    1    3    3    0  502 -0.68744431392E+03 -0.12459689290E+04  0.51974755816E+03  0.15149771553E+04  0.50400001928E-02 0.  1.
</event>
<event>
 5   0  0.3371603E-06  0.2803587E+04  0.7818609E-02  0.8302156E-01
       -1   -1    0    0    0  501  0.00000000000E+00  0.00000000000E+00  0.12308286268E+04  0.12308286269E+04  0.50400001928E-02 0. -1.
        1   -1    0    0  501    0  0.00000000000E+00  0.00000000000E+00 -0.15965055508E+04  0.15965055508E+04  0.50400001928E-02 0.  1.
    10030    2    1    2    0    0  0.00000000000E+00  0.00000000000E+00 -0.36567692397E+03  0.28273341777E+04  0.28035867990E+04 0.  0.
        1    1    3    3  502    0 -0.12263228452E+04 -0.67845745890E+03 -0.15339370855E+03  0.14098588136E+04  0.50400001928E-02 0. -1.
       -1    1    3    3    0  502  0.12263228452E+04  0.67845745890E+03 -0.21228321542E+03  0.14174753641E+04  0.50400001928E-02 0.  1.
</event>
<event>
 5   0  0.9260173E-06  0.2692995E+04  0.7818609E-02  0.8337281E-01
       -2   -1    0    0    0  501  0.00000000000E+00  0.00000000000E+00  0.11998269488E+04  0.11998269488E+04  0.25500000920E-02 0. -1.
        2   -1    0    0  501    0  0.00000000000E+00  0.00000000000E+00 -0.15110974125E+04  0.15110974125E+04  0.25500000920E-02 0.  1.
    10030    2    1    2    0    0  0.00000000000E+00  0.00000000000E+00 -0.31127046367E+03  0.27109243613E+04  0.26929949111E+04 0.  0.
        1    1    3    3  502    0  0.11424923512E+04 -0.21932020218E+03  0.52686486212E+03  0.12770969840E+04  0.50400001928E-02 0.  1.
       -1    1    3    3    0  502 -0.11424923512E+04  0.21932020218E+03 -0.83813532579E+03  0.14338273773E+04  0.50400001928E-02 0. -1.
</event>
<event>
 5   0  0.9065579E-06  0.2808693E+04  0.7818609E-02  0.8300575E-01
       -2   -1    0    0    0  501  0.00000000000E+00  0.00000000000E+00  0.14163610142E+04  0.14163610142E+04  0.25500000920E-02 0.  1.
        2   -1    0    0  501    0  0.00000000000E+00  0.00000000000E+00 -0.13924338203E+04  0.13924338203E+04  0.25500000920E-02 0. -1.
    10030    2    1    2    0    0  0.00000000000E+00  0.00000000000E+00  0.23927193823E+02  0.28087948345E+04  0.28086929187E+04 0.  0.
        3    1    3    3  502    0  0.23172614143E+03  0.13849701910E+04 -0.67328862537E+01  0.14042381481E+04  0.10100000352E+00 0.  1.
       -3    1    3    3    0  502 -0.23172614143E+03 -0.13849701910E+04  0.30660080076E+02  0.14045566864E+04  0.10100000352E+00 0. -1.
</event>
<event>
 5   0  0.9252359E-06  0.2755243E+04  0.7818609E-02  0.8317300E-01
       -2   -1    0    0    0  501  0.00000000000E+00  0.00000000000E+00  0.10208335282E+04  0.10208335282E+04  0.25500000920E-02 0. -1.
        2   -1    0    0  501    0  0.00000000000E+00  0.00000000000E+00 -0.18591095515E+04  0.18591095515E+04  0.25500000920E-02 0.  1.
    10030    2    1    2    0    0  0.00000000000E+00  0.00000000000E+00 -0.83827602334E+03  0.28799430797E+04  0.27552432653E+04 0.  0.
        5    1    3    3  502    0 -0.11291433878E+04  0.71732410155E+03 -0.76312294272E+03  0.15400965465E+04  0.46999998093E+01 0.  1.
       -5    1    3    3    0  502  0.11291433878E+04 -0.71732410155E+03 -0.75153080615E+02  0.13398465332E+04  0.46999998093E+01 0. -1.
</event>
<event>
 5   0  0.9065579E-06  0.2818190E+04  0.7818609E-02  0.8297643E-01
        2   -1    0    0  501    0  0.00000000000E+00  0.00000000000E+00  0.21245178343E+04  0.21245178343E+04  0.25500000920E-02 0. -1.
       -2   -1    0    0    0  501  0.00000000000E+00  0.00000000000E+00 -0.93458803957E+03  0.93458803957E+03  0.25500000920E-02 0.  1.
    10030    2    1    2    0    0  0.00000000000E+00  0.00000000000E+00  0.11899297947E+04  0.30591058739E+04  0.28181901694E+04 0.  0.
        3    1    3    3  502    0  0.42027652851E+02 -0.10977408641E+04 -0.36294040721E+03  0.11569473099E+04  0.10100000352E+00 0.  1.
       -3    1    3    3    0  502 -0.42027652851E+02  0.10977408641E+04  0.15528702019E+04  0.19021585640E+04  0.10100000352E+00 0. -1.
</event>
<event>
 5   0  0.3357244E-06  0.2806698E+04  0.7818609E-02  0.8301192E-01
        1   -1    0    0  501    0  0.00000000000E+00  0.00000000000E+00  0.15141159105E+04  0.15141159105E+04  0.50400001928E-02 0. -1.
       -1   -1    0    0    0  501  0.00000000000E+00  0.00000000000E+00 -0.13006856705E+04  0.13006856706E+04  0.50400001928E-02 0.  1.
    10030    2    1    2    0    0  0.00000000000E+00  0.00000000000E+00  0.21343023998E+03  0.28148015811E+04  0.28066983225E+04 0.  0.
        4    1    3    3  502    0  0.95689140950E+03 -0.94356701419E+03 -0.29871354807E+03  0.13766594628E+04  0.12699999809E+01 0.  1.
       -4    1    3    3    0  502 -0.95689140950E+03  0.94356701419E+03  0.51214378805E+03  0.14381421183E+04  0.12699999809E+01 0. -1.
</event>
<event>
 5   0  0.3438130E-06  0.2802310E+04  0.7818609E-02  0.8302552E-01
       -1   -1    0    0    0  501  0.00000000000E+00  0.00000000000E+00  0.11022490993E+04  0.11022490993E+04  0.50400001928E-02 0. -1.
        1   -1    0    0  501    0  0.00000000000E+00  0.00000000000E+00 -0.17811173417E+04  0.17811173417E+04  0.50400001928E-02 0.  1.
    10030    2    1    2    0    0  0.00000000000E+00  0.00000000000E+00 -0.67886824243E+03  0.28833664410E+04  0.28023097514E+04 0.  0.
        3    1    3    3  502    0 -0.58507440608E+03  0.10136628812E+04 -0.11320473322E+04  0.16282983971E+04  0.10100000352E+00 0. -1.
       -3    1    3    3    0  502  0.58507440608E+03 -0.10136628812E+04  0.45317908977E+03  0.12550680440E+04  0.10100000352E+00 0.  1.
</event>
<event>
 5   0  0.3397882E-06  0.2772312E+04  0.7818609E-02  0.8311916E-01
        1   -1    0    0  501    0  0.00000000000E+00  0.00000000000E+00  0.19760410019E+04  0.19760410019E+04  0.50400001928E-02 0. -1.
       -1   -1    0    0    0  501  0.00000000000E+00  0.00000000000E+00 -0.97236265868E+03  0.97236265870E+03  0.50400001928E-02 0.  1.
    10030    2    1    2    0    0  0.00000000000E+00  0.00000000000E+00  0.10036783432E+04  0.29484036606E+04  0.27723120187E+04 0.  0.
        2    1    3    3  502    0  0.73466562599E+03 -0.53047055439E+03  0.16174162430E+04  0.18539600573E+04  0.25500000920E-02 0. -1.
       -2    1    3    3    0  502 -0.73466562599E+03  0.53047055439E+03 -0.61373789978E+03  0.10944436033E+04  0.25500000920E-02 0.  1.
</event>
<event>
 5   0  0.3371603E-06  0.2808463E+04  0.7818609E-02  0.8300646E-01
       -1   -1    0    0    0  501  0.00000000000E+00  0.00000000000E+00  0.10685467540E+04  0.10685467540E+04  0.50400001928E-02 0. -1.
        1   -1    0    0  501    0  0.00000000000E+00  0.00000000000E+00 -0.18453721444E+04  0.18453721444E+04  0.50400001928E-02 0.  1.
    10030    2    1    2    0    0  0.00000000000E+00  0.00000000000E+00 -0.77682539039E+03  0.29139188983E+04  0.28084632202E+04 0.  0.
        1    1    3    3  502    0 -0.10716750635E+04 -0.78871292450E+03  0.77111609254E+02  0.13328547255E+04  0.50400001928E-02 0. -1.
       -1    1    3    3    0  502  0.10716750635E+04  0.78871292450E+03 -0.85393699965E+03  0.15810641728E+04  0.50400001928E-02 0.  1.
</event>
<event>
 5   0  0.9260173E-06  0.2812740E+04  0.7818609E-02  0.8299324E-01
       -2   -1    0    0    0  501  0.00000000000E+00  0.00000000000E+00  0.67475797507E+03  0.67475797507E+03  0.25500000920E-02 0. -1.
        2   -1    0    0  501    0  0.00000000000E+00  0.00000000000E+00 -0.29312395444E+04  0.29312395444E+04  0.25500000920E-02 0.  1.
    10030    2    1    2    0    0  0.00000000000E+00  0.00000000000E+00 -0.22564815694E+04  0.36059975195E+04  0.28127404853E+04 0.  0.
        1    1    3    3  502    0  0.12877805704E+03 -0.58094448414E+03 -0.27619005900E+04  0.28252743496E+04  0.50400001928E-02 0.  1.
       -1    1    3    3    0  502 -0.12877805704E+03  0.58094448414E+03  0.50541902060E+03  0.78072316991E+03  0.50400001928E-02 0. -1.
</event>
<event>
 5   0  0.3438130E-06  0.2789288E+04  0.7818609E-02  0.8306602E-01
       -1   -1    0    0    0  501  0.00000000000E+00  0.00000000000E+00  0.77626447221E+03  0.77626447223E+03  0.50400001928E-02 0. -1.
        1   -1    0    0  501    0  0.00000000000E+00  0.00000000000E+00 -0.25056302633E+04  0.25056302633E+04  0.50400001928E-02 0.  1.
    10030    2    1    2    0    0  0.00000000000E+00  0.00000000000E+00 -0.17293657911E+04  0.32818947355E+04  0.27892879048E+04 0.  0.
        3    1    3    3  502    0 -0.15493780237E+03 -0.43412511055E+03  0.68404678725E+03  0.82485777657E+03  0.10100000352E+00 0. -1.
       -3    1    3    3    0  502  0.15493780237E+03  0.43412511055E+03 -0.24134125783E+04  0.24570369589E+04  0.10100000352E+00 0.  1.
</event>
<event>
 5   0  0.9342133E-06  0.2785376E+04  0.7818609E-02  0.8307823E-01
        2   -1    0    0  501    0  0.00000000000E+00  0.00000000000E+00  0.16481176214E+04  0.16481176214E+04  0.25500000920E-02 0. -1.
       -2   -1    0    0    0  501  0.00000000000E+00  0.00000000000E+00 -0.11768459568E+04  0.11768459568E+04  0.25500000920E-02 0.  1.
    10030    2    1    2    0    0  0.00000000000E+00  0.00000000000E+00  0.47127166458E+03  0.28249635783E+04  0.27853764982E+04 0.  0.
        2    1    3    3  502    0 -0.10376762228E+04  0.10586411027E+03  0.11715739411E+04  0.15686187085E+04  0.25500000920E-02 0. -1.
       -2    1    3    3    0  502  0.10376762228E+04 -0.10586411027E+03 -0.70030227651E+03  0.12563448697E+04  0.25500000920E-02 0.  1.
</event>
<event>
 5   0  0.3600963E-06  0.2809335E+04  0.7818609E-02  0.8300376E-01
        1   -1    0    0  501    0  0.00000000000E+00  0.00000000000E+00  0.21378996324E+04  0.21378996324E+04  0.50400001928E-02 0. -1.
       -1   -1    0    0    0  501  0.00000000000E+00  0.00000000000E+00 -0.92291076094E+03  0.92291076096E+03  0.50400001928E-02 0.  1.
    10030    2    1    2    0    0  0.00000000000E+00  0.00000000000E+00  0.12149888714E+04  0.30608103933E+04  0.28093348512E+04 0.  0.
        5    1    3    3  502    0  0.10757457144E+04 -0.20894246558E+03 -0.34990452473E+03  0.11503656212E+04  0.46999998093E+01 0.  1.
       -5    1    3    3    0  502 -0.10757457144E+04  0.20894246558E+03  0.15648933962E+04  0.19104447721E+04  0.46999998093E+01 0. -1.
</event>
<event>
 5   0  0.9426937E-06  0.2759864E+04  0.7818609E-02  0.8315838E-01
       -2   -1    0    0    0  501  0.00000000000E+00  0.00000000000E+00  0.69557606638E+03  0.69557606638E+03  0.25500000920E-02 0. -1.
        2   -1    0    0  501    0  0.00000000000E+00  0.00000000000E+00 -0.27376043372E+04  0.27376043372E+04  0.25500000920E-02 0.  1.
    10030    2    1    2    0    0  0.00000000000E+00  0.00000000000E+00 -0.20420282708E+04  0.34331804036E+04  0.27598638055E+04 0.  0.
        4    1    3    3  502    0  0.93676714761E+03  0.34262400541E+03  0.16518978892E+03  0.10110455861E+04  0.12699999809E+01 0. -1.
       -4    1    3    3    0  502 -0.93676714761E+03 -0.34262400541E+03 -0.22072180597E+04  0.24221348175E+04  0.12699999809E+01 0.  1.
</event>
<event>
 5   0  0.9260173E-06  0.2801983E+04  0.7818609E-02  0.8302653E-01
       -2   -1    0    0    0  501  0.00000000000E+00  0.00000000000E+00  0.13159375197E+04  0.13159375197E+04  0.25500000920E-02 0. -1.
        2   -1    0    0  501    0  0.00000000000E+00  0.00000000000E+00 -0.14915427009E+04  0.14915427009E+04  0.25500000920E-02 0.  1.
    10030    2    1    2    0    0  0.00000000000E+00  0.00000000000E+00 -0.17560518125E+03  0.28074802206E+04  0.28019828710E+04 0.  0.
        1    1    3    3  502    0  0.13967791002E+04 -0.10401547662E+03 -0.11894295007E+03  0.14056879098E+04  0.50400001928E-02 0. -1.
       -1    1    3    3    0  502 -0.13967791002E+04  0.10401547662E+03 -0.56662231182E+02  0.14017923108E+04  0.50400001928E-02 0.  1.
</event>
<event>
 5   0  0.9065579E-06  0.2809197E+04  0.7818609E-02  0.8300419E-01
       -2   -1    0    0    0  501  0.00000000000E+00  0.00000000000E+00  0.13232221780E+04  0.13232221780E+04  0.25500000920E-02 0.  1.
        2   -1    0    0  501    0  0.00000000000E+00  0.00000000000E+00 -0.14909791886E+04  0.14909791887E+04  0.25500000920E-02 0. -1.
    10030    2    1    2    0    0  0.00000000000E+00  0.00000000000E+00 -0.16775701062E+03  0.28142013667E+04  0.28091968457E+04 0.  0.
        3    1    3    3  502    0 -0.10664563490E+03  0.36473833067E+03 -0.14385039171E+04  0.14878510917E+04  0.10100000352E+00 0. -1.
       -3    1    3    3    0  502  0.10664563490E+03 -0.36473833067E+03  0.12707469065E+04  0.13263502750E+04  0.10100000352E+00 0.  1.
</event>
<event>
 5   0  0.3357244E-06  0.2810530E+04  0.7818609E-02  0.8300007E-01
        1   -1    0    0  501    0  0.00000000000E+00  0.00000000000E+00  0.24968473185E+04  0.24968473185E+04  0.50400001928E-02 0. -1.
       -1   -1    0    0    0  501  0.00000000000E+00  0.00000000000E+00 -0.79090544911E+03  0.79090544912E+03  0.50400001928E-02 0.  1.
    10030    2    1    2    0    0  0.00000000000E+00  0.00000000000E+00  0.17059418694E+04  0.32877527676E+04  0.28105303057E+04 0.  0.
        4    1    3    3  502    0  0.10698990450E+04  0.60157912090E+03  0.52545987939E+02  0.12285536614E+04  0.12699999809E+01 0.  1.
       -4    1    3    3    0  502 -0.10698990450E+04 -0.60157912090E+03  0.16533958814E+04  0.20591991062E+04  0.12699999809E+01 0. -1.
</event>
<event>
 5   0  0.9426937E-06  0.2818135E+04  0.7818609E-02  0.8297660E-01
        2   -1    0    0  501    0  0.00000000000E+00  0.00000000000E+00  0.21549870153E+04  0.21549870153E+04  0.25500000920E-02 0.  1.
       -2   -1    0    0    0  501  0.00000000000E+00  0.00000000000E+00 -0.92133799313E+03  0.92133799313E+03  0.25500000920E-02 0. -1.
    10030    2    1    2    0    0  0.00000000000E+00  0.00000000000E+00  0.12336490222E+04  0.30763250085E+04  0.28181351365E+04 0.  0.
        4    1    3    3  502    0  0.22293367910E+03  0.56594438178E+03  0.20042856736E+04  0.20945536858E+04  0.12699999809E+01 0.  1.
       -4    1    3    3    0  502 -0.22293367910E+03 -0.56594438178E+03 -0.77063665140E+03  0.98177132262E+03  0.12699999809E+01 0. -1.
</event>
<event>
 5   0  0.9426937E-06  0.2787968E+04  0.7818609E-02  0.8307014E-01
        2   -1    0    0  501    0  0.00000000000E+00  0.00000000000E+00  0.20263993125E+04  0.20263993125E+04  0.25500000920E-02 0. -1.
       -2   -1    0    0    0  501  0.00000000000E+00  0.00000000000E+00 -0.95893784132E+03  0.95893784132E+03  0.25500000920E-02 0.  1.
    10030    2    1    2    0    0  0.00000000000E+00  0.00000000000E+00  0.10674614712E+04  0.29853371538E+04  0.27879677060E+04 0.  0.
        4    1    3    3  502    0  0.69867015485E+03  0.19377824493E+03  0.18086042107E+04  0.19485227217E+04  0.12699999809E+01 0. -1.
       -4    1    3    3    0  502 -0.69867015485E+03 -0.19377824493E+03 -0.74114273944E+03  0.10368144321E+04  0.12699999809E+01 0.  1.
</event>
<event>
 5   0  0.3397882E-06  0.2755895E+04  0.7818609E-02  0.8317094E-01
        1   -1    0    0  501    0  0.00000000000E+00  0.00000000000E+00  0.21870630929E+04  0.21870630929E+04  0.50400001928E-02 0. -1.
       -1   -1    0    0    0  501  0.00000000000E+00  0.00000000000E+00 -0.86816823203E+03  0.86816823204E+03  0.50400001928E-02 0.  1.
    10030    2    1    2    0    0  0.00000000000E+00  0.00000000000E+00  0.13188948609E+04  0.30552313249E+04  0.27558945544E+04 0.  0.
        2    1    3    3  502    0  0.58284783579E+03  0.11776229360E+04  0.19936296871E+03  0.13290045042E+04  0.25500000920E-02 0. -1.
       -2    1    3    3    0  502 -0.58284783579E+03 -0.11776229360E+04  0.11195318921E+04  0.17262268207E+04  0.25500000920E-02 0.  1.
</event>
<event>
 5   0  0.9260173E-06  0.2994494E+04  0.7818609E-02  0.8245305E-01
       -2   -1    0    0    0  501  0.00000000000E+00  0.00000000000E+00  0.11463353091E+04  0.11463353091E+04  0.25500000920E-02 0.  1.
        2   -1    0    0  501    0  0.00000000000E+00  0.00000000000E+00 -0.19555780755E+04  0.19555780755E+04  0.25500000920E-02 0. -1.
    10030    2    1    2    0    0  0.00000000000E+00  0.00000000000E+00 -0.80924276637E+03  0.31019133846E+04  0.29944937453E+04 0.  0.
        1    1    3    3  502    0  0.78854476771E+03  0.12123871035E+04 -0.80589708562E+03  0.16556435160E+04  0.50400001928E-02 0. -1.
       -1    1    3    3    0  502 -0.78854476771E+03 -0.12123871035E+04 -0.33456807555E+01  0.14462698687E+04  0.50400001928E-02 0.  1.
</event>
<event>
 5   0  0.3600963E-06  0.2351547E+04  0.7818609E-02  0.8457870E-01
       -1   -1    0    0    0  501  0.00000000000E+00  0.00000000000E+00  0.82757385619E+03  0.82757385620E+03  0.50400001928E-02 0.  1.
        1   -1    0    0  501    0  0.00000000000E+00  0.00000000000E+00 -0.16704775993E+04  0.16704775993E+04  0.50400001928E-02 0. -1.
    10030    2    1    2    0    0  0.00000000000E+00  0.00000000000E+00 -0.84290374314E+03  0.24980514555E+04  0.23515472256E+04 0.  0.
        5    1    3    3  502    0  0.23790323220E+03 -0.84429580196E+03 -0.12531653014E+04  0.15296662092E+04  0.46999998093E+01 0. -1.
       -5    1    3    3    0  502 -0.23790323220E+03  0.84429580196E+03  0.41026155824E+03  0.96838524631E+03  0.46999998093E+01 0.  1.
</event>
<event>
 5   0  0.3600963E-06  0.2808392E+04  0.7818609E-02  0.8300668E-01
        1   -1    0    0  501    0  0.00000000000E+00  0.00000000000E+00  0.18157852602E+04  0.18157852602E+04  0.50400001928E-02 0.  1.
       -1   -1    0    0    0  501  0.00000000000E+00  0.00000000000E+00 -0.10859025964E+04  0.10859025965E+04  0.50400001928E-02 0. -1.
    10030    2    1    2    0    0  0.00000000000E+00  0.00000000000E+00  0.72988266379E+03  0.29016878567E+04  0.28083916598E+04 0.  0.
        5    1    3    3  502    0 -0.35383025283E+03 -0.11985761618E+04  0.10264955483E+04  0.16172494749E+04  0.46999998093E+01 0. -1.
       -5    1    3    3    0  502  0.35383025283E+03  0.11985761618E+04 -0.29661288455E+03  0.12844383818E+04  0.46999998093E+01 0.  1.
</event>
<event>
 5   0  0.3600963E-06  0.2802854E+04  0.7818609E-02  0.8302383E-01
        1   -1    0    0  501    0  0.00000000000E+00  0.00000000000E+00  0.20233285756E+04  0.20233285756E+04  0.50400001928E-02 0. -1.
       -1   -1    0    0    0  501  0.00000000000E+00  0.00000000000E+00 -0.97067686797E+03  0.97067686799E+03  0.50400001928E-02 0.  1.
    10030    2    1    2    0    0  0.00000000000E+00  0.00000000000E+00  0.10526517076E+04  0.29940054436E+04  0.28028544341E+04 0.  0.
        5    1    3    3  502    0  0.48879378099E+02  0.67352736973E+03  0.18380581231E+04  0.19581899973E+04  0.46999998093E+01 0. -1.
       -5    1    3    3    0  502 -0.48879378099E+02 -0.67352736973E+03 -0.78540641549E+03  0.10358154463E+04  0.46999998093E+01 0.  1.
</event>
<event>
 5   0  0.3397882E-06  0.2804453E+04  0.7818609E-02  0.8301887E-01
        1   -1    0    0  501    0  0.00000000000E+00  0.00000000000E+00  0.22623948151E+04  0.22623948151E+04  0.50400001928E-02 0.  1.
       -1   -1    0    0    0  501  0.00000000000E+00  0.00000000000E+00 -0.86909613609E+03  0.86909613610E+03  0.50400001928E-02 0. -1.
    10030    2    1    2    0    0  0.00000000000E+00  0.00000000000E+00  0.13932986790E+04  0.31314909512E+04  0.28044525969E+04 0.  0.
        2    1    3    3  502    0 -0.86194759352E+02  0.53407145511E+03 -0.74787835524E+03  0.92302973405E+03  0.25500000920E-02 0. -1.
       -2    1    3    3    0  502  0.86194759352E+02 -0.53407145511E+03  0.21411770342E+04  0.22084612171E+04  0.25500000920E-02 0.  1.
</event>
<event>
 5   0  0.9065579E-06  0.2819711E+04  0.7818609E-02  0.8297175E-01
       -2   -1    0    0    0  501  0.00000000000E+00  0.00000000000E+00  0.89856274762E+03  0.89856274762E+03  0.25500000920E-02 0. -1.
        2   -1    0    0  501    0  0.00000000000E+00  0.00000000000E+00 -0.22120791565E+04  0.22120791565E+04  0.25500000920E-02 0.  1.
    10030    2    1    2    0    0  0.00000000000E+00  0.00000000000E+00 -0.13135164088E+04  0.31106419041E+04  0.28197105701E+04 0.  0.
        3    1    3    3  502    0 -0.90092369173E+03  0.96041715753E+03 -0.12123342149E+04  0.17899214714E+04  0.10100000352E+00 0.  1.
       -3    1    3    3    0  502  0.90092369173E+03 -0.96041715753E+03 -0.10118219392E+03  0.13207204327E+04  0.10100000352E+00 0. -1.
</event>
<event>
 5   0  0.9252359E-06  0.2819556E+04  0.7818609E-02  0.8297222E-01
       -2   -1    0    0    0  501  0.00000000000E+00  0.00000000000E+00  0.76249724432E+03  0.76249724433E+03  0.25500000920E-02 0. -1.
        2   -1    0    0  501    0  0.00000000000E+00  0.00000000000E+00 -0.26065335536E+04  0.26065335536E+04  0.25500000920E-02 0.  1.
    10030    2    1    2    0    0  0.00000000000E+00  0.00000000000E+00 -0.18440363093E+04  0.33690307979E+04  0.28195564558E+04 0.  0.
        5    1    3    3  502    0  0.10385003645E+04 -0.34663901767E+03  0.13921461132E+03  0.11036504944E+04  0.46999998093E+01 0. -1.
       -5    1    3    3    0  502 -0.10385003645E+04  0.34663901767E+03 -0.19832509206E+04  0.22653803035E+04  0.46999998093E+01 0.  1.
</event>
<event>
 5   0  0.9342133E-06  0.2807327E+04  0.7818609E-02  0.8300997E-01
       -2   -1    0    0    0  501  0.00000000000E+00  0.00000000000E+00  0.13429458022E+04  0.13429458022E+04  0.25500000920E-02 0.  1.
        2   -1    0    0  501    0  0.00000000000E+00  0.00000000000E+00 -0.14671259152E+04  0.14671259152E+04  0.25500000920E-02 0. -1.
    10030    2    1    2    0    0  0.00000000000E+00  0.00000000000E+00 -0.12418011301E+03  0.28100717173E+04  0.28073265496E+04 0.  0.
        2    1    3    3  502    0 -0.11607955797E+04 -0.22041599070E+03  0.69643786251E+03  0.13715156883E+04  0.25500000920E-02 0.  1.
       -2    1    3    3    0  502  0.11607955797E+04  0.22041599070E+03 -0.82061797552E+03  0.14385560290E+04  0.25500000920E-02 0. -1.
</event>
<event>
 5   0  0.3357244E-06  0.2388460E+04  0.7818609E-02  0.8443837E-01
       -1   -1    0    0    0  501  0.00000000000E+00  0.00000000000E+00  0.10367091989E+04  0.10367091989E+04  0.50400001928E-02 0. -1.
        1   -1    0    0  501    0  0.00000000000E+00  0.00000000000E+00 -0.13756850185E+04  0.13756850185E+04  0.50400001928E-02 0.  1.
    10030    2    1    2    0    0  0.00000000000E+00  0.00000000000E+00 -0.33897581960E+03  0.24123942175E+04  0.23884600173E+04 0.  0.
        4    1    3    3  502    0 -0.35102998741E+03 -0.71519486671E+02  0.98115876562E+03  0.10445148277E+04  0.12699999809E+01 0. -1.
       -4    1    3    3    0  502  0.35102998741E+03  0.71519486671E+02 -0.13201345852E+04  0.13678793898E+04  0.12699999809E+01 0.  1.
</event>
<event>
 5   0  0.9260173E-06  0.2775036E+04  0.7818609E-02  0.8311061E-01
       -2   -1    0    0    0  501  0.00000000000E+00  0.00000000000E+00  0.12985684433E+04  0.12985684433E+04  0.25500000920E-02 0.  1.
        2   -1    0    0  501    0  0.00000000000E+00  0.00000000000E+00 -0.14825605566E+04  0.14825605566E+04  0.25500000920E-02 0. -1.
    10030    2    1    2    0    0  0.00000000000E+00  0.00000000000E+00 -0.18399211338E+03  0.27811289999E+04  0.27750361108E+04 0.  0.
        1    1    3    3  502    0 -0.12451661051E+04  0.46149134203E+03  0.31112267978E+03  0.13638952342E+04  0.50400001928E-02 0.  1.
       -1    1    3    3    0  502  0.12451661051E+04 -0.46149134203E+03 -0.49511479316E+03  0.14172337656E+04  0.50400001928E-02 0. -1.
</event>
<event>
 5   0  0.3397882E-06  0.2806408E+04  0.7818609E-02  0.8301282E-01
       -1   -1    0    0    0  501  0.00000000000E+00  0.00000000000E+00  0.85219804050E+03  0.85219804052E+03  0.50400001928E-02 0.  1.
        1   -1    0    0  501    0  0.00000000000E+00  0.00000000000E+00 -0.23104734327E+04  0.23104734327E+04  0.50400001928E-02 0. -1.
    10030    2    1    2    0    0  0.00000000000E+00  0.00000000000E+00 -0.14582753922E+04  0.31626714732E+04  0.28064076197E+04 0.  0.
        2    1    3    3  502    0  0.13795322941E+03 -0.46990300107E+03  0.75276106781E+03  0.89804740918E+03  0.25500000920E-02 0.  1.
       -2    1    3    3    0  502 -0.13795322941E+03  0.46990300107E+03 -0.22110364600E+04  0.22646240640E+04  0.25500000920E-02 0. -1.
</event>
<event>
 5   0  0.3371603E-06  0.2671389E+04  0.7818609E-02  0.8344348E-01
        1   -1    0    0  501    0  0.00000000000E+00  0.00000000000E+00  0.22999964157E+04  0.22999964158E+04  0.50400001928E-02 0.  1.
       -1   -1    0    0    0  501  0.00000000000E+00  0.00000000000E+00 -0.77568831952E+03  0.77568831953E+03  0.50400001928E-02 0. -1.
    10030    2    1    2    0    0  0.00000000000E+00  0.00000000000E+00  0.15243080962E+04  0.30756847353E+04  0.26713894173E+04 0.  0.
        1    1    3    3  502    0  0.24053617504E+03 -0.15433804745E+03 -0.74007355038E+03  0.79333898454E+03  0.50400001928E-02 0. -1.
       -1    1    3    3    0  502 -0.24053617504E+03  0.15433804745E+03  0.22643816466E+04  0.22823457507E+04  0.50400001928E-02 0.  1.
</event>
<event>
 5   0  0.3438130E-06  0.2931821E+04  0.7818609E-02  0.8263472E-01
       -1   -1    0    0    0  501  0.00000000000E+00  0.00000000000E+00  0.97528007815E+03  0.97528007816E+03  0.50400001928E-02 0.  1.
        1   -1    0    0  501    0  0.00000000000E+00  0.00000000000E+00 -0.22033609942E+04  0.22033609942E+04  0.50400001928E-02 0. -1.
    10030    2    1    2    0    0  0.00000000000E+00  0.00000000000E+00 -0.12280809161E+04  0.31786410724E+04  0.29318213333E+04 0.  0.
        3    1    3    3  502    0  0.95906564768E+03  0.88117343696E+03  0.11536853663E+03  0.13075104023E+04  0.10100000352E+00 0. -1.
       -3    1    3    3    0  502 -0.95906564768E+03 -0.88117343696E+03 -0.13434494527E+04  0.18711306701E+04  0.10100000352E+00 0.  1.
</event>
<event>
 5   0  0.3397882E-06  0.2788630E+04  0.7818609E-02  0.8306807E-01
        1   -1    0    0  501    0  0.00000000000E+00  0.00000000000E+00  0.13753127740E+04  0.13753127741E+04  0.50400001928E-02 0.  1.
       -1   -1    0    0    0  501  0.00000000000E+00  0.00000000000E+00 -0.14135795739E+04  0.14135795740E+04  0.50400001928E-02 0. -1.
    10030    2    1    2    0    0  0.00000000000E+00  0.00000000000E+00 -0.38266799900E+02  0.27888923480E+04  0.27886298035E+04 0.  0.
        2    1    3    3  502    0  0.40447349289E+03 -0.47190619349E+03  0.12291106183E+04  0.13773188352E+04  0.25500000920E-02 0.  1.
       -2    1    3    3    0  502 -0.40447349289E+03  0.47190619349E+03 -0.12673774182E+04  0.14115735128E+04  0.25500000920E-02 0. -1.
</event>
<event>
 5   0  0.3438130E-06  0.2766201E+04  0.7818609E-02  0.8313839E-01
       -1   -1    0    0    0  501  0.00000000000E+00  0.00000000000E+00  0.16065598768E+04  0.16065598768E+04  0.50400001928E-02 0.  1.
        1   -1    0    0  501    0  0.00000000000E+00  0.00000000000E+00 -0.11907223086E+04  0.11907223086E+04  0.50400001928E-02 0. -1.
    10030    2    1    2    0    0  0.00000000000E+00  0.00000000000E+00  0.41583756825E+03  0.27972821854E+04  0.27662007775E+04 0.  0.
        3    1    3    3  502    0  0.95434898581E+03 -0.63249495119E+03  0.99261119686E+03  0.15152916710E+04  0.10100000352E+00 0.  1.
       -3    1    3    3    0  502 -0.95434898581E+03  0.63249495119E+03 -0.57677362861E+03  0.12819905143E+04  0.10100000352E+00 0. -1.
</event>
<event>
 5   0  0.3371603E-06  0.2800690E+04  0.7818609E-02  0.8303054E-01
       -1   -1    0    0    0  501  0.00000000000E+00  0.00000000000E+00  0.10410424262E+04  0.10410424262E+04  0.50400001928E-02 0.  1.
        1   -1    0    0  501    0  0.00000000000E+00  0.00000000000E+00 -0.18836561676E+04  0.18836561677E+04  0.50400001928E-02 0. -1.
    10030    2    1    2    0    0  0.00000000000E+00  0.00000000000E+00 -0.84261374149E+03  0.29246985938E+04  0.28006899056E+04 0.  0.
        1    1    3    3  502    0 -0.77310301278E+03  0.56424896245E+03  0.64615808581E+03  0.11548096951E+04  0.50400001928E-02 0.  1.
       -1    1    3    3    0  502  0.77310301278E+03 -0.56424896245E+03 -0.14887718273E+04  0.17698888987E+04  0.50400001928E-02 0. -1.
</event>
<event>
 5   0  0.3397882E-06  0.2776446E+04  0.7818609E-02  0.8310618E-01
       -1   -1    0    0    0  501  0.00000000000E+00  0.00000000000E+00  0.12101245940E+04  0.12101245940E+04  0.50400001928E-02 0.  1.
        1   -1    0    0  501    0  0.00000000000E+00  0.00000000000E+00 -0.15925330678E+04  0.15925330678E+04  0.50400001928E-02 0. -1.
    10030    2    1    2    0    0  0.00000000000E+00  0.00000000000E+00 -0.38240847378E+03  0.28026576618E+04  0.27764462408E+04 0.  0.
        2    1    3    3  502    0  0.43128342357E+03 -0.11264346207E+04 -0.88493535489E+03  0.14959849359E+04  0.25500000920E-02 0. -1.
       -2    1    3    3    0  502 -0.43128342357E+03  0.11264346207E+04  0.50252688110E+03  0.13066727258E+04  0.25500000920E-02 0.  1.
</event>
<event>
 5   0  0.9342133E-06  0.2812854E+04  0.7818609E-02  0.8299289E-01
        2   -1    0    0  501    0  0.00000000000E+00  0.00000000000E+00  0.56234654546E+03  0.56234654547E+03  0.25500000920E-02 0. -1.
       -2   -1    0    0    0  501  0.00000000000E+00  0.00000000000E+00 -0.35174696387E+04  0.35174696387E+04  0.25500000920E-02 0.  1.
    10030    2    1    2    0    0  0.00000000000E+00  0.00000000000E+00 -0.29551230933E+04  0.40798161842E+04  0.28128539956E+04 0.  0.
        2    1    3    3  502    0 -0.12748102236E+04  0.38139584429E+03 -0.81697103015E+03  0.15614242089E+04  0.25500000920E-02 0. -1.
       -2    1    3    3    0  502  0.12748102236E+04 -0.38139584429E+03 -0.21381520631E+04  0.25183919753E+04  0.25500000920E-02 0.  1.
</event>
<event>
 5   0  0.3397882E-06  0.2819802E+04  0.7818609E-02  0.8297147E-01
       -1   -1    0    0    0  501  0.00000000000E+00  0.00000000000E+00  0.87675680570E+03  0.87675680571E+03  0.50400001928E-02 0.  1.
        1   -1    0    0  501    0  0.00000000000E+00  0.00000000000E+00 -0.22672436480E+04  0.22672436480E+04  0.50400001928E-02 0. -1.
    10030    2    1    2    0    0  0.00000000000E+00  0.00000000000E+00 -0.13904868423E+04  0.31440004537E+04  0.28198023325E+04 0.  0.
        2    1    3    3  502    0 -0.31254056546E+03 -0.10586262620E+04  0.28279107616E+03  0.11394480947E+04  0.25500000920E-02 0.  1.
       -2    1    3    3    0  502  0.31254056546E+03  0.10586262620E+04 -0.16732779184E+04  0.20045523590E+04  0.25500000920E-02 0. -1.
</event>
<event>
 5   0  0.3600963E-06  0.2817944E+04  0.7818609E-02  0.8297719E-01
       -1   -1    0    0    0  501  0.00000000000E+00  0.00000000000E+00  0.11113496887E+04  0.11113496887E+04  0.50400001928E-02 0. -1.
        1   -1    0    0  501    0  0.00000000000E+00  0.00000000000E+00 -0.17862978548E+04  0.17862978548E+04  0.50400001928E-02 0.  1.
    10030    2    1    2    0    0  0.00000000000E+00  0.00000000000E+00 -0.67494816608E+03  0.28976475435E+04  0.28179436225E+04 0.  0.
        5    1    3    3  502    0  0.11105749120E+03  0.12692339424E+04  0.28111477716E+03  0.13047360556E+04  0.46999998093E+01 0. -1.
       -5    1    3    3    0  502 -0.11105749120E+03 -0.12692339424E+04 -0.95606294324E+03  0.15929114879E+04  0.46999998093E+01 0.  1.
</event>
<event>
 5   0  0.9065579E-06  0.2830799E+04  0.7818609E-02  0.8293770E-01
       -2   -1    0    0    0  501  0.00000000000E+00  0.00000000000E+00  0.71792999139E+03  0.71792999139E+03  0.25500000920E-02 0.  1.
        2   -1    0    0  501    0  0.00000000000E+00  0.00000000000E+00 -0.27904608300E+04  0.27904608300E+04  0.25500000920E-02 0. -1.
    10030    2    1    2    0    0  0.00000000000E+00  0.00000000000E+00 -0.20725308386E+04  0.35083908214E+04  0.28307988411E+04 0.  0.
        3    1    3    3  502    0  0.84560071933E+03  0.54379407368E+03 -0.22710373127E+04  0.24836189436E+04  0.10100000352E+00 0. -1.
       -3    1    3    3    0  502 -0.84560071933E+03 -0.54379407368E+03  0.19850647408E+03  0.10247718778E+04  0.10100000352E+00 0.  1.
</event>
<event>
 5   0  0.9065579E-06  0.2680846E+04  0.7818609E-02  0.8341247E-01
        2   -1    0    0  501    0  0.00000000000E+00  0.00000000000E+00  0.14858246312E+04  0.14858246312E+04  0.25500000920E-02 0.  1.
       -2   -1    0    0    0  501  0.00000000000E+00  0.00000000000E+00 -0.12092503232E+04  0.12092503232E+04  0.25500000920E-02 0. -1.
    10030    2    1    2    0    0  0.00000000000E+00  0.00000000000E+00  0.27657430801E+03  0.26950749544E+04  0.26808460721E+04 0.  0.
        3    1    3    3  502    0  0.61746649188E+03  0.80330811315E+03 -0.74396126823E+03  0.12569992729E+04  0.10100000352E+00 0. -1.
       -3    1    3    3    0  502 -0.61746649188E+03 -0.80330811315E+03  0.10205355762E+04  0.14380756815E+04  0.10100000352E+00 0.  1.
</event>
<event>
 5   0  0.9426937E-06  0.2803896E+04  0.7818609E-02  0.8302060E-01
        2   -1    0    0  501    0  0.00000000000E+00  0.00000000000E+00  0.10583670677E+04  0.10583670677E+04  0.25500000920E-02 0.  1.
       -2   -1    0    0    0  501  0.00000000000E+00  0.00000000000E+00 -0.18570662011E+04  0.18570662011E+04  0.25500000920E-02 0. -1.
    10030    2    1    2    0    0  0.00000000000E+00  0.00000000000E+00 -0.79869913339E+03  0.29154332688E+04  0.28038956541E+04 0.  0.
        4    1    3    3  502    0 -0.47765047876E+01 -0.56273823619E+03 -0.17344681539E+04  0.18234797853E+04  0.12699999809E+01 0. -1.
       -4    1    3    3    0  502  0.47765047876E+01  0.56273823619E+03  0.93576902055E+03  0.10919534835E+04  0.12699999809E+01 0.  1.
</event>
<event>
 5   0  0.9065579E-06  0.2848534E+04  0.7818609E-02  0.8288357E-01
        2   -1    0    0  501    0  0.00000000000E+00  0.00000000000E+00  0.16884962408E+04  0.16884962408E+04  0.25500000920E-02 0. -1.
       -2   -1    0    0    0  501  0.00000000000E+00  0.00000000000E+00 -0.12013867424E+04  0.12013867424E+04  0.25500000920E-02 0.  1.
    10030    2    1    2    0    0  0.00000000000E+00  0.00000000000E+00  0.48710949845E+03  0.28898829832E+04  0.28485343588E+04 0.  0.
        3    1    3    3  502    0  0.27511599998E+03  0.47861482044E+03  0.15755393806E+04  0.16694565912E+04  0.10100000352E+00 0. -1.
       -3    1    3    3    0  502 -0.27511599998E+03 -0.47861482044E+03 -0.10884298822E+04  0.12204263920E+04  0.10100000352E+00 0.  1.
</event>
<event>
 5   0  0.9260173E-06  0.2810299E+04  0.7818609E-02  0.8300078E-01
       -2   -1    0    0    0  501  0.00000000000E+00  0.00000000000E+00  0.11590132132E+04  0.11590132132E+04  0.25500000920E-02 0. -1.
        2   -1    0    0  501    0  0.00000000000E+00  0.00000000000E+00 -0.17035564598E+04  0.17035564598E+04  0.25500000920E-02 0.  1.
    10030    2    1    2    0    0  0.00000000000E+00  0.00000000000E+00 -0.54454324658E+03  0.28625696730E+04  0.28102985225E+04 0.  0.
        1    1    3    3  502    0  0.68006694026E+03  0.38985068275E+02  0.97958452090E+03  0.11931457214E+04  0.50400001928E-02 0. -1.
       -1    1    3    3    0  502 -0.68006694026E+03 -0.38985068275E+02 -0.15241277675E+04  0.16694239517E+04  0.50400001928E-02 0.  1.
</event>
<event>
 5   0  0.9252359E-06  0.2724522E+04  0.7818609E-02  0.8327092E-01
        2   -1    0    0  501    0  0.00000000000E+00  0.00000000000E+00  0.11543940958E+04  0.11543940958E+04  0.25500000920E-02 0. -1.
       -2   -1    0    0    0  501  0.00000000000E+00  0.00000000000E+00 -0.16075573075E+04  0.16075573075E+04  0.25500000920E-02 0.  1.
    10030    2    1    2    0    0  0.00000000000E+00  0.00000000000E+00 -0.45316321171E+03  0.27619514033E+04  0.27245217301E+04 0.  0.
        5    1    3    3  502    0 -0.51178153602E+03 -0.18135823962E+03  0.10399507157E+04  0.11731712291E+04  0.46999998093E+01 0. -1.
       -5    1    3    3    0  502  0.51178153602E+03  0.18135823962E+03 -0.14931139274E+04  0.15887801742E+04  0.46999998093E+01 0.  1.
</event>
<event>
 5   0  0.9252359E-06  0.2832626E+04  0.7818609E-02  0.8293210E-01
        2   -1    0    0  501    0  0.00000000000E+00  0.00000000000E+00  0.19476597431E+04  0.19476597431E+04  0.25500000920E-02 0.  1.
       -2   -1    0    0    0  501  0.00000000000E+00  0.00000000000E+00 -0.10299245812E+04  0.10299245812E+04  0.25500000920E-02 0. -1.
    10030    2    1    2    0    0  0.00000000000E+00  0.00000000000E+00  0.91773516190E+03  0.29775843243E+04  0.28326260927E+04 0.  0.
        5    1    3    3  502    0 -0.11947597190E+03  0.11861486057E+04 -0.34491843962E+03  0.12410535212E+04  0.46999998093E+01 0. -1.
       -5    1    3    3    0  502  0.11947597190E+03 -0.11861486057E+04  0.12626536015E+04  0.17365308031E+04  0.46999998093E+01 0.  1.
</event>
<event>
 5   0  0.3438130E-06  0.2758227E+04  0.7818609E-02  0.8316356E-01
       -1   -1    0    0    0  501  0.00000000000E+00  0.00000000000E+00  0.10019878569E+04  0.10019878569E+04  0.50400001928E-02 0. -1.
        1   -1    0    0  501    0  0.00000000000E+00  0.00000000000E+00 -0.18981813411E+04  0.18981813411E+04  0.50400001928E-02 0.  1.
    10030    2    1    2    0    0  0.00000000000E+00  0.00000000000E+00 -0.89619348425E+03  0.29001691980E+04  0.27582274409E+04 0.  0.
        3    1    3    3  502    0  0.36251788577E+03  0.10703083805E+04  0.38313998042E+03  0.11932206425E+04  0.10100000352E+00 0. -1.
       -3    1    3    3    0  502 -0.36251788577E+03 -0.10703083805E+04 -0.12793334647E+04  0.17069485555E+04  0.10100000352E+00 0.  1.
</event>
<event>
 5   0  0.3371603E-06  0.2805899E+04  0.7818609E-02  0.8301439E-01
        1   -1    0    0  501    0  0.00000000000E+00  0.00000000000E+00  0.22598839379E+04  0.22598839379E+04  0.50400001928E-02 0.  1.
       -1   -1    0    0    0  501  0.00000000000E+00  0.00000000000E+00 -0.87095938263E+03  0.87095938264E+03  0.50400001928E-02 0. -1.
    10030    2    1    2    0    0  0.00000000000E+00  0.00000000000E+00  0.13889245553E+04  0.31308433205E+04  0.28058988716E+04 0.  0.
        1    1    3    3  502    0 -0.13352533067E+03 -0.11278405167E+04  0.16135070743E+04  0.19731341373E+04  0.50400001928E-02 0.  1.
       -1    1    3    3    0  502  0.13352533067E+03  0.11278405167E+04 -0.22458251906E+03  0.11577091832E+04  0.50400001928E-02 0. -1.
</event>
<event>
 5   0  0.3438130E-06  0.2770320E+04  0.7818609E-02  0.8312542E-01
       -1   -1    0    0    0  501  0.00000000000E+00  0.00000000000E+00  0.16086998609E+04  0.16086998609E+04  0.50400001928E-02 0. -1.
        1   -1    0    0  501    0  0.00000000000E+00  0.00000000000E+00 -0.11926824722E+04  0.11926824722E+04  0.50400001928E-02 0.  1.
    10030    2    1    2    0    0  0.00000000000E+00  0.00000000000E+00  0.41601738864E+03  0.28013823331E+04  0.27703199290E+04 0.  0.
        3    1    3    3  502    0  0.54096255443E+02  0.37631380113E+03  0.15549080168E+04  0.16007115395E+04  0.10100000352E+00 0. -1.
       -3    1    3    3    0  502 -0.54096255443E+02 -0.37631380113E+03 -0.11388906281E+04  0.12006707937E+04  0.10100000352E+00 0.  1.
</event>
<event>
 5   0  0.3371603E-06  0.2794348E+04  0.7818609E-02  0.8305025E-01
       -1   -1    0    0    0  501  0.00000000000E+00  0.00000000000E+00  0.10695262137E+04  0.10695262137E+04  0.50400001928E-02 0. -1.
        1   -1    0    0  501    0  0.00000000000E+00  0.00000000000E+00 -0.18251961581E+04  0.18251961582E+04  0.50400001928E-02 0.  1.
    10030    2    1    2    0    0  0.00000000000E+00  0.00000000000E+00 -0.75566994443E+03  0.28947223719E+04  0.27943479643E+04 0.  0.
        1    1    3    3  502    0 -0.93470794334E+03  0.10362122010E+04 -0.30696353595E+03  0.14288601322E+04  0.50400001928E-02 0.  1.
       -1    1    3    3    0  502  0.93470794334E+03 -0.10362122010E+04 -0.44870640848E+03  0.14658622397E+04  0.50400001928E-02 0. -1.
</event>
<event>
 5   0  0.3357244E-06  0.2780151E+04  0.7818609E-02  0.8309457E-01
       -1   -1    0    0    0  501  0.00000000000E+00  0.00000000000E+00  0.85068219311E+03  0.85068219312E+03  0.50400001928E-02 0.  1.
        1   -1    0    0  501    0  0.00000000000E+00  0.00000000000E+00 -0.22714828910E+04  0.22714828910E+04  0.50400001928E-02 0. -1.
    10030    2    1    2    0    0  0.00000000000E+00  0.00000000000E+00 -0.14208006979E+04  0.31221650841E+04  0.27801511091E+04 0.  0.
        4    1    3    3  502    0 -0.11515417237E+04 -0.67880473677E+03 -0.28205366473E+03  0.13661552235E+04  0.12699999809E+01 0.  1.
       -4    1    3    3    0  502  0.11515417237E+04  0.67880473677E+03 -0.11387470331E+04  0.17560098606E+04  0.12699999809E+01 0. -1.
</event>
<event>
 5   0  0.9426937E-06  0.2782357E+04  0.7818609E-02  0.8308767E-01
        2   -1    0    0  501    0  0.00000000000E+00  0.00000000000E+00  0.13215815016E+04  0.13215815016E+04  0.25500000920E-02 0.  1.
       -2   -1    0    0    0  501  0.00000000000E+00  0.00000000000E+00 -0.14644409570E+04  0.14644409570E+04  0.25500000920E-02 0. -1.
    10030    2    1    2    0    0  0.00000000000E+00  0.00000000000E+00 -0.14285945546E+03  0.27860224586E+04  0.27823573307E+04 0.  0.
        4    1    3    3  502    0 -0.77712466724E+03  0.46252549817E+03 -0.11299522789E+04  0.14472893112E+04  0.12699999809E+01 0. -1.
       -4    1    3    3    0  502  0.77712466724E+03 -0.46252549817E+03  0.98709282346E+03  0.13387331474E+04  0.12699999809E+01 0.  1.
</event>
<event>
 5   0  0.9252359E-06  0.2766463E+04  0.7818609E-02  0.8313756E-01
        2   -1    0    0  501    0  0.00000000000E+00  0.00000000000E+00  0.12151990583E+04  0.12151990583E+04  0.25500000920E-02 0.  1.
       -2   -1    0    0    0  501  0.00000000000E+00  0.00000000000E+00 -0.15744992440E+04  0.15744992440E+04  0.25500000920E-02 0. -1.
    10030    2    1    2    0    0  0.00000000000E+00  0.00000000000E+00 -0.35930018571E+03  0.27896983024E+04  0.27664634454E+04 0.  0.
        5    1    3    3  502    0  0.51517555211E+03  0.52055464734E+03 -0.13629298416E+04  0.15472500876E+04  0.46999998093E+01 0. -1.
       -5    1    3    3    0  502 -0.51517555211E+03 -0.52055464734E+03  0.10036296559E+04  0.12424482148E+04  0.46999998093E+01 0.  1.
</event>
<event>
 5   0  0.3371603E-06  0.2803682E+04  0.7818609E-02  0.8302126E-01
        1   -1    0    0  501    0  0.00000000000E+00  0.00000000000E+00  0.18333724511E+04  0.18333724511E+04  0.50400001928E-02 0. -1.
       -1   -1    0    0    0  501  0.00000000000E+00  0.00000000000E+00 -0.10718818414E+04  0.10718818414E+04  0.50400001928E-02 0.  1.
    10030    2    1    2    0    0  0.00000000000E+00  0.00000000000E+00  0.76149060963E+03  0.29052542925E+04  0.28036823207E+04 0.  0.
        1    1    3    3  502    0 -0.13293931003E+03  0.13396362648E+04 -0.24392643748E+02  0.13464372185E+04  0.50400001928E-02 0. -1.
       -1    1    3    3    0  502  0.13293931003E+03 -0.13396362648E+04  0.78588325337E+03  0.15588170740E+04  0.50400001928E-02 0.  1.
</event>
<event>
 5   0  0.9065579E-06  0.2808130E+04  0.7818609E-02  0.8300749E-01
       -2   -1    0    0    0  501  0.00000000000E+00  0.00000000000E+00  0.14752813289E+04  0.14752813289E+04  0.25500000920E-02 0. -1.
        2   -1    0    0  501    0  0.00000000000E+00  0.00000000000E+00 -0.13362861731E+04  0.13362861731E+04  0.25500000920E-02 0.  1.
    10030    2    1    2    0    0  0.00000000000E+00  0.00000000000E+00  0.13899515582E+03  0.28115675020E+04  0.28081296561E+04 0.  0.
        3    1    3    3  502    0 -0.10397476704E+04  0.25677126580E+03 -0.83957397250E+03  0.13608420800E+04  0.10100000352E+00 0.  1.
       -3    1    3    3    0  502  0.10397476704E+04 -0.25677126580E+03  0.97856912832E+03  0.14507254221E+04  0.10100000352E+00 0. -1.
</event>
<event>
 5   0  0.9260173E-06  0.2822751E+04  0.7818609E-02  0.8296240E-01
       -2   -1    0    0    0  501  0.00000000000E+00  0.00000000000E+00  0.88930436765E+03  0.88930436765E+03  0.25500000920E-02 0.  1.
        2   -1    0    0  501    0  0.00000000000E+00  0.00000000000E+00 -0.22399314771E+04  0.22399314771E+04  0.25500000920E-02 0. -1.
    10030    2    1    2    0    0  0.00000000000E+00  0.00000000000E+00 -0.13506271094E+04  0.31292358447E+04  0.28227510310E+04 0.  0.
        1    1    3    3  502    0  0.42247409949E+03  0.11319329540E+04  0.13343414539E+03  0.12155497720E+04  0.50400001928E-02 0.  1.
       -1    1    3    3    0  502 -0.42247409949E+03 -0.11319329540E+04 -0.14840612548E+04  0.19136860728E+04  0.50400001928E-02 0. -1.
</event>
<event>
 5   0  0.9342133E-06  0.2788733E+04  0.7818609E-02  0.8306775E-01
        2   -1    0    0  501    0  0.00000000000E+00  0.00000000000E+00  0.12956097943E+04  0.12956097943E+04  0.25500000920E-02 0. -1.
       -2   -1    0    0    0  501  0.00000000000E+00  0.00000000000E+00 -0.15006512856E+04  0.15006512856E+04  0.25500000920E-02 0.  1.
    10030    2    1    2    0    0  0.00000000000E+00  0.00000000000E+00 -0.20504149133E+03  0.27962610800E+04  0.27887334068E+04 0.  0.
        2    1    3    3  502    0  0.87810868770E+03  0.10570861618E+04 -0.33927774337E+03  0.14154912250E+04  0.25500000920E-02 0.  1.
       -2    1    3    3    0  502 -0.87810868770E+03 -0.10570861618E+04  0.13423625204E+03  0.13807698549E+04  0.25500000920E-02 0. -1.
</event>
<event>
 5   0  0.3397882E-06  0.2806725E+04  0.7818609E-02  0.8301183E-01
       -1   -1    0    0    0  501  0.00000000000E+00  0.00000000000E+00  0.12049870800E+04  0.12049870800E+04  0.50400001928E-02 0. -1.
        1   -1    0    0  501    0  0.00000000000E+00  0.00000000000E+00 -0.16343967656E+04  0.16343967656E+04  0.50400001928E-02 0.  1.
    10030    2    1    2    0    0  0.00000000000E+00  0.00000000000E+00 -0.42940968560E+03  0.28393838457E+04  0.28067254844E+04 0.  0.
        2    1    3    3  502    0  0.62327217098E+03  0.11498171255E+04  0.30001734146E+03  0.13418487345E+04  0.25500000920E-02 0. -1.
       -2    1    3    3    0  502 -0.62327217098E+03 -0.11498171255E+04 -0.72942702706E+03  0.14975351111E+04  0.25500000920E-02 0.  1.
</event>
<event>
 5   0  0.3357244E-06  0.2730749E+04  0.7818609E-02  0.8325096E-01
       -1   -1    0    0    0  501  0.00000000000E+00  0.00000000000E+00  0.99031811765E+03  0.99031811767E+03  0.50400001928E-02 0.  1.
        1   -1    0    0  501    0  0.00000000000E+00  0.00000000000E+00 -0.18824733052E+04  0.18824733052E+04  0.50400001928E-02 0. -1.
    10030    2    1    2    0    0  0.00000000000E+00  0.00000000000E+00 -0.89215518750E+03  0.28727914228E+04  0.27307489230E+04 0.  0.
        4    1    3    3  502    0  0.90892550720E+03  0.66394758231E+03 -0.12591122727E+04  0.16888864076E+04  0.12699999809E+01 0.  1.
       -4    1    3    3    0  502 -0.90892550720E+03 -0.66394758231E+03  0.36695708522E+03  0.11839050152E+04  0.12699999809E+01 0. -1.
</event>
<event>
 5   0  0.9252359E-06  0.2759309E+04  0.7818609E-02  0.8316014E-01
        2   -1    0    0  501    0  0.00000000000E+00  0.00000000000E+00  0.11306329590E+04  0.11306329591E+04  0.25500000920E-02 0. -1.
       -2   -1    0    0    0  501  0.00000000000E+00  0.00000000000E+00 -0.16835225440E+04  0.16835225440E+04  0.25500000920E-02 0.  1.
    10030    2    1    2    0    0  0.00000000000E+00  0.00000000000E+00 -0.55288958496E+03  0.28141555031E+04  0.27593086638E+04 0.  0.
        5    1    3    3  502    0  0.60340750448E+02  0.13541917605E+04 -0.14537563233E+02  0.13556215406E+04  0.46999998093E+01 0. -1.
       -5    1    3    3    0  502 -0.60340750448E+02 -0.13541917605E+04 -0.53835202172E+03  0.14585339625E+04  0.46999998093E+01 0.  1.
</event>
<event>
 5   0  0.3397882E-06  0.2758975E+04  0.7818609E-02  0.8316119E-01
       -1   -1    0    0    0  501  0.00000000000E+00  0.00000000000E+00  0.80882308229E+03  0.80882308231E+03  0.50400001928E-02 0. -1.
        1   -1    0    0  501    0  0.00000000000E+00  0.00000000000E+00 -0.23527839069E+04  0.23527839069E+04  0.50400001928E-02 0.  1.
    10030    2    1    2    0    0  0.00000000000E+00  0.00000000000E+00 -0.15439608246E+04  0.31616069892E+04  0.27589751224E+04 0.  0.
        2    1    3    3  502    0  0.60855905010E+03 -0.86863444466E+03 -0.17828200785E+04  0.20744438648E+04  0.25500000920E-02 0.  1.
       -2    1    3    3    0  502 -0.60855905010E+03  0.86863444466E+03  0.23885925389E+03  0.10871631244E+04  0.25500000920E-02 0. -1.
</event>
<event>
 5   0  0.3600963E-06  0.2702861E+04  0.7818609E-02  0.8334077E-01
        1   -1    0    0  501    0  0.00000000000E+00  0.00000000000E+00  0.13754338342E+04  0.13754338342E+04  0.50400001928E-02 0.  1.
       -1   -1    0    0    0  501  0.00000000000E+00  0.00000000000E+00 -0.13278456912E+04  0.13278456912E+04  0.50400001928E-02 0. -1.
    10030    2    1    2    0    0  0.00000000000E+00  0.00000000000E+00  0.47588142993E+02  0.27032795253E+04  0.27028606255E+04 0.  0.
        5    1    3    3  502    0 -0.79524916555E+03 -0.95415418669E+03 -0.50874535314E+03  0.13422650154E+04  0.46999998093E+01 0. -1.
       -5    1    3    3    0  502  0.79524916555E+03  0.95415418669E+03  0.55633349613E+03  0.13610145099E+04  0.46999998093E+01 0.  1.
</event>
<event>
 5   0  0.3357244E-06  0.2781062E+04  0.7818609E-02  0.8309172E-01
        1   -1    0    0  501    0  0.00000000000E+00  0.00000000000E+00  0.26002418881E+04  0.26002418881E+04  0.50400001928E-02 0. -1.
       -1   -1    0    0    0  501  0.00000000000E+00  0.00000000000E+00 -0.74361393690E+03  0.74361393692E+03  0.50400001928E-02 0.  1.
    10030    2    1    2    0    0  0.00000000000E+00  0.00000000000E+00  0.18566279512E+04  0.33438558250E+04  0.27810617450E+04 0.  0.
        4    1    3    3  502    0  0.86666452896E+03  0.41590735720E+03 -0.27974330589E+03  0.10011714467E+04  0.12699999809E+01 0.  1.
       -4    1    3    3    0  502 -0.86666452896E+03 -0.41590735720E+03  0.21363712571E+04  0.23426843783E+04  0.12699999809E+01 0. -1.
</event>
<event>
 5   0  0.3438130E-06  0.2799278E+04  0.7818609E-02  0.8303492E-01
       -1   -1    0    0    0  501  0.00000000000E+00  0.00000000000E+00  0.82489710199E+03  0.82489710200E+03  0.50400001928E-02 0. -1.
        1   -1    0    0  501    0  0.00000000000E+00  0.00000000000E+00 -0.23748291847E+04  0.23748291847E+04  0.50400001928E-02 0.  1.
    10030    2    1    2    0    0  0.00000000000E+00  0.00000000000E+00 -0.15499320827E+04  0.31997262867E+04  0.27992782728E+04 0.  0.
        3    1    3    3  502    0 -0.12332967149E+04 -0.37628854305E+03 -0.15268272118E+03  0.12984320846E+04  0.10100000352E+00 0. -1.
       -3    1    3    3    0  502  0.12332967149E+04  0.37628854305E+03 -0.13972493615E+04  0.19012942022E+04  0.10100000352E+00 0.  1.
</event>
<event>
 5   0  0.3600963E-06  0.2700645E+04  0.7818609E-02  0.8334796E-01
        1   -1    0    0  501    0  0.00000000000E+00  0.00000000000E+00  0.14842816421E+04  0.14842816421E+04  0.50400001928E-02 0. -1.
       -1   -1    0    0    0  501  0.00000000000E+00  0.00000000000E+00 -0.12284533571E+04  0.12284533571E+04  0.50400001928E-02 0.  1.
    10030    2    1    2    0    0  0.00000000000E+00  0.00000000000E+00  0.25582828503E+03  0.27127349992E+04  0.27006449350E+04 0.  0.
        5    1    3    3  502    0  0.17702002590E+03 -0.13382021382E+04  0.16310846046E+03  0.13596865492E+04  0.46999998093E+01 0.  1.
       -5    1    3    3    0  502 -0.17702002590E+03  0.13382021382E+04  0.92719824569E+02  0.13530484500E+04  0.46999998093E+01 0. -1.
</event>
<event>
 5   0  0.3371603E-06  0.2690310E+04  0.7818609E-02  0.8338156E-01
        1   -1    0    0  501    0  0.00000000000E+00  0.00000000000E+00  0.28056443377E+04  0.28056443377E+04  0.50400001928E-02 0. -1.
       -1   -1    0    0    0  501  0.00000000000E+00  0.00000000000E+00 -0.64492916784E+03  0.64492916786E+03  0.50400001928E-02 0.  1.
    10030    2    1    2    0    0  0.00000000000E+00  0.00000000000E+00  0.21607151699E+04  0.34505735056E+04  0.26903099212E+04 0.  0.
        1    1    3    3  502    0  0.12300844574E+04  0.24901127016E+03  0.17012274539E+04  0.21140693544E+04  0.50400001928E-02 0. -1.
       -1    1    3    3    0  502 -0.12300844574E+04 -0.24901127016E+03  0.45948771594E+03  0.13365041512E+04  0.50400001928E-02 0.  1.
</event>
<event>
 5   0  0.9260173E-06  0.3000085E+04  0.7818609E-02  0.8243707E-01
       -2   -1    0    0    0  501  0.00000000000E+00  0.00000000000E+00  0.23056134787E+04  0.23056134787E+04  0.25500000920E-02 0.  1.
        2   -1    0    0  501    0  0.00000000000E+00  0.00000000000E+00 -0.97593457365E+03  0.97593457365E+03  0.25500000920E-02 0. -1.
    10030    2    1    2    0    0  0.00000000000E+00  0.00000000000E+00  0.13296789051E+04  0.32815480524E+04  0.30000852704E+04 0.  0.
        1    1    3    3  502    0 -0.11181622458E+04 -0.48549059777E+03  0.16210017840E+04  0.20282097308E+04  0.50400001928E-02 0.  1.
       -1    1    3    3    0  502  0.11181622458E+04  0.48549059777E+03 -0.29132287897E+03  0.12533383215E+04  0.50400001928E-02 0. -1.
</event>
<event>
 5   0  0.3371603E-06  0.2812345E+04  0.7818609E-02  0.8299446E-01
       -1   -1    0    0    0  501  0.00000000000E+00  0.00000000000E+00  0.10395096675E+04  0.10395096675E+04  0.50400001928E-02 0.  1.
        1   -1    0    0  501    0  0.00000000000E+00  0.00000000000E+00 -0.19021670372E+04  0.19021670372E+04  0.50400001928E-02 0. -1.
    10030    2    1    2    0    0  0.00000000000E+00  0.00000000000E+00 -0.86265736977E+03  0.29416767047E+04  0.28123449464E+04 0.  0.
        1    1    3    3  502    0 -0.54965149900E+03 -0.70981508912E+03 -0.15633974493E+04  0.18028216261E+04  0.50400001928E-02 0.  1.
       -1    1    3    3    0  502  0.54965149900E+03  0.70981508912E+03  0.70074007949E+03  0.11388550786E+04  0.50400001928E-02 0. -1.
</event>
<event>
 5   0  0.9260173E-06  0.2809462E+04  0.7818609E-02  0.8300337E-01
        2   -1    0    0  501    0  0.00000000000E+00  0.00000000000E+00  0.21448727073E+04  0.21448727073E+04  0.25500000920E-02 0.  1.
       -2   -1    0    0    0  501  0.00000000000E+00  0.00000000000E+00 -0.91999387297E+03  0.91999387297E+03  0.25500000920E-02 0. -1.
    10030    2    1    2    0    0  0.00000000000E+00  0.00000000000E+00  0.12248788344E+04  0.30648665803E+04  0.28094624034E+04 0.  0.
        1    1    3    3  502    0  0.94012995700E+01 -0.13423504495E+04  0.16096056700E+03  0.13519990451E+04  0.50400001928E-02 0. -1.
       -1    1    3    3    0  502 -0.94012995700E+01  0.13423504495E+04  0.10639182674E+04  0.17128675353E+04  0.50400001928E-02 0.  1.
</event>
<event>
 5   0  0.9252359E-06  0.2837618E+04  0.7818609E-02  0.8291684E-01
        2   -1    0    0  501    0  0.00000000000E+00  0.00000000000E+00  0.10990713375E+04  0.10990713375E+04  0.25500000920E-02 0. -1.
       -2   -1    0    0    0  501  0.00000000000E+00  0.00000000000E+00 -0.18315634121E+04  0.18315634121E+04  0.25500000920E-02 0.  1.
    10030    2    1    2    0    0  0.00000000000E+00  0.00000000000E+00 -0.73249207451E+03  0.29306347496E+04  0.28376179088E+04 0.  0.
        5    1    3    3  502    0 -0.71176753871E+03 -0.71977563136E+03 -0.13929699187E+04  0.17219399737E+04  0.46999998093E+01 0.  1.
       -5    1    3    3    0  502  0.71176753871E+03  0.71977563136E+03  0.66047784416E+03  0.12086947759E+04  0.46999998093E+01 0. -1.
</event>
<event>
 5   0  0.3397882E-06  0.2791336E+04  0.7818609E-02  0.8305963E-01
        1   -1    0    0  501    0  0.00000000000E+00  0.00000000000E+00  0.16777844342E+04  0.16777844342E+04  0.50400001928E-02 0.  1.
       -1   -1    0    0    0  501  0.00000000000E+00  0.00000000000E+00 -0.11609891974E+04  0.11609891974E+04  0.50400001928E-02 0. -1.
    10030    2    1    2    0    0  0.00000000000E+00  0.00000000000E+00  0.51679523675E+03  0.28387736316E+04  0.27913363134E+04 0.  0.
        2    1    3    3  502    0  0.55566326887E+03 -0.10182279642E+04  0.10476926310E+04  0.15630769989E+04  0.25500000920E-02 0. -1.
       -2    1    3    3    0  502 -0.55566326887E+03  0.10182279642E+04 -0.53089739428E+03  0.12756966327E+04  0.25500000920E-02 0.  1.
</event>
<event>
 5   0  0.3371603E-06  0.2809869E+04  0.7818609E-02  0.8300211E-01
        1   -1    0    0  501    0  0.00000000000E+00  0.00000000000E+00  0.15495798381E+04  0.15495798381E+04  0.50400001928E-02 0. -1.
       -1   -1    0    0    0  501  0.00000000000E+00  0.00000000000E+00 -0.12737913978E+04  0.12737913978E+04  0.50400001928E-02 0.  1.
    10030    2    1    2    0    0  0.00000000000E+00  0.00000000000E+00  0.27578844031E+03  0.28233712359E+04  0.28098693692E+04 0.  0.
        1    1    3    3  502    0 -0.65005303195E+03  0.10627408795E+04  0.79051833921E+03  0.14754342974E+04  0.50400001928E-02 0.  1.
       -1    1    3    3    0  502  0.65005303195E+03 -0.10627408795E+04 -0.51472989890E+03  0.13479369385E+04  0.50400001928E-02 0. -1.
</event>
<event>
 5   0  0.9342133E-06  0.2789689E+04  0.7818609E-02  0.8306477E-01
       -2   -1    0    0    0  501  0.00000000000E+00  0.00000000000E+00  0.92730272891E+03  0.92730272891E+03  0.25500000920E-02 0. -1.
        2   -1    0    0  501    0  0.00000000000E+00  0.00000000000E+00 -0.20981182293E+04  0.20981182293E+04  0.25500000920E-02 0.  1.
    10030    2    1    2    0    0  0.00000000000E+00  0.00000000000E+00 -0.11708155004E+04  0.30254209582E+04  0.27896886992E+04 0.  0.
        2    1    3    3  502    0 -0.11197967391E+04  0.67899487084E+03 -0.11062077890E+04  0.17142562364E+04  0.25500000920E-02 0.  1.
       -2    1    3    3    0  502  0.11197967391E+04 -0.67899487084E+03 -0.64607711384E+02  0.13111647219E+04  0.25500000920E-02 0. -1.
</event>
<event>
 5   0  0.3438130E-06  0.2793353E+04  0.7818609E-02  0.8305335E-01
        1   -1    0    0  501    0  0.00000000000E+00  0.00000000000E+00  0.76546976700E+03  0.76546976701E+03  0.50400001928E-02 0. -1.
       -1   -1    0    0    0  501  0.00000000000E+00  0.00000000000E+00 -0.25483759170E+04  0.25483759170E+04  0.50400001928E-02 0.  1.
    10030    2    1    2    0    0  0.00000000000E+00  0.00000000000E+00 -0.17829061500E+04  0.33138456840E+04  0.27933526232E+04 0.  0.
        3    1    3    3  502    0 -0.25206432642E+03  0.10576595063E+04 -0.19314580566E+04  0.22164634648E+04  0.10100000352E+00 0.  1.
       -3    1    3    3    0  502  0.25206432642E+03 -0.10576595063E+04  0.14855190661E+03  0.10973822193E+04  0.10100000352E+00 0. -1.
</event>
<event>
 5   0  0.3438130E-06  0.2818120E+04  0.7818609E-02  0.8297665E-01
       -1   -1    0    0    0  501  0.00000000000E+00  0.00000000000E+00  0.13336117583E+04  0.13336117583E+04  0.50400001928E-02 0. -1.
        1   -1    0    0  501    0  0.00000000000E+00  0.00000000000E+00 -0.14887764363E+04  0.14887764363E+04  0.50400001928E-02 0.  1.
    10030    2    1    2    0    0  0.00000000000E+00  0.00000000000E+00 -0.15516467800E+03  0.28223881947E+04  0.28181197711E+04 0.  0.
        3    1    3    3  502    0  0.53848992031E+03  0.71909244038E+02 -0.13796697759E+04  0.14827781474E+04  0.10100000352E+00 0.  1.
       -3    1    3    3    0  502 -0.53848992031E+03 -0.71909244038E+02  0.12245050979E+04  0.13396100472E+04  0.10100000352E+00 0. -1.
</event>
<event>
 5   0  0.9342133E-06  0.2807130E+04  0.7818609E-02  0.8301058E-01
       -2   -1    0    0    0  501  0.00000000000E+00  0.00000000000E+00  0.19710045214E+04  0.19710045214E+04  0.25500000920E-02 0.  1.
        2   -1    0    0  501    0  0.00000000000E+00  0.00000000000E+00 -0.99948732994E+03  0.99948732994E+03  0.25500000920E-02 0. -1.
    10030    2    1    2    0    0  0.00000000000E+00  0.00000000000E+00  0.97151719142E+03  0.29704918513E+04  0.28071295277E+04 0.  0.
        2    1    3    3  502    0 -0.83345715750E+03  0.10776236595E+04  0.84315691999E+03  0.16021351930E+04  0.25500000920E-02 0. -1.
       -2    1    3    3    0  502  0.83345715750E+03 -0.10776236595E+04  0.12836027143E+03  0.13683566583E+04  0.25500000920E-02 0.  1.
</event>
<event>
 5   0  0.3600963E-06  0.2796278E+04  0.7818609E-02  0.8304425E-01
        1   -1    0    0  501    0  0.00000000000E+00  0.00000000000E+00  0.16003646522E+04  0.16003646522E+04  0.50400001928E-02 0. -1.
       -1   -1    0    0    0  501  0.00000000000E+00  0.00000000000E+00 -0.12214672784E+04  0.12214672784E+04  0.50400001928E-02 0.  1.
    10030    2    1    2    0    0  0.00000000000E+00  0.00000000000E+00  0.37889737382E+03  0.28218319306E+04  0.27962782810E+04 0.  0.
        5    1    3    3  502    0  0.63915399692E+03  0.91898910859E+02  0.14408648876E+04  0.15789480536E+04  0.46999998093E+01 0. -1.
       -5    1    3    3    0  502 -0.63915399692E+03 -0.91898910859E+02 -0.10619675137E+04  0.12428838771E+04  0.46999998093E+01 0.  1.
</event>
<event>
 5   0  0.9065579E-06  0.2801284E+04  0.7818609E-02  0.8302870E-01
        2   -1    0    0  501    0  0.00000000000E+00  0.00000000000E+00  0.15515550503E+04  0.15515550503E+04  0.25500000920E-02 0. -1.
       -2   -1    0    0    0  501  0.00000000000E+00  0.00000000000E+00 -0.12644076610E+04  0.12644076610E+04  0.25500000920E-02 0.  1.
    10030    2    1    2    0    0  0.00000000000E+00  0.00000000000E+00  0.28714738928E+03  0.28159627113E+04  0.28012840571E+04 0.  0.
        3    1    3    3  502    0 -0.12698740404E+04 -0.29310488289E+03  0.65939751111E+03  0.14605805828E+04  0.10100000352E+00 0.  1.
       -3    1    3    3    0  502  0.12698740404E+04  0.29310488289E+03 -0.37225012183E+03  0.13553821285E+04  0.10100000352E+00 0. -1.
</event>
<event>
 5   0  0.9065579E-06  0.2793071E+04  0.7818609E-02  0.8305423E-01
       -2   -1    0    0    0  501  0.00000000000E+00  0.00000000000E+00  0.17162416952E+04  0.17162416952E+04  0.25500000920E-02 0.  1.
        2   -1    0    0  501    0  0.00000000000E+00  0.00000000000E+00 -0.11363847446E+04  0.11363847446E+04  0.25500000920E-02 0. -1.
    10030    2    1    2    0    0  0.00000000000E+00  0.00000000000E+00  0.57985695053E+03  0.28526264398E+04  0.27930706260E+04 0.  0.
        3    1    3    3  502    0  0.12996694677E+04  0.24094430413E+03  0.75022218482E+03  0.15198776990E+04  0.10100000352E+00 0.  1.
       -3    1    3    3    0  502 -0.12996694677E+04 -0.24094430413E+03 -0.17036523429E+03  0.13327487408E+04  0.10100000352E+00 0. -1.
</event>
<event>
 5   0  0.9342133E-06  0.2815108E+04  0.7818609E-02  0.8298593E-01
        2   -1    0    0  501    0  0.00000000000E+00  0.00000000000E+00  0.22916133066E+04  0.22916133066E+04  0.25500000920E-02 0. -1.
       -2   -1    0    0    0  501  0.00000000000E+00  0.00000000000E+00 -0.86454745597E+03  0.86454745598E+03  0.25500000920E-02 0.  1.
    10030    2    1    2    0    0  0.00000000000E+00  0.00000000000E+00  0.14270658506E+04  0.31561607625E+04  0.28151081359E+04 0.  0.
        2    1    3    3  502    0 -0.40224147015E+03  0.86335689321E+03 -0.44837377399E+03  0.10527214098E+04  0.25500000920E-02 0.  1.
       -2    1    3    3    0  502  0.40224147015E+03 -0.86335689321E+03  0.18754396246E+04  0.21034393528E+04  0.25500000920E-02 0. -1.
</event>
<event>
 5   0  0.3357244E-06  0.2820817E+04  0.7818609E-02  0.8296835E-01
       -1   -1    0    0    0  501  0.00000000000E+00  0.00000000000E+00  0.14669383674E+04  0.14669383674E+04  0.50400001928E-02 0.  1.
        1   -1    0    0  501    0  0.00000000000E+00  0.00000000000E+00 -0.13560571170E+04  0.13560571170E+04  0.50400001928E-02 0. -1.
    10030    2    1    2    0    0  0.00000000000E+00  0.00000000000E+00  0.11088125046E+03  0.28229954844E+04  0.28208170542E+04 0.  0.
        4    1    3    3  502    0  0.76343503243E+03 -0.39429237775E+03 -0.10638823669E+04  0.13675331189E+04  0.12699999809E+01 0. -1.
       -4    1    3    3    0  502 -0.76343503243E+03  0.39429237775E+03  0.11747636173E+04  0.14554623655E+04  0.12699999809E+01 0.  1.
</event>
<event>
 5   0  0.9260173E-06  0.2789415E+04  0.7818609E-02  0.8306562E-01
       -2   -1    0    0    0  501  0.00000000000E+00  0.00000000000E+00  0.10692411038E+04  0.10692411038E+04  0.25500000920E-02 0. -1.
        2   -1    0    0  501    0  0.00000000000E+00  0.00000000000E+00 -0.18192426986E+04  0.18192426986E+04  0.25500000920E-02 0.  1.
    10030    2    1    2    0    0  0.00000000000E+00  0.00000000000E+00 -0.75000159482E+03  0.28884838025E+04  0.27894150435E+04 0.  0.
        1    1    3    3  502    0  0.73263955119E+03 -0.35782655756E+03 -0.15467403080E+04  0.17484868137E+04  0.50400001928E-02 0.  1.
       -1    1    3    3    0  502 -0.73263955119E+03  0.35782655756E+03  0.79673871319E+03  0.11399969888E+04  0.50400001928E-02 0. -1.
</event>
<event>
 5   0  0.9342133E-06  0.2831001E+04  0.7818609E-02  0.8293708E-01
        2   -1    0    0  501    0  0.00000000000E+00  0.00000000000E+00  0.15424673447E+04  0.15424673447E+04  0.25500000920E-02 0.  1.
       -2   -1    0    0    0  501  0.00000000000E+00  0.00000000000E+00 -0.12989850981E+04  0.12989850981E+04  0.25500000920E-02 0. -1.
    10030    2    1    2    0    0  0.00000000000E+00  0.00000000000E+00  0.24348224660E+03  0.28414524429E+04  0.28310013036E+04 0.  0.
        2    1    3    3  502    0 -0.58761638208E+03 -0.87467152412E+03 -0.82689290585E+03  0.13394383768E+04  0.25500000920E-02 0. -1.
       -2    1    3    3    0  502  0.58761638208E+03  0.87467152412E+03  0.10703751525E+04  0.15020140660E+04  0.25500000920E-02 0.  1.
</event>
<event>
 5   0  0.9260173E-06  0.2803164E+04  0.7818609E-02  0.8302287E-01
       -2   -1    0    0    0  501  0.00000000000E+00  0.00000000000E+00  0.12392087591E+04  0.12392087591E+04  0.25500000920E-02 0. -1.
        2   -1    0    0  501    0  0.00000000000E+00  0.00000000000E+00 -0.15852313517E+04  0.15852313517E+04  0.25500000920E-02 0.  1.
    10030    2    1    2    0    0  0.00000000000E+00  0.00000000000E+00 -0.34602259252E+03  0.28244401108E+04  0.28031643378E+04 0.  0.
        1    1    3    3  502    0 -0.10726670985E+04 -0.87502183728E+03 -0.39411853177E+03  0.14393079368E+04  0.50400001928E-02 0. -1.
       -1    1    3    3    0  502  0.10726670985E+04  0.87502183728E+03  0.48095939251E+02  0.13851321740E+04  0.50400001928E-02 0.  1.
</event>
<event>
 5   0  0.9065579E-06  0.2792412E+04  0.7818609E-02  0.8305628E-01
        2   -1    0    0  501    0  0.00000000000E+00  0.00000000000E+00  0.10712997149E+04  0.10712997149E+04  0.25500000920E-02 0. -1.
       -2   -1    0    0    0  501  0.00000000000E+00  0.00000000000E+00 -0.18196500552E+04  0.18196500552E+04  0.25500000920E-02 0.  1.
    10030    2    1    2    0    0  0.00000000000E+00  0.00000000000E+00 -0.74835034035E+03  0.28909497701E+04  0.27924115637E+04 0.  0.
        3    1    3    3  502    0  0.76116491031E+03  0.71663447988E+03  0.58392966481E+03  0.11974601714E+04  0.10100000352E+00 0. -1.
       -3    1    3    3    0  502 -0.76116491031E+03 -0.71663447988E+03 -0.13322800052E+04  0.16934895987E+04  0.10100000352E+00 0.  1.
</event>
<event>
 5   0  0.3397882E-06  0.2750735E+04  0.7818609E-02  0.8318728E-01
        1   -1    0    0  501    0  0.00000000000E+00  0.00000000000E+00  0.11418884454E+04  0.11418884454E+04  0.50400001928E-02 0.  1.
       -1   -1    0    0    0  501  0.00000000000E+00  0.00000000000E+00 -0.16565855409E+04  0.16565855409E+04  0.50400001928E-02 0. -1.
    10030    2    1    2    0    0  0.00000000000E+00  0.00000000000E+00 -0.51469709556E+03  0.27984739863E+04  0.27507350930E+04 0.  0.
        2    1    3    3  502    0  0.42764368375E+03 -0.23588279848E+03 -0.15653980516E+04  0.16398142805E+04  0.25500000920E-02 0. -1.
       -2    1    3    3    0  502 -0.42764368375E+03  0.23588279848E+03  0.10507009560E+04  0.11586597058E+04  0.25500000920E-02 0.  1.
</event>
<event>
 5   0  0.9065579E-06  0.2696703E+04  0.7818609E-02  0.8336075E-01
       -2   -1    0    0    0  501  0.00000000000E+00  0.00000000000E+00  0.10833710774E+04  0.10833710774E+04  0.25500000920E-02 0.  1.
        2   -1    0    0  501    0  0.00000000000E+00  0.00000000000E+00 -0.16781432539E+04  0.16781432539E+04  0.25500000920E-02 0. -1.
    10030    2    1    2    0    0  0.00000000000E+00  0.00000000000E+00 -0.59477217647E+03  0.27615143313E+04  0.26967030723E+04 0.  0.
        3    1    3    3  502    0  0.73520440485E+03  0.42255666630E+03  0.77612744827E+03  0.11495449010E+04  0.10100000352E+00 0.  1.
       -3    1    3    3    0  502 -0.73520440485E+03 -0.42255666630E+03 -0.13708996247E+04  0.16119694304E+04  0.10100000352E+00 0. -1.
</event>
<event>
 5   0  0.9426937E-06  0.2548843E+04  0.7818609E-02  0.8385789E-01
        2   -1    0    0  501    0  0.00000000000E+00  0.00000000000E+00  0.10340214184E+04  0.10340214184E+04  0.25500000920E-02 0. -1.
       -2   -1    0    0    0  501  0.00000000000E+00  0.00000000000E+00 -0.15707126600E+04  0.15707126600E+04  0.25500000920E-02 0.  1.
    10030    2    1    2    0    0  0.00000000000E+00  0.00000000000E+00 -0.53669124163E+03  0.26047340784E+04  0.25488432926E+04 0.  0.
        4    1    3    3  502    0 -0.91094812986E+03 -0.10641729341E+03 -0.11726206190E+04  0.14886879675E+04  0.12699999809E+01 0.  1.
       -4    1    3    3    0  502  0.91094812986E+03  0.10641729341E+03  0.63592937737E+03  0.11160461108E+04  0.12699999809E+01 0. -1.
</event>
<event>
 5   0  0.3371603E-06  0.2830873E+04  0.7818609E-02  0.8293747E-01
        1   -1    0    0  501    0  0.00000000000E+00  0.00000000000E+00  0.19444637337E+04  0.19444637337E+04  0.50400001928E-02 0.  1.
       -1   -1    0    0    0  501  0.00000000000E+00  0.00000000000E+00 -0.10303412197E+04  0.10303412198E+04  0.50400001928E-02 0. -1.
    10030    2    1    2    0    0  0.00000000000E+00  0.00000000000E+00  0.91412251397E+03  0.29748049535E+04  0.28308734590E+04 0.  0.
        1    1    3    3  502    0 -0.17539392619E+03 -0.78013938399E+03  0.16843819681E+04  0.18645436714E+04  0.50400001928E-02 0.  1.
       -1    1    3    3    0  502  0.17539392619E+03  0.78013938399E+03 -0.77025945417E+03  0.11102612821E+04  0.50400001928E-02 0. -1.
</event>
<event>
 5   0  0.3397882E-06  0.2782242E+04  0.7818609E-02  0.8308803E-01
        1   -1    0    0  501    0  0.00000000000E+00  0.00000000000E+00  0.28279774033E+04  0.28279774033E+04  0.50400001928E-02 0.  1.
       -1   -1    0    0    0  501  0.00000000000E+00  0.00000000000E+00 -0.68431150524E+03  0.68431150526E+03  0.50400001928E-02 0. -1.
    10030    2    1    2    0    0  0.00000000000E+00  0.00000000000E+00  0.21436658981E+04  0.35122889086E+04  0.27822418829E+04 0.  0.
        2    1    3    3  502    0 -0.51632593306E+03  0.11640986821E+04  0.36500516862E+03  0.13247441202E+04  0.25500000920E-02 0.  1.
       -2    1    3    3    0  502  0.51632593306E+03 -0.11640986821E+04  0.17786607295E+04  0.21875447884E+04  0.25500000920E-02 0. -1.
</event>
<event>
 5   0  0.3600963E-06  0.2802458E+04  0.7818609E-02  0.8302506E-01
        1   -1    0    0  501    0  0.00000000000E+00  0.00000000000E+00  0.27662865274E+04  0.27662865274E+04  0.50400001928E-02 0. -1.
       -1   -1    0    0    0  501  0.00000000000E+00  0.00000000000E+00 -0.70977568836E+03  0.70977568838E+03  0.50400001928E-02 0.  1.
    10030    2    1    2    0    0  0.00000000000E+00  0.00000000000E+00  0.20565108391E+04  0.34760622158E+04  0.28024581526E+04 0.  0.
        5    1    3    3  502    0  0.20793562950E+03  0.14084811250E+03 -0.68162082520E+03  0.72643269210E+03  0.46999998093E+01 0.  1.
       -5    1    3    3    0  502 -0.20793562950E+03 -0.14084811250E+03  0.27381316643E+04  0.27496295237E+04  0.46999998093E+01 0. -1.
</event>
<event>
 5   0  0.3438130E-06  0.2797577E+04  0.7818609E-02  0.8304021E-01
        1   -1    0    0  501    0  0.00000000000E+00  0.00000000000E+00  0.26651577678E+04  0.26651577678E+04  0.50400001928E-02 0.  1.
       -1   -1    0    0    0  501  0.00000000000E+00  0.00000000000E+00 -0.73414392805E+03  0.73414392807E+03  0.50400001928E-02 0. -1.
    10030    2    1    2    0    0  0.00000000000E+00  0.00000000000E+00  0.19310138398E+04  0.33993016959E+04  0.27975770893E+04 0.  0.
        3    1    3    3  502    0 -0.80794816854E+03 -0.32605647211E+03 -0.36417685063E+03  0.94430813551E+03  0.10100000352E+00 0. -1.
       -3    1    3    3    0  502  0.80794816854E+03  0.32605647211E+03  0.22951906904E+04  0.24549935604E+04  0.10100000352E+00 0.  1.
</event>
<event>
 5   0  0.9426937E-06  0.2776143E+04  0.7818609E-02  0.8310713E-01
        2   -1    0    0  501    0  0.00000000000E+00  0.00000000000E+00  0.15150789304E+04  0.15150789304E+04  0.25500000920E-02 0. -1.
       -2   -1    0    0    0  501  0.00000000000E+00  0.00000000000E+00 -0.12717111881E+04  0.12717111881E+04  0.25500000920E-02 0.  1.
    10030    2    1    2    0    0  0.00000000000E+00  0.00000000000E+00  0.24336774230E+03  0.27867901185E+04  0.27761432431E+04 0.  0.
        4    1    3    3  502    0 -0.89653899354E+03 -0.86766995794E+03 -0.48901422086E+03  0.13400633731E+04  0.12699999809E+01 0.  1.
       -4    1    3    3    0  502  0.89653899354E+03  0.86766995794E+03  0.73238196316E+03  0.14467267454E+04  0.12699999809E+01 0. -1.
</event>
<event>
 5   0  0.3371603E-06  0.2811994E+04  0.7818609E-02  0.8299554E-01
       -1   -1    0    0    0  501  0.00000000000E+00  0.00000000000E+00  0.84672639153E+03  0.84672639154E+03  0.50400001928E-02 0.  1.
        1   -1    0    0  501    0  0.00000000000E+00  0.00000000000E+00 -0.23346707507E+04  0.23346707507E+04  0.50400001928E-02 0. -1.
    10030    2    1    2    0    0  0.00000000000E+00  0.00000000000E+00 -0.14879443592E+04  0.31813971422E+04  0.28119938408E+04 0.  0.
        1    1    3    3  502    0  0.84744668541E+01  0.49929264257E+02 -0.23336385247E+04  0.23341879770E+04  0.50400001928E-02 0. -1.
       -1    1    3    3    0  502 -0.84744668541E+01 -0.49929264257E+02  0.84569416553E+03  0.84720916523E+03  0.50400001928E-02 0.  1.
</event>
<event>
 5   0  0.9252359E-06  0.2813410E+04  0.7818609E-02  0.8299117E-01
        2   -1    0    0  501    0  0.00000000000E+00  0.00000000000E+00  0.18470086043E+04  0.18470086043E+04  0.25500000920E-02 0. -1.
       -2   -1    0    0    0  501  0.00000000000E+00  0.00000000000E+00 -0.10713643713E+04  0.10713643713E+04  0.25500000920E-02 0.  1.
    10030    2    1    2    0    0  0.00000000000E+00  0.00000000000E+00  0.77564423298E+03  0.29183729757E+04  0.28134101814E+04 0.  0.
        5    1    3    3  502    0 -0.26786087483E+03  0.90282872572E+03 -0.69612654174E+03  0.11710949613E+04  0.46999998093E+01 0.  1.
       -5    1    3    3    0  502  0.26786087483E+03 -0.90282872572E+03  0.14717707747E+04  0.17472780144E+04  0.46999998093E+01 0. -1.
</event>
<event>
 5   0  0.9252359E-06  0.2800658E+04  0.7818609E-02  0.8303064E-01
       -2   -1    0    0    0  501  0.00000000000E+00  0.00000000000E+00  0.11529248651E+04  0.11529248651E+04  0.25500000920E-02 0.  1.
        2   -1    0    0  501    0  0.00000000000E+00  0.00000000000E+00 -0.17008236304E+04  0.17008236304E+04  0.25500000920E-02 0. -1.
    10030    2    1    2    0    0  0.00000000000E+00  0.00000000000E+00 -0.54789876526E+03  0.28537484955E+04  0.28006583902E+04 0.  0.
        5    1    3    3  502    0 -0.10639187732E+04 -0.21766449912E+03 -0.11747890289E+04  0.15998288479E+04  0.46999998093E+01 0. -1.
       -5    1    3    3    0  502  0.10639187732E+04  0.21766449912E+03  0.62689026364E+03  0.12539196476E+04  0.46999998093E+01 0.  1.
</event>
<event>
 5   0  0.9252359E-06  0.2817982E+04  0.7818609E-02  0.8297707E-01
       -2   -1    0    0    0  501  0.00000000000E+00  0.00000000000E+00  0.79408230961E+03  0.79408230962E+03  0.25500000920E-02 0.  1.
        2   -1    0    0  501    0  0.00000000000E+00  0.00000000000E+00 -0.25000621640E+04  0.25000621640E+04  0.25500000920E-02 0. -1.
    10030    2    1    2    0    0  0.00000000000E+00  0.00000000000E+00 -0.17059798544E+04  0.32941444736E+04  0.28179816446E+04 0.  0.
        5    1    3    3  502    0  0.74847248103E+02 -0.50253290541E+03  0.68326104389E+03  0.85147470642E+03  0.46999998093E+01 0.  1.
       -5    1    3    3    0  502 -0.74847248103E+02  0.50253290541E+03 -0.23892408983E+04  0.24426697672E+04  0.46999998093E+01 0. -1.
</event>
<event>
 5   0  0.9342133E-06  0.2772561E+04  0.7818609E-02  0.8311838E-01
        2   -1    0    0  501    0  0.00000000000E+00  0.00000000000E+00  0.13609876143E+04  0.13609876143E+04  0.25500000920E-02 0.  1.
       -2   -1    0    0    0  501  0.00000000000E+00  0.00000000000E+00 -0.14120429444E+04  0.14120429444E+04  0.25500000920E-02 0. -1.
    10030    2    1    2    0    0  0.00000000000E+00  0.00000000000E+00 -0.51055330078E+02  0.27730305588E+04  0.27725605193E+04 0.  0.
        2    1    3    3  502    0  0.42143590728E+03  0.56615430088E+03 -0.12188913094E+04  0.14084867555E+04  0.25500000920E-02 0. -1.
       -2    1    3    3    0  502 -0.42143590728E+03 -0.56615430088E+03  0.11678359793E+04  0.13645438032E+04  0.25500000920E-02 0.  1.
</event>
<event>
 5   0  0.3357244E-06  0.2813127E+04  0.7818609E-02  0.8299204E-01
        1   -1    0    0  501    0  0.00000000000E+00  0.00000000000E+00  0.17584898778E+04  0.17584898778E+04  0.50400001928E-02 0. -1.
       -1   -1    0    0    0  501  0.00000000000E+00  0.00000000000E+00 -0.11250682492E+04  0.11250682493E+04  0.50400001928E-02 0.  1.
    10030    2    1    2    0    0  0.00000000000E+00  0.00000000000E+00  0.63342162858E+03  0.28835581271E+04  0.28131271768E+04 0.  0.
        4    1    3    3  502    0 -0.60441678531E+03 -0.75393826540E+03 -0.73097328268E+03  0.12116377806E+04  0.12699999809E+01 0.  1.
       -4    1    3    3    0  502  0.60441678531E+03  0.75393826540E+03  0.13643949113E+04  0.16719203465E+04  0.12699999809E+01 0. -1.
</event>
<event>
 5   0  0.9260173E-06  0.2785492E+04  0.7818609E-02  0.8307787E-01
       -2   -1    0    0    0  501  0.00000000000E+00  0.00000000000E+00  0.11711705885E+04  0.11711705885E+04  0.25500000920E-02 0. -1.
        2   -1    0    0  501    0  0.00000000000E+00  0.00000000000E+00 -0.16562415179E+04  0.16562415179E+04  0.25500000920E-02 0.  1.
    10030    2    1    2    0    0  0.00000000000E+00  0.00000000000E+00 -0.48507092942E+03  0.28274121064E+04  0.27854919516E+04 0.  0.
        1    1    3    3  502    0 -0.23580728302E+03  0.10092105513E+04  0.70185901674E+03  0.12516856997E+04  0.50400001928E-02 0. -1.
       -1    1    3    3    0  502  0.23580728302E+03 -0.10092105513E+04 -0.11869299462E+04  0.15757264066E+04  0.50400001928E-02 0.  1.
</event>
<event>
 5   0  0.9252359E-06  0.2797288E+04  0.7818609E-02  0.8304111E-01
        2   -1    0    0  501    0  0.00000000000E+00  0.00000000000E+00  0.14530494413E+04  0.14530494413E+04  0.25500000920E-02 0.  1.
       -2   -1    0    0    0  501  0.00000000000E+00  0.00000000000E+00 -0.13462757458E+04  0.13462757458E+04  0.25500000920E-02 0. -1.
    10030    2    1    2    0    0  0.00000000000E+00  0.00000000000E+00  0.10677369553E+03  0.27993251871E+04  0.27972881298E+04 0.  0.
        5    1    3    3  502    0  0.12629121059E+03  0.40789804599E+02  0.14467261149E+04  0.14528082528E+04  0.46999998093E+01 0.  1.
       -5    1    3    3    0  502 -0.12629121059E+03 -0.40789804599E+02 -0.13399524194E+04  0.13465169342E+04  0.46999998093E+01 0. -1.
</event>
<event>
 5   0  0.9426937E-06  0.2825679E+04  0.7818609E-02  0.8295340E-01
       -2   -1    0    0    0  501  0.00000000000E+00  0.00000000000E+00  0.13930729969E+04  0.13930729969E+04  0.25500000920E-02 0. -1.
        2   -1    0    0  501    0  0.00000000000E+00  0.00000000000E+00 -0.14328861749E+04  0.14328861749E+04  0.25500000920E-02 0.  1.
    10030    2    1    2    0    0  0.00000000000E+00  0.00000000000E+00 -0.39813177979E+02  0.28259591718E+04  0.28256787064E+04 0.  0.
        4    1    3    3  502    0  0.84593217690E+03  0.90589417723E+03  0.65829633825E+03  0.14034248074E+04  0.12699999809E+01 0. -1.
       -4    1    3    3    0  502 -0.84593217690E+03 -0.90589417723E+03 -0.69810951623E+03  0.14225343644E+04  0.12699999809E+01 0.  1.
</event>
<event>
 5   0  0.9252359E-06  0.2822635E+04  0.7818609E-02  0.8296275E-01
       -2   -1    0    0    0  501  0.00000000000E+00  0.00000000000E+00  0.12886593703E+04  0.12886593703E+04  0.25500000920E-02 0. -1.
        2   -1    0    0  501    0  0.00000000000E+00  0.00000000000E+00 -0.15456504045E+04  0.15456504045E+04  0.25500000920E-02 0.  1.
    10030    2    1    2    0    0  0.00000000000E+00  0.00000000000E+00 -0.25699103421E+03  0.28343097748E+04  0.28226348520E+04 0.  0.
        5    1    3    3  502    0 -0.95985929658E+03 -0.40146362445E+03  0.82901658200E+03  0.13303358577E+04  0.46999998093E+01 0. -1.
       -5    1    3    3    0  502  0.95985929658E+03  0.40146362445E+03 -0.10860076162E+04  0.15039739171E+04  0.46999998093E+01 0.  1.
</event>
<event>
 5   0  0.9252359E-06  0.2756575E+04  0.7818609E-02  0.8316878E-01
       -2   -1    0    0    0  501  0.00000000000E+00  0.00000000000E+00  0.11086081739E+04  0.11086081739E+04  0.25500000920E-02 0.  1.
        2   -1    0    0  501    0  0.00000000000E+00  0.00000000000E+00 -0.17135688062E+04  0.17135688062E+04  0.25500000920E-02 0. -1.
    10030    2    1    2    0    0  0.00000000000E+00  0.00000000000E+00 -0.60496063239E+03  0.28221769801E+04  0.27565749655E+04 0.  0.
        5    1    3    3  502    0  0.70276566248E+03  0.97746081429E+02 -0.15122186160E+04  0.16704074669E+04  0.46999998093E+01 0. -1.
       -5    1    3    3    0  502 -0.70276566248E+03 -0.97746081429E+02  0.90725798361E+03  0.11517695132E+04  0.46999998093E+01 0.  1.
</event>
<event>
 5   0  0.3357244E-06  0.2781057E+04  0.7818609E-02  0.8309174E-01
       -1   -1    0    0    0  501  0.00000000000E+00  0.00000000000E+00  0.14336155042E+04  0.14336155042E+04  0.50400001928E-02 0.  1.
        1   -1    0    0  501    0  0.00000000000E+00  0.00000000000E+00 -0.13487363629E+04  0.13487363629E+04  0.50400001928E-02 0. -1.
    10030    2    1    2    0    0  0.00000000000E+00  0.00000000000E+00  0.84879141326E+02  0.27823518671E+04  0.27810568933E+04 0.  0.
        4    1    3    3  502    0 -0.61049293226E+03 -0.78376480911E+03 -0.93093630150E+03  0.13614818789E+04  0.12699999809E+01 0. -1.
       -4    1    3    3    0  502  0.61049293226E+03  0.78376480911E+03  0.10158154428E+04  0.14208699881E+04  0.12699999809E+01 0.  1.
</event>
<event>
 5   0  0.3438130E-06  0.2836040E+04  0.7818609E-02  0.8292166E-01
       -1   -1    0    0    0  501  0.00000000000E+00  0.00000000000E+00  0.16309712331E+04  0.16309712331E+04  0.50400001928E-02 0. -1.
        1   -1    0    0  501    0  0.00000000000E+00  0.00000000000E+00 -0.12328730343E+04  0.12328730343E+04  0.50400001928E-02 0.  1.
    10030    2    1    2    0    0  0.00000000000E+00  0.00000000000E+00  0.39809819886E+03  0.28638442674E+04  0.28360398114E+04 0.  0.
        3    1    3    3  502    0  0.11145918489E+04 -0.74726668919E+03  0.66186325576E+03  0.14962571550E+04  0.10100000352E+00 0.  1.
       -3    1    3    3    0  502 -0.11145918489E+04  0.74726668919E+03 -0.26376505690E+03  0.13675871124E+04  0.10100000352E+00 0. -1.
</event>
<event>
 5   0  0.3600963E-06  0.2789852E+04  0.7818609E-02  0.8306426E-01
       -1   -1    0    0    0  501  0.00000000000E+00  0.00000000000E+00  0.16419099008E+04  0.16419099008E+04  0.50400001928E-02 0. -1.
        1   -1    0    0  501    0  0.00000000000E+00  0.00000000000E+00 -0.11850945194E+04  0.11850945194E+04  0.50400001928E-02 0.  1.
    10030    2    1    2    0    0  0.00000000000E+00  0.00000000000E+00  0.45681538146E+03  0.28270044202E+04  0.27898519135E+04 0.  0.
        5    1    3    3  502    0  0.67728639574E+03  0.10968735485E+04  0.76837150964E+03  0.15007549134E+04  0.46999998093E+01 0. -1.
       -5    1    3    3    0  502 -0.67728639574E+03 -0.10968735485E+04 -0.31155612818E+03  0.13262495068E+04  0.46999998093E+01 0.  1.
</event>
<event>
 5   0  0.9260173E-06  0.2795805E+04  0.7818609E-02  0.8304572E-01
       -2   -1    0    0    0  501  0.00000000000E+00  0.00000000000E+00  0.18446912748E+04  0.18446912748E+04  0.25500000920E-02 0. -1.
        2   -1    0    0  501    0  0.00000000000E+00  0.00000000000E+00 -0.10593272039E+04  0.10593272039E+04  0.25500000920E-02 0.  1.
    10030    2    1    2    0    0  0.00000000000E+00  0.00000000000E+00  0.78536407094E+03  0.29040184787E+04  0.27958051793E+04 0.  0.
        1    1    3    3  502    0 -0.14834616760E+03 -0.99571085918E+03  0.14001113135E+04  0.17244588690E+04  0.50400001928E-02 0. -1.
       -1    1    3    3    0  502  0.14834616760E+03  0.99571085918E+03 -0.61474724260E+03  0.11795596097E+04  0.50400001928E-02 0.  1.
</event>
<event>
 5   0  0.9252359E-06  0.2745521E+04  0.7818609E-02  0.8320384E-01
       -2   -1    0    0    0  501  0.00000000000E+00  0.00000000000E+00  0.13629032468E+04  0.13629032468E+04  0.25500000920E-02 0.  1.
        2   -1    0    0  501    0  0.00000000000E+00  0.00000000000E+00 -0.13826886466E+04  0.13826886466E+04  0.25500000920E-02 0. -1.
    10030    2    1    2    0    0  0.00000000000E+00  0.00000000000E+00 -0.19785399812E+02  0.27455918934E+04  0.27455206032E+04 0.  0.
        5    1    3    3  502    0 -0.43131973216E+02 -0.13196357029E+04  0.36581640384E+03  0.13700884959E+04  0.46999998093E+01 0.  1.
       -5    1    3    3    0  502  0.43131973216E+02  0.13196357029E+04 -0.38560180366E+03  0.13755033974E+04  0.46999998093E+01 0. -1.
</event>
<event>
 5   0  0.3600963E-06  0.2807916E+04  0.7818609E-02  0.8300815E-01
       -1   -1    0    0    0  501  0.00000000000E+00  0.00000000000E+00  0.20784604901E+04  0.20784604901E+04  0.50400001928E-02 0.  1.
        1   -1    0    0  501    0  0.00000000000E+00  0.00000000000E+00 -0.94834490842E+03  0.94834490843E+03  0.50400001928E-02 0. -1.
    10030    2    1    2    0    0  0.00000000000E+00  0.00000000000E+00  0.11301155817E+04  0.30268053986E+04  0.28079155423E+04 0.  0.
        5    1    3    3  502    0 -0.44823826514E+03 -0.35044655383E+03 -0.81848546170E+03  0.99683041207E+03  0.46999998093E+01 0. -1.
       -5    1    3    3    0  502  0.44823826514E+03  0.35044655383E+03  0.19486010434E+04  0.20299749865E+04  0.46999998093E+01 0.  1.
</event>
<event>
 5   0  0.3371603E-06  0.2815529E+04  0.7818609E-02  0.8298463E-01
        1   -1    0    0  501    0  0.00000000000E+00  0.00000000000E+00  0.16992469707E+04  0.16992469707E+04  0.50400001928E-02 0.  1.
       -1   -1    0    0    0  501  0.00000000000E+00  0.00000000000E+00 -0.11662817128E+04  0.11662817128E+04  0.50400001928E-02 0. -1.
    10030    2    1    2    0    0  0.00000000000E+00  0.00000000000E+00  0.53296525793E+03  0.28655286835E+04  0.28155288437E+04 0.  0.
        1    1    3    3  502    0 -0.41205310367E+03 -0.40989999677E+03  0.15714360557E+04  0.16754751698E+04  0.50400001928E-02 0.  1.
       -1    1    3    3    0  502  0.41205310367E+03  0.40989999677E+03 -0.10384707978E+04  0.11900535137E+04  0.50400001928E-02 0. -1.
</event>
<event>
 5   0  0.9426937E-06  0.2815353E+04  0.7818609E-02  0.8298518E-01
        2   -1    0    0  501    0  0.00000000000E+00  0.00000000000E+00  0.14005702995E+04  0.14005702995E+04  0.25500000920E-02 0.  1.
       -2   -1    0    0    0  501  0.00000000000E+00  0.00000000000E+00 -0.14148185666E+04  0.14148185666E+04  0.25500000920E-02 0. -1.
    10030    2    1    2    0    0  0.00000000000E+00  0.00000000000E+00 -0.14248267080E+02  0.28153888660E+04  0.28153528116E+04 0.  0.
        4    1    3    3  502    0 -0.26331243949E+02  0.10829170340E+04  0.89185824259E+03  0.14031448160E+04  0.12699999809E+01 0.  1.
       -4    1    3    3    0  502  0.26331243949E+02 -0.10829170340E+04 -0.90610650967E+03  0.14122440500E+04  0.12699999809E+01 0. -1.
</event>
<event>
 5   0  0.3371603E-06  0.2811433E+04  0.7818609E-02  0.8299728E-01
        1   -1    0    0  501    0  0.00000000000E+00  0.00000000000E+00  0.24145983042E+04  0.24145983043E+04  0.50400001928E-02 0. -1.
       -1   -1    0    0    0  501  0.00000000000E+00  0.00000000000E+00 -0.81837168292E+03  0.81837168294E+03  0.50400001928E-02 0.  1.
    10030    2    1    2    0    0  0.00000000000E+00  0.00000000000E+00  0.15962266213E+04  0.32329699872E+04  0.28114329996E+04 0.  0.
        1    1    3    3  502    0 -0.57223470524E+03  0.80880638990E+03  0.19448363599E+04  0.21826609450E+04  0.50400001928E-02 0. -1.
       -1    1    3    3    0  502  0.57223470524E+03 -0.80880638990E+03 -0.34860973855E+03  0.10503090422E+04  0.50400001928E-02 0.  1.
</event>
<event>
 5   0  0.9426937E-06  0.2862573E+04  0.7818609E-02  0.8284101E-01
        2   -1    0    0  501    0  0.00000000000E+00  0.00000000000E+00  0.16058683736E+04  0.16058683736E+04  0.25500000920E-02 0. -1.
       -2   -1    0    0    0  501  0.00000000000E+00  0.00000000000E+00 -0.12756843593E+04  0.12756843593E+04  0.25500000920E-02 0.  1.
    10030    2    1    2    0    0  0.00000000000E+00  0.00000000000E+00  0.33018401429E+03  0.28815527330E+04  0.28625730855E+04 0.  0.
        4    1    3    3  502    0 -0.85091746453E+03  0.10213043159E+04 -0.36895027464E+03  0.13795828917E+04  0.12699999809E+01 0.  1.
       -4    1    3    3    0  502  0.85091746453E+03 -0.10213043159E+04  0.69913428893E+03  0.15019698412E+04  0.12699999809E+01 0. -1.
</event>
<event>
 5   0  0.9260173E-06  0.2641985E+04  0.7818609E-02  0.8354078E-01
        2   -1    0    0  501    0  0.00000000000E+00  0.00000000000E+00  0.18174806122E+04  0.18174806122E+04  0.25500000920E-02 0.  1.
       -2   -1    0    0    0  501  0.00000000000E+00  0.00000000000E+00 -0.96013172185E+03  0.96013172185E+03  0.25500000920E-02 0. -1.
    10030    2    1    2    0    0  0.00000000000E+00  0.00000000000E+00  0.85734889035E+03  0.27776123341E+04  0.26419847007E+04 0.  0.
        1    1    3    3  502    0  0.39259555431E+03  0.11625606386E+04  0.94301532969E+03  0.15475646738E+04  0.50400001928E-02 0.  1.
       -1    1    3    3    0  502 -0.39259555431E+03 -0.11625606386E+04 -0.85666439345E+02  0.12300476602E+04  0.50400001928E-02 0. -1.
</event>
<event>
 5   0  0.3397882E-06  0.2738791E+04  0.7818609E-02  0.8322527E-01
       -1   -1    0    0    0  501  0.00000000000E+00  0.00000000000E+00  0.11706026000E+04  0.11706026000E+04  0.50400001928E-02 0. -1.
        1   -1    0    0  501    0  0.00000000000E+00  0.00000000000E+00 -0.16019470599E+04  0.16019470599E+04  0.50400001928E-02 0.  1.
    10030    2    1    2    0    0  0.00000000000E+00  0.00000000000E+00 -0.43134445996E+03  0.27725496599E+04  0.27387905312E+04 0.  0.
        2    1    3    3  502    0 -0.60968880406E+03  0.62176170587E+03 -0.12855509057E+04  0.15527231523E+04  0.25500000920E-02 0.  1.
       -2    1    3    3    0  502  0.60968880406E+03 -0.62176170587E+03  0.85420644573E+03  0.12198265076E+04  0.25500000920E-02 0. -1.
</event>
<event>
 5   0  0.3371603E-06  0.2796357E+04  0.7818609E-02  0.8304400E-01
       -1   -1    0    0    0  501  0.00000000000E+00  0.00000000000E+00  0.16430542184E+04  0.16430542184E+04  0.50400001928E-02 0.  1.
        1   -1    0    0  501    0  0.00000000000E+00  0.00000000000E+00 -0.11897987163E+04  0.11897987163E+04  0.50400001928E-02 0. -1.
    10030    2    1    2    0    0  0.00000000000E+00  0.00000000000E+00  0.45325550203E+03  0.28328529347E+04  0.27963574878E+04 0.  0.
        1    1    3    3  502    0 -0.57964650666E+03  0.22738050884E+03 -0.10415939749E+04  0.12135114244E+04  0.50400001928E-02 0. -1.
       -1    1    3    3    0  502  0.57964650666E+03 -0.22738050884E+03  0.14948494769E+04  0.16193415104E+04  0.50400001928E-02 0.  1.
</event>
<event>
 5   0  0.3006875E-06  0.2764042E+04  0.7818609E-02  0.8314520E-01
        3   -1    0    0  501    0  0.00000000000E+00  0.00000000000E+00  0.10988211099E+04  0.10988211145E+04  0.10100000352E+00 0.  1.
       -3   -1    0    0    0  501  0.00000000000E+00  0.00000000000E+00 -0.17382098493E+04  0.17382098522E+04  0.10100000352E+00 0. -1.
    10030    2    1    2    0    0  0.00000000000E+00  0.00000000000E+00 -0.63938873937E+03  0.28370309667E+04  0.27640417410E+04 0.  0.
        5    1    3    3  502    0 -0.72710846571E+03  0.42849677073E+02 -0.15252031554E+04  0.16902040027E+04  0.46999998093E+01 0. -1.
       -5    1    3    3    0  502  0.72710846571E+03 -0.42849677073E+02  0.88581441601E+03  0.11468269640E+04  0.46999998093E+01 0.  1.
</event>
<event>
 5   0  0.9426937E-06  0.2824114E+04  0.7818609E-02  0.8295821E-01
       -2   -1    0    0    0  501  0.00000000000E+00  0.00000000000E+00  0.11552697363E+04  0.11552697363E+04  0.25500000920E-02 0. -1.
        2   -1    0    0  501    0  0.00000000000E+00  0.00000000000E+00 -0.17259212144E+04  0.17259212144E+04  0.25500000920E-02 0.  1.
    10030    2    1    2    0    0  0.00000000000E+00  0.00000000000E+00 -0.57065147810E+03  0.28811909507E+04  0.28241136990E+04 0.  0.
        4    1    3    3  502    0  0.22564710830E+03  0.50867727697E+03 -0.16093350728E+04  0.17028300500E+04  0.12699999809E+01 0.  1.
       -4    1    3    3    0  502 -0.22564710830E+03 -0.50867727697E+03  0.10386835947E+04  0.11783609008E+04  0.12699999809E+01 0. -1.
</event>
<event>
 5   0  0.3357244E-06  0.2776838E+04  0.7818609E-02  0.8310495E-01
        1   -1    0    0  501    0  0.00000000000E+00  0.00000000000E+00  0.11495050984E+04  0.11495050985E+04  0.50400001928E-02 0.  1.
       -1   -1    0    0    0  501  0.00000000000E+00  0.00000000000E+00 -0.16769894071E+04  0.16769894071E+04  0.50400001928E-02 0. -1.
    10030    2    1    2    0    0  0.00000000000E+00  0.00000000000E+00 -0.52748430867E+03  0.28264945056E+04  0.27768383990E+04 0.  0.
        4    1    3    3  502    0  0.12772726614E+04  0.53912435338E+03 -0.34008834921E+03  0.14274950851E+04  0.12699999809E+01 0. -1.
       -4    1    3    3    0  502 -0.12772726614E+04 -0.53912435338E+03 -0.18739595946E+03  0.13989994204E+04  0.12699999809E+01 0.  1.
</event>
<event>
 5   0  0.9426937E-06  0.2769373E+04  0.7818609E-02  0.8312840E-01
       -2   -1    0    0    0  501  0.00000000000E+00  0.00000000000E+00  0.75602956371E+03  0.75602956371E+03  0.25500000920E-02 0. -1.
        2   -1    0    0  501    0  0.00000000000E+00  0.00000000000E+00 -0.25360873796E+04  0.25360873796E+04  0.25500000920E-02 0.  1.
    10030    2    1    2    0    0  0.00000000000E+00  0.00000000000E+00 -0.17800578159E+04  0.32921169433E+04  0.27693732396E+04 0.  0.
        4    1    3    3  502    0 -0.52756205003E+03  0.11956433689E+04 -0.34595820285E+03  0.13518777582E+04  0.12699999809E+01 0.  1.
       -4    1    3    3    0  502  0.52756205003E+03 -0.11956433689E+04 -0.14340996130E+04  0.19402391850E+04  0.12699999809E+01 0. -1.
</event>
<event>
 5   0  0.3397882E-06  0.2787523E+04  0.7818609E-02  0.8307152E-01
       -1   -1    0    0    0  501  0.00000000000E+00  0.00000000000E+00  0.93023772529E+03  0.93023772530E+03  0.50400001928E-02 0. -1.
        1   -1    0    0  501    0  0.00000000000E+00  0.00000000000E+00 -0.20882526398E+04  0.20882526398E+04  0.50400001928E-02 0.  1.
    10030    2    1    2    0    0  0.00000000000E+00  0.00000000000E+00 -0.11580149145E+04  0.30184903651E+04  0.27875231913E+04 0.  0.
        2    1    3    3  502    0  0.17281288472E+03 -0.59024801581E+03 -0.19333649739E+04  0.20288314704E+04  0.25500000920E-02 0.  1.
       -2    1    3    3    0  502 -0.17281288472E+03  0.59024801581E+03  0.77535005933E+03  0.98965889468E+03  0.25500000920E-02 0. -1.
</event>
<event>
 5   0  0.9260173E-06  0.2717939E+04  0.7818609E-02  0.8329208E-01
       -2   -1    0    0    0  501  0.00000000000E+00  0.00000000000E+00  0.11098130223E+04  0.11098130223E+04  0.25500000920E-02 0.  1.
        2   -1    0    0  501    0  0.00000000000E+00  0.00000000000E+00 -0.16640623665E+04  0.16640623665E+04  0.25500000920E-02 0. -1.
    10030    2    1    2    0    0  0.00000000000E+00  0.00000000000E+00 -0.55424934418E+03  0.27738753888E+04  0.27179389870E+04 0.  0.
        1    1    3    3  502    0 -0.11596375926E+04 -0.66079962234E+03 -0.16162037544E+02  0.13347946278E+04  0.50400001928E-02 0.  1.
       -1    1    3    3    0  502  0.11596375926E+04  0.66079962234E+03 -0.53808730663E+03  0.14390807610E+04  0.50400001928E-02 0. -1.
</event>
<event>
 5   0  0.3438130E-06  0.2784391E+04  0.7818609E-02  0.8308131E-01
       -1   -1    0    0    0  501  0.00000000000E+00  0.00000000000E+00  0.11781435334E+04  0.11781435335E+04  0.50400001928E-02 0. -1.
        1   -1    0    0  501    0  0.00000000000E+00  0.00000000000E+00 -0.16451374344E+04  0.16451374345E+04  0.50400001928E-02 0.  1.
    10030    2    1    2    0    0  0.00000000000E+00  0.00000000000E+00 -0.46699390100E+03  0.28232809679E+04  0.27843907988E+04 0.  0.
        3    1    3    3  502    0 -0.77524519146E+03 -0.63320184772E+03 -0.12146161142E+04  0.15739256659E+04  0.10100000352E+00 0.  1.
       -3    1    3    3    0  502  0.77524519146E+03  0.63320184772E+03  0.74762221315E+03  0.12493553020E+04  0.10100000352E+00 0. -1.
</event>
<event>
 5   0  0.3371603E-06  0.2794190E+04  0.7818609E-02  0.8305074E-01
        1   -1    0    0  501    0  0.00000000000E+00  0.00000000000E+00  0.22922204437E+04  0.22922204437E+04  0.50400001928E-02 0. -1.
       -1   -1    0    0    0  501  0.00000000000E+00  0.00000000000E+00 -0.85152121025E+03  0.85152121027E+03  0.50400001928E-02 0.  1.
    10030    2    1    2    0    0  0.00000000000E+00  0.00000000000E+00  0.14406992334E+04  0.31437416539E+04  0.27941899194E+04 0.  0.
        1    1    3    3  502    0 -0.15275273181E+03  0.10701490939E+04 -0.27542499043E+03  0.11155318936E+04  0.50400001928E-02 0.  1.
       -1    1    3    3    0  502  0.15275273181E+03 -0.10701490939E+04  0.17161242238E+04  0.20282097603E+04  0.50400001928E-02 0. -1.
</event>
<event>
 5   0  0.3438130E-06  0.2791566E+04  0.7818609E-02  0.8305892E-01
        1   -1    0    0  501    0  0.00000000000E+00  0.00000000000E+00  0.25921964569E+04  0.25921964569E+04  0.50400001928E-02 0. -1.
       -1   -1    0    0    0  501  0.00000000000E+00  0.00000000000E+00 -0.75156737326E+03  0.75156737328E+03  0.50400001928E-02 0.  1.
    10030    2    1    2    0    0  0.00000000000E+00  0.00000000000E+00  0.18406290836E+04  0.33437638301E+04  0.27915660709E+04 0.  0.
        3    1    3    3  502    0 -0.42919435498E+03 -0.75921718562E+03 -0.38501831262E+03  0.95334025434E+03  0.10100000352E+00 0.  1.
       -3    1    3    3    0  502  0.42919435498E+03  0.75921718562E+03  0.22256473962E+04  0.23904235758E+04  0.10100000352E+00 0. -1.
</event>
<event>
 5   0  0.9065579E-06  0.2724058E+04  0.7818609E-02  0.8327241E-01
        2   -1    0    0  501    0  0.00000000000E+00  0.00000000000E+00  0.21150859903E+04  0.21150859903E+04  0.25500000920E-02 0.  1.
       -2   -1    0    0    0  501  0.00000000000E+00  0.00000000000E+00 -0.87709111931E+03  0.87709111931E+03  0.25500000920E-02 0. -1.
    10030    2    1    2    0    0  0.00000000000E+00  0.00000000000E+00  0.12379948710E+04  0.29921771096E+04  0.27240581041E+04 0.  0.
        3    1    3    3  502    0 -0.32553182292E+03  0.11276334768E+04  0.13781005458E+04  0.18101627966E+04  0.10100000352E+00 0.  1.
       -3    1    3    3    0  502  0.32553182292E+03 -0.11276334768E+04 -0.14010567489E+03  0.11820143129E+04  0.10100000352E+00 0. -1.
</event>
<event>
 5   0  0.9342133E-06  0.2806702E+04  0.7818609E-02  0.8301191E-01
       -2   -1    0    0    0  501  0.00000000000E+00  0.00000000000E+00  0.88575434874E+03  0.88575434875E+03  0.25500000920E-02 0.  1.
        2   -1    0    0  501    0  0.00000000000E+00  0.00000000000E+00 -0.22234085219E+04  0.22234085219E+04  0.25500000920E-02 0. -1.
    10030    2    1    2    0    0  0.00000000000E+00  0.00000000000E+00 -0.13376541732E+04  0.31091628707E+04  0.28067018134E+04 0.  0.
        2    1    3    3  502    0  0.13542045701E+03 -0.12240398297E+04 -0.14142308214E+04  0.18752762519E+04  0.25500000920E-02 0.  1.
       -2    1    3    3    0  502 -0.13542045701E+03  0.12240398297E+04  0.76576648224E+02  0.12338866187E+04  0.25500000920E-02 0. -1.
</event>
<event>
 5   0  0.3357244E-06  0.2840502E+04  0.7818609E-02  0.8290803E-01
        1   -1    0    0  501    0  0.00000000000E+00  0.00000000000E+00  0.11585497520E+04  0.11585497521E+04  0.50400001928E-02 0. -1.
       -1   -1    0    0    0  501  0.00000000000E+00  0.00000000000E+00 -0.17410674711E+04  0.17410674711E+04  0.50400001928E-02 0.  1.
    10030    2    1    2    0    0  0.00000000000E+00  0.00000000000E+00 -0.58251771906E+03  0.28996172232E+04  0.28405022703E+04 0.  0.
        4    1    3    3  502    0 -0.94925963514E+03  0.10517934072E+04 -0.39204788872E+03  0.14700565929E+04  0.12699999809E+01 0.  1.
       -4    1    3    3    0  502  0.94925963514E+03 -0.10517934072E+04 -0.19046983034E+03  0.14295606303E+04  0.12699999809E+01 0. -1.
</event>
<event>
 5   0  0.9260173E-06  0.2815859E+04  0.7818609E-02  0.8298362E-01
       -2   -1    0    0    0  501  0.00000000000E+00  0.00000000000E+00  0.11672974375E+04  0.11672974375E+04  0.25500000920E-02 0. -1.
        2   -1    0    0  501    0  0.00000000000E+00  0.00000000000E+00 -0.16981665548E+04  0.16981665548E+04  0.25500000920E-02 0.  1.
    10030    2    1    2    0    0  0.00000000000E+00  0.00000000000E+00 -0.53086911725E+03  0.28654639923E+04  0.28158589935E+04 0.  0.
        1    1    3    3  502    0 -0.10907946644E+04  0.89001582284E+03 -0.28318614406E+03  0.14360207370E+04  0.50400001928E-02 0.  1.
       -1    1    3    3    0  502  0.10907946644E+04 -0.89001582284E+03 -0.24768297319E+03  0.14294432553E+04  0.50400001928E-02 0. -1.
</event>
<event>
 5   0  0.3397882E-06  0.2786310E+04  0.7818609E-02  0.8307531E-01
        1   -1    0    0  501    0  0.00000000000E+00  0.00000000000E+00  0.18314648439E+04  0.18314648439E+04  0.50400001928E-02 0. -1.
       -1   -1    0    0    0  501  0.00000000000E+00  0.00000000000E+00 -0.10597420101E+04  0.10597420101E+04  0.50400001928E-02 0.  1.
    10030    2    1    2    0    0  0.00000000000E+00  0.00000000000E+00  0.77172283388E+03  0.28912068540E+04  0.27863095557E+04 0.  0.
        2    1    3    3  502    0 -0.12644957899E+04  0.51382465380E+03  0.67550235181E+03  0.15229145757E+04  0.25500000920E-02 0. -1.
       -2    1    3    3    0  502  0.12644957899E+04 -0.51382465380E+03  0.96220482068E+02  0.13682922783E+04  0.25500000920E-02 0.  1.
</event>
<event>
 5   0  0.3357244E-06  0.2848384E+04  0.7818609E-02  0.8288403E-01
       -1   -1    0    0    0  501  0.00000000000E+00  0.00000000000E+00  0.11204223989E+04  0.11204223989E+04  0.50400001928E-02 0. -1.
        1   -1    0    0  501    0  0.00000000000E+00  0.00000000000E+00 -0.18103198255E+04  0.18103198255E+04  0.50400001928E-02 0.  1.
    10030    2    1    2    0    0  0.00000000000E+00  0.00000000000E+00 -0.68989742661E+03  0.29307422245E+04  0.28483840203E+04 0.  0.
        4    1    3    3  502    0 -0.80376957939E+02 -0.10374787922E+04 -0.13454312645E+04  0.17008849461E+04  0.12699999809E+01 0.  1.
       -4    1    3    3    0  502  0.80376957939E+02  0.10374787922E+04  0.65553383791E+03  0.12298572783E+04  0.12699999809E+01 0. -1.
</event>
<event>
 5   0  0.9260173E-06  0.2838919E+04  0.7818609E-02  0.8291286E-01
        2   -1    0    0  501    0  0.00000000000E+00  0.00000000000E+00  0.19161073032E+04  0.19161073032E+04  0.25500000920E-02 0. -1.
       -2   -1    0    0    0  501  0.00000000000E+00  0.00000000000E+00 -0.10515410036E+04  0.10515410036E+04  0.25500000920E-02 0.  1.
    10030    2    1    2    0    0  0.00000000000E+00  0.00000000000E+00  0.86456629959E+03  0.29676483068E+04  0.28389190876E+04 0.  0.
        1    1    3    3  502    0  0.18373226745E+03 -0.14074364948E+04  0.41641719349E+03  0.14792019173E+04  0.50400001928E-02 0. -1.
       -1    1    3    3    0  502 -0.18373226745E+03  0.14074364948E+04  0.44814910610E+03  0.14884463895E+04  0.50400001928E-02 0.  1.
</event>
<event>
 5   0  0.3371603E-06  0.2747859E+04  0.7818609E-02  0.8319641E-01
       -1   -1    0    0    0  501  0.00000000000E+00  0.00000000000E+00  0.73210306738E+03  0.73210306740E+03  0.50400001928E-02 0. -1.
        1   -1    0    0  501    0  0.00000000000E+00  0.00000000000E+00 -0.25784376226E+04  0.25784376226E+04  0.50400001928E-02 0.  1.
    10030    2    1    2    0    0  0.00000000000E+00  0.00000000000E+00 -0.18463345552E+04  0.33105406900E+04  0.27478588702E+04 0.  0.
        1    1    3    3  502    0  0.22171758243E+03  0.43415205041E+03  0.62440570003E+03  0.79216738603E+03  0.50400001928E-02 0. -1.
       -1    1    3    3    0  502 -0.22171758243E+03 -0.43415205041E+03 -0.24707402553E+04  0.25183733040E+04  0.50400001928E-02 0.  1.
</event>
<event>
 5   0  0.9260173E-06  0.2808711E+04  0.7818609E-02  0.8300569E-01
       -2   -1    0    0    0  501  0.00000000000E+00  0.00000000000E+00  0.33249412949E+04  0.33249412949E+04  0.25500000920E-02 0.  1.
        2   -1    0    0  501    0  0.00000000000E+00  0.00000000000E+00 -0.59315753881E+03  0.59315753882E+03  0.25500000920E-02 0. -1.
    10030    2    1    2    0    0  0.00000000000E+00  0.00000000000E+00  0.27317837561E+04  0.39180988337E+04  0.28087107328E+04 0.  0.
        1    1    3    3  502    0 -0.83844103317E+03 -0.97633812616E+03  0.21500580974E+04  0.25057871667E+04  0.50400001928E-02 0.  1.
       -1    1    3    3    0  502  0.83844103317E+03  0.97633812616E+03  0.58172565866E+03  0.14123116670E+04  0.50400001928E-02 0. -1.
</event>
<event>
 5   0  0.3357244E-06  0.2849150E+04  0.7818609E-02  0.8288170E-01
       -1   -1    0    0    0  501  0.00000000000E+00  0.00000000000E+00  0.76232224620E+03  0.76232224622E+03  0.50400001928E-02 0.  1.
        1   -1    0    0  501    0  0.00000000000E+00  0.00000000000E+00 -0.26621462068E+04  0.26621462068E+04  0.50400001928E-02 0. -1.
    10030    2    1    2    0    0  0.00000000000E+00  0.00000000000E+00 -0.18998239606E+04  0.34244684530E+04  0.28491495406E+04 0.  0.
        4    1    3    3  502    0 -0.14241472859E+04 -0.31957118312E+02 -0.93313169765E+03  0.17029248743E+04  0.12699999809E+01 0. -1.
       -4    1    3    3    0  502  0.14241472859E+04  0.31957118312E+02 -0.96669226297E+03  0.17215435788E+04  0.12699999809E+01 0.  1.
</event>
<event>
 5   0  0.9342133E-06  0.2712832E+04  0.7818609E-02  0.8330853E-01
        2   -1    0    0  501    0  0.00000000000E+00  0.00000000000E+00  0.19478649008E+04  0.19478649008E+04  0.25500000920E-02 0. -1.
       -2   -1    0    0    0  501  0.00000000000E+00  0.00000000000E+00 -0.94455435967E+03  0.94455435968E+03  0.25500000920E-02 0.  1.
    10030    2    1    2    0    0  0.00000000000E+00  0.00000000000E+00  0.10033105411E+04  0.28924192604E+04  0.27128319403E+04 0.  0.
        2    1    3    3  502    0  0.49805615244E+03  0.12419298960E+04  0.26464591053E+03  0.13639967946E+04  0.25500000920E-02 0. -1.
       -2    1    3    3    0  502 -0.49805615244E+03 -0.12419298960E+04  0.73866463055E+03  0.15284224658E+04  0.25500000920E-02 0.  1.
</event>
<event>
 5   0  0.9342133E-06  0.2791845E+04  0.7818609E-02  0.8305805E-01
       -2   -1    0    0    0  501  0.00000000000E+00  0.00000000000E+00  0.14460066335E+04  0.14460066335E+04  0.25500000920E-02 0.  1.
        2   -1    0    0  501    0  0.00000000000E+00  0.00000000000E+00 -0.13475726902E+04  0.13475726902E+04  0.25500000920E-02 0. -1.
    10030    2    1    2    0    0  0.00000000000E+00  0.00000000000E+00  0.98433943294E+02  0.27935793237E+04  0.27918445868E+04 0.  0.
        2    1    3    3  502    0  0.13110210181E+04  0.47518992153E+03 -0.14205989087E+02  0.13945549044E+04  0.25500000920E-02 0.  1.
       -2    1    3    3    0  502 -0.13110210181E+04 -0.47518992153E+03  0.11263993238E+03  0.13990244193E+04  0.25500000920E-02 0. -1.
</event>
<event>
 5   0  0.3357244E-06  0.2800955E+04  0.7818609E-02  0.8302972E-01
        1   -1    0    0  501    0  0.00000000000E+00  0.00000000000E+00  0.17539565606E+04  0.17539565606E+04  0.50400001928E-02 0. -1.
       -1   -1    0    0    0  501  0.00000000000E+00  0.00000000000E+00 -0.11182356815E+04  0.11182356815E+04  0.50400001928E-02 0.  1.
    10030    2    1    2    0    0  0.00000000000E+00  0.00000000000E+00  0.63572087906E+03  0.28721922421E+04  0.28009547014E+04 0.  0.
        4    1    3    3  502    0  0.12203766236E+04  0.10579944072E+03 -0.37824382003E+03  0.12820228646E+04  0.12699999809E+01 0.  1.
       -4    1    3    3    0  502 -0.12203766236E+04 -0.10579944072E+03  0.10139646991E+04  0.15901693775E+04  0.12699999809E+01 0. -1.
</event>
<event>
 5   0  0.3600963E-06  0.2776781E+04  0.7818609E-02  0.8310513E-01
       -1   -1    0    0    0  501  0.00000000000E+00  0.00000000000E+00  0.97061104266E+03  0.97061104267E+03  0.50400001928E-02 0. -1.
        1   -1    0    0  501    0  0.00000000000E+00  0.00000000000E+00 -0.19859946779E+04  0.19859946779E+04  0.50400001928E-02 0.  1.
    10030    2    1    2    0    0  0.00000000000E+00  0.00000000000E+00 -0.10153836353E+04  0.29566057206E+04  0.27767811330E+04 0.  0.
        5    1    3    3  502    0  0.51702787119E+03  0.56968863211E+03 -0.17382814963E+04  0.19009228305E+04  0.46999998093E+01 0.  1.
       -5    1    3    3    0  502 -0.51702787119E+03 -0.56968863211E+03  0.72289786098E+03  0.10556828901E+04  0.46999998093E+01 0. -1.
</event>
<event>
 5   0  0.3397882E-06  0.2798168E+04  0.7818609E-02  0.8303837E-01
       -1   -1    0    0    0  501  0.00000000000E+00  0.00000000000E+00  0.13865527156E+04  0.13865527156E+04  0.50400001928E-02 0.  1.
        1   -1    0    0  501    0  0.00000000000E+00  0.00000000000E+00 -0.14117284976E+04  0.14117284976E+04  0.50400001928E-02 0. -1.
    10030    2    1    2    0    0  0.00000000000E+00  0.00000000000E+00 -0.25175782028E+02  0.27982812132E+04  0.27981679593E+04 0.  0.
        2    1    3    3  502    0 -0.26434455853E+03 -0.24618624868E+03 -0.13642898402E+04  0.14113016980E+04  0.25500000920E-02 0. -1.
       -2    1    3    3    0  502  0.26434455853E+03  0.24618624868E+03  0.13391140582E+04  0.13869795152E+04  0.25500000920E-02 0.  1.
</event>
<event>
 5   0  0.9065579E-06  0.2860540E+04  0.7818609E-02  0.8284716E-01
       -2   -1    0    0    0  501  0.00000000000E+00  0.00000000000E+00  0.83489710289E+03  0.83489710289E+03  0.25500000920E-02 0. -1.
        2   -1    0    0  501    0  0.00000000000E+00  0.00000000000E+00 -0.24502095400E+04  0.24502095400E+04  0.25500000920E-02 0.  1.
    10030    2    1    2    0    0  0.00000000000E+00  0.00000000000E+00 -0.16153124371E+04  0.32851066429E+04  0.28605404010E+04 0.  0.
        3    1    3    3  502    0  0.62992905189E+03 -0.53795941711E+03  0.53135712676E+03  0.98415006540E+03  0.10100000352E+00 0. -1.
       -3    1    3    3    0  502 -0.62992905189E+03  0.53795941711E+03 -0.21466695638E+04  0.23009565775E+04  0.10100000352E+00 0.  1.
</event>
<event>
 5   0  0.3397882E-06  0.2799909E+04  0.7818609E-02  0.8303297E-01
        1   -1    0    0  501    0  0.00000000000E+00  0.00000000000E+00  0.13039232123E+04  0.13039232124E+04  0.50400001928E-02 0.  1.
       -1   -1    0    0    0  501  0.00000000000E+00  0.00000000000E+00 -0.15030580144E+04  0.15030580144E+04  0.50400001928E-02 0. -1.
    10030    2    1    2    0    0  0.00000000000E+00  0.00000000000E+00 -0.19913480204E+03  0.28069812268E+04  0.27999087374E+04 0.  0.
        2    1    3    3  502    0 -0.13560467955E+03 -0.12294907732E+04 -0.75684230066E+03  0.14501194635E+04  0.25500000920E-02 0. -1.
       -2    1    3    3    0  502  0.13560467955E+03  0.12294907732E+04  0.55770749862E+03  0.13568617632E+04  0.25500000920E-02 0.  1.
</event>
<event>
 5   0  0.3371603E-06  0.2807114E+04  0.7818609E-02  0.8301063E-01
        1   -1    0    0  501    0  0.00000000000E+00  0.00000000000E+00  0.88448689028E+03  0.88448689030E+03  0.50400001928E-02 0. -1.
       -1   -1    0    0    0  501  0.00000000000E+00  0.00000000000E+00 -0.22272487861E+04  0.22272487861E+04  0.50400001928E-02 0.  1.
    10030    2    1    2    0    0  0.00000000000E+00  0.00000000000E+00 -0.13427618958E+04  0.31117356764E+04  0.28071140716E+04 0.  0.
        1    1    3    3  502    0  0.29512219441E+03 -0.13692491527E+04 -0.77072789255E+03  0.15987375757E+04  0.50400001928E-02 0. -1.
       -1    1    3    3    0  502 -0.29512219441E+03  0.13692491527E+04 -0.57203400327E+03  0.15129981007E+04  0.50400001928E-02 0.  1.
</event>
<event>
 5   0  0.9260173E-06  0.2790766E+04  0.7818609E-02  0.8306141E-01
        2   -1    0    0  501    0  0.00000000000E+00  0.00000000000E+00  0.95556863512E+03  0.95556863512E+03  0.25500000920E-02 0. -1.
       -2   -1    0    0    0  501  0.00000000000E+00  0.00000000000E+00 -0.20376277675E+04  0.20376277675E+04  0.25500000920E-02 0.  1.
    10030    2    1    2    0    0  0.00000000000E+00  0.00000000000E+00 -0.10820591324E+04  0.29931964026E+04  0.27907656187E+04 0.  0.
        1    1    3    3  502    0 -0.36815461060E+03 -0.99863745729E+02  0.89856082734E+03  0.97617731251E+03  0.50400001928E-02 0. -1.
       -1    1    3    3    0  502  0.36815461060E+03  0.99863745729E+02 -0.19806199597E+04  0.20170190901E+04  0.50400001928E-02 0.  1.
</event>
<event>
 5   0  0.3006875E-06  0.2824901E+04  0.7818609E-02  0.8295579E-01
        3   -1    0    0  501    0  0.00000000000E+00  0.00000000000E+00  0.80665705157E+03  0.80665705789E+03  0.10100000352E+00 0. -1.
       -3   -1    0    0    0  501  0.00000000000E+00  0.00000000000E+00 -0.24731906539E+04  0.24731906559E+04  0.10100000352E+00 0.  1.
    10030    2    1    2    0    0  0.00000000000E+00  0.00000000000E+00 -0.16665336023E+04  0.32798477138E+04  0.28249011980E+04 0.  0.
        4    1    3    3  502    0 -0.19197083960E+03 -0.11379214392E+04  0.11232665551E+03  0.11594554306E+04  0.12699999809E+01 0. -1.
       -4    1    3    3    0  502  0.19197083960E+03  0.11379214392E+04 -0.17788602578E+04  0.21203922832E+04  0.12699999809E+01 0.  1.
</event>
<event>
 5   0  0.3600963E-06  0.2854739E+04  0.7818609E-02  0.8286473E-01
        1   -1    0    0  501    0  0.00000000000E+00  0.00000000000E+00  0.20482529908E+04  0.20482529908E+04  0.50400001928E-02 0. -1.
       -1   -1    0    0    0  501  0.00000000000E+00  0.00000000000E+00 -0.99469352632E+03  0.99469352633E+03  0.50400001928E-02 0.  1.
    10030    2    1    2    0    0  0.00000000000E+00  0.00000000000E+00  0.10535594645E+04  0.30429465172E+04  0.28547392107E+04 0.  0.
        5    1    3    3  502    0 -0.37268202149E+03  0.12831843877E+04  0.10617734959E+04  0.17067041655E+04  0.46999998093E+01 0. -1.
       -5    1    3    3    0  502  0.37268202149E+03 -0.12831843877E+04 -0.82140314294E+01  0.13362423516E+04  0.46999998093E+01 0.  1.
</event>
<event>
 5   0  0.9342133E-06  0.2775188E+04  0.7818609E-02  0.8311013E-01
        2   -1    0    0  501    0  0.00000000000E+00  0.00000000000E+00  0.22244062819E+04  0.22244062819E+04  0.25500000920E-02 0. -1.
       -2   -1    0    0    0  501  0.00000000000E+00  0.00000000000E+00 -0.86558675742E+03  0.86558675742E+03  0.25500000920E-02 0.  1.
    10030    2    1    2    0    0  0.00000000000E+00  0.00000000000E+00  0.13588195245E+04  0.30899930393E+04  0.27751876482E+04 0.  0.
        2    1    3    3  502    0 -0.79623012703E+03 -0.11211054591E+03  0.19385600564E+04  0.20987058589E+04  0.25500000920E-02 0. -1.
       -2    1    3    3    0  502  0.79623012703E+03  0.11211054591E+03 -0.57974053196E+03  0.99128718044E+03  0.25500000920E-02 0.  1.
</event>
<event>
 5   0  0.9342133E-06  0.2793703E+04  0.7818609E-02  0.8305226E-01
        2   -1    0    0  501    0  0.00000000000E+00  0.00000000000E+00  0.22887431053E+04  0.22887431053E+04  0.25500000920E-02 0. -1.
       -2   -1    0    0    0  501  0.00000000000E+00  0.00000000000E+00 -0.85251767885E+03  0.85251767885E+03  0.25500000920E-02 0.  1.
    10030    2    1    2    0    0  0.00000000000E+00  0.00000000000E+00  0.14362254264E+04  0.31412607841E+04  0.27937028901E+04 0.  0.
        2    1    3    3  502    0  0.13732162242E+04 -0.21570929638E+03  0.56336603423E+03  0.14998781909E+04  0.25500000920E-02 0. -1.
       -2    1    3    3    0  502 -0.13732162242E+04  0.21570929638E+03  0.87285939217E+03  0.16413825932E+04  0.25500000920E-02 0.  1.
</event>
<event>
 5   0  0.3438130E-06  0.2802791E+04  0.7818609E-02  0.8302402E-01
       -1   -1    0    0    0  501  0.00000000000E+00  0.00000000000E+00  0.90889539527E+03  0.90889539528E+03  0.50400001928E-02 0. -1.
        1   -1    0    0  501    0  0.00000000000E+00  0.00000000000E+00 -0.21607656720E+04  0.21607656720E+04  0.50400001928E-02 0.  1.
    10030    2    1    2    0    0  0.00000000000E+00  0.00000000000E+00 -0.12518702767E+04  0.30696610673E+04  0.28027914440E+04 0.  0.
        3    1    3    3  502    0 -0.59186995070E+03 -0.83873311609E+03  0.41890672745E+03  0.11087227494E+04  0.10100000352E+00 0. -1.
       -3    1    3    3    0  502  0.59186995070E+03  0.83873311609E+03 -0.16707770042E+04  0.19609383179E+04  0.10100000352E+00 0.  1.
</event>
<event>
 5   0  0.9252359E-06  0.2815232E+04  0.7818609E-02  0.8298555E-01
        2   -1    0    0  501    0  0.00000000000E+00  0.00000000000E+00  0.15696456367E+04  0.15696456367E+04  0.25500000920E-02 0.  1.
       -2   -1    0    0    0  501  0.00000000000E+00  0.00000000000E+00 -0.12623119720E+04  0.12623119720E+04  0.25500000920E-02 0. -1.
    10030    2    1    2    0    0  0.00000000000E+00  0.00000000000E+00  0.30733366466E+03  0.28319576087E+04  0.28152317695E+04 0.  0.
        5    1    3    3  502    0  0.97281151107E+03  0.59527536477E+03  0.98358075047E+03  0.15060438834E+04  0.46999998093E+01 0.  1.
       -5    1    3    3    0  502 -0.97281151107E+03 -0.59527536477E+03 -0.67624708581E+03  0.13259137253E+04  0.46999998093E+01 0. -1.
</event>
<event>
 5   0  0.3357244E-06  0.2756785E+04  0.7818609E-02  0.8316812E-01
       -1   -1    0    0    0  501  0.00000000000E+00  0.00000000000E+00  0.72157358215E+03  0.72157358217E+03  0.50400001928E-02 0.  1.
        1   -1    0    0  501    0  0.00000000000E+00  0.00000000000E+00 -0.26330869235E+04  0.26330869235E+04  0.50400001928E-02 0. -1.
    10030    2    1    2    0    0  0.00000000000E+00  0.00000000000E+00 -0.19115133413E+04  0.33546605057E+04  0.27567850577E+04 0.  0.
        4    1    3    3  502    0  0.12112789258E+04 -0.25996720400E+03 -0.16911200468E+04  0.20963463953E+04  0.12699999809E+01 0. -1.
       -4    1    3    3    0  502 -0.12112789258E+04  0.25996720400E+03 -0.22039329452E+03  0.12583141104E+04  0.12699999809E+01 0.  1.
</event>
<event>
 5   0  0.9342133E-06  0.3124775E+04  0.7818609E-02  0.8208971E-01
        2   -1    0    0  501    0  0.00000000000E+00  0.00000000000E+00  0.11060958912E+04  0.11060958912E+04  0.25500000920E-02 0. -1.
       -2   -1    0    0    0  501  0.00000000000E+00  0.00000000000E+00 -0.22069098806E+04  0.22069098806E+04  0.25500000920E-02 0.  1.
    10030    2    1    2    0    0  0.00000000000E+00  0.00000000000E+00 -0.11008139894E+04  0.33130057718E+04  0.31247745206E+04 0.  0.
        2    1    3    3  502    0  0.76502708484E+03  0.12318310844E+04  0.66338026193E+02  0.14515767271E+04  0.25500000920E-02 0. -1.
       -2    1    3    3    0  502 -0.76502708484E+03 -0.12318310844E+04 -0.11671520156E+04  0.18614290447E+04  0.25500000920E-02 0.  1.
</event>
<event>
 5   0  0.3600963E-06  0.2787273E+04  0.7818609E-02  0.8307230E-01
       -1   -1    0    0    0  501  0.00000000000E+00  0.00000000000E+00  0.12464478233E+04  0.12464478233E+04  0.50400001928E-02 0. -1.
        1   -1    0    0  501    0  0.00000000000E+00  0.00000000000E+00 -0.15582063103E+04  0.15582063103E+04  0.50400001928E-02 0.  1.
    10030    2    1    2    0    0  0.00000000000E+00  0.00000000000E+00 -0.31175848701E+03  0.28046541337E+04  0.27872731217E+04 0.  0.
        5    1    3    3  502    0  0.68630179196E+03  0.84905334423E+03  0.71572027494E+03  0.13054421982E+04  0.46999998093E+01 0. -1.
       -5    1    3    3    0  502 -0.68630179196E+03 -0.84905334423E+03 -0.10274787620E+04  0.14992119354E+04  0.46999998093E+01 0.  1.
</event>
<event>
 5   0  0.3006875E-06  0.2798846E+04  0.7818609E-02  0.8303627E-01
       -3   -1    0    0    0  501  0.00000000000E+00  0.00000000000E+00  0.11695616259E+04  0.11695616302E+04  0.10100000352E+00 0.  1.
        3   -1    0    0  501    0  0.00000000000E+00  0.00000000000E+00 -0.16744600498E+04  0.16744600529E+04  0.10100000352E+00 0. -1.
    10030    2    1    2    0    0  0.00000000000E+00  0.00000000000E+00 -0.50489842395E+03  0.28440216831E+04  0.27988456398E+04 0.  0.
        1    1    3    3  502    0  0.55293050307E+03 -0.92283959742E+03  0.65699363096E+03  0.12605576920E+04  0.50400001928E-02 0.  1.
       -1    1    3    3    0  502 -0.55293050307E+03  0.92283959742E+03 -0.11618920549E+04  0.15834639911E+04  0.50400001928E-02 0. -1.
</event>
<event>
 5   0  0.3397882E-06  0.2879484E+04  0.7818609E-02  0.8279008E-01
       -1   -1    0    0    0  501  0.00000000000E+00  0.00000000000E+00  0.11370489568E+04  0.11370489569E+04  0.50400001928E-02 0.  1.
        1   -1    0    0  501    0  0.00000000000E+00  0.00000000000E+00 -0.18230147872E+04  0.18230147872E+04  0.50400001928E-02 0. -1.
    10030    2    1    2    0    0  0.00000000000E+00  0.00000000000E+00 -0.68596583034E+03  0.29600637440E+04  0.28794840247E+04 0.  0.
        2    1    3    3  502    0  0.82242611351E+03  0.86963812252E+03 -0.11654998808E+04  0.16706421366E+04  0.25500000920E-02 0. -1.
       -2    1    3    3    0  502 -0.82242611351E+03 -0.86963812252E+03  0.47953405044E+03  0.12894216075E+04  0.25500000920E-02 0.  1.
</event>
<event>
 5   0  0.3600963E-06  0.2862516E+04  0.7818609E-02  0.8284118E-01
       -1   -1    0    0    0  501  0.00000000000E+00  0.00000000000E+00  0.97432008567E+03  0.97432008569E+03  0.50400001928E-02 0.  1.
        1   -1    0    0  501    0  0.00000000000E+00  0.00000000000E+00 -0.21024905897E+04  0.21024905897E+04  0.50400001928E-02 0. -1.
    10030    2    1    2    0    0  0.00000000000E+00  0.00000000000E+00 -0.11281705041E+04  0.30768106754E+04  0.28625155451E+04 0.  0.
        5    1    3    3  502    0  0.66744058821E+03 -0.55920442063E+02  0.79546614977E+03  0.10399002452E+04  0.46999998093E+01 0.  1.
       -5    1    3    3    0  502 -0.66744058821E+03  0.55920442063E+02 -0.19236366538E+04  0.20369104302E+04  0.46999998093E+01 0. -1.
</event>
<event>
 5   0  0.9342133E-06  0.2818938E+04  0.7818609E-02  0.8297413E-01
       -2   -1    0    0    0  501  0.00000000000E+00  0.00000000000E+00  0.11270800186E+04  0.11270800186E+04  0.25500000920E-02 0.  1.
        2   -1    0    0  501    0  0.00000000000E+00  0.00000000000E+00 -0.17626098353E+04  0.17626098353E+04  0.25500000920E-02 0. -1.
    10030    2    1    2    0    0  0.00000000000E+00  0.00000000000E+00 -0.63552981671E+03  0.28896898539E+04  0.28189376197E+04 0.  0.
        2    1    3    3  502    0  0.87966442002E+03 -0.20533491713E+03 -0.14268775815E+04  0.16887722027E+04  0.25500000920E-02 0. -1.
       -2    1    3    3    0  502 -0.87966442002E+03  0.20533491713E+03  0.79134776481E+03  0.12009176512E+04  0.25500000920E-02 0.  1.
</event>
<event>
 5   0  0.9342133E-06  0.2952035E+04  0.7818609E-02  0.8257562E-01
        2   -1    0    0  501    0  0.00000000000E+00  0.00000000000E+00  0.17018878576E+04  0.17018878576E+04  0.25500000920E-02 0.  1.
       -2   -1    0    0    0  501  0.00000000000E+00  0.00000000000E+00 -0.12801238008E+04  0.12801238008E+04  0.25500000920E-02 0. -1.
    10030    2    1    2    0    0  0.00000000000E+00  0.00000000000E+00  0.42176405675E+03  0.29820116584E+04  0.29520346562E+04 0.  0.
        2    1    3    3  502    0 -0.14437735997E+04  0.28701379059E+03  0.32046416514E+03  0.15065046977E+04  0.25500000920E-02 0.  1.
       -2    1    3    3    0  502  0.14437735997E+04 -0.28701379059E+03  0.10129989161E+03  0.14755069607E+04  0.25500000920E-02 0. -1.
</event>
<event>
 5   0  0.3357244E-06  0.2804452E+04  0.7818609E-02  0.8301888E-01
        1   -1    0    0  501    0  0.00000000000E+00  0.00000000000E+00  0.19967516220E+04  0.19967516220E+04  0.50400001928E-02 0.  1.
       -1   -1    0    0    0  501  0.00000000000E+00  0.00000000000E+00 -0.98471818458E+03  0.98471818459E+03  0.50400001928E-02 0. -1.
    10030    2    1    2    0    0  0.00000000000E+00  0.00000000000E+00  0.10120334374E+04  0.29814698066E+04  0.28044519124E+04 0.  0.
        4    1    3    3  502    0  0.16076778148E+03 -0.58659009467E+03  0.18492143577E+04  0.19466714084E+04  0.12699999809E+01 0.  1.
       -4    1    3    3    0  502 -0.16076778148E+03  0.58659009467E+03 -0.83718092027E+03  0.10347983982E+04  0.12699999809E+01 0. -1.
</event>
<event>
 5   0  0.9426937E-06  0.2808647E+04  0.7818609E-02  0.8300589E-01
        2   -1    0    0  501    0  0.00000000000E+00  0.00000000000E+00  0.19619276022E+04  0.19619276022E+04  0.25500000920E-02 0. -1.
       -2   -1    0    0    0  501  0.00000000000E+00  0.00000000000E+00 -0.10051972148E+04  0.10051972148E+04  0.25500000920E-02 0.  1.
    10030    2    1    2    0    0  0.00000000000E+00  0.00000000000E+00  0.95673038734E+03  0.29671248170E+04  0.28086467641E+04 0.  0.
        4    1    3    3  502    0 -0.40459893065E+03 -0.83005160800E+03 -0.63936875264E+03  0.11231562587E+04  0.12699999809E+01 0.  1.
       -4    1    3    3    0  502  0.40459893065E+03  0.83005160800E+03  0.15960991400E+04  0.18439685583E+04  0.12699999809E+01 0. -1.
</event>
<event>
 5   0  0.3006875E-06  0.2816194E+04  0.7818609E-02  0.8298258E-01
       -3   -1    0    0    0  501  0.00000000000E+00  0.00000000000E+00  0.12936938961E+04  0.12936939000E+04  0.10100000352E+00 0. -1.
        3   -1    0    0  501    0  0.00000000000E+00  0.00000000000E+00 -0.15326166082E+04  0.15326166115E+04  0.10100000352E+00 0.  1.
    10030    2    1    2    0    0  0.00000000000E+00  0.00000000000E+00 -0.23892271211E+03  0.28263105115E+04  0.28161937158E+04 0.  0.
        4    1    3    3  502    0  0.13684319582E+04 -0.15137213715E+03 -0.41584513811E+03  0.14382101167E+04  0.12699999809E+01 0.  1.
       -4    1    3    3    0  502 -0.13684319582E+04  0.15137213715E+03  0.17692242600E+03  0.13881003947E+04  0.12699999809E+01 0. -1.
</event>
<event>
 5   0  0.3438130E-06  0.2808442E+04  0.7818609E-02  0.8300652E-01
        1   -1    0    0  501    0  0.00000000000E+00  0.00000000000E+00  0.19077696519E+04  0.19077696519E+04  0.50400001928E-02 0.  1.
       -1   -1    0    0    0  501  0.00000000000E+00  0.00000000000E+00 -0.10335820034E+04  0.10335820035E+04  0.50400001928E-02 0. -1.
    10030    2    1    2    0    0  0.00000000000E+00  0.00000000000E+00  0.87418764841E+03  0.29413516553E+04  0.28084418306E+04 0.  0.
        3    1    3    3  502    0 -0.10850084431E+01 -0.12246359900E+04 -0.28251981058E+03  0.12568022672E+04  0.10100000352E+00 0.  1.
       -3    1    3    3    0  502  0.10850084431E+01  0.12246359900E+04  0.11567074590E+04  0.16845493881E+04  0.10100000352E+00 0. -1.
</event>
<event>
 5   0  0.9342133E-06  0.2800949E+04  0.7818609E-02  0.8302974E-01
        2   -1    0    0  501    0  0.00000000000E+00  0.00000000000E+00  0.12887017913E+04  0.12887017913E+04  0.25500000920E-02 0. -1.
       -2   -1    0    0    0  501  0.00000000000E+00  0.00000000000E+00 -0.15219416927E+04  0.15219416927E+04  0.25500000920E-02 0.  1.
    10030    2    1    2    0    0  0.00000000000E+00  0.00000000000E+00 -0.23323990141E+03  0.28106434839E+04  0.28009491145E+04 0.  0.
        2    1    3    3  502    0 -0.12303185094E+04 -0.25994842359E+03 -0.73525365320E+03  0.14566587630E+04  0.25500000920E-02 0.  1.
       -2    1    3    3    0  502  0.12303185094E+04  0.25994842359E+03  0.50201375179E+03  0.13539847209E+04  0.25500000920E-02 0. -1.
</event>
<event>
 5   0  0.3371603E-06  0.2614894E+04  0.7818609E-02  0.8363160E-01
       -1   -1    0    0    0  501  0.00000000000E+00  0.00000000000E+00  0.76130383212E+03  0.76130383214E+03  0.50400001928E-02 0. -1.
        1   -1    0    0  501    0  0.00000000000E+00  0.00000000000E+00 -0.22453818512E+04  0.22453818512E+04  0.50400001928E-02 0.  1.
    10030    2    1    2    0    0  0.00000000000E+00  0.00000000000E+00 -0.14840780191E+04  0.30066856834E+04  0.26148941148E+04 0.  0.
        1    1    3    3  502    0 -0.84854982123E+03  0.86099876985E+03 -0.16935619098E+03  0.12206707993E+04  0.50400001928E-02 0. -1.
       -1    1    3    3    0  502  0.84854982123E+03 -0.86099876985E+03 -0.13147218281E+04  0.17860148841E+04  0.50400001928E-02 0.  1.
</event>
<event>
 5   0  0.9342133E-06  0.2771720E+04  0.7818609E-02  0.8312102E-01
       -2   -1    0    0    0  501  0.00000000000E+00  0.00000000000E+00  0.10431434517E+04  0.10431434517E+04  0.25500000920E-02 0.  1.
        2   -1    0    0  501    0  0.00000000000E+00  0.00000000000E+00 -0.18411727293E+04  0.18411727293E+04  0.25500000920E-02 0. -1.
    10030    2    1    2    0    0  0.00000000000E+00  0.00000000000E+00 -0.79802927762E+03  0.28843161810E+04  0.27717195211E+04 0.  0.
        2    1    3    3  502    0  0.30797922404E+03 -0.11229174510E+04  0.38305553765E+03  0.12257758152E+04  0.25500000920E-02 0. -1.
       -2    1    3    3    0  502 -0.30797922404E+03  0.11229174510E+04 -0.11810848153E+04  0.16585403658E+04  0.25500000920E-02 0.  1.
</event>
<event>
 5   0  0.9342133E-06  0.2783819E+04  0.7818609E-02  0.8308310E-01
        2   -1    0    0  501    0  0.00000000000E+00  0.00000000000E+00  0.14346708544E+04  0.14346708544E+04  0.25500000920E-02 0.  1.
       -2   -1    0    0    0  501  0.00000000000E+00  0.00000000000E+00 -0.13504226413E+04  0.13504226413E+04  0.25500000920E-02 0. -1.
    10030    2    1    2    0    0  0.00000000000E+00  0.00000000000E+00  0.84248213054E+02  0.27850934957E+04  0.27838189630E+04 0.  0.
        2    1    3    3  502    0 -0.10632009105E+03 -0.58628160061E+03 -0.12163794503E+04  0.13544774062E+04  0.25500000920E-02 0. -1.
       -2    1    3    3    0  502  0.10632009105E+03  0.58628160061E+03  0.13006276633E+04  0.14306160895E+04  0.25500000920E-02 0.  1.
</event>
<event>
 5   0  0.3438130E-06  0.2782887E+04  0.7818609E-02  0.8308601E-01
       -1   -1    0    0    0  501  0.00000000000E+00  0.00000000000E+00  0.98958000078E+03  0.98958000079E+03  0.50400001928E-02 0. -1.
        1   -1    0    0  501    0  0.00000000000E+00  0.00000000000E+00 -0.19565022655E+04  0.19565022655E+04  0.50400001928E-02 0.  1.
    10030    2    1    2    0    0  0.00000000000E+00  0.00000000000E+00 -0.96692226473E+03  0.29460822663E+04  0.27828873592E+04 0.  0.
        3    1    3    3  502    0 -0.13802270979E+04  0.16152867697E+03 -0.40862517085E+03  0.14484795117E+04  0.10100000352E+00 0.  1.
       -3    1    3    3    0  502  0.13802270979E+04 -0.16152867697E+03 -0.55829709387E+03  0.14976027546E+04  0.10100000352E+00 0. -1.
</event>
<event>
 5   0  0.3371603E-06  0.2817543E+04  0.7818609E-02  0.8297843E-01
        1   -1    0    0  501    0  0.00000000000E+00  0.00000000000E+00  0.24924574493E+04  0.24924574493E+04  0.50400001928E-02 0. -1.
       -1   -1    0    0    0  501  0.00000000000E+00  0.00000000000E+00 -0.79625701402E+03  0.79625701403E+03  0.50400001928E-02 0.  1.
    10030    2    1    2    0    0  0.00000000000E+00  0.00000000000E+00  0.16962004353E+04  0.32887144634E+04  0.28175427068E+04 0.  0.
        1    1    3    3  502    0 -0.75844186847E+03  0.88274582036E+01  0.22337746311E+04  0.23590381714E+04  0.50400001928E-02 0. -1.
       -1    1    3    3    0  502  0.75844186847E+03 -0.88274582036E+01 -0.53757419573E+03  0.92967629195E+03  0.50400001928E-02 0.  1.
</event>
<event>
 5   0  0.3438130E-06  0.2780091E+04  0.7818609E-02  0.8309476E-01
       -1   -1    0    0    0  501  0.00000000000E+00  0.00000000000E+00  0.12307425022E+04  0.12307425022E+04  0.50400001928E-02 0.  1.
        1   -1    0    0  501    0  0.00000000000E+00  0.00000000000E+00 -0.15699682361E+04  0.15699682361E+04  0.50400001928E-02 0. -1.
    10030    2    1    2    0    0  0.00000000000E+00  0.00000000000E+00 -0.33922573387E+03  0.28007107383E+04  0.27800911030E+04 0.  0.
        3    1    3    3  502    0  0.81374538394E+03 -0.64759582740E+03 -0.10987684467E+04  0.15128959036E+04  0.10100000352E+00 0. -1.
       -3    1    3    3    0  502 -0.81374538394E+03  0.64759582740E+03  0.75954271280E+03  0.12878148346E+04  0.10100000352E+00 0.  1.
</event>
<event>
 5   0  0.3006875E-06  0.2801114E+04  0.7818609E-02  0.8302923E-01
       -3   -1    0    0    0  501  0.00000000000E+00  0.00000000000E+00  0.78802062762E+03  0.78802063409E+03  0.10100000352E+00 0.  1.
        3   -1    0    0  501    0  0.00000000000E+00  0.00000000000E+00 -0.24892243846E+04  0.24892243866E+04  0.10100000352E+00 0. -1.
    10030    2    1    2    0    0  0.00000000000E+00  0.00000000000E+00 -0.17012037570E+04  0.32772450207E+04  0.28011141896E+04 0.  0.
        5    1    3    3  502    0 -0.15214198217E+02  0.13509869300E+04 -0.12822923407E+04  0.18627111676E+04  0.46999998093E+01 0. -1.
       -5    1    3    3    0  502  0.15214198217E+02 -0.13509869300E+04 -0.41891141630E+03  0.14145338531E+04  0.46999998093E+01 0.  1.
</event>
<event>
 5   0  0.3357244E-06  0.2687615E+04  0.7818609E-02  0.8339035E-01
        1   -1    0    0  501    0  0.00000000000E+00  0.00000000000E+00  0.13059831577E+04  0.13059831577E+04  0.50400001928E-02 0. -1.
       -1   -1    0    0    0  501  0.00000000000E+00  0.00000000000E+00 -0.13827275654E+04  0.13827275654E+04  0.50400001928E-02 0.  1.
    10030    2    1    2    0    0  0.00000000000E+00  0.00000000000E+00 -0.76744407744E+02  0.26887107231E+04  0.26876152345E+04 0.  0.
        4    1    3    3  502    0  0.11945655791E+04 -0.21741350595E+03  0.53767648518E+03  0.13279130887E+04  0.12699999809E+01 0. -1.
       -4    1    3    3    0  502 -0.11945655791E+04  0.21741350595E+03 -0.61442089292E+03  0.13607976345E+04  0.12699999809E+01 0.  1.
</event>
<event>
 5   0  0.3357244E-06  0.2829248E+04  0.7818609E-02  0.8294245E-01
       -1   -1    0    0    0  501  0.00000000000E+00  0.00000000000E+00  0.15442337313E+04  0.15442337313E+04  0.50400001928E-02 0.  1.
        1   -1    0    0  501    0  0.00000000000E+00  0.00000000000E+00 -0.12958927174E+04  0.12958927174E+04  0.50400001928E-02 0. -1.
    10030    2    1    2    0    0  0.00000000000E+00  0.00000000000E+00  0.24834101397E+03  0.28401264487E+04  0.28292481308E+04 0.  0.
        4    1    3    3  502    0 -0.43123323644E+03  0.96894747289E+03  0.10638993156E+04  0.15022332296E+04  0.12699999809E+01 0.  1.
       -4    1    3    3    0  502  0.43123323644E+03 -0.96894747289E+03 -0.81555830165E+03  0.13378932191E+04  0.12699999809E+01 0. -1.
</event>
<event>
 5   0  0.9260173E-06  0.2810905E+04  0.7818609E-02  0.8299891E-01
        2   -1    0    0  501    0  0.00000000000E+00  0.00000000000E+00  0.17937821090E+04  0.17937821090E+04  0.25500000920E-02 0. -1.
       -2   -1    0    0    0  501  0.00000000000E+00  0.00000000000E+00 -0.11011912736E+04  0.11011912736E+04  0.25500000920E-02 0.  1.
    10030    2    1    2    0    0  0.00000000000E+00  0.00000000000E+00  0.69259083543E+03  0.28949733826E+04  0.28109053383E+04 0.  0.
        1    1    3    3  502    0  0.43036861203E+03  0.30369113869E+03  0.16882822012E+04  0.17685424057E+04  0.50400001928E-02 0. -1.
       -1    1    3    3    0  502 -0.43036861203E+03 -0.30369113869E+03 -0.99569136575E+03  0.11264309769E+04  0.50400001928E-02 0.  1.
</event>
<event>
 5   0  0.9065579E-06  0.2748420E+04  0.7818609E-02  0.8319463E-01
        2   -1    0    0  501    0  0.00000000000E+00  0.00000000000E+00  0.19753542921E+04  0.19753542921E+04  0.25500000920E-02 0. -1.
       -2   -1    0    0    0  501  0.00000000000E+00  0.00000000000E+00 -0.95600736459E+03  0.95600736459E+03  0.25500000920E-02 0.  1.
    10030    2    1    2    0    0  0.00000000000E+00  0.00000000000E+00  0.10193469275E+04  0.29313616566E+04  0.27484200923E+04 0.  0.
        3    1    3    3  502    0  0.26975167885E+03 -0.76644673187E+03 -0.67235813748E+03  0.10546430848E+04  0.10100000352E+00 0.  1.
       -3    1    3    3    0  502 -0.26975167885E+03  0.76644673187E+03  0.16917050649E+04  0.18767185719E+04  0.10100000352E+00 0. -1.
</event>
<event>
 5   0  0.3006875E-06  0.2806380E+04  0.7818609E-02  0.8301290E-01
        3   -1    0    0  501    0  0.00000000000E+00  0.00000000000E+00  0.13007275163E+04  0.13007275202E+04  0.10100000352E+00 0. -1.
       -3   -1    0    0    0  501  0.00000000000E+00  0.00000000000E+00 -0.15137238187E+04  0.15137238221E+04  0.10100000352E+00 0.  1.
    10030    2    1    2    0    0  0.00000000000E+00  0.00000000000E+00 -0.21299630246E+03  0.28144513423E+04  0.28063800408E+04 0.  0.
        1    1    3    3  502    0  0.10076395032E+04 -0.92846056261E+03  0.19697063249E+03  0.13842593019E+04  0.50400001928E-02 0. -1.
       -1    1    3    3    0  502 -0.10076395032E+04  0.92846056261E+03 -0.40996693494E+03  0.14301920404E+04  0.50400001928E-02 0.  1.
</event>
<event>
 5   0  0.9342133E-06  0.2825050E+04  0.7818609E-02  0.8295533E-01
       -2   -1    0    0    0  501  0.00000000000E+00  0.00000000000E+00  0.13011815961E+04  0.13011815961E+04  0.25500000920E-02 0. -1.
        2   -1    0    0  501    0  0.00000000000E+00  0.00000000000E+00 -0.15333962030E+04  0.15333962030E+04  0.25500000920E-02 0.  1.
    10030    2    1    2    0    0  0.00000000000E+00  0.00000000000E+00 -0.23221460690E+03  0.28345777991E+04  0.28250500306E+04 0.  0.
        2    1    3    3  502    0  0.99941681594E+03  0.89139429712E+03 -0.56685412056E+03  0.14542150319E+04  0.25500000920E-02 0.  1.
       -2    1    3    3    0  502 -0.99941681594E+03 -0.89139429712E+03  0.33463951367E+03  0.13803627672E+04  0.25500000920E-02 0. -1.
</event>
<event>
 5   0  0.9426937E-06  0.2815975E+04  0.7818609E-02  0.8298326E-01
       -2   -1    0    0    0  501  0.00000000000E+00  0.00000000000E+00  0.11964276954E+04  0.11964276954E+04  0.25500000920E-02 0. -1.
        2   -1    0    0  501    0  0.00000000000E+00  0.00000000000E+00 -0.16569571144E+04  0.16569571144E+04  0.25500000920E-02 0.  1.
    10030    2    1    2    0    0  0.00000000000E+00  0.00000000000E+00 -0.46052941904E+03  0.28533848098E+04  0.28159754130E+04 0.  0.
        4    1    3    3  502    0  0.12744702994E+03  0.12691626409E+04  0.37381889670E+03  0.13291947693E+04  0.12699999809E+01 0. -1.
       -4    1    3    3    0  502 -0.12744702994E+03 -0.12691626409E+04 -0.83434831574E+03  0.15241900404E+04  0.12699999809E+01 0.  1.
</event>
<event>
 5   0  0.3357244E-06  0.2721446E+04  0.7818609E-02  0.8328080E-01
       -1   -1    0    0    0  501  0.00000000000E+00  0.00000000000E+00  0.69142047074E+03  0.69142047076E+03  0.50400001928E-02 0. -1.
        1   -1    0    0  501    0  0.00000000000E+00  0.00000000000E+00 -0.26779180832E+04  0.26779180832E+04  0.50400001928E-02 0.  1.
    10030    2    1    2    0    0  0.00000000000E+00  0.00000000000E+00 -0.19864976124E+04  0.33693385539E+04  0.27214462197E+04 0.  0.
        4    1    3    3  502    0 -0.34547643622E+03 -0.13141643961E+04 -0.10823875548E+04  0.17372237794E+04  0.12699999809E+01 0.  1.
       -4    1    3    3    0  502  0.34547643622E+03  0.13141643961E+04 -0.90411005766E+03  0.16321147745E+04  0.12699999809E+01 0. -1.
</event>
<event>
 5   0  0.9252359E-06  0.2782751E+04  0.7818609E-02  0.8308644E-01
       -2   -1    0    0    0  501  0.00000000000E+00  0.00000000000E+00  0.16821073157E+04  0.16821073157E+04  0.25500000920E-02 0.  1.
        2   -1    0    0  501    0  0.00000000000E+00  0.00000000000E+00 -0.11508928060E+04  0.11508928060E+04  0.25500000920E-02 0. -1.
    10030    2    1    2    0    0  0.00000000000E+00  0.00000000000E+00  0.53121450969E+03  0.28330001216E+04  0.27827505878E+04 0.  0.
        5    1    3    3  502    0 -0.11834060666E+04  0.69853846221E+03  0.43733266074E+02  0.13748965744E+04  0.46999998093E+01 0. -1.
       -5    1    3    3    0  502  0.11834060666E+04 -0.69853846221E+03  0.48748124362E+03  0.14581035473E+04  0.46999998093E+01 0.  1.
</event>
<event>
 5   0  0.9065579E-06  0.2798556E+04  0.7818609E-02  0.8303717E-01
       -2   -1    0    0    0  501  0.00000000000E+00  0.00000000000E+00  0.86613143681E+03  0.86613143682E+03  0.25500000920E-02 0.  1.
        2   -1    0    0  501    0  0.00000000000E+00  0.00000000000E+00 -0.22606026997E+04  0.22606026997E+04  0.25500000920E-02 0. -1.
    10030    2    1    2    0    0  0.00000000000E+00  0.00000000000E+00 -0.13944712629E+04  0.31267341365E+04  0.27985561022E+04 0.  0.
        3    1    3    3  502    0 -0.42830135834E+03  0.12759186503E+04 -0.11249732084E+04  0.17541308918E+04  0.10100000352E+00 0. -1.
       -3    1    3    3    0  502  0.42830135834E+03 -0.12759186503E+04 -0.26949805448E+03  0.13726032447E+04  0.10100000352E+00 0.  1.
</event>
<event>
 5   0  0.3357244E-06  0.2921036E+04  0.7818609E-02  0.8266646E-01
       -1   -1    0    0    0  501  0.00000000000E+00  0.00000000000E+00  0.12723253312E+04  0.12723253312E+04  0.50400001928E-02 0.  1.
        1   -1    0    0  501    0  0.00000000000E+00  0.00000000000E+00 -0.16765470648E+04  0.16765470648E+04  0.50400001928E-02 0. -1.
    10030    2    1    2    0    0  0.00000000000E+00  0.00000000000E+00 -0.40422173359E+03  0.29488723960E+04  0.29210363226E+04 0.  0.
        4    1    3    3  502    0 -0.62960006997E+03  0.92496406819E+03 -0.11497558081E+04  0.16043362512E+04  0.12699999809E+01 0. -1.
       -4    1    3    3    0  502  0.62960006997E+03 -0.92496406819E+03  0.74553407454E+03  0.13445361448E+04  0.12699999809E+01 0.  1.
</event>
<event>
 5   0  0.3438130E-06  0.2827414E+04  0.7818609E-02  0.8294808E-01
        1   -1    0    0  501    0  0.00000000000E+00  0.00000000000E+00  0.13651876659E+04  0.13651876659E+04  0.50400001928E-02 0.  1.
       -1   -1    0    0    0  501  0.00000000000E+00  0.00000000000E+00 -0.14639508294E+04  0.14639508294E+04  0.50400001928E-02 0. -1.
    10030    2    1    2    0    0  0.00000000000E+00  0.00000000000E+00 -0.98763163490E+02  0.28291384954E+04  0.28274140948E+04 0.  0.
        3    1    3    3  502    0 -0.13131257224E+04 -0.36115283669E+03  0.33010830402E+03  0.14013215323E+04  0.10100000352E+00 0.  1.
       -3    1    3    3    0  502  0.13131257224E+04  0.36115283669E+03 -0.42887146751E+03  0.14278169631E+04  0.10100000352E+00 0. -1.
</event>
<event>
 5   0  0.9426937E-06  0.2831861E+04  0.7818609E-02  0.8293444E-01
       -2   -1    0    0    0  501  0.00000000000E+00  0.00000000000E+00  0.14158715266E+04  0.14158715266E+04  0.25500000920E-02 0. -1.
        2   -1    0    0  501    0  0.00000000000E+00  0.00000000000E+00 -0.14159896872E+04  0.14159896872E+04  0.25500000920E-02 0.  1.
    10030    2    1    2    0    0  0.00000000000E+00  0.00000000000E+00 -0.11816053054E+00  0.28318612138E+04  0.28318612113E+04 0.  0.
        4    1    3    3  502    0  0.10842253116E+03 -0.27318511088E+03 -0.13851483627E+04  0.14159884003E+04  0.12699999809E+01 0.  1.
       -4    1    3    3    0  502 -0.10842253116E+03  0.27318511088E+03  0.13850302022E+04  0.14158728135E+04  0.12699999809E+01 0. -1.
</event>
<event>
 5   0  0.9252359E-06  0.2822684E+04  0.7818609E-02  0.8296260E-01
       -2   -1    0    0    0  501  0.00000000000E+00  0.00000000000E+00  0.14588602375E+04  0.14588602375E+04  0.25500000920E-02 0. -1.
        2   -1    0    0  501    0  0.00000000000E+00  0.00000000000E+00 -0.13653716556E+04  0.13653716556E+04  0.25500000920E-02 0.  1.
    10030    2    1    2    0    0  0.00000000000E+00  0.00000000000E+00  0.93488581858E+02  0.28242318931E+04  0.28226841252E+04 0.  0.
        5    1    3    3  502    0  0.98633200517E+03  0.48646783805E+03 -0.83825331913E+03  0.13828204869E+04  0.46999998093E+01 0.  1.
       -5    1    3    3    0  502 -0.98633200517E+03 -0.48646783805E+03  0.93174190099E+03  0.14414114062E+04  0.46999998093E+01 0. -1.
</event>
<event>
 5   0  0.9342133E-06  0.2773541E+04  0.7818609E-02  0.8311530E-01
        2   -1    0    0  501    0  0.00000000000E+00  0.00000000000E+00  0.13906077163E+04  0.13906077163E+04  0.25500000920E-02 0.  1.
       -2   -1    0    0    0  501  0.00000000000E+00  0.00000000000E+00 -0.13829440977E+04  0.13829440977E+04  0.25500000920E-02 0. -1.
    10030    2    1    2    0    0  0.00000000000E+00  0.00000000000E+00  0.76636186474E+01  0.27735518140E+04  0.27735412263E+04 0.  0.
        2    1    3    3  502    0  0.42341812640E+02 -0.12260572552E+04  0.65045898443E+03  0.13885626067E+04  0.25500000920E-02 0.  1.
       -2    1    3    3    0  502 -0.42341812640E+02  0.12260572552E+04 -0.64279536578E+03  0.13849892073E+04  0.25500000920E-02 0. -1.
</event>
<event>
 5   0  0.9342133E-06  0.2848041E+04  0.7818609E-02  0.8288507E-01
        2   -1    0    0  501    0  0.00000000000E+00  0.00000000000E+00  0.18810388748E+04  0.18810388748E+04  0.25500000920E-02 0.  1.
       -2   -1    0    0    0  501  0.00000000000E+00  0.00000000000E+00 -0.10780393806E+04  0.10780393806E+04  0.25500000920E-02 0. -1.
    10030    2    1    2    0    0  0.00000000000E+00  0.00000000000E+00  0.80299949423E+03  0.29590782554E+04  0.28480407184E+04 0.  0.
        2    1    3    3  502    0  0.10141117059E+04  0.99264274292E+03  0.27825019918E+03  0.14460931299E+04  0.25500000920E-02 0. -1.
       -2    1    3    3    0  502 -0.10141117059E+04 -0.99264274292E+03  0.52474929505E+03  0.15129851254E+04  0.25500000920E-02 0.  1.
</event>
<event>
 5   0  0.9426937E-06  0.2777214E+04  0.7818609E-02  0.8310378E-01
        2   -1    0    0  501    0  0.00000000000E+00  0.00000000000E+00  0.21915388973E+04  0.21915388973E+04  0.25500000920E-02 0. -1.
       -2   -1    0    0    0  501  0.00000000000E+00  0.00000000000E+00 -0.87985156484E+03  0.87985156484E+03  0.25500000920E-02 0.  1.
    10030    2    1    2    0    0  0.00000000000E+00  0.00000000000E+00  0.13116873325E+04  0.30713904622E+04  0.27772136599E+04 0.  0.
        4    1    3    3  502    0  0.44832569460E+03  0.12804444877E+04  0.98334188873E+03  0.16755586822E+04  0.12699999809E+01 0. -1.
       -4    1    3    3    0  502 -0.44832569460E+03 -0.12804444877E+04  0.32834544378E+03  0.13958317800E+04  0.12699999809E+01 0.  1.
</event>
<event>
 5   0  0.9252359E-06  0.2792725E+04  0.7818609E-02  0.8305530E-01
        2   -1    0    0  501    0  0.00000000000E+00  0.00000000000E+00  0.13268440994E+04  0.13268440994E+04  0.25500000920E-02 0. -1.
       -2   -1    0    0    0  501  0.00000000000E+00  0.00000000000E+00 -0.14695233997E+04  0.14695233997E+04  0.25500000920E-02 0.  1.
    10030    2    1    2    0    0  0.00000000000E+00  0.00000000000E+00 -0.14267930030E+03  0.27963674990E+04  0.27927251578E+04 0.  0.
        5    1    3    3  502    0 -0.90751674666E+03  0.64644932668E+03 -0.91405657408E+03  0.14411817679E+04  0.46999998093E+01 0.  1.
       -5    1    3    3    0  502  0.90751674666E+03 -0.64644932668E+03  0.77137727378E+03  0.13551857312E+04  0.46999998093E+01 0. -1.
</event>
<event>
 5   0  0.3006875E-06  0.2806197E+04  0.7818609E-02  0.8301347E-01
        4   -1    0    0  501    0  0.00000000000E+00  0.00000000000E+00  0.16711983669E+04  0.16711988495E+04  0.12699999809E+01 0.  1.
       -4   -1    0    0    0  501  0.00000000000E+00  0.00000000000E+00 -0.11780068464E+04  0.11780075310E+04  0.12699999809E+01 0. -1.
    10030    2    1    2    0    0  0.00000000000E+00  0.00000000000E+00  0.49319152053E+03  0.28492063804E+04  0.28061965581E+04 0.  0.
        2    1    3    3  502    0 -0.43900425281E+03 -0.46674722182E+02  0.15988423137E+04  0.16586741717E+04  0.25500000920E-02 0.  1.
       -2    1    3    3    0  502  0.43900425281E+03  0.46674722182E+02 -0.11056507932E+04  0.11905322088E+04  0.25500000920E-02 0. -1.
</event>
<event>
 5   0  0.9065579E-06  0.2743864E+04  0.7818609E-02  0.8320911E-01
       -2   -1    0    0    0  501  0.00000000000E+00  0.00000000000E+00  0.83723433731E+03  0.83723433731E+03  0.25500000920E-02 0. -1.
        2   -1    0    0  501    0  0.00000000000E+00  0.00000000000E+00 -0.22481129830E+04  0.22481129830E+04  0.25500000920E-02 0.  1.
    10030    2    1    2    0    0  0.00000000000E+00  0.00000000000E+00 -0.14108786457E+04  0.30853473203E+04  0.27438639788E+04 0.  0.
        3    1    3    3  502    0  0.65617310521E+03  0.80415290081E+03  0.30342313429E+03  0.10813374314E+04  0.10100000352E+00 0. -1.
       -3    1    3    3    0  502 -0.65617310521E+03 -0.80415290081E+03 -0.17143017800E+04  0.20040098890E+04  0.10100000352E+00 0.  1.
</event>
<event>
 5   0  0.3371603E-06  0.2781158E+04  0.7818609E-02  0.8309142E-01
        1   -1    0    0  501    0  0.00000000000E+00  0.00000000000E+00  0.15406547350E+04  0.15406547350E+04  0.50400001928E-02 0.  1.
       -1   -1    0    0    0  501  0.00000000000E+00  0.00000000000E+00 -0.12551218888E+04  0.12551218888E+04  0.50400001928E-02 0. -1.
    10030    2    1    2    0    0  0.00000000000E+00  0.00000000000E+00  0.28553284622E+03  0.27957766238E+04  0.27811576589E+04 0.  0.
        1    1    3    3  502    0  0.95935753474E+03 -0.50788156172E+03 -0.73093901802E+03  0.13086567190E+04  0.50400001928E-02 0. -1.
       -1    1    3    3    0  502 -0.95935753474E+03  0.50788156172E+03  0.10164718642E+04  0.14871199047E+04  0.50400001928E-02 0.  1.
</event>
<event>
 5   0  0.3371603E-06  0.2777655E+04  0.7818609E-02  0.8310239E-01
       -1   -1    0    0    0  501  0.00000000000E+00  0.00000000000E+00  0.12019234629E+04  0.12019234629E+04  0.50400001928E-02 0. -1.
        1   -1    0    0  501    0  0.00000000000E+00  0.00000000000E+00 -0.16047962291E+04  0.16047962291E+04  0.50400001928E-02 0.  1.
    10030    2    1    2    0    0  0.00000000000E+00  0.00000000000E+00 -0.40287276623E+03  0.28067196920E+04  0.27776552996E+04 0.  0.
        1    1    3    3  502    0  0.48919777109E+03 -0.24639454998E+03 -0.14910419707E+04  0.15884680960E+04  0.50400001928E-02 0.  1.
       -1    1    3    3    0  502 -0.48919777109E+03  0.24639454998E+03  0.10881692045E+04  0.12182515960E+04  0.50400001928E-02 0. -1.
</event>
<event>
 5   0  0.9342133E-06  0.2844082E+04  0.7818609E-02  0.8289712E-01
        2   -1    0    0  501    0  0.00000000000E+00  0.00000000000E+00  0.18409173844E+04  0.18409173844E+04  0.25500000920E-02 0. -1.
       -2   -1    0    0    0  501  0.00000000000E+00  0.00000000000E+00 -0.10984742296E+04  0.10984742296E+04  0.25500000920E-02 0.  1.
    10030    2    1    2    0    0  0.00000000000E+00  0.00000000000E+00  0.74244315484E+03  0.29393916140E+04  0.28440817890E+04 0.  0.
        2    1    3    3  502    0 -0.20446183244E+03  0.55124791523E+03 -0.96697501628E+03  0.11316888208E+04  0.25500000920E-02 0.  1.
       -2    1    3    3    0  502  0.20446183244E+03 -0.55124791523E+03  0.17094181711E+04  0.18077027933E+04  0.25500000920E-02 0. -1.
</event>
<event>
 5   0  0.9426937E-06  0.2780747E+04  0.7818609E-02  0.8309271E-01
       -2   -1    0    0    0  501  0.00000000000E+00  0.00000000000E+00  0.10444559226E+04  0.10444559226E+04  0.25500000920E-02 0.  1.
        2   -1    0    0  501    0  0.00000000000E+00  0.00000000000E+00 -0.18508571844E+04  0.18508571844E+04  0.25500000920E-02 0. -1.
    10030    2    1    2    0    0  0.00000000000E+00  0.00000000000E+00 -0.80640126180E+03  0.28953131070E+04  0.27807472004E+04 0.  0.
        4    1    3    3  502    0  0.12290842439E+04  0.64983266540E+03 -0.41816508889E+03  0.14518244474E+04  0.12699999809E+01 0.  1.
       -4    1    3    3    0  502 -0.12290842439E+04 -0.64983266540E+03 -0.38823617291E+03  0.14434886596E+04  0.12699999809E+01 0. -1.
</event>
<event>
 5   0  0.3600963E-06  0.2794957E+04  0.7818609E-02  0.8304836E-01
       -1   -1    0    0    0  501  0.00000000000E+00  0.00000000000E+00  0.12089908475E+04  0.12089908475E+04  0.50400001928E-02 0. -1.
        1   -1    0    0  501    0  0.00000000000E+00  0.00000000000E+00 -0.16153519698E+04  0.16153519698E+04  0.50400001928E-02 0.  1.
    10030    2    1    2    0    0  0.00000000000E+00  0.00000000000E+00 -0.40636112237E+03  0.28243428173E+04  0.27949567059E+04 0.  0.
        5    1    3    3  502    0 -0.12339292088E+04 -0.55161885449E+03  0.15560029390E+03  0.13605506953E+04  0.46999998093E+01 0. -1.
       -5    1    3    3    0  502  0.12339292088E+04  0.55161885449E+03 -0.56196141627E+03  0.14637921220E+04  0.46999998093E+01 0.  1.
</event>
<event>
 5   0  0.9260173E-06  0.2799211E+04  0.7818609E-02  0.8303513E-01
       -2   -1    0    0    0  501  0.00000000000E+00  0.00000000000E+00  0.12943064265E+04  0.12943064265E+04  0.25500000920E-02 0.  1.
        2   -1    0    0  501    0  0.00000000000E+00  0.00000000000E+00 -0.15134713304E+04  0.15134713304E+04  0.25500000920E-02 0. -1.
    10030    2    1    2    0    0  0.00000000000E+00  0.00000000000E+00 -0.21916490391E+03  0.28077777570E+04  0.27992110812E+04 0.  0.
        1    1    3    3  502    0 -0.75461338406E+03  0.11660493374E+04 -0.28268885947E+03  0.14174009341E+04  0.50400001928E-02 0. -1.
       -1    1    3    3    0  502  0.75461338406E+03 -0.11660493374E+04  0.63523955565E+02  0.13903768229E+04  0.50400001928E-02 0.  1.
</event>
<event>
 5   0  0.3600963E-06  0.2807122E+04  0.7818609E-02  0.8301061E-01
        1   -1    0    0  501    0  0.00000000000E+00  0.00000000000E+00  0.30445695314E+04  0.30445695314E+04  0.50400001928E-02 0.  1.
       -1   -1    0    0    0  501  0.00000000000E+00  0.00000000000E+00 -0.64704826847E+03  0.64704826849E+03  0.50400001928E-02 0. -1.
    10030    2    1    2    0    0  0.00000000000E+00  0.00000000000E+00  0.23975212629E+04  0.36916177999E+04  0.28071219735E+04 0.  0.
        5    1    3    3  502    0  0.63534423394E+03 -0.11494834651E+04  0.54784184065E+03  0.14230696767E+04  0.46999998093E+01 0.  1.
       -5    1    3    3    0  502 -0.63534423394E+03  0.11494834651E+04  0.18496794223E+04  0.22685481233E+04  0.46999998093E+01 0. -1.
</event>
<event>
 5   0  0.3357244E-06  0.2859378E+04  0.7818609E-02  0.8285067E-01
        1   -1    0    0  501    0  0.00000000000E+00  0.00000000000E+00  0.12670298671E+04  0.12670298672E+04  0.50400001928E-02 0.  1.
       -1   -1    0    0    0  501  0.00000000000E+00  0.00000000000E+00 -0.16132301193E+04  0.16132301193E+04  0.50400001928E-02 0. -1.
    10030    2    1    2    0    0  0.00000000000E+00  0.00000000000E+00 -0.34620025213E+03  0.28802599865E+04  0.28593780749E+04 0.  0.
        4    1    3    3  502    0  0.10112617447E+04  0.48732860789E+03 -0.10649300311E+04  0.15473257809E+04  0.12699999809E+01 0. -1.
       -4    1    3    3    0  502 -0.10112617447E+04 -0.48732860789E+03  0.71872977892E+03  0.13329342055E+04  0.12699999809E+01 0.  1.
</event>
<event>
 5   0  0.3371603E-06  0.2788209E+04  0.7818609E-02  0.8306938E-01
       -1   -1    0    0    0  501  0.00000000000E+00  0.00000000000E+00  0.11560398246E+04  0.11560398246E+04  0.50400001928E-02 0. -1.
        1   -1    0    0  501    0  0.00000000000E+00  0.00000000000E+00 -0.16811946493E+04  0.16811946493E+04  0.50400001928E-02 0.  1.
    10030    2    1    2    0    0  0.00000000000E+00  0.00000000000E+00 -0.52515482478E+03  0.28372344739E+04  0.27882094380E+04 0.  0.
        1    1    3    3  502    0  0.72343754157E+03 -0.41047151707E+03  0.87587886761E+03  0.12078959118E+04  0.50400001928E-02 0. -1.
       -1    1    3    3    0  502 -0.72343754157E+03  0.41047151707E+03 -0.14010336924E+04  0.16293385622E+04  0.50400001928E-02 0.  1.
</event>
<event>
 5   0  0.3371603E-06  0.2808118E+04  0.7818609E-02  0.8300752E-01
        1   -1    0    0  501    0  0.00000000000E+00  0.00000000000E+00  0.22529419147E+04  0.22529419147E+04  0.50400001928E-02 0. -1.
       -1   -1    0    0    0  501  0.00000000000E+00  0.00000000000E+00 -0.87502556354E+03  0.87502556355E+03  0.50400001928E-02 0.  1.
    10030    2    1    2    0    0  0.00000000000E+00  0.00000000000E+00  0.13779163511E+04  0.31279674782E+04  0.28081180663E+04 0.  0.
        1    1    3    3  502    0 -0.14106860269E+03 -0.46039862038E+02 -0.86626631067E+03  0.87888414515E+03  0.50400001928E-02 0.  1.
       -1    1    3    3    0  502  0.14106860269E+03  0.46039862038E+02  0.22441826618E+04  0.22490833331E+04  0.50400001928E-02 0. -1.
</event>
<event>
 5   0  0.3371603E-06  0.2824249E+04  0.7818609E-02  0.8295779E-01
        1   -1    0    0  501    0  0.00000000000E+00  0.00000000000E+00  0.96834007718E+03  0.96834007719E+03  0.50400001928E-02 0.  1.
       -1   -1    0    0    0  501  0.00000000000E+00  0.00000000000E+00 -0.20592925404E+04  0.20592925404E+04  0.50400001928E-02 0. -1.
    10030    2    1    2    0    0  0.00000000000E+00  0.00000000000E+00 -0.10909524632E+04  0.30276326176E+04  0.28242489250E+04 0.  0.
        1    1    3    3  502    0  0.11006502756E+03  0.30374608528E+03 -0.20191415942E+04  0.20448248757E+04  0.50400001928E-02 0. -1.
       -1    1    3    3    0  502 -0.11006502756E+03 -0.30374608528E+03  0.92818913101E+03  0.98280774192E+03  0.50400001928E-02 0.  1.
</event>
<event>
 5   0  0.3397882E-06  0.2749633E+04  0.7818609E-02  0.8319078E-01
       -1   -1    0    0    0  501  0.00000000000E+00  0.00000000000E+00  0.81362728127E+03  0.81362728129E+03  0.50400001928E-02 0. -1.
        1   -1    0    0  501    0  0.00000000000E+00  0.00000000000E+00 -0.23230795897E+04  0.23230795897E+04  0.50400001928E-02 0.  1.
    10030    2    1    2    0    0  0.00000000000E+00  0.00000000000E+00 -0.15094523084E+04  0.31367068710E+04  0.27496333797E+04 0.  0.
        2    1    3    3  502    0 -0.10149145847E+04 -0.87968220904E+03 -0.41974171834E+03  0.14071515601E+04  0.25500000920E-02 0. -1.
       -2    1    3    3    0  502  0.10149145847E+04  0.87968220904E+03 -0.10897105901E+04  0.17295553108E+04  0.25500000920E-02 0.  1.
</event>
<event>
 5   0  0.3600963E-06  0.2805773E+04  0.7818609E-02  0.8301478E-01
        1   -1    0    0  501    0  0.00000000000E+00  0.00000000000E+00  0.19137118363E+04  0.19137118363E+04  0.50400001928E-02 0.  1.
       -1   -1    0    0    0  501  0.00000000000E+00  0.00000000000E+00 -0.10284151352E+04  0.10284151352E+04  0.50400001928E-02 0. -1.
    10030    2    1    2    0    0  0.00000000000E+00  0.00000000000E+00  0.88529670114E+03  0.29421269715E+04  0.28057727755E+04 0.  0.
        5    1    3    3  502    0 -0.58118372263E+03  0.33171501101E+03  0.17355564961E+04  0.18601042468E+04  0.46999998093E+01 0.  1.
       -5    1    3    3    0  502  0.58118372263E+03 -0.33171501101E+03 -0.85025979493E+03  0.10820227247E+04  0.46999998093E+01 0. -1.
</event>
<event>
 5   0  0.9065579E-06  0.2800481E+04  0.7818609E-02  0.8303119E-01
        2   -1    0    0  501    0  0.00000000000E+00  0.00000000000E+00  0.16576245613E+04  0.16576245614E+04  0.25500000920E-02 0. -1.
       -2   -1    0    0    0  501  0.00000000000E+00  0.00000000000E+00 -0.11828215170E+04  0.11828215170E+04  0.25500000920E-02 0.  1.
    10030    2    1    2    0    0  0.00000000000E+00  0.00000000000E+00  0.47480304439E+03  0.28404460783E+04  0.28004813859E+04 0.  0.
        3    1    3    3  502    0 -0.13361580109E+04 -0.33416499393E+03  0.49337079155E+03  0.14630103285E+04  0.10100000352E+00 0. -1.
       -3    1    3    3    0  502  0.13361580109E+04  0.33416499393E+03 -0.18567747160E+02  0.13774357498E+04  0.10100000352E+00 0.  1.
</event>
<event>
 5   0  0.3438130E-06  0.2814788E+04  0.7818609E-02  0.8298692E-01
        1   -1    0    0  501    0  0.00000000000E+00  0.00000000000E+00  0.92574832866E+03  0.92574832868E+03  0.50400001928E-02 0.  1.
       -1   -1    0    0    0  501  0.00000000000E+00  0.00000000000E+00 -0.21396283348E+04  0.21396283348E+04  0.50400001928E-02 0. -1.
    10030    2    1    2    0    0  0.00000000000E+00  0.00000000000E+00 -0.12138800061E+04  0.30653766635E+04  0.28147876331E+04 0.  0.
        3    1    3    3  502    0  0.13356377439E+04 -0.23678279982E+03 -0.10155251490E+04  0.16944868296E+04  0.10100000352E+00 0. -1.
       -3    1    3    3    0  502 -0.13356377439E+04  0.23678279982E+03 -0.19835485710E+03  0.13708898339E+04  0.10100000352E+00 0.  1.
</event>
<event>
 5   0  0.3397882E-06  0.2773073E+04  0.7818609E-02  0.8311677E-01
        1   -1    0    0  501    0  0.00000000000E+00  0.00000000000E+00  0.12358843645E+04  0.12358843645E+04  0.50400001928E-02 0.  1.
       -1   -1    0    0    0  501  0.00000000000E+00  0.00000000000E+00 -0.15555525734E+04  0.15555525735E+04  0.50400001928E-02 0. -1.
    10030    2    1    2    0    0  0.00000000000E+00  0.00000000000E+00 -0.31966820895E+03  0.27914369380E+04  0.27730727388E+04 0.  0.
        2    1    3    3  502    0  0.56918948006E+03 -0.45713674770E+02  0.11120270133E+04  0.12500681912E+04  0.25500000920E-02 0.  1.
       -2    1    3    3    0  502 -0.56918948006E+03  0.45713674770E+02 -0.14316952222E+04  0.15413687468E+04  0.25500000920E-02 0. -1.
</event>
<event>
 5   0  0.9252359E-06  0.2800920E+04  0.7818609E-02  0.8302983E-01
        2   -1    0    0  501    0  0.00000000000E+00  0.00000000000E+00  0.17223668036E+04  0.17223668036E+04  0.25500000920E-02 0.  1.
       -2   -1    0    0    0  501  0.00000000000E+00  0.00000000000E+00 -0.11387167864E+04  0.11387167864E+04  0.25500000920E-02 0. -1.
    10030    2    1    2    0    0  0.00000000000E+00  0.00000000000E+00  0.58365001722E+03  0.28610835900E+04  0.28009198429E+04 0.  0.
        5    1    3    3  502    0  0.10783726990E+04 -0.61220157645E+03 -0.37299091045E+03  0.12949219117E+04  0.46999998093E+01 0. -1.
       -5    1    3    3    0  502 -0.10783726990E+04  0.61220157645E+03  0.95664092767E+03  0.15661616783E+04  0.46999998093E+01 0.  1.
</event>
<event>
 5   0  0.9065579E-06  0.2798581E+04  0.7818609E-02  0.8303709E-01
       -2   -1    0    0    0  501  0.00000000000E+00  0.00000000000E+00  0.12582530540E+04  0.12582530540E+04  0.25500000920E-02 0.  1.
        2   -1    0    0  501    0  0.00000000000E+00  0.00000000000E+00 -0.15561365608E+04  0.15561365608E+04  0.25500000920E-02 0. -1.
    10030    2    1    2    0    0  0.00000000000E+00  0.00000000000E+00 -0.29788350679E+03  0.28143896147E+04  0.27985807689E+04 0.  0.
        3    1    3    3  502    0  0.68022973922E+03 -0.92534225283E+03  0.65497548740E+03  0.13221057758E+04  0.10100000352E+00 0.  1.
       -3    1    3    3    0  502 -0.68022973922E+03  0.92534225283E+03 -0.95285899419E+03  0.14922838390E+04  0.10100000352E+00 0. -1.
</event>
<event>
 5   0  0.3371603E-06  0.2707745E+04  0.7818609E-02  0.8332496E-01
        1   -1    0    0  501    0  0.00000000000E+00  0.00000000000E+00  0.76314689521E+03  0.76314689523E+03  0.50400001928E-02 0.  1.
       -1   -1    0    0    0  501  0.00000000000E+00  0.00000000000E+00 -0.24018577375E+04  0.24018577375E+04  0.50400001928E-02 0. -1.
    10030    2    1    2    0    0  0.00000000000E+00  0.00000000000E+00 -0.16387108423E+04  0.31650046327E+04  0.27077446520E+04 0.  0.
        1    1    3    3  502    0 -0.58396442255E+03  0.38098274986E+03 -0.21758544357E+04  0.22848424077E+04  0.50400001928E-02 0. -1.
       -1    1    3    3    0  502  0.58396442255E+03 -0.38098274986E+03  0.53714359340E+03  0.88016222508E+03  0.50400001928E-02 0.  1.
</event>
<event>
 5   0  0.9426937E-06  0.2781082E+04  0.7818609E-02  0.8309166E-01
       -2   -1    0    0    0  501  0.00000000000E+00  0.00000000000E+00  0.96774228065E+03  0.96774228065E+03  0.25500000920E-02 0. -1.
        2   -1    0    0  501    0  0.00000000000E+00  0.00000000000E+00 -0.19980570619E+04  0.19980570619E+04  0.25500000920E-02 0.  1.
    10030    2    1    2    0    0  0.00000000000E+00  0.00000000000E+00 -0.10303147812E+04  0.29657993425E+04  0.27810820182E+04 0.  0.
        4    1    3    3  502    0  0.20883793989E+03 -0.90048896056E+03 -0.16229555297E+04  0.18677472842E+04  0.12699999809E+01 0.  1.
       -4    1    3    3    0  502 -0.20883793989E+03  0.90048896056E+03  0.59264074847E+03  0.10980520584E+04  0.12699999809E+01 0. -1.
</event>
<event>
 5   0  0.9260173E-06  0.2825656E+04  0.7818609E-02  0.8295347E-01
        2   -1    0    0  501    0  0.00000000000E+00  0.00000000000E+00  0.13990249297E+04  0.13990249297E+04  0.25500000920E-02 0.  1.
       -2   -1    0    0    0  501  0.00000000000E+00  0.00000000000E+00 -0.14267669078E+04  0.14267669078E+04  0.25500000920E-02 0. -1.
    10030    2    1    2    0    0  0.00000000000E+00  0.00000000000E+00 -0.27741978099E+02  0.28257918376E+04  0.28256556570E+04 0.  0.
        1    1    3    3  502    0 -0.40469141155E+03 -0.31131272577E+03 -0.13312771516E+04  0.14258294450E+04  0.50400001928E-02 0. -1.
       -1    1    3    3    0  502  0.40469141155E+03  0.31131272577E+03  0.13035351736E+04  0.13999623925E+04  0.50400001928E-02 0.  1.
</event>
<event>
 5   0  0.9065579E-06  0.2769162E+04  0.7818609E-02  0.8312907E-01
        2   -1    0    0  501    0  0.00000000000E+00  0.00000000000E+00  0.14291219923E+04  0.14291219923E+04  0.25500000920E-02 0. -1.
       -2   -1    0    0    0  501  0.00000000000E+00  0.00000000000E+00 -0.13414285692E+04  0.13414285692E+04  0.25500000920E-02 0.  1.
    10030    2    1    2    0    0  0.00000000000E+00  0.00000000000E+00  0.87693423078E+02  0.27705505615E+04  0.27691623783E+04 0.  0.
        3    1    3    3  502    0 -0.18467601611E+02 -0.14025996778E+03  0.14218719694E+04  0.14288925147E+04  0.10100000352E+00 0. -1.
       -3    1    3    3    0  502  0.18467601611E+02  0.14025996778E+03 -0.13341785463E+04  0.13416580468E+04  0.10100000352E+00 0.  1.
</event>
<event>
 5   0  0.3600963E-06  0.2798331E+04  0.7818609E-02  0.8303787E-01
        1   -1    0    0  501    0  0.00000000000E+00  0.00000000000E+00  0.11129615947E+04  0.11129615947E+04  0.50400001928E-02 0.  1.
       -1   -1    0    0    0  501  0.00000000000E+00  0.00000000000E+00 -0.17589685461E+04  0.17589685461E+04  0.50400001928E-02 0. -1.
    10030    2    1    2    0    0  0.00000000000E+00  0.00000000000E+00 -0.64600695142E+03  0.28719301408E+04  0.27983312443E+04 0.  0.
        5    1    3    3  502    0  0.69014634220E+03  0.17907501564E+03  0.91251651815E+03  0.11580493602E+04  0.46999998093E+01 0.  1.
       -5    1    3    3    0  502 -0.69014634220E+03 -0.17907501564E+03 -0.15585234696E+04  0.17138807806E+04  0.46999998093E+01 0. -1.
</event>
<event>
 5   0  0.3397882E-06  0.2788154E+04  0.7818609E-02  0.8306955E-01
        1   -1    0    0  501    0  0.00000000000E+00  0.00000000000E+00  0.14361149388E+04  0.14361149388E+04  0.50400001928E-02 0. -1.
       -1   -1    0    0    0  501  0.00000000000E+00  0.00000000000E+00 -0.13532697331E+04  0.13532697331E+04  0.50400001928E-02 0.  1.
    10030    2    1    2    0    0  0.00000000000E+00  0.00000000000E+00  0.82845205710E+02  0.27893846719E+04  0.27881541421E+04 0.  0.
        2    1    3    3  502    0 -0.64011819647E+03 -0.11566118357E+04  0.48427882661E+03  0.14078452422E+04  0.25500000920E-02 0. -1.
       -2    1    3    3    0  502  0.64011819647E+03  0.11566118357E+04 -0.40143362090E+03  0.13815394298E+04  0.25500000920E-02 0.  1.
</event>
<event>
 5   0  0.3438130E-06  0.2827624E+04  0.7818609E-02  0.8294743E-01
        1   -1    0    0  501    0  0.00000000000E+00  0.00000000000E+00  0.23158727576E+04  0.23158727576E+04  0.50400001928E-02 0.  1.
       -1   -1    0    0    0  501  0.00000000000E+00  0.00000000000E+00 -0.86311504763E+03  0.86311504765E+03  0.50400001928E-02 0. -1.
    10030    2    1    2    0    0  0.00000000000E+00  0.00000000000E+00  0.14527577100E+04  0.31789878053E+04  0.28276241798E+04 0.  0.
        3    1    3    3  502    0 -0.36035931652E+03 -0.12878752325E+04  0.12420498048E+04  0.18251490841E+04  0.10100000352E+00 0.  1.
       -3    1    3    3    0  502  0.36035931652E+03  0.12878752325E+04  0.21070790522E+03  0.13538387212E+04  0.10100000352E+00 0. -1.
</event>
<event>
 5   0  0.9342133E-06  0.2782328E+04  0.7818609E-02  0.8308776E-01
        2   -1    0    0  501    0  0.00000000000E+00  0.00000000000E+00  0.12146018934E+04  0.12146018934E+04  0.25500000920E-02 0.  1.
       -2   -1    0    0    0  501  0.00000000000E+00  0.00000000000E+00 -0.15933922161E+04  0.15933922161E+04  0.25500000920E-02 0. -1.
    10030    2    1    2    0    0  0.00000000000E+00  0.00000000000E+00 -0.37879032270E+03  0.28079941096E+04  0.27823279481E+04 0.  0.
        2    1    3    3  502    0  0.10742070820E+04  0.75255970330E+03 -0.65742984198E+03  0.14671335860E+04  0.25500000920E-02 0. -1.
       -2    1    3    3    0  502 -0.10742070820E+04 -0.75255970330E+03  0.27863951928E+03  0.13408605236E+04  0.25500000920E-02 0.  1.
</event>
<event>
 5   0  0.9426937E-06  0.2823813E+04  0.7818609E-02  0.8295913E-01
       -2   -1    0    0    0  501  0.00000000000E+00  0.00000000000E+00  0.14389830504E+04  0.14389830504E+04  0.25500000920E-02 0.  1.
        2   -1    0    0  501    0  0.00000000000E+00  0.00000000000E+00 -0.13853396072E+04  0.13853396072E+04  0.25500000920E-02 0. -1.
    10030    2    1    2    0    0  0.00000000000E+00  0.00000000000E+00  0.53643443224E+02  0.28243226577E+04  0.28238131765E+04 0.  0.
        4    1    3    3  502    0  0.10222281217E+04 -0.13660182600E+03  0.99129244641E+03  0.14304798911E+04  0.12699999809E+01 0.  1.
       -4    1    3    3    0  502 -0.10222281217E+04  0.13660182600E+03 -0.93764900319E+03  0.13938427665E+04  0.12699999809E+01 0. -1.
</event>
<event>
 5   0  0.3397882E-06  0.2902472E+04  0.7818609E-02  0.8272142E-01
       -1   -1    0    0    0  501  0.00000000000E+00  0.00000000000E+00  0.20194757131E+04  0.20194757131E+04  0.50400001928E-02 0.  1.
        1   -1    0    0  501    0  0.00000000000E+00  0.00000000000E+00 -0.10428873049E+04  0.10428873049E+04  0.50400001928E-02 0. -1.
    10030    2    1    2    0    0  0.00000000000E+00  0.00000000000E+00  0.97658840819E+03  0.30623630180E+04  0.29024717630E+04 0.  0.
        2    1    3    3  502    0 -0.13316002466E+04  0.55272523292E+03  0.31357856985E+03  0.14754646452E+04  0.25500000920E-02 0.  1.
       -2    1    3    3    0  502  0.13316002466E+04 -0.55272523292E+03  0.66300983834E+03  0.15868983728E+04  0.25500000920E-02 0. -1.
</event>
<event>
 5   0  0.3600963E-06  0.2812835E+04  0.7818609E-02  0.8299295E-01
        1   -1    0    0  501    0  0.00000000000E+00  0.00000000000E+00  0.26260751670E+04  0.26260751670E+04  0.50400001928E-02 0.  1.
       -1   -1    0    0    0  501  0.00000000000E+00  0.00000000000E+00 -0.75321932445E+03  0.75321932447E+03  0.50400001928E-02 0. -1.
    10030    2    1    2    0    0  0.00000000000E+00  0.00000000000E+00  0.18728558425E+04  0.33792944914E+04  0.28128352694E+04 0.  0.
        5    1    3    3  502    0 -0.52045974619E+03  0.99696378892E+03 -0.78135705184E+02  0.11273608217E+04  0.46999998093E+01 0. -1.
       -5    1    3    3    0  502  0.52045974619E+03 -0.99696378892E+03  0.19509915477E+04  0.22519336698E+04  0.46999998093E+01 0.  1.
</event>
<event>
 5   0  0.3397882E-06  0.2782946E+04  0.7818609E-02  0.8308583E-01
        1   -1    0    0  501    0  0.00000000000E+00  0.00000000000E+00  0.16308370367E+04  0.16308370367E+04  0.50400001928E-02 0. -1.
       -1   -1    0    0    0  501  0.00000000000E+00  0.00000000000E+00 -0.11872411708E+04  0.11872411708E+04  0.50400001928E-02 0.  1.
    10030    2    1    2    0    0  0.00000000000E+00  0.00000000000E+00  0.44359586589E+03  0.28180782075E+04  0.27829458298E+04 0.  0.
        2    1    3    3  502    0 -0.32610534215E+03  0.11939671533E+04  0.86566656458E+03  0.15103909621E+04  0.25500000920E-02 0. -1.
       -2    1    3    3    0  502  0.32610534215E+03 -0.11939671533E+04 -0.42207069868E+03  0.13076872455E+04  0.25500000920E-02 0.  1.
</event>
<event>
 5   0  0.9342133E-06  0.2825892E+04  0.7818609E-02  0.8295275E-01
        2   -1    0    0  501    0  0.00000000000E+00  0.00000000000E+00  0.23794051580E+04  0.23794051580E+04  0.25500000920E-02 0. -1.
       -2   -1    0    0    0  501  0.00000000000E+00  0.00000000000E+00 -0.83904010878E+03  0.83904010879E+03  0.25500000920E-02 0.  1.
    10030    2    1    2    0    0  0.00000000000E+00  0.00000000000E+00  0.15403650492E+04  0.32184452668E+04  0.28258919743E+04 0.  0.
        2    1    3    3  502    0  0.20443560747E+03  0.49303426054E+03 -0.71980988425E+03  0.89610432938E+03  0.25500000920E-02 0.  1.
       -2    1    3    3    0  502 -0.20443560747E+03 -0.49303426054E+03  0.22601749335E+04  0.23223409374E+04  0.25500000920E-02 0. -1.
</event>
<event>
 5   0  0.9065579E-06  0.2778129E+04  0.7818609E-02  0.8310091E-01
       -2   -1    0    0    0  501  0.00000000000E+00  0.00000000000E+00  0.26926059989E+04  0.26926059989E+04  0.25500000920E-02 0. -1.
        2   -1    0    0  501    0  0.00000000000E+00  0.00000000000E+00 -0.71659211784E+03  0.71659211785E+03  0.25500000920E-02 0.  1.
    10030    2    1    2    0    0  0.00000000000E+00  0.00000000000E+00  0.19760138810E+04  0.34091981167E+04  0.27781290361E+04 0.  0.
        3    1    3    3  502    0 -0.71702720590E+03 -0.74668330114E+03  0.21245922168E+04  0.23633781043E+04  0.10100000352E+00 0. -1.
       -3    1    3    3    0  502  0.71702720590E+03  0.74668330114E+03 -0.14857833578E+03  0.10458200124E+04  0.10100000352E+00 0.  1.
</event>
<event>
 5   0  0.9342133E-06  0.2801511E+04  0.7818609E-02  0.8302799E-01
        2   -1    0    0  501    0  0.00000000000E+00  0.00000000000E+00  0.19090389196E+04  0.19090389196E+04  0.25500000920E-02 0. -1.
       -2   -1    0    0    0  501  0.00000000000E+00  0.00000000000E+00 -0.10278031128E+04  0.10278031128E+04  0.25500000920E-02 0.  1.
    10030    2    1    2    0    0  0.00000000000E+00  0.00000000000E+00  0.88123580680E+03  0.29368420324E+04  0.28015111237E+04 0.  0.
        2    1    3    3  502    0 -0.60872271491E+03  0.12291461425E+04  0.73855196832E+03  0.15578198205E+04  0.25500000920E-02 0.  1.
       -2    1    3    3    0  502  0.60872271491E+03 -0.12291461425E+04  0.14268383848E+03  0.13790222119E+04  0.25500000920E-02 0. -1.
</event>
<event>
 5   0  0.3438130E-06  0.2811636E+04  0.7818609E-02  0.8299665E-01
        1   -1    0    0  501    0  0.00000000000E+00  0.00000000000E+00  0.15336077465E+04  0.15336077465E+04  0.50400001928E-02 0.  1.
       -1   -1    0    0    0  501  0.00000000000E+00  0.00000000000E+00 -0.12886764805E+04  0.12886764805E+04  0.50400001928E-02 0. -1.
    10030    2    1    2    0    0  0.00000000000E+00  0.00000000000E+00  0.24493126598E+03  0.28222842270E+04  0.28116359887E+04 0.  0.
        3    1    3    3  502    0  0.25249706840E+03 -0.11955820102E+04  0.82019024813E+03  0.14716939784E+04  0.10100000352E+00 0.  1.
       -3    1    3    3    0  502 -0.25249706840E+03  0.11955820102E+04 -0.57525898215E+03  0.13505902486E+04  0.10100000352E+00 0. -1.
</event>
<event>
 5   0  0.3600963E-06  0.2703939E+04  0.7818609E-02  0.8333728E-01
       -1   -1    0    0    0  501  0.00000000000E+00  0.00000000000E+00  0.91161344087E+03  0.91161344088E+03  0.50400001928E-02 0.  1.
        1   -1    0    0  501    0  0.00000000000E+00  0.00000000000E+00 -0.20050401902E+04  0.20050401902E+04  0.50400001928E-02 0. -1.
    10030    2    1    2    0    0  0.00000000000E+00  0.00000000000E+00 -0.10934267493E+04  0.29166536311E+04  0.27039390429E+04 0.  0.
        5    1    3    3  502    0 -0.30001501704E+03 -0.32564031242E+02 -0.19682371328E+04  0.19912430608E+04  0.46999998093E+01 0. -1.
       -5    1    3    3    0  502  0.30001501704E+03  0.32564031242E+02  0.87481038342E+03  0.92541057025E+03  0.46999998093E+01 0.  1.
</event>
<event>
 5   0  0.9252359E-06  0.2803178E+04  0.7818609E-02  0.8302282E-01
       -2   -1    0    0    0  501  0.00000000000E+00  0.00000000000E+00  0.15325000517E+04  0.15325000517E+04  0.25500000920E-02 0.  1.
        2   -1    0    0  501    0  0.00000000000E+00  0.00000000000E+00 -0.12818607256E+04  0.12818607256E+04  0.25500000920E-02 0. -1.
    10030    2    1    2    0    0  0.00000000000E+00  0.00000000000E+00  0.25063932607E+03  0.28143607773E+04  0.28031779310E+04 0.  0.
        5    1    3    3  502    0  0.13113650412E+04  0.48911295222E+03  0.19991132021E+03  0.14138233190E+04  0.46999998093E+01 0. -1.
       -5    1    3    3    0  502 -0.13113650412E+04 -0.48911295222E+03  0.50728005852E+02  0.14005374583E+04  0.46999998093E+01 0.  1.
</event>
<event>
 5   0  0.3600963E-06  0.2815650E+04  0.7818609E-02  0.8298426E-01
        1   -1    0    0  501    0  0.00000000000E+00  0.00000000000E+00  0.88407162412E+03  0.88407162414E+03  0.50400001928E-02 0.  1.
       -1   -1    0    0    0  501  0.00000000000E+00  0.00000000000E+00 -0.22418672516E+04  0.22418672516E+04  0.50400001928E-02 0. -1.
    10030    2    1    2    0    0  0.00000000000E+00  0.00000000000E+00 -0.13577956275E+04  0.31259388758E+04  0.28156499940E+04 0.  0.
        5    1    3    3  502    0  0.59338632493E+03  0.11427322564E+04 -0.46955362597E+02  0.12884763236E+04  0.46999998093E+01 0.  1.
       -5    1    3    3    0  502 -0.59338632493E+03 -0.11427322564E+04 -0.13108402649E+04  0.18374625521E+04  0.46999998093E+01 0. -1.
</event>
<event>
 5   0  0.3397882E-06  0.2879432E+04  0.7818609E-02  0.8279023E-01
        1   -1    0    0  501    0  0.00000000000E+00  0.00000000000E+00  0.13294365078E+04  0.13294365078E+04  0.50400001928E-02 0. -1.
       -1   -1    0    0    0  501  0.00000000000E+00  0.00000000000E+00 -0.15591436435E+04  0.15591436435E+04  0.50400001928E-02 0.  1.
    10030    2    1    2    0    0  0.00000000000E+00  0.00000000000E+00 -0.22970713569E+03  0.28885801513E+04  0.28794322222E+04 0.  0.
        2    1    3    3  502    0 -0.10328042983E+04  0.38775042052E+02  0.89062520901E+03  0.13643318824E+04  0.25500000920E-02 0. -1.
       -2    1    3    3    0  502  0.10328042983E+04 -0.38775042052E+02 -0.11203323447E+04  0.15242482688E+04  0.25500000920E-02 0.  1.
</event>
<event>
 5   0  0.9252359E-06  0.2809902E+04  0.7818609E-02  0.8300201E-01
       -2   -1    0    0    0  501  0.00000000000E+00  0.00000000000E+00  0.66752643290E+03  0.66752643291E+03  0.25500000920E-02 0.  1.
        2   -1    0    0  501    0  0.00000000000E+00  0.00000000000E+00 -0.29570176706E+04  0.29570176706E+04  0.25500000920E-02 0. -1.
    10030    2    1    2    0    0  0.00000000000E+00  0.00000000000E+00 -0.22894912377E+04  0.36245441035E+04  0.28099021034E+04 0.  0.
        5    1    3    3  502    0  0.24087756342E+03 -0.35732714220E+02  0.64008674211E+03  0.68485907664E+03  0.46999998093E+01 0.  1.
       -5    1    3    3    0  502 -0.24087756342E+03  0.35732714220E+02 -0.29295779798E+04  0.29396850269E+04  0.46999998093E+01 0. -1.
</event>
<event>
 5   0  0.3371603E-06  0.2757079E+04  0.7818609E-02  0.8316719E-01
        1   -1    0    0  501    0  0.00000000000E+00  0.00000000000E+00  0.14768474334E+04  0.14768474334E+04  0.50400001928E-02 0.  1.
       -1   -1    0    0    0  501  0.00000000000E+00  0.00000000000E+00 -0.12867758732E+04  0.12867758732E+04  0.50400001928E-02 0. -1.
    10030    2    1    2    0    0  0.00000000000E+00  0.00000000000E+00  0.19007156021E+03  0.27636233066E+04  0.27570793573E+04 0.  0.
        1    1    3    3  502    0 -0.69229476918E+03 -0.37938601371E+03  0.12278357500E+04  0.14597213515E+04  0.50400001928E-02 0.  1.
       -1    1    3    3    0  502  0.69229476918E+03  0.37938601371E+03 -0.10377641898E+04  0.13039019551E+04  0.50400001928E-02 0. -1.
</event>
<event>
 5   0  0.9065579E-06  0.2808295E+04  0.7818609E-02  0.8300698E-01
       -2   -1    0    0    0  501  0.00000000000E+00  0.00000000000E+00  0.14726466718E+04  0.14726466718E+04  0.25500000920E-02 0. -1.
        2   -1    0    0  501    0  0.00000000000E+00  0.00000000000E+00 -0.13388345057E+04  0.13388345057E+04  0.25500000920E-02 0.  1.
    10030    2    1    2    0    0  0.00000000000E+00  0.00000000000E+00  0.13381216607E+03  0.28114811774E+04  0.28082949837E+04 0.  0.
        3    1    3    3  502    0  0.12480844857E+04 -0.13825680211E+03 -0.56213819480E+03  0.13758012891E+04  0.10100000352E+00 0.  1.
       -3    1    3    3    0  502 -0.12480844857E+04  0.13825680211E+03  0.69595036087E+03  0.14356798883E+04  0.10100000352E+00 0. -1.
</event>
<event>
 5   0  0.9260173E-06  0.2799755E+04  0.7818609E-02  0.8303344E-01
       -2   -1    0    0    0  501  0.00000000000E+00  0.00000000000E+00  0.77502504627E+03  0.77502504627E+03  0.25500000920E-02 0.  1.
        2   -1    0    0  501    0  0.00000000000E+00  0.00000000000E+00 -0.25285086218E+04  0.25285086218E+04  0.25500000920E-02 0. -1.
    10030    2    1    2    0    0  0.00000000000E+00  0.00000000000E+00 -0.17534835756E+04  0.33035336681E+04  0.27997553548E+04 0.  0.
        1    1    3    3  502    0  0.54839629004E+03 -0.66090530126E+03  0.42767430535E+03  0.95939544487E+03  0.50400001928E-02 0.  1.
       -1    1    3    3    0  502 -0.54839629004E+03  0.66090530126E+03 -0.21811578809E+04  0.23441382232E+04  0.50400001928E-02 0. -1.
</event>
<event>
 5   0  0.9065579E-06  0.2768276E+04  0.7818609E-02  0.8313186E-01
        2   -1    0    0  501    0  0.00000000000E+00  0.00000000000E+00  0.19806662537E+04  0.19806662537E+04  0.25500000920E-02 0.  1.
       -2   -1    0    0    0  501  0.00000000000E+00  0.00000000000E+00 -0.96726937270E+03  0.96726937270E+03  0.25500000920E-02 0. -1.
    10030    2    1    2    0    0  0.00000000000E+00  0.00000000000E+00  0.10133968810E+04  0.29479356264E+04  0.27682758567E+04 0.  0.
        3    1    3    3  502    0  0.13943181336E+03 -0.48593682743E+03 -0.86543686746E+03  0.10022758166E+04  0.10100000352E+00 0. -1.
       -3    1    3    3    0  502 -0.13943181336E+03  0.48593682743E+03  0.18788337485E+04  0.19456598098E+04  0.10100000352E+00 0.  1.
</event>
<event>
 5   0  0.3397882E-06  0.2799658E+04  0.7818609E-02  0.8303375E-01
       -1   -1    0    0    0  501  0.00000000000E+00  0.00000000000E+00  0.11124904993E+04  0.11124904993E+04  0.50400001928E-02 0.  1.
        1   -1    0    0  501    0  0.00000000000E+00  0.00000000000E+00 -0.17613820435E+04  0.17613820435E+04  0.50400001928E-02 0. -1.
    10030    2    1    2    0    0  0.00000000000E+00  0.00000000000E+00 -0.64889154416E+03  0.28738725428E+04  0.27996576855E+04 0.  0.
        2    1    3    3  502    0 -0.30677486770E+03 -0.54961585068E+01  0.10775483734E+04  0.11203800803E+04  0.25500000920E-02 0.  1.
       -2    1    3    3    0  502  0.30677486770E+03  0.54961585068E+01 -0.17264399176E+04  0.17534924625E+04  0.25500000920E-02 0. -1.
</event>
<event>
 5   0  0.9426937E-06  0.2425891E+04  0.7818609E-02  0.8429874E-01
        2   -1    0    0  501    0  0.00000000000E+00  0.00000000000E+00  0.11217217842E+04  0.11217217842E+04  0.25500000920E-02 0. -1.
       -2   -1    0    0    0  501  0.00000000000E+00  0.00000000000E+00 -0.13115878527E+04  0.13115878527E+04  0.25500000920E-02 0.  1.
    10030    2    1    2    0    0  0.00000000000E+00  0.00000000000E+00 -0.18986606850E+03  0.24333096369E+04  0.24258909013E+04 0.  0.
        4    1    3    3  502    0 -0.31009338783E+03 -0.90192649805E+03 -0.84662840905E+03  0.12753080385E+04  0.12699999809E+01 0.  1.
       -4    1    3    3    0  502  0.31009338783E+03  0.90192649805E+03  0.65676234055E+03  0.11580015984E+04  0.12699999809E+01 0. -1.
</event>
<event>
 5   0  0.3600963E-06  0.2858361E+04  0.7818609E-02  0.8285375E-01
       -1   -1    0    0    0  501  0.00000000000E+00  0.00000000000E+00  0.12642178440E+04  0.12642178440E+04  0.50400001928E-02 0. -1.
        1   -1    0    0  501    0  0.00000000000E+00  0.00000000000E+00 -0.16156682362E+04  0.16156682362E+04  0.50400001928E-02 0.  1.
    10030    2    1    2    0    0  0.00000000000E+00  0.00000000000E+00 -0.35145039216E+03  0.28798860802E+04  0.28583607989E+04 0.  0.
        5    1    3    3  502    0  0.14238770788E+04 -0.30984420682E+02 -0.55881748446E+02  0.14253177995E+04  0.46999998093E+01 0.  1.
       -5    1    3    3    0  502 -0.14238770788E+04  0.30984420682E+02 -0.29556864372E+03  0.14545682806E+04  0.46999998093E+01 0. -1.
</event>
<event>
 5   0  0.3397882E-06  0.2822147E+04  0.7818609E-02  0.8296425E-01
       -1   -1    0    0    0  501  0.00000000000E+00  0.00000000000E+00  0.19323260226E+04  0.19323260226E+04  0.50400001928E-02 0.  1.
        1   -1    0    0  501    0  0.00000000000E+00  0.00000000000E+00 -0.10304308911E+04  0.10304308911E+04  0.50400001928E-02 0. -1.
    10030    2    1    2    0    0  0.00000000000E+00  0.00000000000E+00  0.90189513148E+03  0.29627569137E+04  0.28221470021E+04 0.  0.
        2    1    3    3  502    0 -0.42708467470E+03  0.10798657329E+04 -0.39062685924E+03  0.12251941330E+04  0.25500000920E-02 0. -1.
       -2    1    3    3    0  502  0.42708467470E+03 -0.10798657329E+04  0.12925219907E+04  0.17375627807E+04  0.25500000920E-02 0.  1.
</event>
<event>
 5   0  0.3397882E-06  0.2615293E+04  0.7818609E-02  0.8363025E-01
        1   -1    0    0  501    0  0.00000000000E+00  0.00000000000E+00  0.24059312181E+04  0.24059312181E+04  0.50400001928E-02 0.  1.
       -1   -1    0    0    0  501  0.00000000000E+00  0.00000000000E+00 -0.71071848414E+03  0.71071848416E+03  0.50400001928E-02 0. -1.
    10030    2    1    2    0    0  0.00000000000E+00  0.00000000000E+00  0.16952127340E+04  0.31166497023E+04  0.26152933207E+04 0.  0.
        2    1    3    3  502    0  0.30962498517E+03  0.98189535037E+03  0.18083528213E+04  0.20808954892E+04  0.25500000920E-02 0.  1.
       -2    1    3    3    0  502 -0.30962498517E+03 -0.98189535037E+03 -0.11314008737E+03  0.10357542131E+04  0.25500000920E-02 0. -1.
</event>
<event>
 5   0  0.3438130E-06  0.2855834E+04  0.7818609E-02  0.8286141E-01
       -1   -1    0    0    0  501  0.00000000000E+00  0.00000000000E+00  0.91918886387E+03  0.91918886388E+03  0.50400001928E-02 0.  1.
        1   -1    0    0  501    0  0.00000000000E+00  0.00000000000E+00 -0.22182028079E+04  0.22182028079E+04  0.50400001928E-02 0. -1.
    10030    2    1    2    0    0  0.00000000000E+00  0.00000000000E+00 -0.12990139440E+04  0.31373916718E+04  0.28558342521E+04 0.  0.
        3    1    3    3  502    0  0.97988616345E+03  0.31659598556E+03 -0.17362439759E+04  0.20186512987E+04  0.10100000352E+00 0. -1.
       -3    1    3    3    0  502 -0.97988616345E+03 -0.31659598556E+03  0.43723003193E+03  0.11187403731E+04  0.10100000352E+00 0.  1.
</event>
<event>
 5   0  0.3600963E-06  0.2732859E+04  0.7818609E-02  0.8324421E-01
       -1   -1    0    0    0  501  0.00000000000E+00  0.00000000000E+00  0.10868978805E+04  0.10868978805E+04  0.50400001928E-02 0.  1.
        1   -1    0    0  501    0  0.00000000000E+00  0.00000000000E+00 -0.17178520803E+04  0.17178520803E+04  0.50400001928E-02 0. -1.
    10030    2    1    2    0    0  0.00000000000E+00  0.00000000000E+00 -0.63095419981E+03  0.28047499608E+04  0.27328591512E+04 0.  0.
        5    1    3    3  502    0 -0.11254948355E+03 -0.20930958614E+03 -0.16964709167E+04  0.17130421917E+04  0.46999998093E+01 0. -1.
       -5    1    3    3    0  502  0.11254948355E+03  0.20930958614E+03  0.10655167169E+04  0.10917077691E+04  0.46999998093E+01 0.  1.
</event>
<event>
 5   0  0.9252359E-06  0.2792696E+04  0.7818609E-02  0.8305540E-01
       -2   -1    0    0    0  501  0.00000000000E+00  0.00000000000E+00  0.10260942024E+04  0.10260942024E+04  0.25500000920E-02 0. -1.
        2   -1    0    0  501    0  0.00000000000E+00  0.00000000000E+00 -0.19002029536E+04  0.19002029536E+04  0.25500000920E-02 0.  1.
    10030    2    1    2    0    0  0.00000000000E+00  0.00000000000E+00 -0.87410875123E+03  0.29262971560E+04  0.27926956398E+04 0.  0.
        5    1    3    3  502    0  0.32341766562E+01  0.46592725736E+03  0.94222519765E+03  0.10511465560E+04  0.46999998093E+01 0. -1.
       -5    1    3    3    0  502 -0.32341766562E+01 -0.46592725736E+03 -0.18163339489E+04  0.18751506001E+04  0.46999998093E+01 0.  1.
</event>
<event>
 5   0  0.3438130E-06  0.2809513E+04  0.7818609E-02  0.8300321E-01
       -1   -1    0    0    0  501  0.00000000000E+00  0.00000000000E+00  0.12731806401E+04  0.12731806401E+04  0.50400001928E-02 0. -1.
        1   -1    0    0  501    0  0.00000000000E+00  0.00000000000E+00 -0.15499300055E+04  0.15499300056E+04  0.50400001928E-02 0.  1.
    10030    2    1    2    0    0  0.00000000000E+00  0.00000000000E+00 -0.27674936545E+03  0.28231106457E+04  0.28095130372E+04 0.  0.
        3    1    3    3  502    0  0.13502918096E+04  0.38523127314E+03 -0.17918851926E+03  0.14155563008E+04  0.10100000352E+00 0.  1.
       -3    1    3    3    0  502 -0.13502918096E+04 -0.38523127314E+03 -0.97560846186E+02  0.14075543449E+04  0.10100000352E+00 0. -1.
</event>
<event>
 5   0  0.3600963E-06  0.2824019E+04  0.7818609E-02  0.8295850E-01
        1   -1    0    0  501    0  0.00000000000E+00  0.00000000000E+00  0.22802303836E+04  0.22802303836E+04  0.50400001928E-02 0.  1.
       -1   -1    0    0    0  501  0.00000000000E+00  0.00000000000E+00 -0.87437249972E+03  0.87437249974E+03  0.50400001928E-02 0. -1.
    10030    2    1    2    0    0  0.00000000000E+00  0.00000000000E+00  0.14058578838E+04  0.31546028833E+04  0.28240189379E+04 0.  0.
        5    1    3    3  502    0 -0.78988363652E+03  0.28465845152E+03  0.19710777022E+04  0.21424555984E+04  0.46999998093E+01 0.  1.
       -5    1    3    3    0  502  0.78988363652E+03 -0.28465845152E+03 -0.56521981832E+03  0.10121472849E+04  0.46999998093E+01 0. -1.
</event>
<event>
 5   0  0.3357244E-06  0.2756570E+04  0.7818609E-02  0.8316880E-01
        1   -1    0    0  501    0  0.00000000000E+00  0.00000000000E+00  0.13612168168E+04  0.13612168168E+04  0.50400001928E-02 0.  1.
       -1   -1    0    0    0  501  0.00000000000E+00  0.00000000000E+00 -0.13955670969E+04  0.13955670969E+04  0.50400001928E-02 0. -1.
    10030    2    1    2    0    0  0.00000000000E+00  0.00000000000E+00 -0.34350280141E+02  0.27567839137E+04  0.27565698985E+04 0.  0.
        4    1    3    3  502    0  0.64702165194E+03 -0.84741092465E+03 -0.89069901732E+03  0.13892763028E+04  0.12699999809E+01 0. -1.
       -4    1    3    3    0  502 -0.64702165194E+03  0.84741092465E+03  0.85634873718E+03  0.13675076109E+04  0.12699999809E+01 0.  1.
</event>
<event>
 5   0  0.3397882E-06  0.2777468E+04  0.7818609E-02  0.8310298E-01
       -1   -1    0    0    0  501  0.00000000000E+00  0.00000000000E+00  0.14112292816E+04  0.14112292816E+04  0.50400001928E-02 0.  1.
        1   -1    0    0  501    0  0.00000000000E+00  0.00000000000E+00 -0.13665973126E+04  0.13665973126E+04  0.50400001928E-02 0. -1.
    10030    2    1    2    0    0  0.00000000000E+00  0.00000000000E+00  0.44631969024E+02  0.27778265942E+04  0.27774680151E+04 0.  0.
        2    1    3    3  502    0 -0.10586400318E+04 -0.20318687800E+03 -0.85334174950E+03  0.13748439060E+04  0.25500000920E-02 0. -1.
       -2    1    3    3    0  502  0.10586400318E+04  0.20318687800E+03  0.89797371852E+03  0.14029826882E+04  0.25500000920E-02 0.  1.
</event>
<event>
 5   0  0.9342133E-06  0.2806086E+04  0.7818609E-02  0.8301381E-01
        2   -1    0    0  501    0  0.00000000000E+00  0.00000000000E+00  0.11051753723E+04  0.11051753723E+04  0.25500000920E-02 0. -1.
       -2   -1    0    0    0  501  0.00000000000E+00  0.00000000000E+00 -0.17811925873E+04  0.17811925873E+04  0.25500000920E-02 0.  1.
    10030    2    1    2    0    0  0.00000000000E+00  0.00000000000E+00 -0.67601721505E+03  0.28863679596E+04  0.28060863713E+04 0.  0.
        2    1    3    3  502    0 -0.39018504109E+03 -0.36868522487E+03  0.99536373566E+03  0.11308943928E+04  0.25500000920E-02 0. -1.
       -2    1    3    3    0  502  0.39018504109E+03  0.36868522487E+03 -0.16713809507E+04  0.17554735668E+04  0.25500000920E-02 0.  1.
</event>
<event>
 5   0  0.9065579E-06  0.2819926E+04  0.7818609E-02  0.8297109E-01
        2   -1    0    0  501    0  0.00000000000E+00  0.00000000000E+00  0.19829072788E+04  0.19829072788E+04  0.25500000920E-02 0.  1.
       -2   -1    0    0    0  501  0.00000000000E+00  0.00000000000E+00 -0.10025658411E+04  0.10025658411E+04  0.25500000920E-02 0. -1.
    10030    2    1    2    0    0  0.00000000000E+00  0.00000000000E+00  0.98034143771E+03  0.29854731199E+04  0.28199256045E+04 0.  0.
        3    1    3    3  502    0  0.13966163572E+04 -0.19031272540E+03  0.45290619703E+03  0.14804999886E+04  0.10100000352E+00 0. -1.
       -3    1    3    3    0  502 -0.13966163572E+04  0.19031272540E+03  0.52743524067E+03  0.15049731313E+04  0.10100000352E+00 0.  1.
</event>
<event>
 5   0  0.9426937E-06  0.2910699E+04  0.7818609E-02  0.8269701E-01
       -2   -1    0    0    0  501  0.00000000000E+00  0.00000000000E+00  0.25671409442E+04  0.25671409442E+04  0.25500000920E-02 0.  1.
        2   -1    0    0  501    0  0.00000000000E+00  0.00000000000E+00 -0.82505865510E+03  0.82505865511E+03  0.25500000920E-02 0. -1.
    10030    2    1    2    0    0  0.00000000000E+00  0.00000000000E+00  0.17420822891E+04  0.33921995993E+04  0.29106987854E+04 0.  0.
        4    1    3    3  502    0 -0.38402046242E+03 -0.54321848134E+03  0.23795714665E+04  0.24708136334E+04  0.12699999809E+01 0.  1.
       -4    1    3    3    0  502  0.38402046242E+03  0.54321848134E+03 -0.63748917737E+03  0.92138596592E+03  0.12699999809E+01 0. -1.
</event>
<event>
 5   0  0.3600963E-06  0.2795797E+04  0.7818609E-02  0.8304574E-01
       -1   -1    0    0    0  501  0.00000000000E+00  0.00000000000E+00  0.12947634838E+04  0.12947634838E+04  0.50400001928E-02 0.  1.
        1   -1    0    0  501    0  0.00000000000E+00  0.00000000000E+00 -0.15092485510E+04  0.15092485510E+04  0.50400001928E-02 0. -1.
    10030    2    1    2    0    0  0.00000000000E+00  0.00000000000E+00 -0.21448506726E+03  0.28040120348E+04  0.27957967822E+04 0.  0.
        5    1    3    3  502    0 -0.79569222489E+02  0.46343898816E+03  0.12130568159E+04  0.13010134071E+04  0.46999998093E+01 0.  1.
       -5    1    3    3    0  502  0.79569222489E+02 -0.46343898816E+03 -0.14275418831E+04  0.15029986277E+04  0.46999998093E+01 0. -1.
</event>
<event>
 5   0  0.9260173E-06  0.2844421E+04  0.7818609E-02  0.8289609E-01
       -2   -1    0    0    0  501  0.00000000000E+00  0.00000000000E+00  0.11597598958E+04  0.11597598958E+04  0.25500000920E-02 0.  1.
        2   -1    0    0  501    0  0.00000000000E+00  0.00000000000E+00 -0.17440532921E+04  0.17440532921E+04  0.25500000920E-02 0. -1.
    10030    2    1    2    0    0  0.00000000000E+00  0.00000000000E+00 -0.58429339636E+03  0.29038131879E+04  0.28444212517E+04 0.  0.
        1    1    3    3  502    0 -0.10365576956E+04 -0.62123406868E+03  0.47337690200E+03  0.12978710705E+04  0.50400001928E-02 0.  1.
       -1    1    3    3    0  502  0.10365576956E+04  0.62123406868E+03 -0.10576702984E+04  0.16059421174E+04  0.50400001928E-02 0. -1.
</event>
<event>
 5   0  0.9252359E-06  0.2771680E+04  0.7818609E-02  0.8312115E-01
       -2   -1    0    0    0  501  0.00000000000E+00  0.00000000000E+00  0.13387686635E+04  0.13387686635E+04  0.25500000920E-02 0. -1.
        2   -1    0    0  501    0  0.00000000000E+00  0.00000000000E+00 -0.14345665310E+04  0.14345665310E+04  0.25500000920E-02 0.  1.
    10030    2    1    2    0    0  0.00000000000E+00  0.00000000000E+00 -0.95797867541E+02  0.27733351945E+04  0.27716801528E+04 0.  0.
        5    1    3    3  502    0 -0.10944241028E+04 -0.16363322018E+03 -0.88265765102E+03  0.14155022311E+04  0.46999998093E+01 0.  1.
       -5    1    3    3    0  502  0.10944241028E+04  0.16363322018E+03  0.78685978348E+03  0.13578329633E+04  0.46999998093E+01 0. -1.
</event>
<event>
 5   0  0.3357244E-06  0.2786347E+04  0.7818609E-02  0.8307520E-01
        1   -1    0    0  501    0  0.00000000000E+00  0.00000000000E+00  0.23545465153E+04  0.23545465153E+04  0.50400001928E-02 0.  1.
       -1   -1    0    0    0  501  0.00000000000E+00  0.00000000000E+00 -0.82433355841E+03  0.82433355843E+03  0.50400001928E-02 0. -1.
    10030    2    1    2    0    0  0.00000000000E+00  0.00000000000E+00  0.15302129569E+04  0.31788800737E+04  0.27863465021E+04 0.  0.
        4    1    3    3  502    0  0.31704914500E+03  0.13042930656E+04  0.33940544496E+03  0.13845209389E+04  0.12699999809E+01 0. -1.
       -4    1    3    3    0  502 -0.31704914500E+03 -0.13042930656E+04  0.11908075119E+04  0.17943591348E+04  0.12699999809E+01 0.  1.
</event>
<event>
 5   0  0.3397882E-06  0.2788347E+04  0.7818609E-02  0.8306895E-01
        1   -1    0    0  501    0  0.00000000000E+00  0.00000000000E+00  0.12985443740E+04  0.12985443740E+04  0.50400001928E-02 0.  1.
       -1   -1    0    0    0  501  0.00000000000E+00  0.00000000000E+00 -0.14968448821E+04  0.14968448821E+04  0.50400001928E-02 0. -1.
    10030    2    1    2    0    0  0.00000000000E+00  0.00000000000E+00 -0.19830050804E+03  0.27953892561E+04  0.27883468224E+04 0.  0.
        2    1    3    3  502    0 -0.10361488270E+04 -0.93222814308E+03 -0.66421236846E+02  0.13953728832E+04  0.25500000920E-02 0. -1.
       -2    1    3    3    0  502  0.10361488270E+04  0.93222814308E+03 -0.13187927119E+03  0.14000163730E+04  0.25500000920E-02 0.  1.
</event>
<event>
 5   0  0.3397882E-06  0.2761138E+04  0.7818609E-02  0.8315436E-01
        1   -1    0    0  501    0  0.00000000000E+00  0.00000000000E+00  0.17742596018E+04  0.17742596018E+04  0.50400001928E-02 0. -1.
       -1   -1    0    0    0  501  0.00000000000E+00  0.00000000000E+00 -0.10742341978E+04  0.10742341978E+04  0.50400001928E-02 0.  1.
    10030    2    1    2    0    0  0.00000000000E+00  0.00000000000E+00  0.70002540400E+03  0.28484937995E+04  0.27611376930E+04 0.  0.
        2    1    3    3  502    0  0.55927377179E+03  0.11671603647E+04  0.84575715901E+03  0.15460775016E+04  0.25500000920E-02 0.  1.
       -2    1    3    3    0  502 -0.55927377179E+03 -0.11671603647E+04 -0.14573175501E+03  0.13024162980E+04  0.25500000920E-02 0. -1.
</event>
<event>
 5   0  0.3600963E-06  0.2778004E+04  0.7818609E-02  0.8310130E-01
       -1   -1    0    0    0  501  0.00000000000E+00  0.00000000000E+00  0.16116296060E+04  0.16116296061E+04  0.50400001928E-02 0. -1.
        1   -1    0    0  501    0  0.00000000000E+00  0.00000000000E+00 -0.11971281467E+04  0.11971281467E+04  0.50400001928E-02 0.  1.
    10030    2    1    2    0    0  0.00000000000E+00  0.00000000000E+00  0.41450145937E+03  0.28087577527E+04  0.27780044373E+04 0.  0.
        5    1    3    3  502    0 -0.10447864172E+03 -0.11442522962E+04 -0.58182208573E+03  0.12879317270E+04  0.46999998093E+01 0.  1.
       -5    1    3    3    0  502  0.10447864172E+03  0.11442522962E+04  0.99632354510E+03  0.15208260257E+04  0.46999998093E+01 0. -1.
</event>
<event>
 5   0  0.3357244E-06  0.2799413E+04  0.7818609E-02  0.8303451E-01
        1   -1    0    0  501    0  0.00000000000E+00  0.00000000000E+00  0.28237742956E+04  0.28237742956E+04  0.50400001928E-02 0. -1.
       -1   -1    0    0    0  501  0.00000000000E+00  0.00000000000E+00 -0.69381523110E+03  0.69381523112E+03  0.50400001928E-02 0.  1.
    10030    2    1    2    0    0  0.00000000000E+00  0.00000000000E+00  0.21299590645E+04  0.35175895267E+04  0.27994125209E+04 0.  0.
        4    1    3    3  502    0  0.13121453795E+04 -0.33779535367E+03  0.15062843714E+04  0.20260121960E+04  0.12699999809E+01 0. -1.
       -4    1    3    3    0  502 -0.13121453795E+04  0.33779535367E+03  0.62367469301E+03  0.14915773307E+04  0.12699999809E+01 0.  1.
</event>
<event>
 5   0  0.9342133E-06  0.2784214E+04  0.7818609E-02  0.8308186E-01
        2   -1    0    0  501    0  0.00000000000E+00  0.00000000000E+00  0.23579383382E+04  0.23579383382E+04  0.25500000920E-02 0.  1.
       -2   -1    0    0    0  501  0.00000000000E+00  0.00000000000E+00 -0.82188801946E+03  0.82188801947E+03  0.25500000920E-02 0. -1.
    10030    2    1    2    0    0  0.00000000000E+00  0.00000000000E+00  0.15360503187E+04  0.31798263577E+04  0.27842135484E+04 0.  0.
        2    1    3    3  502    0 -0.11092671749E+04  0.20450144881E+03 -0.16378898580E+03  0.11397900420E+04  0.25500000920E-02 0. -1.
       -2    1    3    3    0  502  0.11092671749E+04 -0.20450144881E+03  0.16998393045E+04  0.20400363157E+04  0.25500000920E-02 0.  1.
</event>
<event>
 5   0  0.9342133E-06  0.2804033E+04  0.7818609E-02  0.8302017E-01
       -2   -1    0    0    0  501  0.00000000000E+00  0.00000000000E+00  0.12779360041E+04  0.12779360041E+04  0.25500000920E-02 0. -1.
        2   -1    0    0  501    0  0.00000000000E+00  0.00000000000E+00 -0.15381442905E+04  0.15381442905E+04  0.25500000920E-02 0.  1.
    10030    2    1    2    0    0  0.00000000000E+00  0.00000000000E+00 -0.26020828640E+03  0.28160802945E+04  0.28040327874E+04 0.  0.
        2    1    3    3  502    0 -0.18359995505E+02  0.13745656255E+04  0.14654667589E+03  0.13824773692E+04  0.25500000920E-02 0. -1.
       -2    1    3    3    0  502  0.18359995505E+02 -0.13745656255E+04 -0.40675496230E+03  0.14336029253E+04  0.25500000920E-02 0.  1.
</event>
<event>
 5   0  0.9065579E-06  0.2787071E+04  0.7818609E-02  0.8307293E-01
       -2   -1    0    0    0  501  0.00000000000E+00  0.00000000000E+00  0.25317595638E+04  0.25317595638E+04  0.25500000920E-02 0. -1.
        2   -1    0    0  501    0  0.00000000000E+00  0.00000000000E+00 -0.76703236354E+03  0.76703236354E+03  0.25500000920E-02 0.  1.
    10030    2    1    2    0    0  0.00000000000E+00  0.00000000000E+00  0.17647272003E+04  0.32987919273E+04  0.27870712385E+04 0.  0.
        3    1    3    3  502    0  0.83952292893E+03 -0.11083000001E+04  0.77124410449E+03  0.15899512940E+04  0.10100000352E+00 0. -1.
       -3    1    3    3    0  502 -0.83952292893E+03  0.11083000001E+04  0.99348309577E+03  0.17088406333E+04  0.10100000352E+00 0.  1.
</event>
<event>
 5   0  0.3371603E-06  0.2810672E+04  0.7818609E-02  0.8299963E-01
       -1   -1    0    0    0  501  0.00000000000E+00  0.00000000000E+00  0.15113430621E+04  0.15113430621E+04  0.50400001928E-02 0.  1.
        1   -1    0    0  501    0  0.00000000000E+00  0.00000000000E+00 -0.13067642126E+04  0.13067642126E+04  0.50400001928E-02 0. -1.
    10030    2    1    2    0    0  0.00000000000E+00  0.00000000000E+00  0.20457884952E+03  0.28181072747E+04  0.28106718246E+04 0.  0.
        1    1    3    3  502    0 -0.13010584340E+04 -0.49138805426E+03  0.30469907385E+03  0.14237474474E+04  0.50400001928E-02 0. -1.
       -1    1    3    3    0  502  0.13010584340E+04  0.49138805426E+03 -0.10012022433E+03  0.13943598272E+04  0.50400001928E-02 0.  1.
</event>
<event>
 5   0  0.3397882E-06  0.2804645E+04  0.7818609E-02  0.8301828E-01
       -1   -1    0    0    0  501  0.00000000000E+00  0.00000000000E+00  0.12506301125E+04  0.12506301125E+04  0.50400001928E-02 0.  1.
        1   -1    0    0  501    0  0.00000000000E+00  0.00000000000E+00 -0.15724143799E+04  0.15724143800E+04  0.50400001928E-02 0. -1.
    10030    2    1    2    0    0  0.00000000000E+00  0.00000000000E+00 -0.32178426746E+03  0.28230444924E+04  0.28046452702E+04 0.  0.
        2    1    3    3  502    0  0.12891026885E+04  0.27047910837E+02  0.39407908631E+03  0.13482639419E+04  0.25500000920E-02 0.  1.
       -2    1    3    3    0  502 -0.12891026885E+04 -0.27047910837E+02 -0.71586335377E+03  0.14747805505E+04  0.25500000920E-02 0. -1.
</event>
<event>
 5   0  0.3397882E-06  0.2793753E+04  0.7818609E-02  0.8305210E-01
       -1   -1    0    0    0  501  0.00000000000E+00  0.00000000000E+00  0.10441047042E+04  0.10441047042E+04  0.50400001928E-02 0. -1.
        1   -1    0    0  501    0  0.00000000000E+00  0.00000000000E+00 -0.18688394106E+04  0.18688394106E+04  0.50400001928E-02 0.  1.
    10030    2    1    2    0    0  0.00000000000E+00  0.00000000000E+00 -0.82473470640E+03  0.29129441148E+04  0.27937530457E+04 0.  0.
        2    1    3    3  502    0 -0.10555263699E+04  0.72289893799E+03 -0.99713816774E+03  0.16220367806E+04  0.25500000920E-02 0. -1.
       -2    1    3    3    0  502  0.10555263699E+04 -0.72289893799E+03  0.17240346133E+03  0.12909073342E+04  0.25500000920E-02 0.  1.
</event>
<event>
 5   0  0.9065579E-06  0.2866974E+04  0.7818609E-02  0.8282772E-01
       -2   -1    0    0    0  501  0.00000000000E+00  0.00000000000E+00  0.98302368920E+03  0.98302368920E+03  0.25500000920E-02 0. -1.
        2   -1    0    0  501    0  0.00000000000E+00  0.00000000000E+00 -0.20903719443E+04  0.20903719443E+04  0.25500000920E-02 0.  1.
    10030    2    1    2    0    0  0.00000000000E+00  0.00000000000E+00 -0.11073482551E+04  0.30733956335E+04  0.28669741125E+04 0.  0.
        3    1    3    3  502    0  0.10171028123E+04 -0.20806938925E+03  0.50597698949E+03  0.11549042062E+04  0.10100000352E+00 0. -1.
       -3    1    3    3    0  502 -0.10171028123E+04  0.20806938925E+03 -0.16133252446E+04  0.19184914273E+04  0.10100000352E+00 0.  1.
</event>
<event>
 5   0  0.9342133E-06  0.2737759E+04  0.7818609E-02  0.8322857E-01
        2   -1    0    0  501    0  0.00000000000E+00  0.00000000000E+00  0.15820065984E+04  0.15820065984E+04  0.25500000920E-02 0. -1.
       -2   -1    0    0    0  501  0.00000000000E+00  0.00000000000E+00 -0.11844645605E+04  0.11844645605E+04  0.25500000920E-02 0.  1.
    10030    2    1    2    0    0  0.00000000000E+00  0.00000000000E+00  0.39754203796E+03  0.27664711589E+04  0.27377587551E+04 0.  0.
        2    1    3    3  502    0  0.88825906648E+03  0.68523449722E+03 -0.59385342794E+03  0.12693354085E+04  0.25500000920E-02 0.  1.
       -2    1    3    3    0  502 -0.88825906648E+03 -0.68523449722E+03  0.99139546591E+03  0.14971357504E+04  0.25500000920E-02 0. -1.
</event>
<event>
 5   0  0.9342133E-06  0.2839074E+04  0.7818609E-02  0.8291239E-01
       -2   -1    0    0    0  501  0.00000000000E+00  0.00000000000E+00  0.12985579712E+04  0.12985579712E+04  0.25500000920E-02 0.  1.
        2   -1    0    0  501    0  0.00000000000E+00  0.00000000000E+00 -0.15517868655E+04  0.15517868655E+04  0.25500000920E-02 0. -1.
    10030    2    1    2    0    0  0.00000000000E+00  0.00000000000E+00 -0.25322889432E+03  0.28503448366E+04  0.28390739361E+04 0.  0.
        2    1    3    3  502    0  0.11469944771E+04  0.39008418511E+03  0.61613550257E+03  0.13591854030E+04  0.25500000920E-02 0.  1.
       -2    1    3    3    0  502 -0.11469944771E+04 -0.39008418511E+03 -0.86936439689E+03  0.14911594337E+04  0.25500000920E-02 0. -1.
</event>
<event>
 5   0  0.3357244E-06  0.2708051E+04  0.7818609E-02  0.8332397E-01
       -1   -1    0    0    0  501  0.00000000000E+00  0.00000000000E+00  0.12359356306E+04  0.12359356306E+04  0.50400001928E-02 0.  1.
        1   -1    0    0  501    0  0.00000000000E+00  0.00000000000E+00 -0.14833984233E+04  0.14833984233E+04  0.50400001928E-02 0. -1.
    10030    2    1    2    0    0  0.00000000000E+00  0.00000000000E+00 -0.24746279269E+03  0.27193340539E+04  0.27080509343E+04 0.  0.
        4    1    3    3  502    0 -0.64836557707E+03  0.79621282965E+03  0.76258453392E+03  0.12790111711E+04  0.12699999809E+01 0.  1.
       -4    1    3    3    0  502  0.64836557707E+03 -0.79621282965E+03 -0.10100473266E+04  0.14403228827E+04  0.12699999809E+01 0. -1.
</event>
<event>
 5   0  0.3006875E-06  0.2798093E+04  0.7818609E-02  0.8303861E-01
       -3   -1    0    0    0  501  0.00000000000E+00  0.00000000000E+00  0.68798318487E+03  0.68798319228E+03  0.10100000352E+00 0.  1.
        3   -1    0    0  501    0  0.00000000000E+00  0.00000000000E+00 -0.28450266196E+04  0.28450266214E+04  0.10100000352E+00 0. -1.
    10030    2    1    2    0    0  0.00000000000E+00  0.00000000000E+00 -0.21570434348E+04  0.35330098137E+04  0.27980925582E+04 0.  0.
        5    1    3    3  502    0  0.67631117982E+03  0.71432328068E+00 -0.26248992239E+04  0.27106300647E+04  0.46999998093E+01 0. -1.
       -5    1    3    3    0  502 -0.67631117982E+03 -0.71432328068E+00  0.46785578909E+03  0.82237974901E+03  0.46999998093E+01 0.  1.
</event>
<event>
 5   0  0.9260173E-06  0.2832919E+04  0.7818609E-02  0.8293121E-01
        2   -1    0    0  501    0  0.00000000000E+00  0.00000000000E+00  0.23232176264E+04  0.23232176264E+04  0.25500000920E-02 0.  1.
       -2   -1    0    0    0  501  0.00000000000E+00  0.00000000000E+00 -0.86361127519E+03  0.86361127520E+03  0.25500000920E-02 0. -1.
    10030    2    1    2    0    0  0.00000000000E+00  0.00000000000E+00  0.14596063512E+04  0.31868289016E+04  0.28329185918E+04 0.  0.
        1    1    3    3  502    0 -0.10709102274E+04  0.92053343022E+03  0.85368028248E+03  0.16501516706E+04  0.50400001928E-02 0.  1.
       -1    1    3    3    0  502  0.10709102274E+04 -0.92053343022E+03  0.60592606870E+03  0.15366772309E+04  0.50400001928E-02 0. -1.
</event>
<event>
 5   0  0.9065579E-06  0.2776889E+04  0.7818609E-02  0.8310480E-01
        2   -1    0    0  501    0  0.00000000000E+00  0.00000000000E+00  0.15654772623E+04  0.15654772623E+04  0.25500000920E-02 0. -1.
       -2   -1    0    0    0  501  0.00000000000E+00  0.00000000000E+00 -0.12314314031E+04  0.12314314031E+04  0.25500000920E-02 0.  1.
    10030    2    1    2    0    0  0.00000000000E+00  0.00000000000E+00  0.33404585922E+03  0.27969086654E+04  0.27768888070E+04 0.  0.
        3    1    3    3  502    0  0.11972835071E+04  0.25772649565E+03  0.82585426295E+03  0.14771411635E+04  0.10100000352E+00 0. -1.
       -3    1    3    3    0  502 -0.11972835071E+04 -0.25772649565E+03 -0.49180840373E+03  0.13197675019E+04  0.10100000352E+00 0.  1.
</event>
<event>
 5   0  0.3397882E-06  0.2805994E+04  0.7818609E-02  0.8301410E-01
       -1   -1    0    0    0  501  0.00000000000E+00  0.00000000000E+00  0.10444392385E+04  0.10444392385E+04  0.50400001928E-02 0.  1.
        1   -1    0    0  501    0  0.00000000000E+00  0.00000000000E+00 -0.18846477575E+04  0.18846477575E+04  0.50400001928E-02 0. -1.
    10030    2    1    2    0    0  0.00000000000E+00  0.00000000000E+00 -0.84020851902E+03  0.29290869960E+04  0.28059936342E+04 0.  0.
        2    1    3    3  502    0  0.12321002565E+04 -0.58435468503E+03 -0.75693255440E+02  0.13657492116E+04  0.25500000920E-02 0.  1.
       -2    1    3    3    0  502 -0.12321002565E+04  0.58435468503E+03 -0.76451526358E+03  0.15633377844E+04  0.25500000920E-02 0. -1.
</event>
<event>
 5   0  0.9065579E-06  0.2817316E+04  0.7818609E-02  0.8297912E-01
        2   -1    0    0  501    0  0.00000000000E+00  0.00000000000E+00  0.17884146342E+04  0.17884146342E+04  0.25500000920E-02 0. -1.
       -2   -1    0    0    0  501  0.00000000000E+00  0.00000000000E+00 -0.11095399998E+04  0.11095399998E+04  0.25500000920E-02 0.  1.
    10030    2    1    2    0    0  0.00000000000E+00  0.00000000000E+00  0.67887463442E+03  0.28979546339E+04  0.28173161504E+04 0.  0.
        3    1    3    3  502    0 -0.11047721831E+04 -0.63254789904E+03 -0.28088184084E+03  0.13036613977E+04  0.10100000352E+00 0. -1.
       -3    1    3    3    0  502  0.11047721831E+04  0.63254789904E+03  0.95975647526E+03  0.15942932362E+04  0.10100000352E+00 0.  1.
</event>
<event>
 5   0  0.9342133E-06  0.2792964E+04  0.7818609E-02  0.8305456E-01
        2   -1    0    0  501    0  0.00000000000E+00  0.00000000000E+00  0.60805607251E+03  0.60805607252E+03  0.25500000920E-02 0. -1.
       -2   -1    0    0    0  501  0.00000000000E+00  0.00000000000E+00 -0.32072064980E+04  0.32072064980E+04  0.25500000920E-02 0.  1.
    10030    2    1    2    0    0  0.00000000000E+00  0.00000000000E+00 -0.25991504255E+04  0.38152625705E+04  0.27929635779E+04 0.  0.
        2    1    3    3  502    0  0.96014575522E+03  0.15165778173E+03 -0.26692043621E+04  0.28406921482E+04  0.25500000920E-02 0.  1.
       -2    1    3    3    0  502 -0.96014575522E+03 -0.15165778173E+03  0.70053936635E+02  0.97457042232E+03  0.25500000920E-02 0. -1.
</event>
<event>
 5   0  0.9252359E-06  0.2794682E+04  0.7818609E-02  0.8304921E-01
       -2   -1    0    0    0  501  0.00000000000E+00  0.00000000000E+00  0.11631574599E+04  0.11631574599E+04  0.25500000920E-02 0.  1.
        2   -1    0    0  501    0  0.00000000000E+00  0.00000000000E+00 -0.16786737988E+04  0.16786737988E+04  0.25500000920E-02 0. -1.
    10030    2    1    2    0    0  0.00000000000E+00  0.00000000000E+00 -0.51551633895E+03  0.28418312587E+04  0.27946820583E+04 0.  0.
        5    1    3    3  502    0  0.35770180144E+03 -0.86114067472E+03 -0.13160009780E+04  0.16128839092E+04  0.46999998093E+01 0. -1.
       -5    1    3    3    0  502 -0.35770180144E+03  0.86114067472E+03  0.80048463906E+03  0.12289473495E+04  0.46999998093E+01 0.  1.
</event>
<event>
 5   0  0.3600963E-06  0.2683982E+04  0.7818609E-02  0.8340221E-01
        1   -1    0    0  501    0  0.00000000000E+00  0.00000000000E+00  0.17236890998E+04  0.17236890998E+04  0.50400001928E-02 0. -1.
       -1   -1    0    0    0  501  0.00000000000E+00  0.00000000000E+00 -0.10448168160E+04  0.10448168161E+04  0.50400001928E-02 0.  1.
    10030    2    1    2    0    0  0.00000000000E+00  0.00000000000E+00  0.67887228373E+03  0.27685059158E+04  0.26839816371E+04 0.  0.
        5    1    3    3  502    0  0.10537344867E+04  0.83079336671E+03  0.35854745359E+03  0.13889392906E+04  0.46999998093E+01 0.  1.
       -5    1    3    3    0  502 -0.10537344867E+04 -0.83079336671E+03  0.32032483014E+03  0.13795666252E+04  0.46999998093E+01 0. -1.
</event>
<event>
 5   0  0.3600963E-06  0.3036683E+04  0.7818609E-02  0.8233333E-01
        1   -1    0    0  501    0  0.00000000000E+00  0.00000000000E+00  0.17824140988E+04  0.17824140988E+04  0.50400001928E-02 0. -1.
       -1   -1    0    0    0  501  0.00000000000E+00  0.00000000000E+00 -0.12933924774E+04  0.12933924774E+04  0.50400001928E-02 0.  1.
    10030    2    1    2    0    0  0.00000000000E+00  0.00000000000E+00  0.48902162137E+03  0.30758065763E+04  0.30366830504E+04 0.  0.
        5    1    3    3  502    0  0.39791135306E+03 -0.12275625374E+04 -0.56585666105E+03  0.14090631920E+04  0.46999998093E+01 0.  1.
       -5    1    3    3    0  502 -0.39791135306E+03  0.12275625374E+04  0.10548782824E+04  0.16667433843E+04  0.46999998093E+01 0. -1.
</event>
<event>
 5   0  0.9260173E-06  0.2759138E+04  0.7818609E-02  0.8316068E-01
        2   -1    0    0  501    0  0.00000000000E+00  0.00000000000E+00  0.14312461427E+04  0.14312461427E+04  0.25500000920E-02 0. -1.
       -2   -1    0    0    0  501  0.00000000000E+00  0.00000000000E+00 -0.13297579320E+04  0.13297579320E+04  0.25500000920E-02 0.  1.
    10030    2    1    2    0    0  0.00000000000E+00  0.00000000000E+00  0.10148821065E+03  0.27610040747E+04  0.27591382067E+04 0.  0.
        1    1    3    3  502    0  0.97318030225E+03 -0.86109726571E+03 -0.41286447031E+03  0.13634608438E+04  0.50400001928E-02 0.  1.
       -1    1    3    3    0  502 -0.97318030225E+03  0.86109726571E+03  0.51435268095E+03  0.13975432309E+04  0.50400001928E-02 0. -1.
</event>
<event>
 5   0  0.3357244E-06  0.2673573E+04  0.7818609E-02  0.8343631E-01
       -1   -1    0    0    0  501  0.00000000000E+00  0.00000000000E+00  0.10397139068E+04  0.10397139068E+04  0.50400001928E-02 0.  1.
        1   -1    0    0  501    0  0.00000000000E+00  0.00000000000E+00 -0.17187400505E+04  0.17187400505E+04  0.50400001928E-02 0. -1.
    10030    2    1    2    0    0  0.00000000000E+00  0.00000000000E+00 -0.67902614369E+03  0.27584539572E+04  0.26735728399E+04 0.  0.
        4    1    3    3  502    0  0.50017918993E+03 -0.27985620366E+02 -0.16182291306E+04  0.16939980960E+04  0.12699999809E+01 0. -1.
       -4    1    3    3    0  502 -0.50017918993E+03  0.27985620366E+02  0.93920298696E+03  0.10644558613E+04  0.12699999809E+01 0.  1.
</event>
<event>
 5   0  0.9342133E-06  0.2818192E+04  0.7818609E-02  0.8297643E-01
       -2   -1    0    0    0  501  0.00000000000E+00  0.00000000000E+00  0.22966578580E+04  0.22966578580E+04  0.25500000920E-02 0.  1.
        2   -1    0    0  501    0  0.00000000000E+00  0.00000000000E+00 -0.86453946835E+03  0.86453946835E+03  0.25500000920E-02 0. -1.
    10030    2    1    2    0    0  0.00000000000E+00  0.00000000000E+00  0.14321183896E+04  0.31611973263E+04  0.28181918767E+04 0.  0.
        2    1    3    3  502    0  0.92750685102E+03 -0.10508987758E+04  0.55391791875E+03  0.15071437411E+04  0.25500000920E-02 0.  1.
       -2    1    3    3    0  502 -0.92750685102E+03  0.10508987758E+04  0.87820047085E+03  0.16540535852E+04  0.25500000920E-02 0. -1.
</event>
<event>
 5   0  0.3371603E-06  0.2793427E+04  0.7818609E-02  0.8305312E-01
        1   -1    0    0  501    0  0.00000000000E+00  0.00000000000E+00  0.19723207559E+04  0.19723207559E+04  0.50400001928E-02 0. -1.
       -1   -1    0    0    0  501  0.00000000000E+00  0.00000000000E+00 -0.98909266583E+03  0.98909266584E+03  0.50400001928E-02 0.  1.
    10030    2    1    2    0    0  0.00000000000E+00  0.00000000000E+00  0.98322809010E+03  0.29614134218E+04  0.27934265656E+04 0.  0.
        1    1    3    3  502    0  0.46317922513E+03 -0.12469905520E+04  0.94299765632E+03  0.16305719890E+04  0.50400001928E-02 0.  1.
       -1    1    3    3    0  502 -0.46317922513E+03  0.12469905520E+04  0.40230433776E+02  0.13308414328E+04  0.50400001928E-02 0. -1.
</event>
<event>
 5   0  0.9426937E-06  0.2829172E+04  0.7818609E-02  0.8294269E-01
        2   -1    0    0  501    0  0.00000000000E+00  0.00000000000E+00  0.86366524546E+03  0.86366524546E+03  0.25500000920E-02 0. -1.
       -2   -1    0    0    0  501  0.00000000000E+00  0.00000000000E+00 -0.23169312926E+04  0.23169312926E+04  0.25500000920E-02 0.  1.
    10030    2    1    2    0    0  0.00000000000E+00  0.00000000000E+00 -0.14532660471E+04  0.31805965380E+04  0.28291716339E+04 0.  0.
        4    1    3    3  502    0  0.22519498042E+02 -0.24156725696E+03 -0.22933663940E+04  0.23061641089E+04  0.12699999809E+01 0.  1.
       -4    1    3    3    0  502 -0.22519498042E+02  0.24156725696E+03  0.84010034684E+03  0.87443242912E+03  0.12699999809E+01 0. -1.
</event>
<event>
 5   0  0.3357244E-06  0.2784915E+04  0.7818609E-02  0.8307967E-01
        1   -1    0    0  501    0  0.00000000000E+00  0.00000000000E+00  0.17375844279E+04  0.17375844279E+04  0.50400001928E-02 0. -1.
       -1   -1    0    0    0  501  0.00000000000E+00  0.00000000000E+00 -0.11158811389E+04  0.11158811389E+04  0.50400001928E-02 0.  1.
    10030    2    1    2    0    0  0.00000000000E+00  0.00000000000E+00  0.62170328900E+03  0.28534655668E+04  0.27849148571E+04 0.  0.
        4    1    3    3  502    0 -0.13675565348E+04  0.22251914269E+03  0.45286503229E+03  0.14576741732E+04  0.12699999809E+01 0. -1.
       -4    1    3    3    0  502  0.13675565348E+04 -0.22251914269E+03  0.16883825671E+03  0.13957913936E+04  0.12699999809E+01 0.  1.
</event>
<event>
 5   0  0.3397882E-06  0.2794439E+04  0.7818609E-02  0.8304997E-01
        1   -1    0    0  501    0  0.00000000000E+00  0.00000000000E+00  0.13799438084E+04  0.13799438084E+04  0.50400001928E-02 0. -1.
       -1   -1    0    0    0  501  0.00000000000E+00  0.00000000000E+00 -0.14147111048E+04  0.14147111048E+04  0.50400001928E-02 0.  1.
    10030    2    1    2    0    0  0.00000000000E+00  0.00000000000E+00 -0.34767296450E+02  0.27946549132E+04  0.27944386411E+04 0.  0.
        2    1    3    3  502    0 -0.54248687079E+03 -0.51628121118E+03 -0.11970441557E+04  0.14120031886E+04  0.25500000920E-02 0.  1.
       -2    1    3    3    0  502  0.54248687079E+03  0.51628121118E+03  0.11622768592E+04  0.13826517246E+04  0.25500000920E-02 0. -1.
</event>
<event>
 5   0  0.3357244E-06  0.2734190E+04  0.7818609E-02  0.8323996E-01
        1   -1    0    0  501    0  0.00000000000E+00  0.00000000000E+00  0.12800441756E+04  0.12800441756E+04  0.50400001928E-02 0. -1.
       -1   -1    0    0    0  501  0.00000000000E+00  0.00000000000E+00 -0.14600658311E+04  0.14600658311E+04  0.50400001928E-02 0.  1.
    10030    2    1    2    0    0  0.00000000000E+00  0.00000000000E+00 -0.18002165551E+03  0.27401100067E+04  0.27341900176E+04 0.  0.
        4    1    3    3  502    0 -0.85235459910E+03  0.76172205084E+03 -0.84144647907E+03  0.14194233461E+04  0.12699999809E+01 0.  1.
       -4    1    3    3    0  502  0.85235459910E+03 -0.76172205084E+03  0.66142482357E+03  0.13206866606E+04  0.12699999809E+01 0. -1.
</event>
<event>
 5   0  0.3600963E-06  0.2827777E+04  0.7818609E-02  0.8294696E-01
       -1   -1    0    0    0  501  0.00000000000E+00  0.00000000000E+00  0.89987906306E+03  0.89987906307E+03  0.50400001928E-02 0.  1.
        1   -1    0    0  501    0  0.00000000000E+00  0.00000000000E+00 -0.22214985975E+04  0.22214985975E+04  0.50400001928E-02 0. -1.
    10030    2    1    2    0    0  0.00000000000E+00  0.00000000000E+00 -0.13216195344E+04  0.31213776606E+04  0.28277765658E+04 0.  0.
        5    1    3    3  502    0  0.10638271054E+04  0.72093937733E+03 -0.10041603250E+02  0.12851477034E+04  0.46999998093E+01 0.  1.
       -5    1    3    3    0  502 -0.10638271054E+04 -0.72093937733E+03 -0.13115779312E+04  0.18362299571E+04  0.46999998093E+01 0. -1.
</event>
<event>
 5   0  0.9260173E-06  0.2811701E+04  0.7818609E-02  0.8299645E-01
        2   -1    0    0  501    0  0.00000000000E+00  0.00000000000E+00  0.20323902876E+04  0.20323902876E+04  0.25500000920E-02 0.  1.
       -2   -1    0    0    0  501  0.00000000000E+00  0.00000000000E+00 -0.97245869949E+03  0.97245869950E+03  0.25500000920E-02 0. -1.
    10030    2    1    2    0    0  0.00000000000E+00  0.00000000000E+00  0.10599315881E+04  0.30048489871E+04  0.28117009912E+04 0.  0.
        1    1    3    3  502    0 -0.16626405588E+03  0.96494286653E+03  0.16080539124E+04  0.18827097113E+04  0.50400001928E-02 0.  1.
       -1    1    3    3    0  502  0.16626405588E+03 -0.96494286653E+03 -0.54812232424E+03  0.11221392758E+04  0.50400001928E-02 0. -1.
</event>
<event>
 5   0  0.3600963E-06  0.2812279E+04  0.7818609E-02  0.8299466E-01
        1   -1    0    0  501    0  0.00000000000E+00  0.00000000000E+00  0.10680266005E+04  0.10680266005E+04  0.50400001928E-02 0.  1.
       -1   -1    0    0    0  501  0.00000000000E+00  0.00000000000E+00 -0.18512917771E+04  0.18512917771E+04  0.50400001928E-02 0. -1.
    10030    2    1    2    0    0  0.00000000000E+00  0.00000000000E+00 -0.78326517658E+03  0.29193183776E+04  0.28122794052E+04 0.  0.
        5    1    3    3  502    0 -0.88773199498E+03  0.20610427878E+03 -0.15032114266E+04  0.17579003816E+04  0.46999998093E+01 0. -1.
       -5    1    3    3    0  502  0.88773199498E+03 -0.20610427878E+03  0.71994625000E+03  0.11614179960E+04  0.46999998093E+01 0.  1.
</event>
<event>
 5   0  0.9260173E-06  0.2812389E+04  0.7818609E-02  0.8299433E-01
        2   -1    0    0  501    0  0.00000000000E+00  0.00000000000E+00  0.96294982448E+03  0.96294982449E+03  0.25500000920E-02 0. -1.
       -2   -1    0    0    0  501  0.00000000000E+00  0.00000000000E+00 -0.20534635144E+04  0.20534635144E+04  0.25500000920E-02 0.  1.
    10030    2    1    2    0    0  0.00000000000E+00  0.00000000000E+00 -0.10905136899E+04  0.30164133389E+04  0.28123885441E+04 0.  0.
        1    1    3    3  502    0  0.93497883621E+03 -0.89454358356E+03 -0.11356329025E+04  0.17216433244E+04  0.50400001928E-02 0.  1.
       -1    1    3    3    0  502 -0.93497883621E+03  0.89454358356E+03  0.45119212629E+02  0.12947700145E+04  0.50400001928E-02 0. -1.
</event>
<event>
 5   0  0.3438130E-06  0.2779281E+04  0.7818609E-02  0.8309730E-01
       -1   -1    0    0    0  501  0.00000000000E+00  0.00000000000E+00  0.11505313306E+04  0.11505313306E+04  0.50400001928E-02 0.  1.
        1   -1    0    0  501    0  0.00000000000E+00  0.00000000000E+00 -0.16784429394E+04  0.16784429394E+04  0.50400001928E-02 0. -1.
    10030    2    1    2    0    0  0.00000000000E+00  0.00000000000E+00 -0.52791160888E+03  0.28289742700E+04  0.27792813376E+04 0.  0.
        3    1    3    3  502    0  0.56541687196E+03  0.30227297219E+03  0.99098552302E+03  0.11803039887E+04  0.10100000352E+00 0.  1.
       -3    1    3    3    0  502 -0.56541687196E+03 -0.30227297219E+03 -0.15188971319E+04  0.16486702813E+04  0.10100000352E+00 0. -1.
</event>
<event>
 5   0  0.3600963E-06  0.2844623E+04  0.7818609E-02  0.8289547E-01
       -1   -1    0    0    0  501  0.00000000000E+00  0.00000000000E+00  0.93378544315E+03  0.93378544316E+03  0.50400001928E-02 0. -1.
        1   -1    0    0  501    0  0.00000000000E+00  0.00000000000E+00 -0.21664188757E+04  0.21664188757E+04  0.50400001928E-02 0.  1.
    10030    2    1    2    0    0  0.00000000000E+00  0.00000000000E+00 -0.12326334325E+04  0.31002043188E+04  0.28446232861E+04 0.  0.
        5    1    3    3  502    0 -0.40084392618E+03 -0.12975378687E+04 -0.15564783265E+03  0.13669413710E+04  0.46999998093E+01 0. -1.
       -5    1    3    3    0  502  0.40084392618E+03  0.12975378687E+04 -0.10769855999E+04  0.17332629478E+04  0.46999998093E+01 0.  1.
</event>
<event>
 5   0  0.9426937E-06  0.2792403E+04  0.7818609E-02  0.8305631E-01
        2   -1    0    0  501    0  0.00000000000E+00  0.00000000000E+00  0.25995266172E+04  0.25995266172E+04  0.25500000920E-02 0.  1.
       -2   -1    0    0    0  501  0.00000000000E+00  0.00000000000E+00 -0.74989740645E+03  0.74989740646E+03  0.25500000920E-02 0. -1.
    10030    2    1    2    0    0  0.00000000000E+00  0.00000000000E+00  0.18496292107E+04  0.33494240236E+04  0.27924027419E+04 0.  0.
        4    1    3    3  502    0  0.65787046465E+03 -0.87219316909E+03  0.19676442871E+04  0.22505866182E+04  0.12699999809E+01 0.  1.
       -4    1    3    3    0  502 -0.65787046465E+03  0.87219316909E+03 -0.11801507638E+03  0.10988374055E+04  0.12699999809E+01 0. -1.
</event>
<event>
 5   0  0.9342133E-06  0.2800911E+04  0.7818609E-02  0.8302986E-01
        2   -1    0    0  501    0  0.00000000000E+00  0.00000000000E+00  0.24830595100E+04  0.24830595100E+04  0.25500000920E-02 0. -1.
       -2   -1    0    0    0  501  0.00000000000E+00  0.00000000000E+00 -0.78986223031E+03  0.78986223032E+03  0.25500000920E-02 0.  1.
    10030    2    1    2    0    0  0.00000000000E+00  0.00000000000E+00  0.16931972797E+04  0.32729217403E+04  0.28009105109E+04 0.  0.
        2    1    3    3  502    0  0.77181708409E+03  0.26429064099E+03 -0.48352680139E+03  0.94834029856E+03  0.25500000920E-02 0.  1.
       -2    1    3    3    0  502 -0.77181708409E+03 -0.26429064099E+03  0.21767240811E+04  0.23245814418E+04  0.25500000920E-02 0. -1.
</event>
<event>
 5   0  0.3371603E-06  0.2796068E+04  0.7818609E-02  0.8304490E-01
        1   -1    0    0  501    0  0.00000000000E+00  0.00000000000E+00  0.17978889733E+04  0.17978889733E+04  0.50400001928E-02 0.  1.
       -1   -1    0    0    0  501  0.00000000000E+00  0.00000000000E+00 -0.10871077964E+04  0.10871077964E+04  0.50400001928E-02 0. -1.
    10030    2    1    2    0    0  0.00000000000E+00  0.00000000000E+00  0.71078117689E+03  0.28849967697E+04  0.27960680391E+04 0.  0.
        1    1    3    3  502    0 -0.64637717605E+03  0.70405131486E+03  0.14081387868E+04  0.17018656088E+04  0.50400001928E-02 0.  1.
       -1    1    3    3    0  502  0.64637717605E+03 -0.70405131486E+03 -0.69735760987E+03  0.11831311608E+04  0.50400001928E-02 0. -1.
</event>
<event>
 5   0  0.9252359E-06  0.2795411E+04  0.7818609E-02  0.8304695E-01
       -2   -1    0    0    0  501  0.00000000000E+00  0.00000000000E+00  0.12194590076E+04  0.12194590076E+04  0.25500000920E-02 0.  1.
        2   -1    0    0  501    0  0.00000000000E+00  0.00000000000E+00 -0.16020055967E+04  0.16020055967E+04  0.25500000920E-02 0. -1.
    10030    2    1    2    0    0  0.00000000000E+00  0.00000000000E+00 -0.38254658914E+03  0.28214646043E+04  0.27954106354E+04 0.  0.
        5    1    3    3  502    0 -0.60839545851E+03  0.10580371542E+04  0.49622897447E+03  0.13175177186E+04  0.46999998093E+01 0.  1.
       -5    1    3    3    0  502  0.60839545851E+03 -0.10580371542E+04 -0.87877556361E+03  0.15039468857E+04  0.46999998093E+01 0. -1.
</event>
<event>
 5   0  0.3371603E-06  0.2745396E+04  0.7818609E-02  0.8320424E-01
        1   -1    0    0  501    0  0.00000000000E+00  0.00000000000E+00  0.15209446299E+04  0.15209446299E+04  0.50400001928E-02 0.  1.
       -1   -1    0    0    0  501  0.00000000000E+00  0.00000000000E+00 -0.12389011056E+04  0.12389011056E+04  0.50400001928E-02 0. -1.
    10030    2    1    2    0    0  0.00000000000E+00  0.00000000000E+00  0.28204352437E+03  0.27598457355E+04  0.27453961343E+04 0.  0.
        1    1    3    3  502    0  0.22290172512E+02  0.16585929583E+03 -0.12286078894E+04  0.12399530248E+04  0.50400001928E-02 0. -1.
       -1    1    3    3    0  502 -0.22290172512E+02 -0.16585929583E+03  0.15106514138E+04  0.15198927107E+04  0.50400001928E-02 0.  1.
</event>
<event>
 5   0  0.9426937E-06  0.2796130E+04  0.7818609E-02  0.8304471E-01
        2   -1    0    0  501    0  0.00000000000E+00  0.00000000000E+00  0.11826099142E+04  0.11826099142E+04  0.25500000920E-02 0. -1.
       -2   -1    0    0    0  501  0.00000000000E+00  0.00000000000E+00 -0.16527732200E+04  0.16527732200E+04  0.25500000920E-02 0.  1.
    10030    2    1    2    0    0  0.00000000000E+00  0.00000000000E+00 -0.47016330583E+03  0.28353831342E+04  0.27961301800E+04 0.  0.
        4    1    3    3  502    0 -0.79705120020E+03 -0.57051974715E+03  0.77580875608E+03  0.12500656929E+04  0.12699999809E+01 0. -1.
       -4    1    3    3    0  502  0.79705120020E+03  0.57051974715E+03 -0.12459720619E+04  0.15853174413E+04  0.12699999809E+01 0.  1.
</event>
<event>
 5   0  0.3357244E-06  0.2782134E+04  0.7818609E-02  0.8308837E-01
        1   -1    0    0  501    0  0.00000000000E+00  0.00000000000E+00  0.15181728171E+04  0.15181728171E+04  0.50400001928E-02 0.  1.
       -1   -1    0    0    0  501  0.00000000000E+00  0.00000000000E+00 -0.12746027385E+04  0.12746027385E+04  0.50400001928E-02 0. -1.
    10030    2    1    2    0    0  0.00000000000E+00  0.00000000000E+00  0.24357007859E+03  0.27927755556E+04  0.27821338791E+04 0.  0.
        4    1    3    3  502    0  0.34464366885E+02 -0.10524816340E+04 -0.79062520640E+03  0.13168125199E+04  0.12699999809E+01 0. -1.
       -4    1    3    3    0  502 -0.34464366885E+02  0.10524816340E+04  0.10341952850E+04  0.14759630358E+04  0.12699999809E+01 0.  1.
</event>
<event>
 5   0  0.3397882E-06  0.2784385E+04  0.7818609E-02  0.8308133E-01
        1   -1    0    0  501    0  0.00000000000E+00  0.00000000000E+00  0.78147712119E+03  0.78147712121E+03  0.50400001928E-02 0.  1.
       -1   -1    0    0    0  501  0.00000000000E+00  0.00000000000E+00 -0.24801740586E+04  0.24801740586E+04  0.50400001928E-02 0. -1.
    10030    2    1    2    0    0  0.00000000000E+00  0.00000000000E+00 -0.16986969374E+04  0.32616511799E+04  0.27843845161E+04 0.  0.
        2    1    3    3  502    0 -0.12896180877E+04 -0.22377714147E+03 -0.29369051402E+03  0.13414339861E+04  0.25500000920E-02 0.  1.
       -2    1    3    3    0  502  0.12896180877E+04  0.22377714147E+03 -0.14050064234E+04  0.19202171937E+04  0.25500000920E-02 0. -1.
</event>
<event>
 5   0  0.9342133E-06  0.2850773E+04  0.7818609E-02  0.8287676E-01
       -2   -1    0    0    0  501  0.00000000000E+00  0.00000000000E+00  0.18658165711E+04  0.18658165711E+04  0.25500000920E-02 0. -1.
        2   -1    0    0  501    0  0.00000000000E+00  0.00000000000E+00 -0.10889209000E+04  0.10889209000E+04  0.25500000920E-02 0.  1.
    10030    2    1    2    0    0  0.00000000000E+00  0.00000000000E+00  0.77689567109E+03  0.29547374711E+04  0.28507729898E+04 0.  0.
        2    1    3    3  502    0  0.46713021769E+02  0.10508071208E+04  0.13854796862E+04  0.17395205295E+04  0.25500000920E-02 0. -1.
       -2    1    3    3    0  502 -0.46713021769E+02 -0.10508071208E+04 -0.60858401514E+03  0.12152169416E+04  0.25500000920E-02 0.  1.
</event>
<event>
 5   0  0.3600963E-06  0.2803798E+04  0.7818609E-02  0.8302090E-01
        1   -1    0    0  501    0  0.00000000000E+00  0.00000000000E+00  0.13901617683E+04  0.13901617683E+04  0.50400001928E-02 0. -1.
       -1   -1    0    0    0  501  0.00000000000E+00  0.00000000000E+00 -0.14137348423E+04  0.14137348423E+04  0.50400001928E-02 0.  1.
    10030    2    1    2    0    0  0.00000000000E+00  0.00000000000E+00 -0.23573073989E+02  0.28038966107E+04  0.28037975165E+04 0.  0.
        5    1    3    3  502    0  0.11030829878E+04 -0.73650693355E+03  0.44217168054E+03  0.13981317628E+04  0.46999998093E+01 0. -1.
       -5    1    3    3    0  502 -0.11030829878E+04  0.73650693355E+03 -0.46574475453E+03  0.14057648479E+04  0.46999998093E+01 0.  1.
</event>
<event>
 5   0  0.3371603E-06  0.2789199E+04  0.7818609E-02  0.8306630E-01
        1   -1    0    0  501    0  0.00000000000E+00  0.00000000000E+00  0.16576987099E+04  0.16576987099E+04  0.50400001928E-02 0.  1.
       -1   -1    0    0    0  501  0.00000000000E+00  0.00000000000E+00 -0.11732573905E+04  0.11732573905E+04  0.50400001928E-02 0. -1.
    10030    2    1    2    0    0  0.00000000000E+00  0.00000000000E+00  0.48444131938E+03  0.28309561004E+04  0.27891986395E+04 0.  0.
        1    1    3    3  502    0  0.20885914032E+03 -0.13097428306E+04 -0.19534708545E+03  0.13406002039E+04  0.50400001928E-02 0. -1.
       -1    1    3    3    0  502 -0.20885914032E+03  0.13097428306E+04  0.67978840483E+03  0.14903558965E+04  0.50400001928E-02 0.  1.
</event>
<event>
 5   0  0.3600963E-06  0.2821476E+04  0.7818609E-02  0.8296632E-01
        1   -1    0    0  501    0  0.00000000000E+00  0.00000000000E+00  0.13904253454E+04  0.13904253454E+04  0.50400001928E-02 0. -1.
       -1   -1    0    0    0  501  0.00000000000E+00  0.00000000000E+00 -0.14313469264E+04  0.14313469264E+04  0.50400001928E-02 0.  1.
    10030    2    1    2    0    0  0.00000000000E+00  0.00000000000E+00 -0.40921581024E+02  0.28217722718E+04  0.28214755321E+04 0.  0.
        5    1    3    3  502    0  0.11543660745E+04  0.79841867608E+03 -0.16234021707E+03  0.14129436834E+04  0.46999998093E+01 0.  1.
       -5    1    3    3    0  502 -0.11543660745E+04 -0.79841867608E+03  0.12141863604E+03  0.14088285884E+04  0.46999998093E+01 0. -1.
</event>
<event>
 5   0  0.9342133E-06  0.2802066E+04  0.7818609E-02  0.8302627E-01
        2   -1    0    0  501    0  0.00000000000E+00  0.00000000000E+00  0.17967633207E+04  0.17967633207E+04  0.25500000920E-02 0. -1.
       -2   -1    0    0    0  501  0.00000000000E+00  0.00000000000E+00 -0.10924604302E+04  0.10924604302E+04  0.25500000920E-02 0.  1.
    10030    2    1    2    0    0  0.00000000000E+00  0.00000000000E+00  0.70430289055E+03  0.28892237509E+04  0.28020655455E+04 0.  0.
        2    1    3    3  502    0 -0.23376540111E+02 -0.13184543339E+04  0.84018612117E+03  0.15635795507E+04  0.25500000920E-02 0. -1.
       -2    1    3    3    0  502  0.23376540111E+02  0.13184543339E+04 -0.13588323062E+03  0.13256442002E+04  0.25500000920E-02 0.  1.
</event>
<event>
 5   0  0.9342133E-06  0.2307787E+04  0.7818609E-02  0.8474857E-01
        2   -1    0    0  501    0  0.00000000000E+00  0.00000000000E+00  0.14506245048E+04  0.14506245049E+04  0.25500000920E-02 0. -1.
       -2   -1    0    0    0  501  0.00000000000E+00  0.00000000000E+00 -0.91786009702E+03  0.91786009702E+03  0.25500000920E-02 0.  1.
    10030    2    1    2    0    0  0.00000000000E+00  0.00000000000E+00  0.53276440783E+03  0.23684846019E+04  0.23077871208E+04 0.  0.
        2    1    3    3  502    0  0.67577687268E+03 -0.80377403699E+02 -0.68997158670E+03  0.96912109621E+03  0.25500000920E-02 0.  1.
       -2    1    3    3    0  502 -0.67577687268E+03  0.80377403699E+02  0.12227359945E+04  0.13993635057E+04  0.25500000920E-02 0. -1.
</event>
<event>
 5   0  0.3371603E-06  0.2744563E+04  0.7818609E-02  0.8320689E-01
        1   -1    0    0  501    0  0.00000000000E+00  0.00000000000E+00  0.21327684398E+04  0.21327684399E+04  0.50400001928E-02 0. -1.
       -1   -1    0    0    0  501  0.00000000000E+00  0.00000000000E+00 -0.88296330717E+03  0.88296330718E+03  0.50400001928E-02 0.  1.
    10030    2    1    2    0    0  0.00000000000E+00  0.00000000000E+00  0.12498051327E+04  0.30157317470E+04  0.27445628250E+04 0.  0.
        1    1    3    3  502    0 -0.51473195132E+03 -0.30054191904E+03  0.19831047271E+04  0.20707435344E+04  0.50400001928E-02 0. -1.
       -1    1    3    3    0  502  0.51473195132E+03  0.30054191904E+03 -0.73329959439E+03  0.94498821261E+03  0.50400001928E-02 0.  1.
</event>
<event>
 5   0  0.9065579E-06  0.2816955E+04  0.7818609E-02  0.8298024E-01
       -2   -1    0    0    0  501  0.00000000000E+00  0.00000000000E+00  0.10514134312E+04  0.10514134312E+04  0.25500000920E-02 0.  1.
        2   -1    0    0  501    0  0.00000000000E+00  0.00000000000E+00 -0.18868014768E+04  0.18868014768E+04  0.25500000920E-02 0. -1.
    10030    2    1    2    0    0  0.00000000000E+00  0.00000000000E+00 -0.83538804565E+03  0.29382149080E+04  0.28169546782E+04 0.  0.
        3    1    3    3  502    0 -0.10186219447E+04 -0.89907187282E+03 -0.80501066324E+03  0.15792286335E+04  0.10100000352E+00 0. -1.
       -3    1    3    3    0  502  0.10186219447E+04  0.89907187282E+03 -0.30377382415E+02  0.13589862745E+04  0.10100000352E+00 0.  1.
</event>
<event>
 5   0  0.9065579E-06  0.2724716E+04  0.7818609E-02  0.8327030E-01
        2   -1    0    0  501    0  0.00000000000E+00  0.00000000000E+00  0.14596083167E+04  0.14596083167E+04  0.25500000920E-02 0.  1.
       -2   -1    0    0    0  501  0.00000000000E+00  0.00000000000E+00 -0.12715874756E+04  0.12715874756E+04  0.25500000920E-02 0. -1.
    10030    2    1    2    0    0  0.00000000000E+00  0.00000000000E+00  0.18802084111E+03  0.27311957924E+04  0.27247162457E+04 0.  0.
        3    1    3    3  502    0  0.30615501510E+03  0.34897643451E+03  0.13778779844E+04  0.14539818414E+04  0.10100000352E+00 0.  1.
       -3    1    3    3    0  502 -0.30615501510E+03 -0.34897643451E+03 -0.11898571432E+04  0.12772139510E+04  0.10100000352E+00 0. -1.
</event>
<event>
 5   0  0.9426937E-06  0.2804548E+04  0.7818609E-02  0.8301858E-01
       -2   -1    0    0    0  501  0.00000000000E+00  0.00000000000E+00  0.10823175430E+04  0.10823175431E+04  0.25500000920E-02 0. -1.
        2   -1    0    0  501    0  0.00000000000E+00  0.00000000000E+00 -0.18168159781E+04  0.18168159781E+04  0.25500000920E-02 0.  1.
    10030    2    1    2    0    0  0.00000000000E+00  0.00000000000E+00 -0.73449843507E+03  0.28991335212E+04  0.28045475968E+04 0.  0.
        4    1    3    3  502    0  0.60177224331E+03  0.12499907840E+04 -0.57850243156E+03  0.15030879779E+04  0.12699999809E+01 0. -1.
       -4    1    3    3    0  502 -0.60177224331E+03 -0.12499907840E+04 -0.15599600351E+03  0.13960455433E+04  0.12699999809E+01 0.  1.
</event>
<event>
 5   0  0.3357244E-06  0.2806486E+04  0.7818609E-02  0.8301258E-01
       -1   -1    0    0    0  501  0.00000000000E+00  0.00000000000E+00  0.11581890278E+04  0.11581890278E+04  0.50400001928E-02 0.  1.
        1   -1    0    0  501    0  0.00000000000E+00  0.00000000000E+00 -0.17001459903E+04  0.17001459903E+04  0.50400001928E-02 0. -1.
    10030    2    1    2    0    0  0.00000000000E+00  0.00000000000E+00 -0.54195696256E+03  0.28583350181E+04  0.28064856541E+04 0.  0.
        4    1    3    3  502    0 -0.53648796984E+03  0.11937365319E+04 -0.78655471714E+03  0.15269237654E+04  0.12699999809E+01 0. -1.
       -4    1    3    3    0  502  0.53648796984E+03 -0.11937365319E+04  0.24459775458E+03  0.13314112527E+04  0.12699999809E+01 0.  1.
</event>
<event>
 5   0  0.3357244E-06  0.2700608E+04  0.7818609E-02  0.8334808E-01
       -1   -1    0    0    0  501  0.00000000000E+00  0.00000000000E+00  0.88128439981E+03  0.88128439982E+03  0.50400001928E-02 0.  1.
        1   -1    0    0  501    0  0.00000000000E+00  0.00000000000E+00 -0.20689364701E+04  0.20689364701E+04  0.50400001928E-02 0. -1.
    10030    2    1    2    0    0  0.00000000000E+00  0.00000000000E+00 -0.11876520703E+04  0.29502208699E+04  0.27006084020E+04 0.  0.
        4    1    3    3  502    0  0.30171637202E+03 -0.89142161864E+03 -0.16516523082E+04  0.19009529798E+04  0.12699999809E+01 0. -1.
       -4    1    3    3    0  502 -0.30171637202E+03  0.89142161864E+03  0.46400023799E+03  0.10492678900E+04  0.12699999809E+01 0.  1.
</event>
<event>
 5   0  0.9252359E-06  0.2793420E+04  0.7818609E-02  0.8305314E-01
        2   -1    0    0  501    0  0.00000000000E+00  0.00000000000E+00  0.78045332357E+03  0.78045332358E+03  0.25500000920E-02 0. -1.
       -2   -1    0    0    0  501  0.00000000000E+00  0.00000000000E+00 -0.24995721038E+04  0.24995721038E+04  0.25500000920E-02 0.  1.
    10030    2    1    2    0    0  0.00000000000E+00  0.00000000000E+00 -0.17191187803E+04  0.32800254274E+04  0.27934203808E+04 0.  0.
        5    1    3    3  502    0  0.24774856419E+03 -0.61721296195E+02  0.75280931976E+03  0.79494203019E+03  0.46999998093E+01 0. -1.
       -5    1    3    3    0  502 -0.24774856419E+03  0.61721296195E+02 -0.24719281000E+04  0.24850833972E+04  0.46999998093E+01 0.  1.
</event>
<event>
 5   0  0.3357244E-06  0.2733289E+04  0.7818609E-02  0.8324284E-01
       -1   -1    0    0    0  501  0.00000000000E+00  0.00000000000E+00  0.10051996466E+04  0.10051996466E+04  0.50400001928E-02 0.  1.
        1   -1    0    0  501    0  0.00000000000E+00  0.00000000000E+00 -0.18580561430E+04  0.18580561430E+04  0.50400001928E-02 0. -1.
    10030    2    1    2    0    0  0.00000000000E+00  0.00000000000E+00 -0.85285649637E+03  0.28632557897E+04  0.27332891383E+04 0.  0.
        4    1    3    3  502    0 -0.22914812965E+03 -0.99020548060E+03 -0.13834896035E+04  0.17167005723E+04  0.12699999809E+01 0. -1.
       -4    1    3    3    0  502  0.22914812965E+03  0.99020548060E+03  0.53063310713E+03  0.11465552173E+04  0.12699999809E+01 0.  1.
</event>
<event>
 5   0  0.9065579E-06  0.2827990E+04  0.7818609E-02  0.8294631E-01
        2   -1    0    0  501    0  0.00000000000E+00  0.00000000000E+00  0.16689153194E+04  0.16689153194E+04  0.25500000920E-02 0.  1.
       -2   -1    0    0    0  501  0.00000000000E+00  0.00000000000E+00 -0.11980127148E+04  0.11980127148E+04  0.25500000920E-02 0. -1.
    10030    2    1    2    0    0  0.00000000000E+00  0.00000000000E+00  0.47090260455E+03  0.28669280342E+04  0.28279899382E+04 0.  0.
        3    1    3    3  502    0 -0.34605847926E+03 -0.65314237756E+03  0.14574655535E+04  0.16341839818E+04  0.10100000352E+00 0.  1.
       -3    1    3    3    0  502  0.34605847926E+03  0.65314237756E+03 -0.98656294893E+03  0.12327440524E+04  0.10100000352E+00 0. -1.
</event>
<event>
 5   0  0.9252359E-06  0.2794112E+04  0.7818609E-02  0.8305099E-01
       -2   -1    0    0    0  501  0.00000000000E+00  0.00000000000E+00  0.98458052669E+03  0.98458052669E+03  0.25500000920E-02 0. -1.
        2   -1    0    0  501    0  0.00000000000E+00  0.00000000000E+00 -0.19823313393E+04  0.19823313393E+04  0.25500000920E-02 0.  1.
    10030    2    1    2    0    0  0.00000000000E+00  0.00000000000E+00 -0.99775081257E+03  0.29669118659E+04  0.27941115469E+04 0.  0.
        5    1    3    3  502    0  0.10836272966E+04 -0.38218556946E+02 -0.14342838182E+04  0.17980269567E+04  0.46999998093E+01 0.  1.
       -5    1    3    3    0  502 -0.10836272966E+04  0.38218556946E+02  0.43653300563E+03  0.11688849092E+04  0.46999998093E+01 0. -1.
</event>
<event>
 5   0  0.3357244E-06  0.2777868E+04  0.7818609E-02  0.8310173E-01
        1   -1    0    0  501    0  0.00000000000E+00  0.00000000000E+00  0.20058825462E+04  0.20058825462E+04  0.50400001928E-02 0.  1.
       -1   -1    0    0    0  501  0.00000000000E+00  0.00000000000E+00 -0.96174010284E+03  0.96174010285E+03  0.50400001928E-02 0. -1.
    10030    2    1    2    0    0  0.00000000000E+00  0.00000000000E+00  0.10441424433E+04  0.29676226490E+04  0.27778680215E+04 0.  0.
        4    1    3    3  502    0  0.11160656303E+04  0.77722886861E+03  0.22095030376E+03  0.13778635110E+04  0.12699999809E+01 0. -1.
       -4    1    3    3    0  502 -0.11160656303E+04 -0.77722886861E+03  0.82319213958E+03  0.15897591380E+04  0.12699999809E+01 0.  1.
</event>
<event>
 5   0  0.3438130E-06  0.2544233E+04  0.7818609E-02  0.8387395E-01
        1   -1    0    0  501    0  0.00000000000E+00  0.00000000000E+00  0.20285730551E+04  0.20285730551E+04  0.50400001928E-02 0. -1.
       -1   -1    0    0    0  501  0.00000000000E+00  0.00000000000E+00 -0.79774299435E+03  0.79774299437E+03  0.50400001928E-02 0.  1.
    10030    2    1    2    0    0  0.00000000000E+00  0.00000000000E+00  0.12308300607E+04  0.28263160495E+04  0.25442326492E+04 0.  0.
        3    1    3    3  502    0  0.83434313346E+03 -0.88268987693E+03  0.10355097109E+04  0.15961047130E+04  0.10100000352E+00 0. -1.
       -3    1    3    3    0  502 -0.83434313346E+03  0.88268987693E+03  0.19532034983E+03  0.12302113365E+04  0.10100000352E+00 0.  1.
</event>
<event>
 5   0  0.3357244E-06  0.2799561E+04  0.7818609E-02  0.8303405E-01
       -1   -1    0    0    0  501  0.00000000000E+00  0.00000000000E+00  0.11139078891E+04  0.11139078891E+04  0.50400001928E-02 0. -1.
        1   -1    0    0  501    0  0.00000000000E+00  0.00000000000E+00 -0.17590189659E+04  0.17590189659E+04  0.50400001928E-02 0.  1.
    10030    2    1    2    0    0  0.00000000000E+00  0.00000000000E+00 -0.64511107676E+03  0.28729268550E+04  0.27995607536E+04 0.  0.
        4    1    3    3  502    0  0.30297181439E+03  0.54540648397E+03  0.96332776342E+03  0.11477204127E+04  0.12699999809E+01 0. -1.
       -4    1    3    3    0  502 -0.30297181439E+03 -0.54540648397E+03 -0.16084388402E+04  0.17252064423E+04  0.12699999809E+01 0.  1.
</event>
<event>
 5   0  0.9252359E-06  0.2806808E+04  0.7818609E-02  0.8301158E-01
        2   -1    0    0  501    0  0.00000000000E+00  0.00000000000E+00  0.14077999541E+04  0.14077999541E+04  0.25500000920E-02 0.  1.
       -2   -1    0    0    0  501  0.00000000000E+00  0.00000000000E+00 -0.13990221807E+04  0.13990221807E+04  0.25500000920E-02 0. -1.
    10030    2    1    2    0    0  0.00000000000E+00  0.00000000000E+00  0.87777733805E+01  0.28068221348E+04  0.28068084094E+04 0.  0.
        5    1    3    3  502    0 -0.58362499681E+03 -0.10310841133E+04 -0.74779075907E+03  0.14010587764E+04  0.46999998093E+01 0. -1.
       -5    1    3    3    0  502  0.58362499681E+03  0.10310841133E+04  0.75656853245E+03  0.14057633584E+04  0.46999998093E+01 0.  1.
</event>
<event>
 5   0  0.3357244E-06  0.2861316E+04  0.7818609E-02  0.8284481E-01
        1   -1    0    0  501    0  0.00000000000E+00  0.00000000000E+00  0.13534668481E+04  0.13534668482E+04  0.50400001928E-02 0. -1.
       -1   -1    0    0    0  501  0.00000000000E+00  0.00000000000E+00 -0.15122519012E+04  0.15122519012E+04  0.50400001928E-02 0.  1.
    10030    2    1    2    0    0  0.00000000000E+00  0.00000000000E+00 -0.15878505305E+03  0.28657187494E+04  0.28613163505E+04 0.  0.
        4    1    3    3  502    0  0.38141450143E+03  0.49821497558E+03 -0.13670946587E+04  0.15042089624E+04  0.12699999809E+01 0.  1.
       -4    1    3    3    0  502 -0.38141450143E+03 -0.49821497558E+03  0.12083096057E+04  0.13615097869E+04  0.12699999809E+01 0. -1.
</event>
<event>
 5   0  0.3397882E-06  0.2816947E+04  0.7818609E-02  0.8298026E-01
        1   -1    0    0  501    0  0.00000000000E+00  0.00000000000E+00  0.18712351421E+04  0.18712351421E+04  0.50400001928E-02 0. -1.
       -1   -1    0    0    0  501  0.00000000000E+00  0.00000000000E+00 -0.10601542534E+04  0.10601542534E+04  0.50400001928E-02 0.  1.
    10030    2    1    2    0    0  0.00000000000E+00  0.00000000000E+00  0.81108088864E+03  0.29313893955E+04  0.28169472093E+04 0.  0.
        2    1    3    3  502    0 -0.56866591081E+03  0.12324275054E+04  0.79704201746E+03  0.15740185678E+04  0.25500000920E-02 0. -1.
       -2    1    3    3    0  502  0.56866591081E+03 -0.12324275054E+04  0.14038871175E+02  0.13573708277E+04  0.25500000920E-02 0.  1.
</event>
<event>
 5   0  0.3600963E-06  0.2855571E+04  0.7818609E-02  0.8286221E-01
       -1   -1    0    0    0  501  0.00000000000E+00  0.00000000000E+00  0.13817226293E+04  0.13817226293E+04  0.50400001928E-02 0.  1.
        1   -1    0    0  501    0  0.00000000000E+00  0.00000000000E+00 -0.14753836521E+04  0.14753836521E+04  0.50400001928E-02 0. -1.
    10030    2    1    2    0    0  0.00000000000E+00  0.00000000000E+00 -0.93661022848E+02  0.28571062814E+04  0.28555706813E+04 0.  0.
        5    1    3    3  502    0 -0.73802742576E+03 -0.64634817446E+03 -0.10847400032E+04  0.14625776589E+04  0.46999998093E+01 0.  1.
       -5    1    3    3    0  502  0.73802742576E+03  0.64634817446E+03  0.99107898032E+03  0.13945286225E+04  0.46999998093E+01 0. -1.
</event>
<event>
 5   0  0.9342133E-06  0.2789128E+04  0.7818609E-02  0.8306652E-01
       -2   -1    0    0    0  501  0.00000000000E+00  0.00000000000E+00  0.11379244113E+04  0.11379244113E+04  0.25500000920E-02 0. -1.
        2   -1    0    0  501    0  0.00000000000E+00  0.00000000000E+00 -0.17090843438E+04  0.17090843438E+04  0.25500000920E-02 0.  1.
    10030    2    1    2    0    0  0.00000000000E+00  0.00000000000E+00 -0.57115993256E+03  0.28470087551E+04  0.27891280327E+04 0.  0.
        2    1    3    3  502    0  0.10723877754E+04  0.26357070478E+03 -0.11549132303E+04  0.15979078905E+04  0.25500000920E-02 0.  1.
       -2    1    3    3    0  502 -0.10723877754E+04 -0.26357070478E+03  0.58375329772E+03  0.12491008645E+04  0.25500000920E-02 0. -1.
</event>
<event>
 5   0  0.9426937E-06  0.2779717E+04  0.7818609E-02  0.8309593E-01
        2   -1    0    0  501    0  0.00000000000E+00  0.00000000000E+00  0.21054583521E+04  0.21054583521E+04  0.25500000920E-02 0.  1.
       -2   -1    0    0    0  501  0.00000000000E+00  0.00000000000E+00 -0.91747543715E+03  0.91747543715E+03  0.25500000920E-02 0. -1.
    10030    2    1    2    0    0  0.00000000000E+00  0.00000000000E+00  0.11879829150E+04  0.30229337893E+04  0.27797167640E+04 0.  0.
        4    1    3    3  502    0 -0.24713048402E+03 -0.35469074370E+03 -0.84250352920E+03  0.94693865135E+03  0.12699999809E+01 0. -1.
       -4    1    3    3    0  502  0.24713048402E+03  0.35469074370E+03  0.20304864442E+04  0.20759951379E+04  0.12699999809E+01 0.  1.
</event>
<event>
 5   0  0.9065579E-06  0.2770168E+04  0.7818609E-02  0.8312590E-01
       -2   -1    0    0    0  501  0.00000000000E+00  0.00000000000E+00  0.14627259318E+04  0.14627259318E+04  0.25500000920E-02 0.  1.
        2   -1    0    0  501    0  0.00000000000E+00  0.00000000000E+00 -0.13115634508E+04  0.13115634508E+04  0.25500000920E-02 0. -1.
    10030    2    1    2    0    0  0.00000000000E+00  0.00000000000E+00  0.15116248104E+03  0.27742893826E+04  0.27701681326E+04 0.  0.
        3    1    3    3  502    0  0.13559373071E+04  0.21631044887E+03 -0.10662807595E+03  0.13772166670E+04  0.10100000352E+00 0.  1.
       -3    1    3    3    0  502 -0.13559373071E+04 -0.21631044887E+03  0.25779055700E+03  0.13970727156E+04  0.10100000352E+00 0. -1.
</event>
<event>
 5   0  0.3371603E-06  0.2792457E+04  0.7818609E-02  0.8305614E-01
       -1   -1    0    0    0  501  0.00000000000E+00  0.00000000000E+00  0.24163889617E+04  0.24163889617E+04  0.50400001928E-02 0.  1.
        1   -1    0    0  501    0  0.00000000000E+00  0.00000000000E+00 -0.80676347947E+03  0.80676347949E+03  0.50400001928E-02 0. -1.
    10030    2    1    2    0    0  0.00000000000E+00  0.00000000000E+00  0.16096254822E+04  0.32231524412E+04  0.27924572452E+04 0.  0.
        1    1    3    3  502    0 -0.46856151944E+03  0.10291978880E+04  0.17500575003E+04  0.20836265127E+04  0.50400001928E-02 0.  1.
       -1    1    3    3    0  502  0.46856151944E+03 -0.10291978880E+04 -0.14043201803E+03  0.11395259285E+04  0.50400001928E-02 0. -1.
</event>
<event>
 5   0  0.3438130E-06  0.2821395E+04  0.7818609E-02  0.8296657E-01
       -1   -1    0    0    0  501  0.00000000000E+00  0.00000000000E+00  0.18401641154E+04  0.18401641154E+04  0.50400001928E-02 0.  1.
        1   -1    0    0  501    0  0.00000000000E+00  0.00000000000E+00 -0.10814618218E+04  0.10814618218E+04  0.50400001928E-02 0. -1.
    10030    2    1    2    0    0  0.00000000000E+00  0.00000000000E+00  0.75870229354E+03  0.29216259372E+04  0.28213948584E+04 0.  0.
        3    1    3    3  502    0  0.44072575816E+03 -0.91832261704E+02 -0.10050788293E+04  0.11012973357E+04  0.10100000352E+00 0. -1.
       -3    1    3    3    0  502 -0.44072575816E+03  0.91832261704E+02  0.17637811229E+04  0.18203286016E+04  0.10100000352E+00 0.  1.
</event>
<event>
 5   0  0.3600963E-06  0.2807268E+04  0.7818609E-02  0.8301016E-01
        1   -1    0    0  501    0  0.00000000000E+00  0.00000000000E+00  0.17367061592E+04  0.17367061592E+04  0.50400001928E-02 0. -1.
       -1   -1    0    0    0  501  0.00000000000E+00  0.00000000000E+00 -0.11344395122E+04  0.11344395122E+04  0.50400001928E-02 0.  1.
    10030    2    1    2    0    0  0.00000000000E+00  0.00000000000E+00  0.60226664707E+03  0.28711456714E+04  0.28072677735E+04 0.  0.
        5    1    3    3  502    0  0.47454332193E+02  0.25922387939E+03 -0.11089024280E+04  0.11397963055E+04  0.46999998093E+01 0.  1.
       -5    1    3    3    0  502 -0.47454332193E+02 -0.25922387939E+03  0.17111690751E+04  0.17313493659E+04  0.46999998093E+01 0. -1.
</event>
<event>
 5   0  0.3600963E-06  0.2783048E+04  0.7818609E-02  0.8308551E-01
        1   -1    0    0  501    0  0.00000000000E+00  0.00000000000E+00  0.86592535734E+03  0.86592535735E+03  0.50400001928E-02 0. -1.
       -1   -1    0    0    0  501  0.00000000000E+00  0.00000000000E+00 -0.22361494431E+04  0.22361494431E+04  0.50400001928E-02 0.  1.
    10030    2    1    2    0    0  0.00000000000E+00  0.00000000000E+00 -0.13702240857E+04  0.31020748004E+04  0.27830476141E+04 0.  0.
        5    1    3    3  502    0  0.29081697524E+03  0.76757311448E+03 -0.19375607526E+04  0.21042591948E+04  0.46999998093E+01 0.  1.
       -5    1    3    3    0  502 -0.29081697524E+03 -0.76757311448E+03  0.56733666686E+03  0.99781560557E+03  0.46999998093E+01 0. -1.
</event>
<event>
 5   0  0.9342133E-06  0.2809863E+04  0.7818609E-02  0.8300213E-01
        2   -1    0    0  501    0  0.00000000000E+00  0.00000000000E+00  0.11333107429E+04  0.11333107429E+04  0.25500000920E-02 0. -1.
       -2   -1    0    0    0  501  0.00000000000E+00  0.00000000000E+00 -0.17416512575E+04  0.17416512575E+04  0.25500000920E-02 0.  1.
    10030    2    1    2    0    0  0.00000000000E+00  0.00000000000E+00 -0.60834051465E+03  0.28749620004E+04  0.28098626874E+04 0.  0.
        2    1    3    3  502    0  0.64255401522E+03  0.12453500856E+04 -0.40679143260E+03  0.14591955893E+04  0.25500000920E-02 0.  1.
       -2    1    3    3    0  502 -0.64255401522E+03 -0.12453500856E+04 -0.20154908204E+03  0.14157664111E+04  0.25500000920E-02 0. -1.
</event>
<event>
 5   0  0.9342133E-06  0.2664685E+04  0.7818609E-02  0.8346555E-01
       -2   -1    0    0    0  501  0.00000000000E+00  0.00000000000E+00  0.92246814499E+03  0.92246814499E+03  0.25500000920E-02 0. -1.
        2   -1    0    0  501    0  0.00000000000E+00  0.00000000000E+00 -0.19243334766E+04  0.19243334766E+04  0.25500000920E-02 0.  1.
    10030    2    1    2    0    0  0.00000000000E+00  0.00000000000E+00 -0.10018653316E+04  0.28468016216E+04  0.26646848463E+04 0.  0.
        2    1    3    3  502    0  0.40732827316E+03 -0.72495879303E+03  0.61120058003E+03  0.10320114935E+04  0.25500000920E-02 0. -1.
       -2    1    3    3    0  502 -0.40732827316E+03  0.72495879303E+03 -0.16130659116E+04  0.18147901281E+04  0.25500000920E-02 0.  1.
</event>
<event>
 5   0  0.3438130E-06  0.2814567E+04  0.7818609E-02  0.8298760E-01
        1   -1    0    0  501    0  0.00000000000E+00  0.00000000000E+00  0.95131176267E+03  0.95131176268E+03  0.50400001928E-02 0. -1.
       -1   -1    0    0    0  501  0.00000000000E+00  0.00000000000E+00 -0.20818061631E+04  0.20818061631E+04  0.50400001928E-02 0.  1.
    10030    2    1    2    0    0  0.00000000000E+00  0.00000000000E+00 -0.11304944005E+04  0.30331179258E+04  0.28145668872E+04 0.  0.
        3    1    3    3  502    0  0.10827062913E+04 -0.53612510419E+03 -0.13429220405E+04  0.18064115416E+04  0.10100000352E+00 0.  1.
       -3    1    3    3    0  502 -0.10827062913E+04  0.53612510419E+03  0.21242764006E+03  0.12267063842E+04  0.10100000352E+00 0. -1.
</event>
<event>
 5   0  0.3371603E-06  0.2893293E+04  0.7818609E-02  0.8274876E-01
       -1   -1    0    0    0  501  0.00000000000E+00  0.00000000000E+00  0.23357295887E+04  0.23357295887E+04  0.50400001928E-02 0. -1.
        1   -1    0    0  501    0  0.00000000000E+00  0.00000000000E+00 -0.89598788495E+03  0.89598788497E+03  0.50400001928E-02 0.  1.
    10030    2    1    2    0    0  0.00000000000E+00  0.00000000000E+00  0.14397417037E+04  0.32317174736E+04  0.28932925286E+04 0.  0.
        1    1    3    3  502    0 -0.53426736169E+03 -0.91074175183E+03 -0.38468267749E+03  0.11237761853E+04  0.50400001928E-02 0.  1.
       -1    1    3    3    0  502  0.53426736169E+03  0.91074175183E+03  0.18244243812E+04  0.21079412883E+04  0.50400001928E-02 0. -1.
</event>
<event>
 5   0  0.9065579E-06  0.2815998E+04  0.7818609E-02  0.8298319E-01
        2   -1    0    0  501    0  0.00000000000E+00  0.00000000000E+00  0.13800028529E+04  0.13800028529E+04  0.25500000920E-02 0. -1.
       -2   -1    0    0    0  501  0.00000000000E+00  0.00000000000E+00 -0.14365630918E+04  0.14365630918E+04  0.25500000920E-02 0.  1.
    10030    2    1    2    0    0  0.00000000000E+00  0.00000000000E+00 -0.56560238894E+02  0.28165659446E+04  0.28159979865E+04 0.  0.
        3    1    3    3  502    0 -0.68523554739E+03  0.56941878787E+03 -0.11187640392E+04  0.14301812812E+04  0.10100000352E+00 0.  1.
       -3    1    3    3    0  502  0.68523554739E+03 -0.56941878787E+03  0.10622038003E+04  0.13863846634E+04  0.10100000352E+00 0. -1.
</event>
<event>
 5   0  0.9252359E-06  0.2800312E+04  0.7818609E-02  0.8303172E-01
       -2   -1    0    0    0  501  0.00000000000E+00  0.00000000000E+00  0.91199277707E+03  0.91199277707E+03  0.25500000920E-02 0.  1.
        2   -1    0    0  501    0  0.00000000000E+00  0.00000000000E+00 -0.21496187211E+04  0.21496187211E+04  0.25500000920E-02 0. -1.
    10030    2    1    2    0    0  0.00000000000E+00  0.00000000000E+00 -0.12376259440E+04  0.30616114982E+04  0.28003119448E+04 0.  0.
        5    1    3    3  502    0  0.10136255742E+04  0.66934833830E+03 -0.13801771547E+04  0.18385796342E+04  0.46999998093E+01 0. -1.
       -5    1    3    3    0  502 -0.10136255742E+04 -0.66934833830E+03  0.14255121070E+03  0.12230318640E+04  0.46999998093E+01 0.  1.
</event>
<event>
 5   0  0.3397882E-06  0.2804501E+04  0.7818609E-02  0.8301872E-01
       -1   -1    0    0    0  501  0.00000000000E+00  0.00000000000E+00  0.13623017412E+04  0.13623017412E+04  0.50400001928E-02 0.  1.
        1   -1    0    0  501    0  0.00000000000E+00  0.00000000000E+00 -0.14433710920E+04  0.14433710920E+04  0.50400001928E-02 0. -1.
    10030    2    1    2    0    0  0.00000000000E+00  0.00000000000E+00 -0.81069350796E+02  0.28056728333E+04  0.28045013474E+04 0.  0.
        2    1    3    3  502    0  0.46130158906E+03  0.27055438253E+03 -0.13373431421E+04  0.14403074358E+04  0.25500000920E-02 0. -1.
       -2    1    3    3    0  502 -0.46130158906E+03 -0.27055438253E+03  0.12562737913E+04  0.13653653975E+04  0.25500000920E-02 0.  1.
</event>
<event>
 5   0  0.3397882E-06  0.2805101E+04  0.7818609E-02  0.8301687E-01
       -1   -1    0    0    0  501  0.00000000000E+00  0.00000000000E+00  0.14340676017E+04  0.14340676017E+04  0.50400001928E-02 0. -1.
        1   -1    0    0  501    0  0.00000000000E+00  0.00000000000E+00 -0.13717256913E+04  0.13717256913E+04  0.50400001928E-02 0.  1.
    10030    2    1    2    0    0  0.00000000000E+00  0.00000000000E+00  0.62341910413E+02  0.28057932930E+04  0.28051006202E+04 0.  0.
        2    1    3    3  502    0  0.23195165044E+03  0.69436425816E+03 -0.11654538784E+04  0.13763088439E+04  0.25500000920E-02 0.  1.
       -2    1    3    3    0  502 -0.23195165044E+03 -0.69436425816E+03  0.12277957888E+04  0.14294844491E+04  0.25500000920E-02 0. -1.
</event>
<event>
 5   0  0.3438130E-06  0.2809190E+04  0.7818609E-02  0.8300421E-01
        1   -1    0    0  501    0  0.00000000000E+00  0.00000000000E+00  0.16362381893E+04  0.16362381893E+04  0.50400001928E-02 0. -1.
       -1   -1    0    0    0  501  0.00000000000E+00  0.00000000000E+00 -0.12057452726E+04  0.12057452726E+04  0.50400001928E-02 0.  1.
    10030    2    1    2    0    0  0.00000000000E+00  0.00000000000E+00  0.43049291672E+03  0.28419834618E+04  0.28091895354E+04 0.  0.
        3    1    3    3  502    0 -0.63827123963E+03 -0.67460543565E+03 -0.85081187792E+03  0.12595092421E+04  0.10100000352E+00 0.  1.
       -3    1    3    3    0  502  0.63827123963E+03  0.67460543565E+03  0.12813047946E+04  0.15824742197E+04  0.10100000352E+00 0. -1.
</event>
<event>
 5   0  0.9065579E-06  0.2805294E+04  0.7818609E-02  0.8301627E-01
       -2   -1    0    0    0  501  0.00000000000E+00  0.00000000000E+00  0.11640159734E+04  0.11640159734E+04  0.25500000920E-02 0.  1.
        2   -1    0    0  501    0  0.00000000000E+00  0.00000000000E+00 -0.16901993482E+04  0.16901993482E+04  0.25500000920E-02 0. -1.
    10030    2    1    2    0    0  0.00000000000E+00  0.00000000000E+00 -0.52618337482E+03  0.28542153217E+04  0.28052943087E+04 0.  0.
        3    1    3    3  502    0  0.12367615960E+04  0.65872962012E+03 -0.19942999800E+03  0.14153714325E+04  0.10100000352E+00 0.  1.
       -3    1    3    3    0  502 -0.12367615960E+04 -0.65872962012E+03 -0.32675337682E+03  0.14388438891E+04  0.10100000352E+00 0. -1.
</event>
<event>
 5   0  0.3600963E-06  0.2790585E+04  0.7818609E-02  0.8306197E-01
       -1   -1    0    0    0  501  0.00000000000E+00  0.00000000000E+00  0.17727410803E+04  0.17727410803E+04  0.50400001928E-02 0. -1.
        1   -1    0    0  501    0  0.00000000000E+00  0.00000000000E+00 -0.10982098252E+04  0.10982098252E+04  0.50400001928E-02 0.  1.
    10030    2    1    2    0    0  0.00000000000E+00  0.00000000000E+00  0.67453125507E+03  0.28709509054E+04  0.27905853664E+04 0.  0.
        5    1    3    3  502    0 -0.37955051940E+03 -0.12168261786E+04 -0.24661285327E+03  0.12982929312E+04  0.46999998093E+01 0.  1.
       -5    1    3    3    0  502  0.37955051940E+03  0.12168261786E+04  0.92114410835E+03  0.15726579743E+04  0.46999998093E+01 0. -1.
</event>
<event>
 5   0  0.3357244E-06  0.2804751E+04  0.7818609E-02  0.8301795E-01
        1   -1    0    0  501    0  0.00000000000E+00  0.00000000000E+00  0.25688874318E+04  0.25688874319E+04  0.50400001928E-02 0.  1.
       -1   -1    0    0    0  501  0.00000000000E+00  0.00000000000E+00 -0.76556748406E+03  0.76556748407E+03  0.50400001928E-02 0. -1.
    10030    2    1    2    0    0  0.00000000000E+00  0.00000000000E+00  0.18033199478E+04  0.33344549159E+04  0.28047507469E+04 0.  0.
        4    1    3    3  502    0  0.10491843758E+04  0.33702623769E+03 -0.12948680656E+03  0.11095688285E+04  0.12699999809E+01 0. -1.
       -4    1    3    3    0  502 -0.10491843758E+04 -0.33702623769E+03  0.19328067544E+04  0.22248860874E+04  0.12699999809E+01 0.  1.
</event>
<event>
 5   0  0.9065579E-06  0.2787912E+04  0.7818609E-02  0.8307031E-01
       -2   -1    0    0    0  501  0.00000000000E+00  0.00000000000E+00  0.89241000116E+03  0.89241000116E+03  0.25500000920E-02 0. -1.
        2   -1    0    0  501    0  0.00000000000E+00  0.00000000000E+00 -0.21773776664E+04  0.21773776664E+04  0.25500000920E-02 0.  1.
    10030    2    1    2    0    0  0.00000000000E+00  0.00000000000E+00 -0.12849676652E+04  0.30697876675E+04  0.27879121979E+04 0.  0.
        3    1    3    3  502    0  0.40093886660E+03  0.91738266457E+03 -0.17104835285E+04  0.19819426932E+04  0.10100000352E+00 0.  1.
       -3    1    3    3    0  502 -0.40093886660E+03 -0.91738266457E+03  0.42551586324E+03  0.10878449743E+04  0.10100000352E+00 0. -1.
</event>
<event>
 5   0  0.9252359E-06  0.2748458E+04  0.7818609E-02  0.8319451E-01
        2   -1    0    0  501    0  0.00000000000E+00  0.00000000000E+00  0.17944606022E+04  0.17944606022E+04  0.25500000920E-02 0. -1.
       -2   -1    0    0    0  501  0.00000000000E+00  0.00000000000E+00 -0.10524081239E+04  0.10524081240E+04  0.25500000920E-02 0.  1.
    10030    2    1    2    0    0  0.00000000000E+00  0.00000000000E+00  0.74205247828E+03  0.28468687262E+04  0.27484576882E+04 0.  0.
        5    1    3    3  502    0  0.99932963951E+03  0.49248200534E+03 -0.46232102489E+03  0.12062176727E+04  0.46999998093E+01 0.  1.
       -5    1    3    3    0  502 -0.99932963951E+03 -0.49248200534E+03  0.12043735032E+04  0.16406510534E+04  0.46999998093E+01 0. -1.
</event>
<event>
 5   0  0.9252359E-06  0.2789966E+04  0.7818609E-02  0.8306390E-01
        2   -1    0    0  501    0  0.00000000000E+00  0.00000000000E+00  0.21496661595E+04  0.21496661595E+04  0.25500000920E-02 0.  1.
       -2   -1    0    0    0  501  0.00000000000E+00  0.00000000000E+00 -0.90524671836E+03  0.90524671836E+03  0.25500000920E-02 0. -1.
    10030    2    1    2    0    0  0.00000000000E+00  0.00000000000E+00  0.12444194412E+04  0.30549128779E+04  0.27899664776E+04 0.  0.
        5    1    3    3  502    0  0.94225393845E+03 -0.84354304556E+03 -0.22378016371E+02  0.12648834807E+04  0.46999998093E+01 0. -1.
       -5    1    3    3    0  502 -0.94225393845E+03  0.84354304556E+03  0.12667974575E+04  0.17900293972E+04  0.46999998093E+01 0.  1.
</event>
<event>
 5   0  0.9252359E-06  0.2798740E+04  0.7818609E-02  0.8303660E-01
       -2   -1    0    0    0  501  0.00000000000E+00  0.00000000000E+00  0.13482726855E+04  0.13482726855E+04  0.25500000920E-02 0. -1.
        2   -1    0    0  501    0  0.00000000000E+00  0.00000000000E+00 -0.14524037748E+04  0.14524037748E+04  0.25500000920E-02 0.  1.
    10030    2    1    2    0    0  0.00000000000E+00  0.00000000000E+00 -0.10413108933E+03  0.28006764603E+04  0.27987399579E+04 0.  0.
        5    1    3    3  502    0  0.45939850138E+03 -0.12384444803E+04 -0.51436196332E+03  0.14175267310E+04  0.46999998093E+01 0.  1.
       -5    1    3    3    0  502 -0.45939850138E+03  0.12384444803E+04  0.41023087399E+03  0.13831497293E+04  0.46999998093E+01 0. -1.
</event>
<event>
 5   0  0.9342133E-06  0.2791537E+04  0.7818609E-02  0.8305901E-01
       -2   -1    0    0    0  501  0.00000000000E+00  0.00000000000E+00  0.87669445026E+03  0.87669445026E+03  0.25500000920E-02 0. -1.
        2   -1    0    0  501    0  0.00000000000E+00  0.00000000000E+00 -0.22221763919E+04  0.22221763919E+04  0.25500000920E-02 0.  1.
    10030    2    1    2    0    0  0.00000000000E+00  0.00000000000E+00 -0.13454819417E+04  0.30988708422E+04  0.27915370034E+04 0.  0.
        2    1    3    3  502    0 -0.63614152350E+03  0.58672533938E+03 -0.18884073777E+04  0.20772590319E+04  0.25500000920E-02 0.  1.
       -2    1    3    3    0  502  0.63614152350E+03 -0.58672533938E+03  0.54292543599E+03  0.10216118103E+04  0.25500000920E-02 0. -1.
</event>
<event>
 5   0  0.9426937E-06  0.2747264E+04  0.7818609E-02  0.8319830E-01
        2   -1    0    0  501    0  0.00000000000E+00  0.00000000000E+00  0.27351698818E+04  0.27351698818E+04  0.25500000920E-02 0.  1.
       -2   -1    0    0    0  501  0.00000000000E+00  0.00000000000E+00 -0.68985277781E+03  0.68985277782E+03  0.25500000920E-02 0. -1.
    10030    2    1    2    0    0  0.00000000000E+00  0.00000000000E+00  0.20453171040E+04  0.34250226596E+04  0.27472637593E+04 0.  0.
        4    1    3    3  502    0  0.12583392183E+04  0.10814875412E+03  0.34926660430E+03  0.13103825835E+04  0.12699999809E+01 0. -1.
       -4    1    3    3    0  502 -0.12583392183E+04 -0.10814875412E+03  0.16960504997E+04  0.21146400762E+04  0.12699999809E+01 0.  1.
</event>
<event>
 5   0  0.9252359E-06  0.2535142E+04  0.7818609E-02  0.8390572E-01
        2   -1    0    0  501    0  0.00000000000E+00  0.00000000000E+00  0.18715384073E+04  0.18715384073E+04  0.25500000920E-02 0.  1.
       -2   -1    0    0    0  501  0.00000000000E+00  0.00000000000E+00 -0.85851109227E+03  0.85851109227E+03  0.25500000920E-02 0. -1.
    10030    2    1    2    0    0  0.00000000000E+00  0.00000000000E+00  0.10130273150E+04  0.27300494996E+04  0.25351421911E+04 0.  0.
        5    1    3    3  502    0  0.86694232535E+03 -0.91063614146E+03  0.33331559394E+03  0.13007569153E+04  0.46999998093E+01 0.  1.
       -5    1    3    3    0  502 -0.86694232535E+03  0.91063614146E+03  0.67971172108E+03  0.14292925842E+04  0.46999998093E+01 0. -1.
</event>
<event>
 5   0  0.9252359E-06  0.2772795E+04  0.7818609E-02  0.8311764E-01
        2   -1    0    0  501    0  0.00000000000E+00  0.00000000000E+00  0.21377196754E+04  0.21377196754E+04  0.25500000920E-02 0.  1.
       -2   -1    0    0    0  501  0.00000000000E+00  0.00000000000E+00 -0.89913476624E+03  0.89913476624E+03  0.25500000920E-02 0. -1.
    10030    2    1    2    0    0  0.00000000000E+00  0.00000000000E+00  0.12385849092E+04  0.30368544417E+04  0.27727950380E+04 0.  0.
        5    1    3    3  502    0  0.13263590604E+04 -0.26818626166E+03  0.28904087177E+03  0.13837336968E+04  0.46999998093E+01 0. -1.
       -5    1    3    3    0  502 -0.13263590604E+04  0.26818626166E+03  0.94954403741E+03  0.16531207449E+04  0.46999998093E+01 0.  1.
</event>
<event>
 5   0  0.9260173E-06  0.2879049E+04  0.7818609E-02  0.8279138E-01
        2   -1    0    0  501    0  0.00000000000E+00  0.00000000000E+00  0.25306033577E+04  0.25306033577E+04  0.25500000920E-02 0.  1.
       -2   -1    0    0    0  501  0.00000000000E+00  0.00000000000E+00 -0.81886835551E+03  0.81886835552E+03  0.25500000920E-02 0. -1.
    10030    2    1    2    0    0  0.00000000000E+00  0.00000000000E+00  0.17117350022E+04  0.33494717132E+04  0.28790491555E+04 0.  0.
        1    1    3    3  502    0 -0.96439750934E+03 -0.57925313259E+03  0.19007454576E+04  0.22087168316E+04  0.50400001928E-02 0.  1.
       -1    1    3    3    0  502  0.96439750934E+03  0.57925313259E+03 -0.18901045541E+03  0.11407548816E+04  0.50400001928E-02 0. -1.
</event>
<event>
 5   0  0.9260173E-06  0.2811946E+04  0.7818609E-02  0.8299569E-01
        2   -1    0    0  501    0  0.00000000000E+00  0.00000000000E+00  0.22415118912E+04  0.22415118912E+04  0.25500000920E-02 0. -1.
       -2   -1    0    0    0  501  0.00000000000E+00  0.00000000000E+00 -0.88188714938E+03  0.88188714938E+03  0.25500000920E-02 0.  1.
    10030    2    1    2    0    0  0.00000000000E+00  0.00000000000E+00  0.13596247418E+04  0.31233990405E+04  0.28119463238E+04 0.  0.
        1    1    3    3  502    0 -0.54073914760E+03  0.72791265474E+02  0.21191211017E+04  0.21882348224E+04  0.50400001928E-02 0. -1.
       -1    1    3    3    0  502  0.54073914760E+03 -0.72791265474E+02 -0.75949635996E+03  0.93516421814E+03  0.50400001928E-02 0.  1.
</event>
<event>
 5   0  0.3397882E-06  0.2791102E+04  0.7818609E-02  0.8306036E-01
       -1   -1    0    0    0  501  0.00000000000E+00  0.00000000000E+00  0.67838977631E+03  0.67838977633E+03  0.50400001928E-02 0. -1.
        1   -1    0    0  501    0  0.00000000000E+00  0.00000000000E+00 -0.28708607494E+04  0.28708607494E+04  0.50400001928E-02 0.  1.
    10030    2    1    2    0    0  0.00000000000E+00  0.00000000000E+00 -0.21924709731E+04  0.35492505258E+04  0.27911019914E+04 0.  0.
        2    1    3    3  502    0  0.93560909623E+03  0.20028473930E+03  0.19563363723E+03  0.97660169863E+03  0.25500000920E-02 0. -1.
       -2    1    3    3    0  502 -0.93560909623E+03 -0.20028473930E+03 -0.23881046104E+04  0.25726488271E+04  0.25500000920E-02 0.  1.
</event>
<event>
 5   0  0.9065579E-06  0.2774854E+04  0.7818609E-02  0.8311118E-01
        2   -1    0    0  501    0  0.00000000000E+00  0.00000000000E+00  0.16969515180E+04  0.16969515180E+04  0.25500000920E-02 0.  1.
       -2   -1    0    0    0  501  0.00000000000E+00  0.00000000000E+00 -0.11343596649E+04  0.11343596649E+04  0.25500000920E-02 0. -1.
    10030    2    1    2    0    0  0.00000000000E+00  0.00000000000E+00  0.56259185315E+03  0.28313111829E+04  0.27748537657E+04 0.  0.
        3    1    3    3  502    0 -0.78103079528E+03 -0.10940985502E+04  0.63163678053E+03  0.14852695962E+04  0.10100000352E+00 0.  1.
       -3    1    3    3    0  502  0.78103079528E+03  0.10940985502E+04 -0.69044927377E+02  0.13460415866E+04  0.10100000352E+00 0. -1.
</event>
<event>
 5   0  0.3357244E-06  0.2789992E+04  0.7818609E-02  0.8306382E-01
        1   -1    0    0  501    0  0.00000000000E+00  0.00000000000E+00  0.55212234465E+03  0.55212234467E+03  0.50400001928E-02 0.  1.
       -1   -1    0    0    0  501  0.00000000000E+00  0.00000000000E+00 -0.35246064640E+04  0.35246064640E+04  0.50400001928E-02 0. -1.
    10030    2    1    2    0    0  0.00000000000E+00  0.00000000000E+00 -0.29724841194E+04  0.40767288087E+04  0.27899921039E+04 0.  0.
        4    1    3    3  502    0 -0.34505763777E+03  0.77888380837E+03  0.12789329257E+03  0.86144243424E+03  0.12699999809E+01 0.  1.
       -4    1    3    3    0  502  0.34505763777E+03 -0.77888380837E+03 -0.31003774120E+04  0.32152863745E+04  0.12699999809E+01 0. -1.
</event>
<event>
 5   0  0.3371603E-06  0.2803568E+04  0.7818609E-02  0.8302162E-01
        1   -1    0    0  501    0  0.00000000000E+00  0.00000000000E+00  0.68270571748E+03  0.68270571750E+03  0.50400001928E-02 0. -1.
       -1   -1    0    0    0  501  0.00000000000E+00  0.00000000000E+00 -0.28782507753E+04  0.28782507753E+04  0.50400001928E-02 0.  1.
    10030    2    1    2    0    0  0.00000000000E+00  0.00000000000E+00 -0.21955450579E+04  0.35609564928E+04  0.28035679130E+04 0.  0.
        1    1    3    3  502    0 -0.64870247064E+03 -0.99510393214E+02  0.47551480701E+03  0.81045144548E+03  0.50400001928E-02 0. -1.
       -1    1    3    3    0  502  0.64870247064E+03  0.99510393214E+02 -0.26710598649E+04  0.27505050474E+04  0.50400001928E-02 0.  1.
</event>
<event>
 5   0  0.3600963E-06  0.2791497E+04  0.7818609E-02  0.8305913E-01
       -1   -1    0    0    0  501  0.00000000000E+00  0.00000000000E+00  0.18599051300E+04  0.18599051300E+04  0.50400001928E-02 0. -1.
        1   -1    0    0  501    0  0.00000000000E+00  0.00000000000E+00 -0.10474263988E+04  0.10474263989E+04  0.50400001928E-02 0.  1.
    10030    2    1    2    0    0  0.00000000000E+00  0.00000000000E+00  0.81247873118E+03  0.29073315289E+04  0.27914968978E+04 0.  0.
        5    1    3    3  502    0 -0.75021821714E+03 -0.33500573666E+03  0.15813470145E+04  0.17820596755E+04  0.46999998093E+01 0. -1.
       -5    1    3    3    0  502  0.75021821714E+03  0.33500573666E+03 -0.76886828330E+03  0.11252718534E+04  0.46999998093E+01 0.  1.
</event>
<event>
 5   0  0.9426937E-06  0.2774651E+04  0.7818609E-02  0.8311182E-01
        2   -1    0    0  501    0  0.00000000000E+00  0.00000000000E+00  0.12412347604E+04  0.12412347604E+04  0.25500000920E-02 0. -1.
       -2   -1    0    0    0  501  0.00000000000E+00  0.00000000000E+00 -0.15506106363E+04  0.15506106363E+04  0.25500000920E-02 0.  1.
    10030    2    1    2    0    0  0.00000000000E+00  0.00000000000E+00 -0.30937587592E+03  0.27918453967E+04  0.27746508405E+04 0.  0.
        4    1    3    3  502    0 -0.33266851934E+02  0.90767183477E+03  0.90047425683E+03  0.12789958339E+04  0.12699999809E+01 0. -1.
       -4    1    3    3    0  502  0.33266851934E+02 -0.90767183477E+03 -0.12098501328E+04  0.15128495628E+04  0.12699999809E+01 0.  1.
</event>
<event>
 5   0  0.3357244E-06  0.2784068E+04  0.7818609E-02  0.8308232E-01
       -1   -1    0    0    0  501  0.00000000000E+00  0.00000000000E+00  0.10677500114E+04  0.10677500114E+04  0.50400001928E-02 0. -1.
        1   -1    0    0  501    0  0.00000000000E+00  0.00000000000E+00 -0.18148053571E+04  0.18148053571E+04  0.50400001928E-02 0.  1.
    10030    2    1    2    0    0  0.00000000000E+00  0.00000000000E+00 -0.74705534572E+03  0.28825553685E+04  0.27840678445E+04 0.  0.
        4    1    3    3  502    0  0.50925172807E+03 -0.60079951779E+03  0.81488280261E+03  0.11332841559E+04  0.12699999809E+01 0. -1.
       -4    1    3    3    0  502 -0.50925172807E+03  0.60079951779E+03 -0.15619381483E+04  0.17492712126E+04  0.12699999809E+01 0.  1.
</event>
<event>
 5   0  0.9342133E-06  0.2808634E+04  0.7818609E-02  0.8300593E-01
       -2   -1    0    0    0  501  0.00000000000E+00  0.00000000000E+00  0.20011235197E+04  0.20011235197E+04  0.25500000920E-02 0.  1.
        2   -1    0    0  501    0  0.00000000000E+00  0.00000000000E+00 -0.98549948205E+03  0.98549948205E+03  0.25500000920E-02 0. -1.
    10030    2    1    2    0    0  0.00000000000E+00  0.00000000000E+00  0.10156240377E+04  0.29866230018E+04  0.28086339685E+04 0.  0.
        2    1    3    3  502    0 -0.30141226224E+02 -0.13713598185E+04  0.18779187343E+03  0.13844861982E+04  0.25500000920E-02 0. -1.
       -2    1    3    3    0  502  0.30141226224E+02  0.13713598185E+04  0.82783216422E+03  0.16021368036E+04  0.25500000920E-02 0.  1.
</event>
<event>
 5   0  0.9065579E-06  0.2810788E+04  0.7818609E-02  0.8299927E-01
       -2   -1    0    0    0  501  0.00000000000E+00  0.00000000000E+00  0.12756178286E+04  0.12756178286E+04  0.25500000920E-02 0. -1.
        2   -1    0    0  501    0  0.00000000000E+00  0.00000000000E+00 -0.15483733562E+04  0.15483733562E+04  0.25500000920E-02 0.  1.
    10030    2    1    2    0    0  0.00000000000E+00  0.00000000000E+00 -0.27275552762E+03  0.28239911848E+04  0.28107882584E+04 0.  0.
        3    1    3    3  502    0 -0.72865546639E+03  0.11534994061E+04 -0.47505608914E+03  0.14447068791E+04  0.10100000352E+00 0. -1.
       -3    1    3    3    0  502  0.72865546639E+03 -0.11534994061E+04  0.20230056152E+03  0.13792843057E+04  0.10100000352E+00 0.  1.
</event>
<event>
 5   0  0.9252359E-06  0.2801049E+04  0.7818609E-02  0.8302943E-01
       -2   -1    0    0    0  501  0.00000000000E+00  0.00000000000E+00  0.15360195893E+04  0.15360195893E+04  0.25500000920E-02 0.  1.
        2   -1    0    0  501    0  0.00000000000E+00  0.00000000000E+00 -0.12769818279E+04  0.12769818279E+04  0.25500000920E-02 0. -1.
    10030    2    1    2    0    0  0.00000000000E+00  0.00000000000E+00  0.25903776142E+03  0.28130014173E+04  0.28010491627E+04 0.  0.
        5    1    3    3  502    0 -0.13759872378E+04  0.22090957475E+03 -0.10016769842E+02  0.13936514430E+04  0.46999998093E+01 0. -1.
       -5    1    3    3    0  502  0.13759872378E+04 -0.22090957475E+03  0.26905453126E+03  0.14193499743E+04  0.46999998093E+01 0.  1.
</event>
<event>
 5   0  0.3397882E-06  0.2813238E+04  0.7818609E-02  0.8299170E-01
       -1   -1    0    0    0  501  0.00000000000E+00  0.00000000000E+00  0.28303640237E+04  0.28303640237E+04  0.50400001928E-02 0. -1.
        1   -1    0    0  501    0  0.00000000000E+00  0.00000000000E+00 -0.69905405168E+03  0.69905405170E+03  0.50400001928E-02 0.  1.
    10030    2    1    2    0    0  0.00000000000E+00  0.00000000000E+00  0.21313099720E+04  0.35294180754E+04  0.28132383038E+04 0.  0.
        2    1    3    3  502    0 -0.11567141922E+04 -0.33180100545E+02  0.62396010224E+02  0.11588709607E+04  0.25500000920E-02 0.  1.
       -2    1    3    3    0  502  0.11567141922E+04  0.33180100545E+02  0.20689139618E+04  0.23705471146E+04  0.25500000920E-02 0. -1.
</event>
<event>
 5   0  0.3357244E-06  0.2799963E+04  0.7818609E-02  0.8303280E-01
        1   -1    0    0  501    0  0.00000000000E+00  0.00000000000E+00  0.10483916690E+04  0.10483916690E+04  0.50400001928E-02 0. -1.
       -1   -1    0    0    0  501  0.00000000000E+00  0.00000000000E+00 -0.18694810565E+04  0.18694810565E+04  0.50400001928E-02 0.  1.
    10030    2    1    2    0    0  0.00000000000E+00  0.00000000000E+00 -0.82108938749E+03  0.29178727255E+04  0.27999631176E+04 0.  0.
        4    1    3    3  502    0  0.12644022903E+04  0.41605730149E+03 -0.86254941578E+03  0.15861304919E+04  0.12699999809E+01 0.  1.
       -4    1    3    3    0  502 -0.12644022903E+04 -0.41605730149E+03  0.41460028292E+02  0.13317422336E+04  0.12699999809E+01 0. -1.
</event>
<event>
 5   0  0.9426937E-06  0.2798913E+04  0.7818609E-02  0.8303606E-01
       -2   -1    0    0    0  501  0.00000000000E+00  0.00000000000E+00  0.14759129848E+04  0.14759129848E+04  0.25500000920E-02 0. -1.
        2   -1    0    0  501    0  0.00000000000E+00  0.00000000000E+00 -0.13269603583E+04  0.13269603584E+04  0.25500000920E-02 0.  1.
    10030    2    1    2    0    0  0.00000000000E+00  0.00000000000E+00  0.14895262647E+03  0.28028733432E+04  0.27989126626E+04 0.  0.
        4    1    3    3  502    0 -0.41536571683E+03 -0.10081382577E+04  0.95298905000E+03  0.14481233261E+04  0.12699999809E+01 0. -1.
       -4    1    3    3    0  502  0.41536571683E+03  0.10081382577E+04 -0.80403642354E+03  0.13547500170E+04  0.12699999809E+01 0.  1.
</event>
<event>
 5   0  0.9065579E-06  0.2825908E+04  0.7818609E-02  0.8295270E-01
        2   -1    0    0  501    0  0.00000000000E+00  0.00000000000E+00  0.18669288010E+04  0.18669288010E+04  0.25500000920E-02 0.  1.
       -2   -1    0    0    0  501  0.00000000000E+00  0.00000000000E+00 -0.10693704048E+04  0.10693704048E+04  0.25500000920E-02 0. -1.
    10030    2    1    2    0    0  0.00000000000E+00  0.00000000000E+00  0.79755839624E+03  0.29362992058E+04  0.28259075765E+04 0.  0.
        3    1    3    3  502    0 -0.80757512956E+03  0.86646393502E+03  0.11992640211E+04  0.16855775102E+04  0.10100000352E+00 0. -1.
       -3    1    3    3    0  502  0.80757512956E+03 -0.86646393502E+03 -0.40170562485E+03  0.12507216956E+04  0.10100000352E+00 0.  1.
</event>
<event>
 5   0  0.3371603E-06  0.2852074E+04  0.7818609E-02  0.8287281E-01
        1   -1    0    0  501    0  0.00000000000E+00  0.00000000000E+00  0.18076488205E+04  0.18076488205E+04  0.50400001928E-02 0.  1.
       -1   -1    0    0    0  501  0.00000000000E+00  0.00000000000E+00 -0.11249867275E+04  0.11249867275E+04  0.50400001928E-02 0. -1.
    10030    2    1    2    0    0  0.00000000000E+00  0.00000000000E+00  0.68266209303E+03  0.29326355479E+04  0.28520735832E+04 0.  0.
        1    1    3    3  502    0  0.62488273853E+03  0.93897361058E+03  0.12385793805E+04  0.16751802172E+04  0.50400001928E-02 0.  1.
       -1    1    3    3    0  502 -0.62488273853E+03 -0.93897361058E+03 -0.55591728748E+03  0.12574553307E+04  0.50400001928E-02 0. -1.
</event>
<event>
 5   0  0.3438130E-06  0.2590284E+04  0.7818609E-02  0.8371509E-01
       -1   -1    0    0    0  501  0.00000000000E+00  0.00000000000E+00  0.11684939650E+04  0.11684939650E+04  0.50400001928E-02 0.  1.
        1   -1    0    0  501    0  0.00000000000E+00  0.00000000000E+00 -0.14355170531E+04  0.14355170532E+04  0.50400001928E-02 0. -1.
    10030    2    1    2    0    0  0.00000000000E+00  0.00000000000E+00 -0.26702308818E+03  0.26040110181E+04  0.25902841645E+04 0.  0.
        3    1    3    3  502    0  0.76934404588E+02 -0.38779088404E+02  0.11656099803E+04  0.11687896974E+04  0.10100000352E+00 0.  1.
       -3    1    3    3    0  502 -0.76934404588E+02  0.38779088404E+02 -0.14326330685E+04  0.14352213207E+04  0.10100000352E+00 0. -1.
</event>
<event>
 5   0  0.3397882E-06  0.2793863E+04  0.7818609E-02  0.8305176E-01
        1   -1    0    0  501    0  0.00000000000E+00  0.00000000000E+00  0.14098365193E+04  0.14098365193E+04  0.50400001928E-02 0. -1.
       -1   -1    0    0    0  501  0.00000000000E+00  0.00000000000E+00 -0.13841448788E+04  0.13841448788E+04  0.50400001928E-02 0.  1.
    10030    2    1    2    0    0  0.00000000000E+00  0.00000000000E+00  0.25691640427E+02  0.27939813981E+04  0.27938632738E+04 0.  0.
        2    1    3    3  502    0  0.11373124346E+04  0.81098493842E+03  0.28398134352E+02  0.13971337081E+04  0.25500000920E-02 0.  1.
       -2    1    3    3    0  502 -0.11373124346E+04 -0.81098493842E+03 -0.27064939257E+01  0.13968476901E+04  0.25500000920E-02 0. -1.
</event>
<event>
 5   0  0.3397882E-06  0.2786874E+04  0.7818609E-02  0.8307355E-01
       -1   -1    0    0    0  501  0.00000000000E+00  0.00000000000E+00  0.10489138590E+04  0.10489138590E+04  0.50400001928E-02 0. -1.
        1   -1    0    0  501    0  0.00000000000E+00  0.00000000000E+00 -0.18511209629E+04  0.18511209629E+04  0.50400001928E-02 0.  1.
    10030    2    1    2    0    0  0.00000000000E+00  0.00000000000E+00 -0.80220710389E+03  0.29000348220E+04  0.27868738276E+04 0.  0.
        2    1    3    3  502    0 -0.68765860987E+03  0.46876702513E+03  0.76188580010E+03  0.11283115084E+04  0.25500000920E-02 0.  1.
       -2    1    3    3    0  502  0.68765860987E+03 -0.46876702513E+03 -0.15640929040E+04  0.17717233136E+04  0.25500000920E-02 0. -1.
</event>
<event>
 5   0  0.9252359E-06  0.2884825E+04  0.7818609E-02  0.8277407E-01
        2   -1    0    0  501    0  0.00000000000E+00  0.00000000000E+00  0.21793749716E+04  0.21793749716E+04  0.25500000920E-02 0. -1.
       -2   -1    0    0    0  501  0.00000000000E+00  0.00000000000E+00 -0.95465646515E+03  0.95465646515E+03  0.25500000920E-02 0.  1.
    10030    2    1    2    0    0  0.00000000000E+00  0.00000000000E+00  0.12247185065E+04  0.31340314368E+04  0.28848254066E+04 0.  0.
        5    1    3    3  502    0  0.27373450267E+03  0.56603943977E+03  0.20226533242E+04  0.21181312012E+04  0.46999998093E+01 0. -1.
       -5    1    3    3    0  502 -0.27373450267E+03 -0.56603943977E+03 -0.79793481776E+03  0.10159002356E+04  0.46999998093E+01 0.  1.
</event>
<event>
 5   0  0.3600963E-06  0.2768957E+04  0.7818609E-02  0.8312971E-01
        1   -1    0    0  501    0  0.00000000000E+00  0.00000000000E+00  0.21405823644E+04  0.21405823644E+04  0.50400001928E-02 0. -1.
       -1   -1    0    0    0  501  0.00000000000E+00  0.00000000000E+00 -0.89544839776E+03  0.89544839778E+03  0.50400001928E-02 0.  1.
    10030    2    1    2    0    0  0.00000000000E+00  0.00000000000E+00  0.12451339666E+04  0.30360307622E+04  0.27689572395E+04 0.  0.
        5    1    3    3  502    0 -0.44121850462E+03  0.26059874252E+03 -0.78763215903E+03  0.93966588815E+03  0.46999998093E+01 0.  1.
       -5    1    3    3    0  502  0.44121850462E+03 -0.26059874252E+03  0.20327661256E+04  0.20963648740E+04  0.46999998093E+01 0. -1.
</event>
<event>
 5   0  0.3438130E-06  0.2799529E+04  0.7818609E-02  0.8303415E-01
        1   -1    0    0  501    0  0.00000000000E+00  0.00000000000E+00  0.34712349889E+04  0.34712349889E+04  0.50400001928E-02 0.  1.
       -1   -1    0    0    0  501  0.00000000000E+00  0.00000000000E+00 -0.56445068057E+03  0.56445068059E+03  0.50400001928E-02 0. -1.
    10030    2    1    2    0    0  0.00000000000E+00  0.00000000000E+00  0.29067843083E+04  0.40356856695E+04  0.27995292118E+04 0.  0.
        3    1    3    3  502    0 -0.77911067400E+03  0.19347008023E+03  0.31064123816E+04  0.32084641199E+04  0.10100000352E+00 0.  1.
       -3    1    3    3    0  502  0.77911067400E+03 -0.19347008023E+03 -0.19962807322E+03  0.82722154959E+03  0.10100000352E+00 0. -1.
</event>
<event>
 5   0  0.3600963E-06  0.3246222E+04  0.7818609E-02  0.8176716E-01
       -1   -1    0    0    0  501  0.00000000000E+00  0.00000000000E+00  0.19094050151E+04  0.19094050151E+04  0.50400001928E-02 0.  1.
        1   -1    0    0  501    0  0.00000000000E+00  0.00000000000E+00 -0.13797433349E+04  0.13797433349E+04  0.50400001928E-02 0. -1.
    10030    2    1    2    0    0  0.00000000000E+00  0.00000000000E+00  0.52966168019E+03  0.32891483501E+04  0.32462217073E+04 0.  0.
        5    1    3    3  502    0  0.20502498818E+03 -0.76142880203E+03 -0.11726108697E+04  0.14130985132E+04  0.46999998093E+01 0. -1.
       -5    1    3    3    0  502 -0.20502498818E+03  0.76142880203E+03  0.17022725499E+04  0.18760498369E+04  0.46999998093E+01 0.  1.
</event>
<event>
 5   0  0.3371603E-06  0.2817663E+04  0.7818609E-02  0.8297806E-01
        1   -1    0    0  501    0  0.00000000000E+00  0.00000000000E+00  0.22636665864E+04  0.22636665864E+04  0.50400001928E-02 0. -1.
       -1   -1    0    0    0  501  0.00000000000E+00  0.00000000000E+00 -0.87681024411E+03  0.87681024412E+03  0.50400001928E-02 0.  1.
    10030    2    1    2    0    0  0.00000000000E+00  0.00000000000E+00  0.13868563423E+04  0.31404768305E+04  0.28176628984E+04 0.  0.
        1    1    3    3  502    0  0.88884851794E+03  0.10900019164E+04  0.60253662771E+03  0.15301000795E+04  0.50400001928E-02 0. -1.
       -1    1    3    3    0  502 -0.88884851794E+03 -0.10900019164E+04  0.78431971459E+03  0.16103767510E+04  0.50400001928E-02 0.  1.
</event>
<event>
 5   0  0.9342133E-06  0.2770297E+04  0.7818609E-02  0.8312550E-01
        2   -1    0    0  501    0  0.00000000000E+00  0.00000000000E+00  0.15892075889E+04  0.15892075889E+04  0.25500000920E-02 0.  1.
       -2   -1    0    0    0  501  0.00000000000E+00  0.00000000000E+00 -0.12072913524E+04  0.12072913524E+04  0.25500000920E-02 0. -1.
    10030    2    1    2    0    0  0.00000000000E+00  0.00000000000E+00  0.38191623643E+03  0.27964989413E+04  0.27702971532E+04 0.  0.
        2    1    3    3  502    0 -0.37584535272E+02  0.11709376014E+04  0.93695320778E+03  0.15001295868E+04  0.25500000920E-02 0.  1.
       -2    1    3    3    0  502  0.37584535272E+02 -0.11709376014E+04 -0.55503697135E+03  0.12963693545E+04  0.25500000920E-02 0. -1.
</event>
<event>
 5   0  0.9260173E-06  0.2836241E+04  0.7818609E-02  0.8292105E-01
       -2   -1    0    0    0  501  0.00000000000E+00  0.00000000000E+00  0.94360006645E+03  0.94360006646E+03  0.25500000920E-02 0.  1.
        2   -1    0    0  501    0  0.00000000000E+00  0.00000000000E+00 -0.21312689593E+04  0.21312689593E+04  0.25500000920E-02 0. -1.
    10030    2    1    2    0    0  0.00000000000E+00  0.00000000000E+00 -0.11876688929E+04  0.30748690258E+04  0.28362408443E+04 0.  0.
        1    1    3    3  502    0  0.13074192527E+04 -0.28571720073E+03 -0.85230374896E+02  0.13409860692E+04  0.50400001928E-02 0.  1.
       -1    1    3    3    0  502 -0.13074192527E+04  0.28571720073E+03 -0.11024385180E+04  0.17338829566E+04  0.50400001928E-02 0. -1.
</event>
<event>
 5   0  0.3006875E-06  0.2838192E+04  0.7818609E-02  0.8291508E-01
       -3   -1    0    0    0  501  0.00000000000E+00  0.00000000000E+00  0.72320509378E+03  0.72320510083E+03  0.10100000352E+00 0. -1.
        3   -1    0    0  501    0  0.00000000000E+00  0.00000000000E+00 -0.27845949199E+04  0.27845949217E+04  0.10100000352E+00 0.  1.
    10030    2    1    2    0    0  0.00000000000E+00  0.00000000000E+00 -0.20613898261E+04  0.35078000226E+04  0.28381918510E+04 0.  0.
        4    1    3    3  502    0 -0.30934198012E+02  0.74313075304E+02  0.72038060054E+03  0.72486493936E+03  0.12699999809E+01 0. -1.
       -4    1    3    3    0  502  0.30934198012E+02 -0.74313075304E+02 -0.27817704267E+04  0.27829350832E+04  0.12699999809E+01 0.  1.
</event>
<event>
 5   0  0.3397882E-06  0.2801675E+04  0.7818609E-02  0.8302749E-01
        1   -1    0    0  501    0  0.00000000000E+00  0.00000000000E+00  0.25771191239E+04  0.25771191239E+04  0.50400001928E-02 0. -1.
       -1   -1    0    0    0  501  0.00000000000E+00  0.00000000000E+00 -0.76144919821E+03  0.76144919823E+03  0.50400001928E-02 0.  1.
    10030    2    1    2    0    0  0.00000000000E+00  0.00000000000E+00  0.18156699257E+04  0.33385683222E+04  0.28016747068E+04 0.  0.
        2    1    3    3  502    0 -0.66790186749E+03 -0.12258504788E+04  0.76915943342E+03  0.15938659087E+04  0.25500000920E-02 0.  1.
       -2    1    3    3    0  502  0.66790186749E+03  0.12258504788E+04  0.10465104923E+04  0.17447024134E+04  0.25500000920E-02 0. -1.
</event>
<event>
 5   0  0.3438130E-06  0.2778019E+04  0.7818609E-02  0.8310125E-01
       -1   -1    0    0    0  501  0.00000000000E+00  0.00000000000E+00  0.12034400108E+04  0.12034400108E+04  0.50400001928E-02 0. -1.
        1   -1    0    0  501    0  0.00000000000E+00  0.00000000000E+00 -0.16031930977E+04  0.16031930977E+04  0.50400001928E-02 0.  1.
    10030    2    1    2    0    0  0.00000000000E+00  0.00000000000E+00 -0.39975308697E+03  0.28066331085E+04  0.27780185160E+04 0.  0.
        3    1    3    3  502    0  0.20931983896E+03  0.11722782776E+04 -0.92229114587E+03  0.15062111814E+04  0.10100000352E+00 0.  1.
       -3    1    3    3    0  502 -0.20931983896E+03 -0.11722782776E+04  0.52253805890E+03  0.13004219271E+04  0.10100000352E+00 0. -1.
</event>
<event>
 5   0  0.9342133E-06  0.2808398E+04  0.7818609E-02  0.8300666E-01
        2   -1    0    0  501    0  0.00000000000E+00  0.00000000000E+00  0.16742170799E+04  0.16742170799E+04  0.25500000920E-02 0.  1.
       -2   -1    0    0    0  501  0.00000000000E+00  0.00000000000E+00 -0.11777293359E+04  0.11777293359E+04  0.25500000920E-02 0. -1.
    10030    2    1    2    0    0  0.00000000000E+00  0.00000000000E+00  0.49648774402E+03  0.28519464159E+04  0.28083978135E+04 0.  0.
        2    1    3    3  502    0  0.79336487806E+03 -0.94898501355E+02  0.14208532266E+04  0.16301096426E+04  0.25500000920E-02 0.  1.
       -2    1    3    3    0  502 -0.79336487806E+03  0.94898501355E+02 -0.92436548254E+03  0.12218367733E+04  0.25500000920E-02 0. -1.
</event>
<event>
 5   0  0.9065579E-06  0.2732968E+04  0.7818609E-02  0.8324386E-01
        2   -1    0    0  501    0  0.00000000000E+00  0.00000000000E+00  0.20937293988E+04  0.20937293988E+04  0.25500000920E-02 0. -1.
       -2   -1    0    0    0  501  0.00000000000E+00  0.00000000000E+00 -0.89184353218E+03  0.89184353219E+03  0.25500000920E-02 0.  1.
    10030    2    1    2    0    0  0.00000000000E+00  0.00000000000E+00  0.12018858666E+04  0.29855729310E+04  0.27329683661E+04 0.  0.
        3    1    3    3  502    0 -0.65148262135E+03 -0.77843041464E+03  0.16003184255E+04  0.18950996253E+04  0.10100000352E+00 0. -1.
       -3    1    3    3    0  502  0.65148262135E+03  0.77843041464E+03 -0.39843255889E+03  0.10904733057E+04  0.10100000352E+00 0.  1.
</event>
<event>
 5   0  0.3371603E-06  0.2522695E+04  0.7818609E-02  0.8394945E-01
       -1   -1    0    0    0  501  0.00000000000E+00  0.00000000000E+00  0.16923703616E+04  0.16923703616E+04  0.50400001928E-02 0. -1.
        1   -1    0    0  501    0  0.00000000000E+00  0.00000000000E+00 -0.94010032899E+03  0.94010032901E+03  0.50400001928E-02 0.  1.
    10030    2    1    2    0    0  0.00000000000E+00  0.00000000000E+00  0.75227003259E+03  0.26324706906E+04  0.25226953314E+04 0.  0.
        1    1    3    3  502    0  0.88293499772E+03  0.10369426600E+03  0.13098747737E+04  0.15830662127E+04  0.50400001928E-02 0. -1.
       -1    1    3    3    0  502 -0.88293499772E+03 -0.10369426600E+03 -0.55760474107E+03  0.10494044779E+04  0.50400001928E-02 0.  1.
</event>
<event>
 5   0  0.9342133E-06  0.2767194E+04  0.7818609E-02  0.8313526E-01
       -2   -1    0    0    0  501  0.00000000000E+00  0.00000000000E+00  0.82897850773E+03  0.82897850774E+03  0.25500000920E-02 0.  1.
        2   -1    0    0  501    0  0.00000000000E+00  0.00000000000E+00 -0.23092763470E+04  0.23092763470E+04  0.25500000920E-02 0. -1.
    10030    2    1    2    0    0  0.00000000000E+00  0.00000000000E+00 -0.14802978393E+04  0.31382548548E+04  0.27671938567E+04 0.  0.
        2    1    3    3  502    0 -0.13486087049E+04 -0.36575276692E+02 -0.10883307099E+04  0.17333628944E+04  0.25500000920E-02 0.  1.
       -2    1    3    3    0  502  0.13486087049E+04  0.36575276692E+02 -0.39196712943E+03  0.14048919604E+04  0.25500000920E-02 0. -1.
</event>
<event>
 5   0  0.3357244E-06  0.2800609E+04  0.7818609E-02  0.8303079E-01
       -1   -1    0    0    0  501  0.00000000000E+00  0.00000000000E+00  0.10957267905E+04  0.10957267905E+04  0.50400001928E-02 0. -1.
        1   -1    0    0  501    0  0.00000000000E+00  0.00000000000E+00 -0.17895450729E+04  0.17895450729E+04  0.50400001928E-02 0.  1.
    10030    2    1    2    0    0  0.00000000000E+00  0.00000000000E+00 -0.69381828234E+03  0.28852718634E+04  0.28006088475E+04 0.  0.
        4    1    3    3  502    0  0.28546737241E+03  0.10545891500E+04  0.55546960107E+03  0.12256418672E+04  0.12699999809E+01 0. -1.
       -4    1    3    3    0  502 -0.28546737241E+03 -0.10545891500E+04 -0.12492878834E+04  0.16596299962E+04  0.12699999809E+01 0.  1.
</event>
<event>
 5   0  0.3438130E-06  0.2811526E+04  0.7818609E-02  0.8299699E-01
       -1   -1    0    0    0  501  0.00000000000E+00  0.00000000000E+00  0.30850172546E+04  0.30850172546E+04  0.50400001928E-02 0.  1.
        1   -1    0    0  501    0  0.00000000000E+00  0.00000000000E+00 -0.64057002766E+03  0.64057002768E+03  0.50400001928E-02 0. -1.
    10030    2    1    2    0    0  0.00000000000E+00  0.00000000000E+00  0.24444472270E+04  0.37255872823E+04  0.28115259829E+04 0.  0.
        3    1    3    3  502    0  0.78261177923E+02 -0.11530850750E+04  0.22826773376E+04  0.25585827796E+04  0.10100000352E+00 0.  1.
       -3    1    3    3    0  502 -0.78261177923E+02  0.11530850750E+04  0.16176988937E+03  0.11670045027E+04  0.10100000352E+00 0. -1.
</event>
<event>
 5   0  0.9252359E-06  0.2820340E+04  0.7818609E-02  0.8296981E-01
       -2   -1    0    0    0  501  0.00000000000E+00  0.00000000000E+00  0.16312970501E+04  0.16312970501E+04  0.25500000920E-02 0. -1.
        2   -1    0    0  501    0  0.00000000000E+00  0.00000000000E+00 -0.12190172265E+04  0.12190172265E+04  0.25500000920E-02 0.  1.
    10030    2    1    2    0    0  0.00000000000E+00  0.00000000000E+00  0.41227982364E+03  0.28503142766E+04  0.28203398416E+04 0.  0.
        5    1    3    3  502    0  0.11822609137E+04 -0.13979698238E+03  0.96999886670E+03  0.15356444757E+04  0.46999998093E+01 0. -1.
       -5    1    3    3    0  502 -0.11822609137E+04  0.13979698238E+03 -0.55771904305E+03  0.13146698009E+04  0.46999998093E+01 0.  1.
</event>
<event>
 5   0  0.9342133E-06  0.2811113E+04  0.7818609E-02  0.8299827E-01
       -2   -1    0    0    0  501  0.00000000000E+00  0.00000000000E+00  0.12383119645E+04  0.12383119645E+04  0.25500000920E-02 0.  1.
        2   -1    0    0  501    0  0.00000000000E+00  0.00000000000E+00 -0.15953885553E+04  0.15953885553E+04  0.25500000920E-02 0. -1.
    10030    2    1    2    0    0  0.00000000000E+00  0.00000000000E+00 -0.35707659080E+03  0.28337005198E+04  0.28111127591E+04 0.  0.
        2    1    3    3  502    0  0.48555232176E+02 -0.60733388172E+03 -0.14553558767E+04  0.15777429392E+04  0.25500000920E-02 0. -1.
       -2    1    3    3    0  502 -0.48555232176E+02  0.60733388172E+03  0.10982792859E+04  0.12559575806E+04  0.25500000920E-02 0.  1.
</event>
<event>
 5   0  0.3006875E-06  0.2752887E+04  0.7818609E-02  0.8318046E-01
       -3   -1    0    0    0  501  0.00000000000E+00  0.00000000000E+00  0.14237274640E+04  0.14237274676E+04  0.10100000352E+00 0. -1.
        3   -1    0    0  501    0  0.00000000000E+00  0.00000000000E+00 -0.13307298892E+04  0.13307298930E+04  0.10100000352E+00 0.  1.
    10030    2    1    2    0    0  0.00000000000E+00  0.00000000000E+00  0.92997574854E+02  0.27544573606E+04  0.27528869941E+04 0.  0.
        2    1    3    3  502    0  0.34625203570E+03  0.51963273067E+03 -0.11808582194E+04  0.13357899466E+04  0.25500000920E-02 0.  1.
       -2    1    3    3    0  502 -0.34625203570E+03 -0.51963273067E+03  0.12738557943E+04  0.14186674140E+04  0.25500000920E-02 0. -1.
</event>
<event>
 5   0  0.3397882E-06  0.2780555E+04  0.7818609E-02  0.8309331E-01
        1   -1    0    0  501    0  0.00000000000E+00  0.00000000000E+00  0.27193754351E+04  0.27193754351E+04  0.50400001928E-02 0.  1.
       -1   -1    0    0    0  501  0.00000000000E+00  0.00000000000E+00 -0.71077790610E+03  0.71077790612E+03  0.50400001928E-02 0. -1.
    10030    2    1    2    0    0  0.00000000000E+00  0.00000000000E+00  0.20085975290E+04  0.34301533412E+04  0.27805553242E+04 0.  0.
        2    1    3    3  502    0 -0.58014659557E+03 -0.31731711975E+03 -0.50436142005E+03  0.83164936655E+03  0.25500000920E-02 0. -1.
       -2    1    3    3    0  502  0.58014659557E+03  0.31731711975E+03  0.25129589491E+04  0.25985039747E+04  0.25500000920E-02 0.  1.
</event>
<event>
 5   0  0.3371603E-06  0.2786905E+04  0.7818609E-02  0.8307345E-01
        1   -1    0    0  501    0  0.00000000000E+00  0.00000000000E+00  0.20741395550E+04  0.20741395550E+04  0.50400001928E-02 0. -1.
       -1   -1    0    0    0  501  0.00000000000E+00  0.00000000000E+00 -0.93615210295E+03  0.93615210296E+03  0.50400001928E-02 0.  1.
    10030    2    1    2    0    0  0.00000000000E+00  0.00000000000E+00  0.11379874520E+04  0.30102916580E+04  0.27869051697E+04 0.  0.
        1    1    3    3  502    0  0.13605955284E+04  0.15691197279E+02  0.89347888034E+03  0.16278116953E+04  0.50400001928E-02 0. -1.
       -1    1    3    3    0  502 -0.13605955284E+04 -0.15691197279E+02  0.24450857171E+03  0.13824799627E+04  0.50400001928E-02 0.  1.
</event>
<event>
 5   0  0.9342133E-06  0.2797987E+04  0.7818609E-02  0.8303894E-01
        2   -1    0    0  501    0  0.00000000000E+00  0.00000000000E+00  0.25853260969E+04  0.25853260969E+04  0.25500000920E-02 0.  1.
       -2   -1    0    0    0  501  0.00000000000E+00  0.00000000000E+00 -0.75703523815E+03  0.75703523816E+03  0.25500000920E-02 0. -1.
    10030    2    1    2    0    0  0.00000000000E+00  0.00000000000E+00  0.18282908587E+04  0.33423613351E+04  0.27979871032E+04 0.  0.
        2    1    3    3  502    0  0.12709607929E+04 -0.47189325988E+03  0.50179165852E+03  0.14456207851E+04  0.25500000920E-02 0. -1.
       -2    1    3    3    0  502 -0.12709607929E+04  0.47189325988E+03  0.13264992002E+04  0.18967405500E+04  0.25500000920E-02 0.  1.
</event>
<event>
 5   0  0.3371603E-06  0.2803738E+04  0.7818609E-02  0.8302109E-01
        1   -1    0    0  501    0  0.00000000000E+00  0.00000000000E+00  0.16247228773E+04  0.16247228773E+04  0.50400001928E-02 0.  1.
       -1   -1    0    0    0  501  0.00000000000E+00  0.00000000000E+00 -0.12095829198E+04  0.12095829198E+04  0.50400001928E-02 0. -1.
    10030    2    1    2    0    0  0.00000000000E+00  0.00000000000E+00  0.41513995747E+03  0.28343057971E+04  0.28037382486E+04 0.  0.
        1    1    3    3  502    0  0.58150920315E+03 -0.11553682592E+04 -0.33888639172E+03  0.13371135906E+04  0.50400001928E-02 0.  1.
       -1    1    3    3    0  502 -0.58150920315E+03  0.11553682592E+04  0.75402634919E+03  0.14971922064E+04  0.50400001928E-02 0. -1.
</event>
<event>
 5   0  0.3397882E-06  0.2783484E+04  0.7818609E-02  0.8308414E-01
        1   -1    0    0  501    0  0.00000000000E+00  0.00000000000E+00  0.73685685237E+03  0.73685685239E+03  0.50400001928E-02 0.  1.
       -1   -1    0    0    0  501  0.00000000000E+00  0.00000000000E+00 -0.26286589748E+04  0.26286589748E+04  0.50400001928E-02 0. -1.
    10030    2    1    2    0    0  0.00000000000E+00  0.00000000000E+00 -0.18918021225E+04  0.33655158272E+04  0.27834837008E+04 0.  0.
        2    1    3    3  502    0  0.93438411856E+03  0.43541745542E+03 -0.20764491893E+04  0.23182543600E+04  0.25500000920E-02 0. -1.
       -2    1    3    3    0  502 -0.93438411856E+03 -0.43541745542E+03  0.18464706688E+03  0.10472614673E+04  0.25500000920E-02 0.  1.
</event>
<event>
 5   0  0.3438130E-06  0.2823805E+04  0.7818609E-02  0.8295916E-01
       -1   -1    0    0    0  501  0.00000000000E+00  0.00000000000E+00  0.78280439298E+03  0.78280439300E+03  0.50400001928E-02 0. -1.
        1   -1    0    0  501    0  0.00000000000E+00  0.00000000000E+00 -0.25465728374E+04  0.25465728374E+04  0.50400001928E-02 0.  1.
    10030    2    1    2    0    0  0.00000000000E+00  0.00000000000E+00 -0.17637684444E+04  0.33293772304E+04  0.28238048121E+04 0.  0.
        3    1    3    3  502    0  0.52095265032E+03  0.10579762103E+04  0.33496261145E+02  0.11797573204E+04  0.10100000352E+00 0. -1.
       -3    1    3    3    0  502 -0.52095265032E+03 -0.10579762103E+04 -0.17972647056E+04  0.21496199100E+04  0.10100000352E+00 0.  1.
</event>
<event>
 5   0  0.3006875E-06  0.2637375E+04  0.7818609E-02  0.8355616E-01
       -3   -1    0    0    0  501  0.00000000000E+00  0.00000000000E+00  0.97726329324E+03  0.97726329846E+03  0.10100000352E+00 0. -1.
        3   -1    0    0  501    0  0.00000000000E+00  0.00000000000E+00 -0.17793941552E+04  0.17793941580E+04  0.10100000352E+00 0.  1.
    10030    2    1    2    0    0  0.00000000000E+00  0.00000000000E+00 -0.80213086193E+03  0.27566574565E+04  0.26373749094E+04 0.  0.
        5    1    3    3  502    0 -0.13034771623E+03 -0.90014724492E+03  0.59692672370E+03  0.10879334507E+04  0.46999998093E+01 0. -1.
       -5    1    3    3    0  502  0.13034771623E+03  0.90014724492E+03 -0.13990575856E+04  0.16687240058E+04  0.46999998093E+01 0.  1.
</event>
<event>
 5   0  0.3600963E-06  0.2806568E+04  0.7818609E-02  0.8301232E-01
       -1   -1    0    0    0  501  0.00000000000E+00  0.00000000000E+00  0.12873269263E+04  0.12873269263E+04  0.50400001928E-02 0. -1.
        1   -1    0    0  501    0  0.00000000000E+00  0.00000000000E+00 -0.15296865213E+04  0.15296865213E+04  0.50400001928E-02 0.  1.
    10030    2    1    2    0    0  0.00000000000E+00  0.00000000000E+00 -0.24235959506E+03  0.28170134476E+04  0.28065684725E+04 0.  0.
        5    1    3    3  502    0 -0.88459923238E+02  0.12662925171E+04  0.47926276701E+03  0.13568481075E+04  0.46999998093E+01 0. -1.
       -5    1    3    3    0  502  0.88459923238E+02 -0.12662925171E+04 -0.72162236207E+03  0.14601653401E+04  0.46999998093E+01 0.  1.
</event>
<event>
 5   0  0.9342133E-06  0.2794426E+04  0.7818609E-02  0.8305001E-01
        2   -1    0    0  501    0  0.00000000000E+00  0.00000000000E+00  0.12642092642E+04  0.12642092642E+04  0.25500000920E-02 0. -1.
       -2   -1    0    0    0  501  0.00000000000E+00  0.00000000000E+00 -0.15442095587E+04  0.15442095587E+04  0.25500000920E-02 0.  1.
    10030    2    1    2    0    0  0.00000000000E+00  0.00000000000E+00 -0.28000029445E+03  0.28084188229E+04  0.27944259017E+04 0.  0.
        2    1    3    3  502    0 -0.82745772900E+02 -0.11806568946E+04 -0.88628599098E+03  0.14786143593E+04  0.25500000920E-02 0.  1.
       -2    1    3    3    0  502  0.82745772900E+02  0.11806568946E+04  0.60628569653E+03  0.13298044636E+04  0.25500000920E-02 0. -1.
</event>
<event>
 5   0  0.3371603E-06  0.2772415E+04  0.7818609E-02  0.8311884E-01
       -1   -1    0    0    0  501  0.00000000000E+00  0.00000000000E+00  0.12794830020E+04  0.12794830020E+04  0.50400001928E-02 0.  1.
        1   -1    0    0  501    0  0.00000000000E+00  0.00000000000E+00 -0.15018341287E+04  0.15018341287E+04  0.50400001928E-02 0. -1.
    10030    2    1    2    0    0  0.00000000000E+00  0.00000000000E+00 -0.22235112670E+03  0.27813171307E+04  0.27724150046E+04 0.  0.
        1    1    3    3  502    0  0.12744739835E+04  0.51738643426E+03  0.61419244546E+02  0.13768605523E+04  0.50400001928E-02 0.  1.
       -1    1    3    3    0  502 -0.12744739835E+04 -0.51738643426E+03 -0.28377037124E+03  0.14044565784E+04  0.50400001928E-02 0. -1.
</event>
<event>
 5   0  0.9342133E-06  0.2826225E+04  0.7818609E-02  0.8295173E-01
        2   -1    0    0  501    0  0.00000000000E+00  0.00000000000E+00  0.19577928560E+04  0.19577928560E+04  0.25500000920E-02 0.  1.
       -2   -1    0    0    0  501  0.00000000000E+00  0.00000000000E+00 -0.10199681391E+04  0.10199681391E+04  0.25500000920E-02 0. -1.
    10030    2    1    2    0    0  0.00000000000E+00  0.00000000000E+00  0.93782471691E+03  0.29777609952E+04  0.28262245744E+04 0.  0.
        2    1    3    3  502    0 -0.33379377963E+03 -0.80659630788E+03  0.16397424261E+04  0.18576251277E+04  0.25500000920E-02 0.  1.
       -2    1    3    3    0  502  0.33379377963E+03  0.80659630788E+03 -0.70191770915E+03  0.11201358675E+04  0.25500000920E-02 0. -1.
</event>
<event>
 5   0  0.3397882E-06  0.2757075E+04  0.7818609E-02  0.8316720E-01
       -1   -1    0    0    0  501  0.00000000000E+00  0.00000000000E+00  0.74444139295E+03  0.74444139297E+03  0.50400001928E-02 0. -1.
        1   -1    0    0  501    0  0.00000000000E+00  0.00000000000E+00 -0.25527396999E+04  0.25527396999E+04  0.50400001928E-02 0.  1.
    10030    2    1    2    0    0  0.00000000000E+00  0.00000000000E+00 -0.18082983069E+04  0.32971810929E+04  0.27570746077E+04 0.  0.
        2    1    3    3  502    0  0.74271760424E+03 -0.10043865644E+04 -0.16014135942E+04  0.20309966297E+04  0.25500000920E-02 0. -1.
       -2    1    3    3    0  502 -0.74271760424E+03  0.10043865644E+04 -0.20688471274E+03  0.12661844631E+04  0.25500000920E-02 0.  1.
</event>
<event>
 5   0  0.3397882E-06  0.2765824E+04  0.7818609E-02  0.8313958E-01
        1   -1    0    0  501    0  0.00000000000E+00  0.00000000000E+00  0.28249396354E+04  0.28249396354E+04  0.50400001928E-02 0. -1.
       -1   -1    0    0    0  501  0.00000000000E+00  0.00000000000E+00 -0.67698611521E+03  0.67698611523E+03  0.50400001928E-02 0.  1.
    10030    2    1    2    0    0  0.00000000000E+00  0.00000000000E+00  0.21479535202E+04  0.35019257506E+04  0.27658235009E+04 0.  0.
        2    1    3    3  502    0 -0.92288722712E+03 -0.28101625933E+03  0.23285146923E+04  0.25204506828E+04  0.25500000920E-02 0. -1.
       -2    1    3    3    0  502  0.92288722712E+03  0.28101625933E+03 -0.18056117211E+03  0.98147506787E+03  0.25500000920E-02 0.  1.
</event>
<event>
 5   0  0.3357244E-06  0.2812247E+04  0.7818609E-02  0.8299476E-01
       -1   -1    0    0    0  501  0.00000000000E+00  0.00000000000E+00  0.25984427835E+04  0.25984427835E+04  0.50400001928E-02 0. -1.
        1   -1    0    0  501    0  0.00000000000E+00  0.00000000000E+00 -0.76091093724E+03  0.76091093725E+03  0.50400001928E-02 0.  1.
    10030    2    1    2    0    0  0.00000000000E+00  0.00000000000E+00  0.18375318463E+04  0.33593537208E+04  0.28122471682E+04 0.  0.
        4    1    3    3  502    0 -0.10539756842E+03  0.13787900495E+04  0.12233425562E+04  0.18462771381E+04  0.12699999809E+01 0. -1.
       -4    1    3    3    0  502  0.10539756842E+03 -0.13787900495E+04  0.61418929012E+03  0.15130765827E+04  0.12699999809E+01 0.  1.
</event>
<event>
 5   0  0.3357244E-06  0.2800176E+04  0.7818609E-02  0.8303214E-01
       -1   -1    0    0    0  501  0.00000000000E+00  0.00000000000E+00  0.12994528613E+04  0.12994528613E+04  0.50400001928E-02 0.  1.
        1   -1    0    0  501    0  0.00000000000E+00  0.00000000000E+00 -0.15085166958E+04  0.15085166958E+04  0.50400001928E-02 0. -1.
    10030    2    1    2    0    0  0.00000000000E+00  0.00000000000E+00 -0.20906383454E+03  0.28079695571E+04  0.28001759492E+04 0.  0.
        4    1    3    3  502    0 -0.95764178645E+03 -0.79697405561E+03  0.53599410188E+03  0.13562952210E+04  0.12699999809E+01 0.  1.
       -4    1    3    3    0  502  0.95764178645E+03  0.79697405561E+03 -0.74505793642E+03  0.14516743361E+04  0.12699999809E+01 0. -1.
</event>
<event>
 5   0  0.3600963E-06  0.2807815E+04  0.7818609E-02  0.8300846E-01
        1   -1    0    0  501    0  0.00000000000E+00  0.00000000000E+00  0.16734284975E+04  0.16734284975E+04  0.50400001928E-02 0.  1.
       -1   -1    0    0    0  501  0.00000000000E+00  0.00000000000E+00 -0.11777954831E+04  0.11777954831E+04  0.50400001928E-02 0. -1.
    10030    2    1    2    0    0  0.00000000000E+00  0.00000000000E+00  0.49563301447E+03  0.28512239806E+04  0.28078151831E+04 0.  0.
        5    1    3    3  502    0 -0.87313941897E+03 -0.26267412313E+03 -0.83619085989E+03  0.12371771838E+04  0.46999998093E+01 0. -1.
       -5    1    3    3    0  502  0.87313941897E+03  0.26267412313E+03  0.13318238744E+04  0.16140467968E+04  0.46999998093E+01 0.  1.
</event>
<event>
 5   0  0.3438130E-06  0.2805394E+04  0.7818609E-02  0.8301596E-01
        1   -1    0    0  501    0  0.00000000000E+00  0.00000000000E+00  0.12834538285E+04  0.12834538285E+04  0.50400001928E-02 0. -1.
       -1   -1    0    0    0  501  0.00000000000E+00  0.00000000000E+00 -0.15330189311E+04  0.15330189311E+04  0.50400001928E-02 0.  1.
    10030    2    1    2    0    0  0.00000000000E+00  0.00000000000E+00 -0.24956510265E+03  0.28164727596E+04  0.28053941016E+04 0.  0.
        3    1    3    3  502    0  0.79735068520E+03  0.10668326350E+04  0.31702236082E+03  0.13690884463E+04  0.10100000352E+00 0. -1.
       -3    1    3    3    0  502 -0.79735068520E+03 -0.10668326350E+04 -0.56658746347E+03  0.14473843133E+04  0.10100000352E+00 0.  1.
</event>
<event>
 5   0  0.9252359E-06  0.2777164E+04  0.7818609E-02  0.8310393E-01
       -2   -1    0    0    0  501  0.00000000000E+00  0.00000000000E+00  0.99088929314E+03  0.99088929314E+03  0.25500000920E-02 0.  1.
        2   -1    0    0  501    0  0.00000000000E+00  0.00000000000E+00 -0.19458883226E+04  0.19458883226E+04  0.25500000920E-02 0. -1.
    10030    2    1    2    0    0  0.00000000000E+00  0.00000000000E+00 -0.95499902941E+03  0.29367776157E+04  0.27771639523E+04 0.  0.
        5    1    3    3  502    0 -0.69174443006E+03 -0.11558412221E+04 -0.12099046879E+03  0.13524570495E+04  0.46999998093E+01 0.  1.
       -5    1    3    3    0  502  0.69174443006E+03  0.11558412221E+04 -0.83400856062E+03  0.15843205662E+04  0.46999998093E+01 0. -1.
</event>
<event>
 5   0  0.3600963E-06  0.2809202E+04  0.7818609E-02  0.8300417E-01
       -1   -1    0    0    0  501  0.00000000000E+00  0.00000000000E+00  0.13271454352E+04  0.13271454352E+04  0.50400001928E-02 0. -1.
        1   -1    0    0  501    0  0.00000000000E+00  0.00000000000E+00 -0.14865769942E+04  0.14865769942E+04  0.50400001928E-02 0.  1.
    10030    2    1    2    0    0  0.00000000000E+00  0.00000000000E+00 -0.15943155900E+03  0.28137224294E+04  0.28092019307E+04 0.  0.
        5    1    3    3  502    0  0.11667774296E+04 -0.70930507754E+03 -0.40948488624E+03  0.14255466409E+04  0.46999998093E+01 0.  1.
       -5    1    3    3    0  502 -0.11667774296E+04  0.70930507754E+03  0.25005332724E+03  0.13881757885E+04  0.46999998093E+01 0. -1.
</event>
<event>
 5   0  0.9260173E-06  0.2827066E+04  0.7818609E-02  0.8294914E-01
       -2   -1    0    0    0  501  0.00000000000E+00  0.00000000000E+00  0.94056982614E+03  0.94056982614E+03  0.25500000920E-02 0.  1.
        2   -1    0    0  501    0  0.00000000000E+00  0.00000000000E+00 -0.21243240789E+04  0.21243240789E+04  0.25500000920E-02 0. -1.
    10030    2    1    2    0    0  0.00000000000E+00  0.00000000000E+00 -0.11837542528E+04  0.30648939051E+04  0.28270657082E+04 0.  0.
        1    1    3    3  502    0  0.54404405192E+03  0.49688446198E+03 -0.18996744454E+04  0.20375576304E+04  0.50400001928E-02 0. -1.
       -1    1    3    3    0  502 -0.54404405192E+03 -0.49688446198E+03  0.71592019258E+03  0.10273362746E+04  0.50400001928E-02 0.  1.
</event>
<event>
 5   0  0.3438130E-06  0.2523596E+04  0.7818609E-02  0.8394627E-01
        1   -1    0    0  501    0  0.00000000000E+00  0.00000000000E+00  0.17904651737E+04  0.17904651737E+04  0.50400001928E-02 0.  1.
       -1   -1    0    0    0  501  0.00000000000E+00  0.00000000000E+00 -0.88922968256E+03  0.88922968258E+03  0.50400001928E-02 0. -1.
    10030    2    1    2    0    0  0.00000000000E+00  0.00000000000E+00  0.90123549110E+03  0.26796948562E+04  0.25235964638E+04 0.  0.
        3    1    3    3  502    0 -0.34456259386E+03  0.42006385844E+03  0.16599018529E+04  0.17465540925E+04  0.10100000352E+00 0.  1.
       -3    1    3    3    0  502  0.34456259386E+03 -0.42006385844E+03 -0.75866636185E+03  0.93314076379E+03  0.10100000352E+00 0. -1.
</event>
<event>
 5   0  0.3357244E-06  0.2788745E+04  0.7818609E-02  0.8306771E-01
       -1   -1    0    0    0  501  0.00000000000E+00  0.00000000000E+00  0.83345008690E+03  0.83345008692E+03  0.50400001928E-02 0. -1.
        1   -1    0    0  501    0  0.00000000000E+00  0.00000000000E+00 -0.23328019850E+04  0.23328019850E+04  0.50400001928E-02 0.  1.
    10030    2    1    2    0    0  0.00000000000E+00  0.00000000000E+00 -0.14993518981E+04  0.31662520719E+04  0.27887445327E+04 0.  0.
        4    1    3    3  502    0  0.12643600808E+04  0.49766041224E+03 -0.11051026286E+04  0.17514353349E+04  0.12699999809E+01 0.  1.
       -4    1    3    3    0  502 -0.12643600808E+04 -0.49766041224E+03 -0.39424926953E+03  0.14148167370E+04  0.12699999809E+01 0. -1.
</event>
<event>
 5   0  0.9260173E-06  0.2713696E+04  0.7818609E-02  0.8330575E-01
        2   -1    0    0  501    0  0.00000000000E+00  0.00000000000E+00  0.12670587304E+04  0.12670587304E+04  0.25500000920E-02 0. -1.
       -2   -1    0    0    0  501  0.00000000000E+00  0.00000000000E+00 -0.14530000212E+04  0.14530000212E+04  0.25500000920E-02 0.  1.
    10030    2    1    2    0    0  0.00000000000E+00  0.00000000000E+00 -0.18594129080E+03  0.27200587516E+04  0.27136959020E+04 0.  0.
        1    1    3    3  502    0  0.85167786948E+03  0.14815689555E+03  0.95529730440E+03  0.12883705208E+04  0.50400001928E-02 0. -1.
       -1    1    3    3    0  502 -0.85167786948E+03 -0.14815689555E+03 -0.11412385952E+04  0.14316882308E+04  0.50400001928E-02 0.  1.
</event>
<event>
 5   0  0.9252359E-06  0.2798325E+04  0.7818609E-02  0.8303789E-01
       -2   -1    0    0    0  501  0.00000000000E+00  0.00000000000E+00  0.10184993280E+04  0.10184993280E+04  0.25500000920E-02 0.  1.
        2   -1    0    0  501    0  0.00000000000E+00  0.00000000000E+00 -0.19220984067E+04  0.19220984067E+04  0.25500000920E-02 0. -1.
    10030    2    1    2    0    0  0.00000000000E+00  0.00000000000E+00 -0.90359907875E+03  0.29405977347E+04  0.27983251673E+04 0.  0.
        5    1    3    3  502    0 -0.13533451565E+04 -0.31690617905E+03 -0.62013514107E+03  0.15220257298E+04  0.46999998093E+01 0.  1.
       -5    1    3    3    0  502  0.13533451565E+04  0.31690617905E+03 -0.28346393768E+03  0.14185720049E+04  0.46999998093E+01 0. -1.
</event>
<event>
 5   0  0.9260173E-06  0.2804379E+04  0.7818609E-02  0.8301910E-01
        2   -1    0    0  501    0  0.00000000000E+00  0.00000000000E+00  0.18531862070E+04  0.18531862070E+04  0.25500000920E-02 0. -1.
       -2   -1    0    0    0  501  0.00000000000E+00  0.00000000000E+00 -0.10609489177E+04  0.10609489177E+04  0.25500000920E-02 0.  1.
    10030    2    1    2    0    0  0.00000000000E+00  0.00000000000E+00  0.79223728932E+03  0.29141351248E+04  0.28043793614E+04 0.  0.
        1    1    3    3  502    0 -0.59845956258E+03  0.11994473053E+04  0.82369328390E+03  0.15733080793E+04  0.50400001928E-02 0. -1.
       -1    1    3    3    0  502  0.59845956258E+03 -0.11994473053E+04 -0.31455994584E+02  0.13408270455E+04  0.50400001928E-02 0.  1.
</event>
<event>
 5   0  0.9065579E-06  0.2830852E+04  0.7818609E-02  0.8293754E-01
        2   -1    0    0  501    0  0.00000000000E+00  0.00000000000E+00  0.17898938258E+04  0.17898938258E+04  0.25500000920E-02 0.  1.
       -2   -1    0    0    0  501  0.00000000000E+00  0.00000000000E+00 -0.11193012313E+04  0.11193012313E+04  0.25500000920E-02 0. -1.
    10030    2    1    2    0    0  0.00000000000E+00  0.00000000000E+00  0.67059259448E+03  0.29091950570E+04  0.28308517185E+04 0.  0.
        3    1    3    3  502    0  0.10666997477E+04 -0.84675487129E+03  0.73143553761E+03  0.15459107735E+04  0.10100000352E+00 0. -1.
       -3    1    3    3    0  502 -0.10666997477E+04  0.84675487129E+03 -0.60842943129E+02  0.13632842835E+04  0.10100000352E+00 0.  1.
</event>
<event>
 5   0  0.9342133E-06  0.2796650E+04  0.7818609E-02  0.8304309E-01
       -2   -1    0    0    0  501  0.00000000000E+00  0.00000000000E+00  0.16523981040E+04  0.16523981040E+04  0.25500000920E-02 0.  1.
        2   -1    0    0  501    0  0.00000000000E+00  0.00000000000E+00 -0.11833179605E+04  0.11833179605E+04  0.25500000920E-02 0. -1.
    10030    2    1    2    0    0  0.00000000000E+00  0.00000000000E+00  0.46908014350E+03  0.28357160645E+04  0.27966496772E+04 0.  0.
        2    1    3    3  502    0  0.85115430285E+03  0.96594776133E+03  0.78786772748E+03  0.15093887110E+04  0.25500000920E-02 0. -1.
       -2    1    3    3    0  502 -0.85115430285E+03 -0.96594776133E+03 -0.31878758397E+03  0.13263273535E+04  0.25500000920E-02 0.  1.
</event>
<event>
 5   0  0.9260173E-06  0.2751882E+04  0.7818609E-02  0.8318365E-01
        2   -1    0    0  501    0  0.00000000000E+00  0.00000000000E+00  0.14575931734E+04  0.14575931734E+04  0.25500000920E-02 0. -1.
       -2   -1    0    0    0  501  0.00000000000E+00  0.00000000000E+00 -0.12988629368E+04  0.12988629369E+04  0.25500000920E-02 0.  1.
    10030    2    1    2    0    0  0.00000000000E+00  0.00000000000E+00  0.15873023658E+03  0.27564561103E+04  0.27518820832E+04 0.  0.
        1    1    3    3  502    0  0.91296065598E+03 -0.95399857716E+03 -0.30806364091E+03  0.13559180106E+04  0.50400001928E-02 0. -1.
       -1    1    3    3    0  502 -0.91296065598E+03  0.95399857716E+03  0.46679387749E+03  0.14005380997E+04  0.50400001928E-02 0.  1.
</event>
<event>
 5   0  0.3600963E-06  0.2777515E+04  0.7818609E-02  0.8310283E-01
        1   -1    0    0  501    0  0.00000000000E+00  0.00000000000E+00  0.15296471087E+04  0.15296471087E+04  0.50400001928E-02 0. -1.
       -1   -1    0    0    0  501  0.00000000000E+00  0.00000000000E+00 -0.12608447870E+04  0.12608447870E+04  0.50400001928E-02 0.  1.
    10030    2    1    2    0    0  0.00000000000E+00  0.00000000000E+00  0.26880232168E+03  0.27904918956E+04  0.27775151361E+04 0.  0.
        5    1    3    3  502    0  0.14793863702E+03 -0.12419831850E+04  0.74072506207E+03  0.14536518771E+04  0.46999998093E+01 0.  1.
       -5    1    3    3    0  502 -0.14793863702E+03  0.12419831850E+04 -0.47192274038E+03  0.13368400185E+04  0.46999998093E+01 0. -1.
</event>
<event>
 5   0  0.3600963E-06  0.2738899E+04  0.7818609E-02  0.8322493E-01
        1   -1    0    0  501    0  0.00000000000E+00  0.00000000000E+00  0.89771112525E+03  0.89771112527E+03  0.50400001928E-02 0. -1.
       -1   -1    0    0    0  501  0.00000000000E+00  0.00000000000E+00 -0.20890824254E+04  0.20890824254E+04  0.50400001928E-02 0.  1.
    10030    2    1    2    0    0  0.00000000000E+00  0.00000000000E+00 -0.11913713001E+04  0.29867935507E+04  0.27388994395E+04 0.  0.
        5    1    3    3  502    0  0.74100318644E+03 -0.61241218783E+03  0.46790194822E+03  0.10691532787E+04  0.46999998093E+01 0. -1.
       -5    1    3    3    0  502 -0.74100318644E+03  0.61241218783E+03 -0.16592732484E+04  0.19176402720E+04  0.46999998093E+01 0.  1.
</event>
<event>
 5   0  0.9342133E-06  0.2748683E+04  0.7818609E-02  0.8319380E-01
       -2   -1    0    0    0  501  0.00000000000E+00  0.00000000000E+00  0.11454009588E+04  0.11454009588E+04  0.25500000920E-02 0.  1.
        2   -1    0    0  501    0  0.00000000000E+00  0.00000000000E+00 -0.16490419344E+04  0.16490419344E+04  0.25500000920E-02 0. -1.
    10030    2    1    2    0    0  0.00000000000E+00  0.00000000000E+00 -0.50364097558E+03  0.27944428931E+04  0.27486827483E+04 0.  0.
        2    1    3    3  502    0 -0.38618905803E+03  0.44030110084E+03  0.10121830228E+04  0.11694107574E+04  0.25500000920E-02 0.  1.
       -2    1    3    3    0  502  0.38618905803E+03 -0.44030110084E+03 -0.15158239984E+04  0.16250321357E+04  0.25500000920E-02 0. -1.
</event>
<event>
 5   0  0.3438130E-06  0.2761252E+04  0.7818609E-02  0.8315400E-01
        1   -1    0    0  501    0  0.00000000000E+00  0.00000000000E+00  0.24852839990E+04  0.24852839990E+04  0.50400001928E-02 0. -1.
       -1   -1    0    0    0  501  0.00000000000E+00  0.00000000000E+00 -0.76696603122E+03  0.76696603124E+03  0.50400001928E-02 0.  1.
    10030    2    1    2    0    0  0.00000000000E+00  0.00000000000E+00  0.17183179678E+04  0.32522500303E+04  0.27612521835E+04 0.  0.
        3    1    3    3  502    0 -0.18039735850E+03 -0.46452597831E+03 -0.65734664624E+03  0.82488315233E+03  0.10100000352E+00 0.  1.
       -3    1    3    3    0  502  0.18039735850E+03  0.46452597831E+03  0.23756646141E+04  0.24273668780E+04  0.10100000352E+00 0. -1.
</event>
<event>
 5   0  0.3600963E-06  0.2803828E+04  0.7818609E-02  0.8302081E-01
        1   -1    0    0  501    0  0.00000000000E+00  0.00000000000E+00  0.91233956947E+03  0.91233956949E+03  0.50400001928E-02 0. -1.
       -1   -1    0    0    0  501  0.00000000000E+00  0.00000000000E+00 -0.21542009411E+04  0.21542009411E+04  0.50400001928E-02 0.  1.
    10030    2    1    2    0    0  0.00000000000E+00  0.00000000000E+00 -0.12418613716E+04  0.30665405106E+04  0.28038279256E+04 0.  0.
        5    1    3    3  502    0 -0.27640930142E+03  0.55578141147E+03  0.75384599965E+03  0.97652494102E+03  0.46999998093E+01 0. -1.
       -5    1    3    3    0  502  0.27640930142E+03 -0.55578141147E+03 -0.19957073712E+04  0.20900155695E+04  0.46999998093E+01 0.  1.
</event>
<event>
 5   0  0.3397882E-06  0.2786563E+04  0.7818609E-02  0.8307452E-01
        1   -1    0    0  501    0  0.00000000000E+00  0.00000000000E+00  0.14785178497E+04  0.14785178497E+04  0.50400001928E-02 0. -1.
       -1   -1    0    0    0  501  0.00000000000E+00  0.00000000000E+00 -0.13129585493E+04  0.13129585493E+04  0.50400001928E-02 0.  1.
    10030    2    1    2    0    0  0.00000000000E+00  0.00000000000E+00  0.16555930042E+03  0.27914763990E+04  0.27865625068E+04 0.  0.
        2    1    3    3  502    0 -0.80303298898E+03 -0.48564954655E+03  0.11144088288E+04  0.14569229565E+04  0.25500000920E-02 0. -1.
       -2    1    3    3    0  502  0.80303298898E+03  0.48564954655E+03 -0.94884952838E+03  0.13345534425E+04  0.25500000920E-02 0.  1.
</event>
<event>
 5   0  0.9065579E-06  0.2829351E+04  0.7818609E-02  0.8294213E-01
        2   -1    0    0  501    0  0.00000000000E+00  0.00000000000E+00  0.16938598681E+04  0.16938598681E+04  0.25500000920E-02 0. -1.
       -2   -1    0    0    0  501  0.00000000000E+00  0.00000000000E+00 -0.11815069603E+04  0.11815069603E+04  0.25500000920E-02 0.  1.
    10030    2    1    2    0    0  0.00000000000E+00  0.00000000000E+00  0.51235290783E+03  0.28753668285E+04  0.28293513207E+04 0.  0.
        3    1    3    3  502    0 -0.60681473585E+03  0.54643691677E+03  0.14301654010E+04  0.16468729496E+04  0.10100000352E+00 0. -1.
       -3    1    3    3    0  502  0.60681473585E+03 -0.54643691677E+03 -0.91781249317E+03  0.12284938789E+04  0.10100000352E+00 0.  1.
</event>
<event>
 5   0  0.3006875E-06  0.2738283E+04  0.7818609E-02  0.8322689E-01
        3   -1    0    0  501    0  0.00000000000E+00  0.00000000000E+00  0.99946084398E+03  0.99946084909E+03  0.10100000352E+00 0.  1.
       -3   -1    0    0    0  501  0.00000000000E+00  0.00000000000E+00 -0.18755595018E+04  0.18755595045E+04  0.10100000352E+00 0. -1.
    10030    2    1    2    0    0  0.00000000000E+00  0.00000000000E+00 -0.87609865779E+03  0.28750203536E+04  0.27382828881E+04 0.  0.
        4    1    3    3  502    0  0.16955813271E+03 -0.97374130358E+03  0.55669158942E+03  0.11343849546E+04  0.12699999809E+01 0.  1.
       -4    1    3    3    0  502 -0.16955813271E+03  0.97374130358E+03 -0.14327902472E+04  0.17406353990E+04  0.12699999809E+01 0. -1.
</event>
<event>
 5   0  0.9342133E-06  0.2807326E+04  0.7818609E-02  0.8300997E-01
       -2   -1    0    0    0  501  0.00000000000E+00  0.00000000000E+00  0.13042549763E+04  0.13042549763E+04  0.25500000920E-02 0. -1.
        2   -1    0    0  501    0  0.00000000000E+00  0.00000000000E+00 -0.15106482335E+04  0.15106482335E+04  0.25500000920E-02 0.  1.
    10030    2    1    2    0    0  0.00000000000E+00  0.00000000000E+00 -0.20639325725E+03  0.28149032098E+04  0.28073264691E+04 0.  0.
        2    1    3    3  502    0 -0.42884284824E+03  0.12413480924E+04 -0.59993168952E+03  0.14438730232E+04  0.25500000920E-02 0.  1.
       -2    1    3    3    0  502  0.42884284824E+03 -0.12413480924E+04  0.39353843228E+03  0.13710301866E+04  0.25500000920E-02 0. -1.
</event>
<event>
 5   0  0.3371603E-06  0.2860739E+04  0.7818609E-02  0.8284656E-01
       -1   -1    0    0    0  501  0.00000000000E+00  0.00000000000E+00  0.93860670459E+03  0.93860670460E+03  0.50400001928E-02 0. -1.
        1   -1    0    0  501    0  0.00000000000E+00  0.00000000000E+00 -0.21797807734E+04  0.21797807735E+04  0.50400001928E-02 0.  1.
    10030    2    1    2    0    0  0.00000000000E+00  0.00000000000E+00 -0.12411740689E+04  0.31183874781E+04  0.28607389594E+04 0.  0.
        1    1    3    3  502    0  0.50777613881E+03 -0.46224863550E+03 -0.19883655980E+04  0.21035941053E+04  0.50400001928E-02 0.  1.
       -1    1    3    3    0  502 -0.50777613881E+03  0.46224863550E+03  0.74719152918E+03  0.10147933728E+04  0.50400001928E-02 0. -1.
</event>
<event>
 5   0  0.9065579E-06  0.2830447E+04  0.7818609E-02  0.8293878E-01
        2   -1    0    0  501    0  0.00000000000E+00  0.00000000000E+00  0.15765776516E+04  0.15765776516E+04  0.25500000920E-02 0. -1.
       -2   -1    0    0    0  501  0.00000000000E+00  0.00000000000E+00 -0.12703829536E+04  0.12703829536E+04  0.25500000920E-02 0.  1.
    10030    2    1    2    0    0  0.00000000000E+00  0.00000000000E+00  0.30619469804E+03  0.28469606052E+04  0.28304468719E+04 0.  0.
        3    1    3    3  502    0  0.12538091318E+04  0.19757492187E+03  0.78267585827E+03  0.14911923746E+04  0.10100000352E+00 0. -1.
       -3    1    3    3    0  502 -0.12538091318E+04 -0.19757492187E+03 -0.47648116024E+03  0.13557682306E+04  0.10100000352E+00 0.  1.
</event>
<event>
 5   0  0.3397882E-06  0.2785710E+04  0.7818609E-02  0.8307719E-01
       -1   -1    0    0    0  501  0.00000000000E+00  0.00000000000E+00  0.12669106870E+04  0.12669106870E+04  0.50400001928E-02 0.  1.
        1   -1    0    0  501    0  0.00000000000E+00  0.00000000000E+00 -0.15313191175E+04  0.15313191175E+04  0.50400001928E-02 0. -1.
    10030    2    1    2    0    0  0.00000000000E+00  0.00000000000E+00 -0.26440843054E+03  0.27982298045E+04  0.27857096440E+04 0.  0.
        2    1    3    3  502    0 -0.74275490748E+03  0.11213918201E+04  0.23113974439E+03  0.13647820515E+04  0.25500000920E-02 0. -1.
       -2    1    3    3    0  502  0.74275490748E+03 -0.11213918201E+04 -0.49554817493E+03  0.14334477529E+04  0.25500000920E-02 0.  1.
</event>
<event>
 5   0  0.3438130E-06  0.2733178E+04  0.7818609E-02  0.8324319E-01
        1   -1    0    0  501    0  0.00000000000E+00  0.00000000000E+00  0.16758565065E+04  0.16758565065E+04  0.50400001928E-02 0.  1.
       -1   -1    0    0    0  501  0.00000000000E+00  0.00000000000E+00 -0.11143948855E+04  0.11143948855E+04  0.50400001928E-02 0. -1.
    10030    2    1    2    0    0  0.00000000000E+00  0.00000000000E+00  0.56146162105E+03  0.27902513920E+04  0.27331783108E+04 0.  0.
        3    1    3    3  502    0 -0.26661354933E+03 -0.60883353494E+03  0.14997355996E+04  0.16404170009E+04  0.10100000352E+00 0.  1.
       -3    1    3    3    0  502  0.26661354933E+03  0.60883353494E+03 -0.93827397854E+03  0.11498343911E+04  0.10100000352E+00 0. -1.
</event>
<event>
 5   0  0.3600963E-06  0.2775683E+04  0.7818609E-02  0.8310858E-01
       -1   -1    0    0    0  501  0.00000000000E+00  0.00000000000E+00  0.76441276729E+03  0.76441276730E+03  0.50400001928E-02 0. -1.
        1   -1    0    0  501    0  0.00000000000E+00  0.00000000000E+00 -0.25197164693E+04  0.25197164694E+04  0.50400001928E-02 0.  1.
    10030    2    1    2    0    0  0.00000000000E+00  0.00000000000E+00 -0.17553037021E+04  0.32841292367E+04  0.27756825749E+04 0.  0.
        5    1    3    3  502    0 -0.30160769765E+03  0.12721448688E+04 -0.14285123012E+04  0.19364888988E+04  0.46999998093E+01 0. -1.
       -5    1    3    3    0  502  0.30160769765E+03 -0.12721448688E+04 -0.32679140084E+03  0.13476403378E+04  0.46999998093E+01 0.  1.
</event>
<event>
 5   0  0.3397882E-06  0.2787759E+04  0.7818609E-02  0.8307079E-01
        1   -1    0    0  501    0  0.00000000000E+00  0.00000000000E+00  0.13296259318E+04  0.13296259318E+04  0.50400001928E-02 0. -1.
       -1   -1    0    0    0  501  0.00000000000E+00  0.00000000000E+00 -0.14612377405E+04  0.14612377405E+04  0.50400001928E-02 0.  1.
    10030    2    1    2    0    0  0.00000000000E+00  0.00000000000E+00 -0.13161180868E+03  0.27908636723E+04  0.27877586641E+04 0.  0.
        2    1    3    3  502    0  0.15363726457E+03  0.43846111225E+02  0.13204286442E+04  0.13300596584E+04  0.25500000920E-02 0. -1.
       -2    1    3    3    0  502 -0.15363726457E+03 -0.43846111225E+02 -0.14520404528E+04  0.14608040140E+04  0.25500000920E-02 0.  1.
</event>
<event>
 5   0  0.9426937E-06  0.2809801E+04  0.7818609E-02  0.8300232E-01
       -2   -1    0    0    0  501  0.00000000000E+00  0.00000000000E+00  0.13660817763E+04  0.13660817763E+04  0.25500000920E-02 0. -1.
        2   -1    0    0  501    0  0.00000000000E+00  0.00000000000E+00 -0.14448222175E+04  0.14448222175E+04  0.25500000920E-02 0.  1.
    10030    2    1    2    0    0  0.00000000000E+00  0.00000000000E+00 -0.78740441249E+02  0.28109039938E+04  0.28098009192E+04 0.  0.
        4    1    3    3  502    0  0.83784993650E+03 -0.11274786614E+04 -0.62682597846E+02  0.14061050348E+04  0.12699999809E+01 0.  1.
       -4    1    3    3    0  502 -0.83784993650E+03  0.11274786614E+04 -0.16057843402E+02  0.14047989590E+04  0.12699999809E+01 0. -1.
</event>
<event>
 5   0  0.3357244E-06  0.2796576E+04  0.7818609E-02  0.8304332E-01
        1   -1    0    0  501    0  0.00000000000E+00  0.00000000000E+00  0.13126815547E+04  0.13126815547E+04  0.50400001928E-02 0. -1.
       -1   -1    0    0    0  501  0.00000000000E+00  0.00000000000E+00 -0.14894770441E+04  0.14894770441E+04  0.50400001928E-02 0.  1.
    10030    2    1    2    0    0  0.00000000000E+00  0.00000000000E+00 -0.17679548946E+03  0.28021585988E+04  0.27965757933E+04 0.  0.
        4    1    3    3  502    0 -0.10503709360E+04 -0.45023497657E+03 -0.89574614695E+03  0.14520170144E+04  0.12699999809E+01 0.  1.
       -4    1    3    3    0  502  0.10503709360E+04  0.45023497657E+03  0.71895065749E+03  0.13501415845E+04  0.12699999809E+01 0. -1.
</event>
<event>
 5   0  0.3600963E-06  0.2800497E+04  0.7818609E-02  0.8303114E-01
        1   -1    0    0  501    0  0.00000000000E+00  0.00000000000E+00  0.10901699143E+04  0.10901699143E+04  0.50400001928E-02 0.  1.
       -1   -1    0    0    0  501  0.00000000000E+00  0.00000000000E+00 -0.17985235321E+04  0.17985235321E+04  0.50400001928E-02 0. -1.
    10030    2    1    2    0    0  0.00000000000E+00  0.00000000000E+00 -0.70835361779E+03  0.28886934464E+04  0.28004972736E+04 0.  0.
        5    1    3    3  502    0  0.13822811889E+04 -0.19240972926E+03 -0.47156491299E+03  0.14731321550E+04  0.46999998093E+01 0. -1.
       -5    1    3    3    0  502 -0.13822811889E+04  0.19240972926E+03 -0.23678870480E+03  0.14155612914E+04  0.46999998093E+01 0.  1.
</event>
<event>
 5   0  0.3397882E-06  0.2822865E+04  0.7818609E-02  0.8296205E-01
        1   -1    0    0  501    0  0.00000000000E+00  0.00000000000E+00  0.97827707527E+03  0.97827707528E+03  0.50400001928E-02 0.  1.
       -1   -1    0    0    0  501  0.00000000000E+00  0.00000000000E+00 -0.20363784039E+04  0.20363784039E+04  0.50400001928E-02 0. -1.
    10030    2    1    2    0    0  0.00000000000E+00  0.00000000000E+00 -0.10581013286E+04  0.30146554792E+04  0.28228654301E+04 0.  0.
        2    1    3    3  502    0  0.77680685698E+03  0.60574057279E+03  0.55046441499E+03  0.11284332531E+04  0.25500000920E-02 0. -1.
       -2    1    3    3    0  502 -0.77680685698E+03 -0.60574057279E+03 -0.16085657436E+04  0.18862222261E+04  0.25500000920E-02 0.  1.
</event>
<event>
 5   0  0.9260173E-06  0.2806530E+04  0.7818609E-02  0.8301244E-01
       -2   -1    0    0    0  501  0.00000000000E+00  0.00000000000E+00  0.11951619902E+04  0.11951619902E+04  0.25500000920E-02 0.  1.
        2   -1    0    0  501    0  0.00000000000E+00  0.00000000000E+00 -0.16476029235E+04  0.16476029235E+04  0.25500000920E-02 0. -1.
    10030    2    1    2    0    0  0.00000000000E+00  0.00000000000E+00 -0.45244093331E+03  0.28427649137E+04  0.28065298068E+04 0.  0.
        1    1    3    3  502    0 -0.40993079138E+03 -0.13405452246E+04 -0.29066291264E+03  0.14316388098E+04  0.50400001928E-02 0.  1.
       -1    1    3    3    0  502  0.40993079138E+03  0.13405452246E+04 -0.16177802067E+03  0.14111261039E+04  0.50400001928E-02 0. -1.
</event>
<event>
 5   0  0.9065579E-06  0.2825363E+04  0.7818609E-02  0.8295437E-01
       -2   -1    0    0    0  501  0.00000000000E+00  0.00000000000E+00  0.11019492122E+04  0.11019492122E+04  0.25500000920E-02 0.  1.
        2   -1    0    0  501    0  0.00000000000E+00  0.00000000000E+00 -0.18110353602E+04  0.18110353602E+04  0.25500000920E-02 0. -1.
    10030    2    1    2    0    0  0.00000000000E+00  0.00000000000E+00 -0.70908614794E+03  0.29129845724E+04  0.28253629774E+04 0.  0.
        3    1    3    3  502    0 -0.82869527841E+03  0.10560605967E+04  0.99183415803E+02  0.13460450247E+04  0.10100000352E+00 0.  1.
       -3    1    3    3    0  502  0.82869527841E+03 -0.10560605967E+04 -0.80826956374E+03  0.15669395477E+04  0.10100000352E+00 0. -1.
</event>
<event>
 5   0  0.9065579E-06  0.2811185E+04  0.7818609E-02  0.8299804E-01
       -2   -1    0    0    0  501  0.00000000000E+00  0.00000000000E+00  0.13077082407E+04  0.13077082407E+04  0.25500000920E-02 0.  1.
        2   -1    0    0  501    0  0.00000000000E+00  0.00000000000E+00 -0.15108032014E+04  0.15108032014E+04  0.25500000920E-02 0. -1.
    10030    2    1    2    0    0  0.00000000000E+00  0.00000000000E+00 -0.20309496064E+03  0.28185114421E+04  0.28111846589E+04 0.  0.
        3    1    3    3  502    0 -0.79049087595E+03 -0.11542042595E+04  0.35287119668E+02  0.13993957584E+04  0.10100000352E+00 0.  1.
       -3    1    3    3    0  502  0.79049087595E+03  0.11542042595E+04 -0.23838208030E+03  0.14191156838E+04  0.10100000352E+00 0. -1.
</event>
<event>
 5   0  0.3357244E-06  0.2800705E+04  0.7818609E-02  0.8303050E-01
       -1   -1    0    0    0  501  0.00000000000E+00  0.00000000000E+00  0.11620120826E+04  0.11620120827E+04  0.50400001928E-02 0. -1.
        1   -1    0    0  501    0  0.00000000000E+00  0.00000000000E+00 -0.16875783549E+04  0.16875783549E+04  0.50400001928E-02 0.  1.
    10030    2    1    2    0    0  0.00000000000E+00  0.00000000000E+00 -0.52556627223E+03  0.28495904375E+04  0.28007045105E+04 0.  0.
        4    1    3    3  502    0  0.19843784361E+03 -0.11865884011E+04 -0.99196203756E+03  0.15592818566E+04  0.12699999809E+01 0.  1.
       -4    1    3    3    0  502 -0.19843784361E+03  0.11865884011E+04  0.46639576533E+03  0.12903085810E+04  0.12699999809E+01 0. -1.
</event>
<event>
 5   0  0.9260173E-06  0.2793052E+04  0.7818609E-02  0.8305429E-01
       -2   -1    0    0    0  501  0.00000000000E+00  0.00000000000E+00  0.93402500158E+03  0.93402500159E+03  0.25500000920E-02 0.  1.
        2   -1    0    0  501    0  0.00000000000E+00  0.00000000000E+00 -0.20880438247E+04  0.20880438247E+04  0.25500000920E-02 0. -1.
    10030    2    1    2    0    0  0.00000000000E+00  0.00000000000E+00 -0.11540188231E+04  0.30220688263E+04  0.27930521919E+04 0.  0.
        1    1    3    3  502    0  0.58346652323E+02 -0.50344628524E+03 -0.19850266795E+04  0.20487053015E+04  0.50400001928E-02 0. -1.
       -1    1    3    3    0  502 -0.58346652323E+02  0.50344628524E+03  0.83100785641E+03  0.97336352479E+03  0.50400001928E-02 0.  1.
</event>
<event>
 5   0  0.3397882E-06  0.2714646E+04  0.7818609E-02  0.8330269E-01
       -1   -1    0    0    0  501  0.00000000000E+00  0.00000000000E+00  0.13891108083E+04  0.13891108083E+04  0.50400001928E-02 0. -1.
        1   -1    0    0  501    0  0.00000000000E+00  0.00000000000E+00 -0.13262621859E+04  0.13262621859E+04  0.50400001928E-02 0.  1.
    10030    2    1    2    0    0  0.00000000000E+00  0.00000000000E+00  0.62848622398E+02  0.27153729942E+04  0.27146455659E+04 0.  0.
        2    1    3    3  502    0  0.25424983220E+03  0.36887874441E+02  0.13645685472E+04  0.13885427658E+04  0.25500000920E-02 0. -1.
       -2    1    3    3    0  502 -0.25424983220E+03 -0.36887874441E+02 -0.13017199248E+04  0.13268302284E+04  0.25500000920E-02 0.  1.
</event>
<event>
 5   0  0.3438130E-06  0.2399451E+04  0.7818609E-02  0.8439709E-01
       -1   -1    0    0    0  501  0.00000000000E+00  0.00000000000E+00  0.86044615730E+03  0.86044615732E+03  0.50400001928E-02 0. -1.
        1   -1    0    0  501    0  0.00000000000E+00  0.00000000000E+00 -0.16727849592E+04  0.16727849592E+04  0.50400001928E-02 0.  1.
    10030    2    1    2    0    0  0.00000000000E+00  0.00000000000E+00 -0.81233880194E+03  0.25332311166E+04  0.23994510957E+04 0.  0.
        3    1    3    3  502    0 -0.18182649121E+03  0.96867794006E+03 -0.11283729969E+04  0.14982067463E+04  0.10100000352E+00 0.  1.
       -3    1    3    3    0  502  0.18182649121E+03 -0.96867794006E+03  0.31603419491E+03  0.10350243703E+04  0.10100000352E+00 0. -1.
</event>
<event>
 5   0  0.3600963E-06  0.2795970E+04  0.7818609E-02  0.8304521E-01
       -1   -1    0    0    0  501  0.00000000000E+00  0.00000000000E+00  0.11583359149E+04  0.11583359149E+04  0.50400001928E-02 0. -1.
        1   -1    0    0  501    0  0.00000000000E+00  0.00000000000E+00 -0.16872155582E+04  0.16872155582E+04  0.50400001928E-02 0.  1.
    10030    2    1    2    0    0  0.00000000000E+00  0.00000000000E+00 -0.52887964333E+03  0.28455514731E+04  0.27959702268E+04 0.  0.
        5    1    3    3  502    0 -0.12772581868E+04  0.38402720505E+03  0.16188579288E+03  0.13435380418E+04  0.46999998093E+01 0.  1.
       -5    1    3    3    0  502  0.12772581868E+04 -0.38402720505E+03 -0.69076543621E+03  0.15020134313E+04  0.46999998093E+01 0. -1.
</event>
<event>
 5   0  0.9342133E-06  0.2724129E+04  0.7818609E-02  0.8327218E-01
       -2   -1    0    0    0  501  0.00000000000E+00  0.00000000000E+00  0.16774518261E+04  0.16774518261E+04  0.25500000920E-02 0.  1.
        2   -1    0    0  501    0  0.00000000000E+00  0.00000000000E+00 -0.11059745581E+04  0.11059745581E+04  0.25500000920E-02 0. -1.
    10030    2    1    2    0    0  0.00000000000E+00  0.00000000000E+00  0.57147726792E+03  0.27834263842E+04  0.27241285154E+04 0.  0.
        2    1    3    3  502    0  0.42020814556E+03 -0.54618420493E+03  0.14861860310E+04  0.16381822213E+04  0.25500000920E-02 0.  1.
       -2    1    3    3    0  502 -0.42020814556E+03  0.54618420493E+03 -0.91470876311E+03  0.11452441629E+04  0.25500000920E-02 0. -1.
</event>
<event>
 5   0  0.9260173E-06  0.2801161E+04  0.7818609E-02  0.8302908E-01
        2   -1    0    0  501    0  0.00000000000E+00  0.00000000000E+00  0.13319675998E+04  0.13319675998E+04  0.25500000920E-02 0.  1.
       -2   -1    0    0    0  501  0.00000000000E+00  0.00000000000E+00 -0.14727280367E+04  0.14727280367E+04  0.25500000920E-02 0. -1.
    10030    2    1    2    0    0  0.00000000000E+00  0.00000000000E+00 -0.14076043692E+03  0.28046956365E+04  0.28011612080E+04 0.  0.
        1    1    3    3  502    0 -0.89267310664E+03  0.48089417389E+03 -0.10377781542E+04  0.14508990244E+04  0.50400001928E-02 0. -1.
       -1    1    3    3    0  502  0.89267310664E+03 -0.48089417389E+03  0.89701771726E+03  0.13537966121E+04  0.50400001928E-02 0.  1.
</event>
<event>
 5   0  0.9252359E-06  0.3320587E+04  0.7818609E-02  0.8157677E-01
       -2   -1    0    0    0  501  0.00000000000E+00  0.00000000000E+00  0.12838063458E+04  0.12838063458E+04  0.25500000920E-02 0.  1.
        2   -1    0    0  501    0  0.00000000000E+00  0.00000000000E+00 -0.21471884588E+04  0.21471884588E+04  0.25500000920E-02 0. -1.
    10030    2    1    2    0    0  0.00000000000E+00  0.00000000000E+00 -0.86338211299E+03  0.34309948045E+04  0.33205867969E+04 0.  0.
        5    1    3    3  502    0  0.48023740008E+03  0.15808126417E+04 -0.60133134566E+03  0.17581860100E+04  0.46999998093E+01 0. -1.
       -5    1    3    3    0  502 -0.48023740008E+03 -0.15808126417E+04 -0.26205076733E+03  0.16728087945E+04  0.46999998093E+01 0.  1.
</event>
<event>
 5   0  0.3397882E-06  0.2806553E+04  0.7818609E-02  0.8301237E-01
        1   -1    0    0  501    0  0.00000000000E+00  0.00000000000E+00  0.12718760299E+04  0.12718760299E+04  0.50400001928E-02 0. -1.
       -1   -1    0    0    0  501  0.00000000000E+00  0.00000000000E+00 -0.15482523408E+04  0.15482523408E+04  0.50400001928E-02 0.  1.
    10030    2    1    2    0    0  0.00000000000E+00  0.00000000000E+00 -0.27637631090E+03  0.28201283708E+04  0.28065530749E+04 0.  0.
        2    1    3    3  502    0  0.11669612806E+04  0.57078121932E+03 -0.67141038876E+03  0.14623206696E+04  0.25500000920E-02 0.  1.
       -2    1    3    3    0  502 -0.11669612806E+04 -0.57078121932E+03  0.39503407786E+03  0.13578077012E+04  0.25500000920E-02 0. -1.
</event>
<event>
 5   0  0.9426937E-06  0.2734953E+04  0.7818609E-02  0.8323752E-01
        2   -1    0    0  501    0  0.00000000000E+00  0.00000000000E+00  0.13156937538E+04  0.13156937538E+04  0.25500000920E-02 0. -1.
       -2   -1    0    0    0  501  0.00000000000E+00  0.00000000000E+00 -0.14212973190E+04  0.14212973190E+04  0.25500000920E-02 0.  1.
    10030    2    1    2    0    0  0.00000000000E+00  0.00000000000E+00 -0.10560356523E+03  0.27369910728E+04  0.27349530197E+04 0.  0.
        4    1    3    3  502    0  0.11055506992E+04 -0.74976111498E+03  0.24000181560E+03  0.13571980557E+04  0.12699999809E+01 0.  1.
       -4    1    3    3    0  502 -0.11055506992E+04  0.74976111498E+03 -0.34560538083E+03  0.13797930171E+04  0.12699999809E+01 0. -1.
</event>
<event>
 5   0  0.9260173E-06  0.2823911E+04  0.7818609E-02  0.8295883E-01
       -2   -1    0    0    0  501  0.00000000000E+00  0.00000000000E+00  0.14118219285E+04  0.14118219285E+04  0.25500000920E-02 0. -1.
        2   -1    0    0  501    0  0.00000000000E+00  0.00000000000E+00 -0.14120888603E+04  0.14120888603E+04  0.25500000920E-02 0.  1.
    10030    2    1    2    0    0  0.00000000000E+00  0.00000000000E+00 -0.26693184759E+00  0.28239107888E+04  0.28239107762E+04 0.  0.
        1    1    3    3  502    0 -0.41137566468E+03  0.11670992327E+04 -0.68003600716E+03  0.14120196626E+04  0.50400001928E-02 0.  1.
       -1    1    3    3    0  502  0.41137566468E+03 -0.11670992327E+04  0.67976907531E+03  0.14118911262E+04  0.50400001928E-02 0. -1.
</event>
<event>
 5   0  0.3371603E-06  0.2881246E+04  0.7818609E-02  0.8278479E-01
        1   -1    0    0  501    0  0.00000000000E+00  0.00000000000E+00  0.20050737197E+04  0.20050737197E+04  0.50400001928E-02 0. -1.
       -1   -1    0    0    0  501  0.00000000000E+00  0.00000000000E+00 -0.10350717958E+04  0.10350717958E+04  0.50400001928E-02 0.  1.
    10030    2    1    2    0    0  0.00000000000E+00  0.00000000000E+00  0.97000192387E+03  0.30401455155E+04  0.28812464357E+04 0.  0.
        1    1    3    3  502    0  0.13068891538E+03 -0.54194982494E+03 -0.91664344372E+03  0.10728580560E+04  0.50400001928E-02 0.  1.
       -1    1    3    3    0  502 -0.13068891538E+03  0.54194982494E+03  0.18866453676E+04  0.19672874595E+04  0.50400001928E-02 0. -1.
</event>
<event>
 5   0  0.3600963E-06  0.2921706E+04  0.7818609E-02  0.8266448E-01
       -1   -1    0    0    0  501  0.00000000000E+00  0.00000000000E+00  0.10423526131E+04  0.10423526131E+04  0.50400001928E-02 0.  1.
        1   -1    0    0  501    0  0.00000000000E+00  0.00000000000E+00 -0.20473796589E+04  0.20473796589E+04  0.50400001928E-02 0. -1.
    10030    2    1    2    0    0  0.00000000000E+00  0.00000000000E+00 -0.10050270458E+04  0.30897322719E+04  0.29217060341E+04 0.  0.
        5    1    3    3  502    0 -0.29775112243E+03  0.63551438011E+03 -0.18574203468E+04  0.19855897595E+04  0.46999998093E+01 0. -1.
       -5    1    3    3    0  502  0.29775112243E+03 -0.63551438011E+03  0.85239330101E+03  0.11041425125E+04  0.46999998093E+01 0.  1.
</event>
<event>
 5   0  0.9252359E-06  0.2780505E+04  0.7818609E-02  0.8309346E-01
        2   -1    0    0  501    0  0.00000000000E+00  0.00000000000E+00  0.11882256381E+04  0.11882256381E+04  0.25500000920E-02 0.  1.
       -2   -1    0    0    0  501  0.00000000000E+00  0.00000000000E+00 -0.16266290533E+04  0.16266290533E+04  0.25500000920E-02 0. -1.
    10030    2    1    2    0    0  0.00000000000E+00  0.00000000000E+00 -0.43840341521E+03  0.28148546913E+04  0.27805052380E+04 0.  0.
        5    1    3    3  502    0 -0.10334704495E+04  0.24957751421E+03  0.68764917894E+03  0.12661886071E+04  0.46999998093E+01 0.  1.
       -5    1    3    3    0  502  0.10334704495E+04 -0.24957751421E+03 -0.11260525942E+04  0.15486660842E+04  0.46999998093E+01 0. -1.
</event>
<event>
 5   0  0.9252359E-06  0.2777274E+04  0.7818609E-02  0.8310359E-01
       -2   -1    0    0    0  501  0.00000000000E+00  0.00000000000E+00  0.11579572798E+04  0.11579572798E+04  0.25500000920E-02 0. -1.
        2   -1    0    0  501    0  0.00000000000E+00  0.00000000000E+00 -0.16652711578E+04  0.16652711578E+04  0.25500000920E-02 0.  1.
    10030    2    1    2    0    0  0.00000000000E+00  0.00000000000E+00 -0.50731387805E+03  0.28232284376E+04  0.27772741024E+04 0.  0.
        5    1    3    3  502    0 -0.80832891297E+03 -0.66975022052E+02  0.89211752592E+03  0.12057267747E+04  0.46999998093E+01 0. -1.
       -5    1    3    3    0  502  0.80832891297E+03  0.66975022052E+02 -0.13994314040E+04  0.16175016629E+04  0.46999998093E+01 0.  1.
</event>
<event>
 5   0  0.9252359E-06  0.2808772E+04  0.7818609E-02  0.8300550E-01
       -2   -1    0    0    0  501  0.00000000000E+00  0.00000000000E+00  0.14037447385E+04  0.14037447385E+04  0.25500000920E-02 0. -1.
        2   -1    0    0  501    0  0.00000000000E+00  0.00000000000E+00 -0.14050279472E+04  0.14050279472E+04  0.25500000920E-02 0.  1.
    10030    2    1    2    0    0  0.00000000000E+00  0.00000000000E+00 -0.12832087110E+01  0.28087726856E+04  0.28087723925E+04 0.  0.
        5    1    3    3  502    0 -0.41614601502E+03  0.11246525665E+04  0.73028774142E+03  0.14040524123E+04  0.46999998093E+01 0. -1.
       -5    1    3    3    0  502  0.41614601502E+03 -0.11246525665E+04 -0.73157095013E+03  0.14047202733E+04  0.46999998093E+01 0.  1.
</event>
<event>
 5   0  0.9426937E-06  0.2782977E+04  0.7818609E-02  0.8308573E-01
        2   -1    0    0  501    0  0.00000000000E+00  0.00000000000E+00  0.14597608514E+04  0.14597608514E+04  0.25500000920E-02 0. -1.
       -2   -1    0    0    0  501  0.00000000000E+00  0.00000000000E+00 -0.13264094404E+04  0.13264094404E+04  0.25500000920E-02 0.  1.
    10030    2    1    2    0    0  0.00000000000E+00  0.00000000000E+00  0.13335141097E+03  0.27861702919E+04  0.27829772361E+04 0.  0.
        4    1    3    3  502    0  0.22533177161E+02 -0.11068969847E+04 -0.77720913807E+03  0.13526952118E+04  0.12699999809E+01 0.  1.
       -4    1    3    3    0  502 -0.22533177161E+02  0.11068969847E+04  0.91056054904E+03  0.14334750801E+04  0.12699999809E+01 0. -1.
</event>
<event>
 5   0  0.9426937E-06  0.2830215E+04  0.7818609E-02  0.8293949E-01
       -2   -1    0    0    0  501  0.00000000000E+00  0.00000000000E+00  0.10215528504E+04  0.10215528504E+04  0.25500000920E-02 0.  1.
        2   -1    0    0  501    0  0.00000000000E+00  0.00000000000E+00 -0.19602800059E+04  0.19602800059E+04  0.25500000920E-02 0. -1.
    10030    2    1    2    0    0  0.00000000000E+00  0.00000000000E+00 -0.93872715552E+03  0.29818328563E+04  0.28302152763E+04 0.  0.
        4    1    3    3  502    0 -0.20589953689E+03 -0.12260837071E+04 -0.11814810739E+04  0.17151020427E+04  0.12699999809E+01 0. -1.
       -4    1    3    3    0  502  0.20589953689E+03  0.12260837071E+04  0.24275391834E+03  0.12667308135E+04  0.12699999809E+01 0.  1.
</event>
<event>
 5   0  0.3600963E-06  0.2788602E+04  0.7818609E-02  0.8306816E-01
       -1   -1    0    0    0  501  0.00000000000E+00  0.00000000000E+00  0.13433837816E+04  0.13433837816E+04  0.50400001928E-02 0.  1.
        1   -1    0    0  501    0  0.00000000000E+00  0.00000000000E+00 -0.14471485791E+04  0.14471485791E+04  0.50400001928E-02 0. -1.
    10030    2    1    2    0    0  0.00000000000E+00  0.00000000000E+00 -0.10376479751E+03  0.27905323607E+04  0.27886024677E+04 0.  0.
        5    1    3    3  502    0  0.13428562902E+04  0.34223945652E+03 -0.20581661516E+03  0.14009901608E+04  0.46999998093E+01 0.  1.
       -5    1    3    3    0  502 -0.13428562902E+04 -0.34223945652E+03  0.10205181766E+03  0.13895421998E+04  0.46999998093E+01 0. -1.
</event>
<event>
 5   0  0.9065579E-06  0.2654203E+04  0.7818609E-02  0.8350019E-01
        2   -1    0    0  501    0  0.00000000000E+00  0.00000000000E+00  0.18964332894E+04  0.18964332894E+04  0.25500000920E-02 0. -1.
       -2   -1    0    0    0  501  0.00000000000E+00  0.00000000000E+00 -0.92868956303E+03  0.92868956303E+03  0.25500000920E-02 0.  1.
    10030    2    1    2    0    0  0.00000000000E+00  0.00000000000E+00  0.96774372634E+03  0.28251228524E+04  0.26542025566E+04 0.  0.
        3    1    3    3  502    0  0.75046439545E+02  0.13154016277E+04  0.31462156170E+03  0.13545848617E+04  0.10100000352E+00 0.  1.
       -3    1    3    3    0  502 -0.75046439545E+02 -0.13154016277E+04  0.65312216464E+03  0.14705379908E+04  0.10100000352E+00 0. -1.
</event>
<event>
 5   0  0.9426937E-06  0.2815587E+04  0.7818609E-02  0.8298446E-01
        2   -1    0    0  501    0  0.00000000000E+00  0.00000000000E+00  0.17127259116E+04  0.17127259116E+04  0.25500000920E-02 0.  1.
       -2   -1    0    0    0  501  0.00000000000E+00  0.00000000000E+00 -0.11571508232E+04  0.11571508232E+04  0.25500000920E-02 0. -1.
    10030    2    1    2    0    0  0.00000000000E+00  0.00000000000E+00  0.55557508845E+03  0.28698767348E+04  0.28155867584E+04 0.  0.
        4    1    3    3  502    0  0.63210101254E+03  0.60835394929E+03 -0.84445731782E+03  0.12176846850E+04  0.12699999809E+01 0. -1.
       -4    1    3    3    0  502 -0.63210101254E+03 -0.60835394929E+03  0.14000324063E+04  0.16521920497E+04  0.12699999809E+01 0.  1.
</event>
<event>
 5   0  0.3438130E-06  0.2773077E+04  0.7818609E-02  0.8311676E-01
        1   -1    0    0  501    0  0.00000000000E+00  0.00000000000E+00  0.17933603324E+04  0.17933603324E+04  0.50400001928E-02 0.  1.
       -1   -1    0    0    0  501  0.00000000000E+00  0.00000000000E+00 -0.10720035457E+04  0.10720035458E+04  0.50400001928E-02 0. -1.
    10030    2    1    2    0    0  0.00000000000E+00  0.00000000000E+00  0.72135678665E+03  0.28653638782E+04  0.27730767282E+04 0.  0.
        3    1    3    3  502    0 -0.11064691237E+04  0.28529814737E+03  0.11721942364E+04  0.16369814577E+04  0.10100000352E+00 0.  1.
       -3    1    3    3    0  502  0.11064691237E+04 -0.28529814737E+03 -0.45083744979E+03  0.12283824205E+04  0.10100000352E+00 0. -1.
</event>
<event>
 5   0  0.9252359E-06  0.2809155E+04  0.7818609E-02  0.8300432E-01
        2   -1    0    0  501    0  0.00000000000E+00  0.00000000000E+00  0.11704813857E+04  0.11704813857E+04  0.25500000920E-02 0.  1.
       -2   -1    0    0    0  501  0.00000000000E+00  0.00000000000E+00 -0.16854926868E+04  0.16854926868E+04  0.25500000920E-02 0. -1.
    10030    2    1    2    0    0  0.00000000000E+00  0.00000000000E+00 -0.51501130115E+03  0.28559740725E+04  0.28091549018E+04 0.  0.
        5    1    3    3  502    0 -0.21285188420E+03 -0.13808298765E+04 -0.40419713009E+03  0.14544395767E+04  0.46999998093E+01 0. -1.
       -5    1    3    3    0  502  0.21285188420E+03  0.13808298765E+04 -0.11081417106E+03  0.14015344958E+04  0.46999998093E+01 0.  1.
</event>
<event>
 5   0  0.9342133E-06  0.2786392E+04  0.7818609E-02  0.8307506E-01
       -2   -1    0    0    0  501  0.00000000000E+00  0.00000000000E+00  0.91770731750E+03  0.91770731750E+03  0.25500000920E-02 0.  1.
        2   -1    0    0  501    0  0.00000000000E+00  0.00000000000E+00 -0.21150475943E+04  0.21150475943E+04  0.25500000920E-02 0. -1.
    10030    2    1    2    0    0  0.00000000000E+00  0.00000000000E+00 -0.11973402768E+04  0.30327549118E+04  0.27863916840E+04 0.  0.
        2    1    3    3  502    0 -0.24520023426E+03 -0.36906580147E+03 -0.20363122714E+04  0.20839626646E+04  0.25500000920E-02 0. -1.
       -2    1    3    3    0  502  0.24520023426E+03  0.36906580147E+03  0.83897199459E+03  0.94879224723E+03  0.25500000920E-02 0.  1.
</event>
<event>
 5   0  0.3371603E-06  0.2811615E+04  0.7818609E-02  0.8299671E-01
       -1   -1    0    0    0  501  0.00000000000E+00  0.00000000000E+00  0.84246843078E+03  0.84246843080E+03  0.50400001928E-02 0.  1.
        1   -1    0    0  501    0  0.00000000000E+00  0.00000000000E+00 -0.23458387709E+04  0.23458387709E+04  0.50400001928E-02 0. -1.
    10030    2    1    2    0    0  0.00000000000E+00  0.00000000000E+00 -0.15033703401E+04  0.31883072017E+04  0.28116152711E+04 0.  0.
        1    1    3    3  502    0  0.15244595188E+03 -0.13966498901E+04 -0.69584990315E+03  0.15678258103E+04  0.50400001928E-02 0.  1.
       -1    1    3    3    0  502 -0.15244595188E+03  0.13966498901E+04 -0.80752043692E+03  0.16204813914E+04  0.50400001928E-02 0. -1.
</event>
<event>
 5   0  0.9252359E-06  0.2784563E+04  0.7818609E-02  0.8308077E-01
        2   -1    0    0  501    0  0.00000000000E+00  0.00000000000E+00  0.22704025108E+04  0.22704025108E+04  0.25500000920E-02 0.  1.
       -2   -1    0    0    0  501  0.00000000000E+00  0.00000000000E+00 -0.85379023315E+03  0.85379023316E+03  0.25500000920E-02 0. -1.
    10030    2    1    2    0    0  0.00000000000E+00  0.00000000000E+00  0.14166122776E+04  0.31241927440E+04  0.27845627944E+04 0.  0.
        5    1    3    3  502    0 -0.65332717990E+03  0.12286592201E+04  0.65831218479E+03  0.15394274604E+04  0.46999998093E+01 0.  1.
       -5    1    3    3    0  502  0.65332717990E+03 -0.12286592201E+04  0.75830009286E+03  0.15847652836E+04  0.46999998093E+01 0. -1.
</event>
<event>
 5   0  0.3397882E-06  0.2783507E+04  0.7818609E-02  0.8308407E-01
        1   -1    0    0  501    0  0.00000000000E+00  0.00000000000E+00  0.12781031632E+04  0.12781031632E+04  0.50400001928E-02 0.  1.
       -1   -1    0    0    0  501  0.00000000000E+00  0.00000000000E+00 -0.15155096115E+04  0.15155096115E+04  0.50400001928E-02 0. -1.
    10030    2    1    2    0    0  0.00000000000E+00  0.00000000000E+00 -0.23740644834E+03  0.27936127747E+04  0.27835068732E+04 0.  0.
        2    1    3    3  502    0  0.10965966145E+04 -0.35086581894E+03 -0.90342857990E+03  0.14634938185E+04  0.25500000920E-02 0. -1.
       -2    1    3    3    0  502 -0.10965966145E+04  0.35086581894E+03  0.66602213157E+03  0.13301189562E+04  0.25500000920E-02 0.  1.
</event>
<event>
 5   0  0.9065579E-06  0.2788954E+04  0.7818609E-02  0.8306706E-01
        2   -1    0    0  501    0  0.00000000000E+00  0.00000000000E+00  0.16127773160E+04  0.16127773160E+04  0.25500000920E-02 0.  1.
       -2   -1    0    0    0  501  0.00000000000E+00  0.00000000000E+00 -0.12057247656E+04  0.12057247656E+04  0.25500000920E-02 0. -1.
    10030    2    1    2    0    0  0.00000000000E+00  0.00000000000E+00  0.40705255040E+03  0.28185020816E+04  0.27889536040E+04 0.  0.
        3    1    3    3  502    0  0.97412717293E+03 -0.97778793460E+03  0.24901652532E+01  0.13802170863E+04  0.10100000352E+00 0. -1.
       -3    1    3    3    0  502 -0.97412717293E+03  0.97778793460E+03  0.40456238515E+03  0.14382849953E+04  0.10100000352E+00 0.  1.
</event>
<event>
 5   0  0.3397882E-06  0.2719251E+04  0.7818609E-02  0.8328786E-01
        1   -1    0    0  501    0  0.00000000000E+00  0.00000000000E+00  0.10715464908E+04  0.10715464908E+04  0.50400001928E-02 0.  1.
       -1   -1    0    0    0  501  0.00000000000E+00  0.00000000000E+00 -0.17251530898E+04  0.17251530898E+04  0.50400001928E-02 0. -1.
    10030    2    1    2    0    0  0.00000000000E+00  0.00000000000E+00 -0.65360659906E+03  0.27966995806E+04  0.27192511759E+04 0.  0.
        2    1    3    3  502    0  0.46899115487E+03 -0.12761278671E+04 -0.31522646820E+03  0.13956442107E+04  0.25500000920E-02 0. -1.
       -2    1    3    3    0  502 -0.46899115487E+03  0.12761278671E+04 -0.33838013087E+03  0.14010553699E+04  0.25500000920E-02 0.  1.
</event>
<event>
 5   0  0.3600963E-06  0.2802064E+04  0.7818609E-02  0.8302628E-01
       -1   -1    0    0    0  501  0.00000000000E+00  0.00000000000E+00  0.14645743739E+04  0.14645743739E+04  0.50400001928E-02 0.  1.
        1   -1    0    0  501    0  0.00000000000E+00  0.00000000000E+00 -0.13402469107E+04  0.13402469107E+04  0.50400001928E-02 0. -1.
    10030    2    1    2    0    0  0.00000000000E+00  0.00000000000E+00  0.12432746321E+03  0.28048212845E+04  0.28020644390E+04 0.  0.
        5    1    3    3  502    0 -0.12257698198E+04 -0.29168496739E+03  0.67536534976E+03  0.14295916260E+04  0.46999998093E+01 0.  1.
       -5    1    3    3    0  502  0.12257698198E+04  0.29168496739E+03 -0.55103788655E+03  0.13752296586E+04  0.46999998093E+01 0. -1.
</event>
<event>
 5   0  0.9342133E-06  0.2309910E+04  0.7818609E-02  0.8474024E-01
       -2   -1    0    0    0  501  0.00000000000E+00  0.00000000000E+00  0.67166456903E+03  0.67166456904E+03  0.25500000920E-02 0. -1.
        2   -1    0    0  501    0  0.00000000000E+00  0.00000000000E+00 -0.19859935690E+04  0.19859935690E+04  0.25500000920E-02 0.  1.
    10030    2    1    2    0    0  0.00000000000E+00  0.00000000000E+00 -0.13143290000E+04  0.26576581380E+04  0.23099104005E+04 0.  0.
        2    1    3    3  502    0  0.51840349153E+03 -0.49046136650E+01 -0.18446011344E+04  0.19160687828E+04  0.25500000920E-02 0.  1.
       -2    1    3    3    0  502 -0.51840349153E+03  0.49046136650E+01  0.53027213444E+03  0.74158935526E+03  0.25500000920E-02 0. -1.
</event>
<event>
 5   0  0.9260173E-06  0.2759752E+04  0.7818609E-02  0.8315874E-01
       -2   -1    0    0    0  501  0.00000000000E+00  0.00000000000E+00  0.10403324951E+04  0.10403324951E+04  0.25500000920E-02 0. -1.
        2   -1    0    0  501    0  0.00000000000E+00  0.00000000000E+00 -0.18302393626E+04  0.18302393626E+04  0.25500000920E-02 0.  1.
    10030    2    1    2    0    0  0.00000000000E+00  0.00000000000E+00 -0.78990686746E+03  0.28705718577E+04  0.27597517880E+04 0.  0.
        1    1    3    3  502    0  0.61763713653E+03  0.13712247536E+03  0.88057589017E+03  0.10842933662E+04  0.50400001928E-02 0. -1.
       -1    1    3    3    0  502 -0.61763713653E+03 -0.13712247536E+03 -0.16704827576E+04  0.17862784915E+04  0.50400001928E-02 0.  1.
</event>
<event>
 5   0  0.3357244E-06  0.2644145E+04  0.7818609E-02  0.8353359E-01
        1   -1    0    0  501    0  0.00000000000E+00  0.00000000000E+00  0.11312366377E+04  0.11312366377E+04  0.50400001928E-02 0.  1.
       -1   -1    0    0    0  501  0.00000000000E+00  0.00000000000E+00 -0.15451014360E+04  0.15451014360E+04  0.50400001928E-02 0. -1.
    10030    2    1    2    0    0  0.00000000000E+00  0.00000000000E+00 -0.41386479833E+03  0.26763380737E+04  0.26441447414E+04 0.  0.
        4    1    3    3  502    0  0.56744462170E+03  0.11281373532E+04  0.18922331923E+03  0.12769081266E+04  0.12699999809E+01 0.  1.
       -4    1    3    3    0  502 -0.56744462170E+03 -0.11281373532E+04 -0.60308811755E+03  0.13994299471E+04  0.12699999809E+01 0. -1.
</event>
<event>
 5   0  0.3438130E-06  0.2797294E+04  0.7818609E-02  0.8304109E-01
        1   -1    0    0  501    0  0.00000000000E+00  0.00000000000E+00  0.15667499783E+04  0.15667499783E+04  0.50400001928E-02 0.  1.
       -1   -1    0    0    0  501  0.00000000000E+00  0.00000000000E+00 -0.12485809082E+04  0.12485809082E+04  0.50400001928E-02 0. -1.
    10030    2    1    2    0    0  0.00000000000E+00  0.00000000000E+00  0.31816907014E+03  0.28153308865E+04  0.27972944863E+04 0.  0.
        3    1    3    3  502    0 -0.43237112184E+03 -0.11689471094E+04  0.79786734458E+03  0.14798562232E+04  0.10100000352E+00 0.  1.
       -3    1    3    3    0  502  0.43237112184E+03  0.11689471094E+04 -0.47969827444E+03  0.13354746633E+04  0.10100000352E+00 0. -1.
</event>
<event>
 5   0  0.9342133E-06  0.2801293E+04  0.7818609E-02  0.8302867E-01
       -2   -1    0    0    0  501  0.00000000000E+00  0.00000000000E+00  0.83769540185E+03  0.83769540185E+03  0.25500000920E-02 0.  1.
        2   -1    0    0  501    0  0.00000000000E+00  0.00000000000E+00 -0.23419140918E+04  0.23419140918E+04  0.25500000920E-02 0. -1.
    10030    2    1    2    0    0  0.00000000000E+00  0.00000000000E+00 -0.15042186900E+04  0.31796094937E+04  0.28012930345E+04 0.  0.
        2    1    3    3  502    0 -0.70377424589E+03  0.80707052390E+03  0.27267838279E+03  0.11049952580E+04  0.25500000920E-02 0.  1.
       -2    1    3    3    0  502  0.70377424589E+03 -0.80707052390E+03 -0.17768970728E+04  0.20746142357E+04  0.25500000920E-02 0. -1.
</event>
<event>
 5   0  0.3438130E-06  0.2728811E+04  0.7818609E-02  0.8325717E-01
       -1   -1    0    0    0  501  0.00000000000E+00  0.00000000000E+00  0.11789351048E+04  0.11789351048E+04  0.50400001928E-02 0. -1.
        1   -1    0    0  501    0  0.00000000000E+00  0.00000000000E+00 -0.15790546157E+04  0.15790546157E+04  0.50400001928E-02 0.  1.
    10030    2    1    2    0    0  0.00000000000E+00  0.00000000000E+00 -0.40011951090E+03  0.27579897205E+04  0.27288114034E+04 0.  0.
        3    1    3    3  502    0 -0.12406083986E+04  0.50792986846E+03 -0.45674576988E+03  0.14162339702E+04  0.10100000352E+00 0. -1.
       -3    1    3    3    0  502  0.12406083986E+04 -0.50792986846E+03  0.56626258980E+02  0.13417557502E+04  0.10100000352E+00 0.  1.
</event>
<event>
 5   0  0.3371603E-06  0.2796935E+04  0.7818609E-02  0.8304221E-01
        1   -1    0    0  501    0  0.00000000000E+00  0.00000000000E+00  0.17298370791E+04  0.17298370791E+04  0.50400001928E-02 0. -1.
       -1   -1    0    0    0  501  0.00000000000E+00  0.00000000000E+00 -0.11305752820E+04  0.11305752820E+04  0.50400001928E-02 0.  1.
    10030    2    1    2    0    0  0.00000000000E+00  0.00000000000E+00  0.59926179708E+03  0.28604123611E+04  0.27969347819E+04 0.  0.
        1    1    3    3  502    0 -0.10264818803E+04 -0.67356308980E+03  0.98442361839E+03  0.15736715499E+04  0.50400001928E-02 0. -1.
       -1    1    3    3    0  502  0.10264818803E+04  0.67356308980E+03 -0.38516182131E+03  0.12867408112E+04  0.50400001928E-02 0.  1.
</event>
<event>
 5   0  0.3397882E-06  0.2776659E+04  0.7818609E-02  0.8310552E-01
       -1   -1    0    0    0  501  0.00000000000E+00  0.00000000000E+00  0.10980425616E+04  0.10980425616E+04  0.50400001928E-02 0.  1.
        1   -1    0    0  501    0  0.00000000000E+00  0.00000000000E+00 -0.17553586806E+04  0.17553586807E+04  0.50400001928E-02 0. -1.
    10030    2    1    2    0    0  0.00000000000E+00  0.00000000000E+00 -0.65731611907E+03  0.28534012422E+04  0.27766588139E+04 0.  0.
        2    1    3    3  502    0  0.72871260449E+03  0.41838873413E+03  0.80705085905E+03  0.11650760842E+04  0.25500000920E-02 0.  1.
       -2    1    3    3    0  502 -0.72871260449E+03 -0.41838873413E+03 -0.14643669781E+04  0.16883251581E+04  0.25500000920E-02 0. -1.
</event>
<event>
 5   0  0.9426937E-06  0.2810610E+04  0.7818609E-02  0.8299982E-01
       -2   -1    0    0    0  501  0.00000000000E+00  0.00000000000E+00  0.11774629929E+04  0.11774629929E+04  0.25500000920E-02 0.  1.
        2   -1    0    0  501    0  0.00000000000E+00  0.00000000000E+00 -0.16772351930E+04  0.16772351930E+04  0.25500000920E-02 0. -1.
    10030    2    1    2    0    0  0.00000000000E+00  0.00000000000E+00 -0.49977220006E+03  0.28546981859E+04  0.28106101617E+04 0.  0.
        4    1    3    3  502    0 -0.11054913454E+04 -0.61033099652E+03  0.37644384172E+03  0.13176974687E+04  0.12699999809E+01 0.  1.
       -4    1    3    3    0  502  0.11054913454E+04  0.61033099652E+03 -0.87621604178E+03  0.15370007173E+04  0.12699999809E+01 0. -1.
</event>
<event>
 5   0  0.3397882E-06  0.2810703E+04  0.7818609E-02  0.8299953E-01
        1   -1    0    0  501    0  0.00000000000E+00  0.00000000000E+00  0.17416835745E+04  0.17416835745E+04  0.50400001928E-02 0.  1.
       -1   -1    0    0    0  501  0.00000000000E+00  0.00000000000E+00 -0.11339679960E+04  0.11339679960E+04  0.50400001928E-02 0. -1.
    10030    2    1    2    0    0  0.00000000000E+00  0.00000000000E+00  0.60771557851E+03  0.28756515705E+04  0.28107034227E+04 0.  0.
        2    1    3    3  502    0 -0.30968267690E+03  0.10324904328E+04  0.12263998274E+04  0.16327879198E+04  0.25500000920E-02 0.  1.
       -2    1    3    3    0  502  0.30968267690E+03 -0.10324904328E+04 -0.61868424892E+03  0.12428636507E+04  0.25500000920E-02 0. -1.
</event>
<event>
 5   0  0.9426937E-06  0.2787647E+04  0.7818609E-02  0.8307114E-01
       -2   -1    0    0    0  501  0.00000000000E+00  0.00000000000E+00  0.86888316011E+03  0.86888316011E+03  0.25500000920E-02 0. -1.
        2   -1    0    0  501    0  0.00000000000E+00  0.00000000000E+00 -0.22359090671E+04  0.22359090671E+04  0.25500000920E-02 0.  1.
    10030    2    1    2    0    0  0.00000000000E+00  0.00000000000E+00 -0.13670259070E+04  0.31047922272E+04  0.27876468470E+04 0.  0.
        4    1    3    3  502    0 -0.10415725263E+04  0.51041499087E+03  0.17729748640E+03  0.11733851891E+04  0.12699999809E+01 0.  1.
       -4    1    3    3    0  502  0.10415725263E+04 -0.51041499087E+03 -0.15443233934E+04  0.19314070381E+04  0.12699999809E+01 0. -1.
</event>
<event>
 5   0  0.9260173E-06  0.2828619E+04  0.7818609E-02  0.8294438E-01
       -2   -1    0    0    0  501  0.00000000000E+00  0.00000000000E+00  0.10155686753E+04  0.10155686753E+04  0.25500000920E-02 0. -1.
        2   -1    0    0  501    0  0.00000000000E+00  0.00000000000E+00 -0.19696068642E+04  0.19696068642E+04  0.25500000920E-02 0.  1.
    10030    2    1    2    0    0  0.00000000000E+00  0.00000000000E+00 -0.95403818889E+03  0.29851755395E+04  0.28286187681E+04 0.  0.
        1    1    3    3  502    0  0.99446846875E+03 -0.11350415107E+03  0.57749444040E+03  0.11555736914E+04  0.50400001928E-02 0. -1.
       -1    1    3    3    0  502 -0.99446846875E+03  0.11350415107E+03 -0.15315326293E+04  0.18296018480E+04  0.50400001928E-02 0.  1.
</event>
<event>
 5   0  0.3397882E-06  0.2828342E+04  0.7818609E-02  0.8294523E-01
       -1   -1    0    0    0  501  0.00000000000E+00  0.00000000000E+00  0.73014300933E+03  0.73014300934E+03  0.50400001928E-02 0.  1.
        1   -1    0    0  501    0  0.00000000000E+00  0.00000000000E+00 -0.27390246096E+04  0.27390246096E+04  0.50400001928E-02 0. -1.
    10030    2    1    2    0    0  0.00000000000E+00  0.00000000000E+00 -0.20088816003E+04  0.34691676189E+04  0.28283420381E+04 0.  0.
        2    1    3    3  502    0  0.11204863839E+04 -0.10487519453E+03 -0.20548564450E+04  0.23428451832E+04  0.25500000920E-02 0. -1.
       -2    1    3    3    0  502 -0.11204863839E+04  0.10487519453E+03  0.45974844765E+02  0.11263224357E+04  0.25500000920E-02 0.  1.
</event>
<event>
 5   0  0.9065579E-06  0.2725164E+04  0.7818609E-02  0.8326886E-01
        2   -1    0    0  501    0  0.00000000000E+00  0.00000000000E+00  0.19852126180E+04  0.19852126180E+04  0.25500000920E-02 0. -1.
       -2   -1    0    0    0  501  0.00000000000E+00  0.00000000000E+00 -0.93522945717E+03  0.93522945717E+03  0.25500000920E-02 0.  1.
    10030    2    1    2    0    0  0.00000000000E+00  0.00000000000E+00  0.10499831609E+04  0.29204420752E+04  0.27251637155E+04 0.  0.
        3    1    3    3  502    0 -0.79433357839E+02 -0.12449200231E+03  0.19766114239E+04  0.19821202407E+04  0.10100000352E+00 0. -1.
       -3    1    3    3    0  502  0.79433357839E+02  0.12449200231E+03 -0.92662826310E+03  0.93832183453E+03  0.10100000352E+00 0.  1.
</event>
<event>
 5   0  0.9426937E-06  0.2802704E+04  0.7818609E-02  0.8302429E-01
        2   -1    0    0  501    0  0.00000000000E+00  0.00000000000E+00  0.12066062140E+04  0.12066062140E+04  0.25500000920E-02 0. -1.
       -2   -1    0    0    0  501  0.00000000000E+00  0.00000000000E+00 -0.16275299793E+04  0.16275299793E+04  0.25500000920E-02 0.  1.
    10030    2    1    2    0    0  0.00000000000E+00  0.00000000000E+00 -0.42092376526E+03  0.28341361933E+04  0.28027042559E+04 0.  0.
        4    1    3    3  502    0 -0.13725262028E+04  0.24372899556E+03 -0.65486772821E+02  0.13955365029E+04  0.12699999809E+01 0. -1.
       -4    1    3    3    0  502  0.13725262028E+04 -0.24372899556E+03 -0.35543699244E+03  0.14385996904E+04  0.12699999809E+01 0.  1.
</event>
<event>
 5   0  0.3438130E-06  0.2793805E+04  0.7818609E-02  0.8305194E-01
       -1   -1    0    0    0  501  0.00000000000E+00  0.00000000000E+00  0.14746250292E+04  0.14746250292E+04  0.50400001928E-02 0. -1.
        1   -1    0    0  501    0  0.00000000000E+00  0.00000000000E+00 -0.13232762769E+04  0.13232762769E+04  0.50400001928E-02 0.  1.
    10030    2    1    2    0    0  0.00000000000E+00  0.00000000000E+00  0.15134875226E+03  0.27979013061E+04  0.27938048024E+04 0.  0.
        3    1    3    3  502    0 -0.37108324383E+03 -0.12148974822E+04  0.65760957036E+03  0.14304296639E+04  0.10100000352E+00 0. -1.
       -3    1    3    3    0  502  0.37108324383E+03  0.12148974822E+04 -0.50626081811E+03  0.13674716422E+04  0.10100000352E+00 0.  1.
</event>
<event>
 5   0  0.3397882E-06  0.2804784E+04  0.7818609E-02  0.8301785E-01
        1   -1    0    0  501    0  0.00000000000E+00  0.00000000000E+00  0.20892515676E+04  0.20892515676E+04  0.50400001928E-02 0. -1.
       -1   -1    0    0    0  501  0.00000000000E+00  0.00000000000E+00 -0.94134363567E+03  0.94134363569E+03  0.50400001928E-02 0.  1.
    10030    2    1    2    0    0  0.00000000000E+00  0.00000000000E+00  0.11479079319E+04  0.30305952033E+04  0.28047842459E+04 0.  0.
        2    1    3    3  502    0  0.11236670457E+04 -0.39480597925E+03 -0.22606389196E+03  0.12122723597E+04  0.25500000920E-02 0.  1.
       -2    1    3    3    0  502 -0.11236670457E+04  0.39480597925E+03  0.13739718239E+04  0.18183228436E+04  0.25500000920E-02 0. -1.
</event>
<event>
 5   0  0.3600963E-06  0.2769378E+04  0.7818609E-02  0.8312839E-01
       -1   -1    0    0    0  501  0.00000000000E+00  0.00000000000E+00  0.11835513649E+04  0.11835513649E+04  0.50400001928E-02 0.  1.
        1   -1    0    0  501    0  0.00000000000E+00  0.00000000000E+00 -0.16200091085E+04  0.16200091085E+04  0.50400001928E-02 0. -1.
    10030    2    1    2    0    0  0.00000000000E+00  0.00000000000E+00 -0.43645774365E+03  0.28035604734E+04  0.27693782634E+04 0.  0.
        5    1    3    3  502    0 -0.11503372462E+04 -0.59438876796E+03  0.27850884251E+03  0.13244482069E+04  0.46999998093E+01 0.  1.
       -5    1    3    3    0  502  0.11503372462E+04  0.59438876796E+03 -0.71496658616E+03  0.14791122665E+04  0.46999998093E+01 0. -1.
</event>
<event>
 5   0  0.9426937E-06  0.2842440E+04  0.7818609E-02  0.8290212E-01
        2   -1    0    0  501    0  0.00000000000E+00  0.00000000000E+00  0.13830951604E+04  0.13830951604E+04  0.25500000920E-02 0.  1.
       -2   -1    0    0    0  501  0.00000000000E+00  0.00000000000E+00 -0.14603958751E+04  0.14603958751E+04  0.25500000920E-02 0. -1.
    10030    2    1    2    0    0  0.00000000000E+00  0.00000000000E+00 -0.77300714680E+02  0.28434910354E+04  0.28424401257E+04 0.  0.
        4    1    3    3  502    0  0.74066869413E+01 -0.12934709860E+04  0.55041606250E+03  0.14057316620E+04  0.12699999809E+01 0.  1.
       -4    1    3    3    0  502 -0.74066869413E+01  0.12934709860E+04 -0.62771677718E+03  0.14377593735E+04  0.12699999809E+01 0. -1.
</event>
<event>
 5   0  0.3371603E-06  0.2825702E+04  0.7818609E-02  0.8295333E-01
        1   -1    0    0  501    0  0.00000000000E+00  0.00000000000E+00  0.18287604214E+04  0.18287604214E+04  0.50400001928E-02 0. -1.
       -1   -1    0    0    0  501  0.00000000000E+00  0.00000000000E+00 -0.10915302897E+04  0.10915302897E+04  0.50400001928E-02 0.  1.
    10030    2    1    2    0    0  0.00000000000E+00  0.00000000000E+00  0.73723013178E+03  0.29202907111E+04  0.28257016067E+04 0.  0.
        1    1    3    3  502    0 -0.11606024520E+04 -0.35963261147E+03  0.11137306726E+04  0.16482504900E+04  0.50400001928E-02 0. -1.
       -1    1    3    3    0  502  0.11606024520E+04  0.35963261147E+03 -0.37650054079E+03  0.12720402211E+04  0.50400001928E-02 0.  1.
</event>
<event>
 5   0  0.3600963E-06  0.2376149E+04  0.7818609E-02  0.8448487E-01
       -1   -1    0    0    0  501  0.00000000000E+00  0.00000000000E+00  0.74550519421E+03  0.74550519422E+03  0.50400001928E-02 0.  1.
        1   -1    0    0  501    0  0.00000000000E+00  0.00000000000E+00 -0.18933750468E+04  0.18933750468E+04  0.50400001928E-02 0. -1.
    10030    2    1    2    0    0  0.00000000000E+00  0.00000000000E+00 -0.11478698526E+04  0.26388802410E+04  0.23761489280E+04 0.  0.
        5    1    3    3  502    0  0.68886283355E+03  0.40455370513E+03 -0.15505443497E+04  0.17442492867E+04  0.46999998093E+01 0. -1.
       -5    1    3    3    0  502 -0.68886283355E+03 -0.40455370513E+03  0.40267449712E+03  0.89463095431E+03  0.46999998093E+01 0.  1.
</event>
<event>
 5   0  0.3371603E-06  0.2744005E+04  0.7818609E-02  0.8320867E-01
        1   -1    0    0  501    0  0.00000000000E+00  0.00000000000E+00  0.13190414478E+04  0.13190414478E+04  0.50400001928E-02 0. -1.
       -1   -1    0    0    0  501  0.00000000000E+00  0.00000000000E+00 -0.14270894960E+04  0.14270894960E+04  0.50400001928E-02 0.  1.
    10030    2    1    2    0    0  0.00000000000E+00  0.00000000000E+00 -0.10804804822E+03  0.27461309437E+04  0.27440045152E+04 0.  0.
        1    1    3    3  502    0  0.87245746994E+03  0.95853108666E+03  0.39624275284E+03  0.13553494753E+04  0.50400001928E-02 0.  1.
       -1    1    3    3    0  502 -0.87245746994E+03 -0.95853108666E+03 -0.50429080105E+03  0.13907814685E+04  0.50400001928E-02 0. -1.
</event>
<event>
 5   0  0.3397882E-06  0.2830910E+04  0.7818609E-02  0.8293736E-01
       -1   -1    0    0    0  501  0.00000000000E+00  0.00000000000E+00  0.14270482135E+04  0.14270482135E+04  0.50400001928E-02 0.  1.
        1   -1    0    0  501    0  0.00000000000E+00  0.00000000000E+00 -0.14039561491E+04  0.14039561491E+04  0.50400001928E-02 0. -1.
    10030    2    1    2    0    0  0.00000000000E+00  0.00000000000E+00  0.23092064320E+02  0.28310043626E+04  0.28309101818E+04 0.  0.
        2    1    3    3  502    0  0.53207682370E+03 -0.12521639729E+04  0.40206222850E+03  0.14186875615E+04  0.25500000920E-02 0.  1.
       -2    1    3    3    0  502 -0.53207682370E+03  0.12521639729E+04 -0.37897016418E+03  0.14123168011E+04  0.25500000920E-02 0. -1.
</event>
<event>
 5   0  0.9252359E-06  0.2779249E+04  0.7818609E-02  0.8309740E-01
        2   -1    0    0  501    0  0.00000000000E+00  0.00000000000E+00  0.17358385926E+04  0.17358385926E+04  0.25500000920E-02 0. -1.
       -2   -1    0    0    0  501  0.00000000000E+00  0.00000000000E+00 -0.11124634247E+04  0.11124634247E+04  0.25500000920E-02 0.  1.
    10030    2    1    2    0    0  0.00000000000E+00  0.00000000000E+00  0.62337516785E+03  0.28483020173E+04  0.27792494998E+04 0.  0.
        5    1    3    3  502    0  0.37227288073E+03 -0.10470233139E+04 -0.54342317822E+03  0.12370027317E+04  0.46999998093E+01 0.  1.
       -5    1    3    3    0  502 -0.37227288073E+03  0.10470233139E+04  0.11667983461E+04  0.16112992856E+04  0.46999998093E+01 0. -1.
</event>
<event>
 5   0  0.9426937E-06  0.2815772E+04  0.7818609E-02  0.8298389E-01
       -2   -1    0    0    0  501  0.00000000000E+00  0.00000000000E+00  0.12459083397E+04  0.12459083397E+04  0.25500000920E-02 0. -1.
        2   -1    0    0  501    0  0.00000000000E+00  0.00000000000E+00 -0.15909218377E+04  0.15909218377E+04  0.25500000920E-02 0.  1.
    10030    2    1    2    0    0  0.00000000000E+00  0.00000000000E+00 -0.34501349798E+03  0.28368301774E+04  0.28157718553E+04 0.  0.
        4    1    3    3  502    0 -0.12910409669E+03  0.11557898425E+04 -0.97192897120E+03  0.15156403154E+04  0.12699999809E+01 0.  1.
       -4    1    3    3    0  502  0.12910409669E+03 -0.11557898425E+04  0.62691547322E+03  0.13211898619E+04  0.12699999809E+01 0. -1.
</event>
<event>
 5   0  0.3438130E-06  0.2825609E+04  0.7818609E-02  0.8295362E-01
       -1   -1    0    0    0  501  0.00000000000E+00  0.00000000000E+00  0.10829235336E+04  0.10829235337E+04  0.50400001928E-02 0. -1.
        1   -1    0    0  501    0  0.00000000000E+00  0.00000000000E+00 -0.18431735960E+04  0.18431735960E+04  0.50400001928E-02 0.  1.
    10030    2    1    2    0    0  0.00000000000E+00  0.00000000000E+00 -0.76025006236E+03  0.29260971297E+04  0.28256086521E+04 0.  0.
        3    1    3    3  502    0 -0.37772723357E+02  0.12352362321E+04  0.32890005278E+03  0.12788317257E+04  0.10100000352E+00 0. -1.
       -3    1    3    3    0  502  0.37772723357E+02 -0.12352362321E+04 -0.10891501151E+04  0.16472654040E+04  0.10100000352E+00 0.  1.
</event>
<event>
 5   0  0.3397882E-06  0.2781186E+04  0.7818609E-02  0.8309133E-01
        1   -1    0    0  501    0  0.00000000000E+00  0.00000000000E+00  0.19213536121E+04  0.19213536121E+04  0.50400001928E-02 0.  1.
       -1   -1    0    0    0  501  0.00000000000E+00  0.00000000000E+00 -0.10064513361E+04  0.10064513361E+04  0.50400001928E-02 0. -1.
    10030    2    1    2    0    0  0.00000000000E+00  0.00000000000E+00  0.91490227600E+03  0.29278049483E+04  0.27811860133E+04 0.  0.
        2    1    3    3  502    0 -0.50263853012E+03  0.85489890305E+02 -0.90450532063E+03  0.10383081856E+04  0.25500000920E-02 0. -1.
       -2    1    3    3    0  502  0.50263853012E+03 -0.85489890305E+02  0.18194075966E+04  0.18894967626E+04  0.25500000920E-02 0.  1.
</event>
<event>
 5   0  0.9426937E-06  0.2857114E+04  0.7818609E-02  0.8285753E-01
       -2   -1    0    0    0  501  0.00000000000E+00  0.00000000000E+00  0.85616667165E+03  0.85616667165E+03  0.25500000920E-02 0. -1.
        2   -1    0    0  501    0  0.00000000000E+00  0.00000000000E+00 -0.23836190397E+04  0.23836190397E+04  0.25500000920E-02 0.  1.
    10030    2    1    2    0    0  0.00000000000E+00  0.00000000000E+00 -0.15274523681E+04  0.32397857114E+04  0.28571140542E+04 0.  0.
        4    1    3    3  502    0  0.27395317286E+03 -0.65079979790E+03  0.64444885756E+03  0.95598465509E+03  0.12699999809E+01 0. -1.
       -4    1    3    3    0  502 -0.27395317286E+03  0.65079979790E+03 -0.21719012256E+04  0.22838010563E+04  0.12699999809E+01 0.  1.
</event>
<event>
 5   0  0.3371603E-06  0.2825341E+04  0.7818609E-02  0.8295444E-01
        1   -1    0    0  501    0  0.00000000000E+00  0.00000000000E+00  0.16272469585E+04  0.16272469585E+04  0.50400001928E-02 0. -1.
       -1   -1    0    0    0  501  0.00000000000E+00  0.00000000000E+00 -0.12263887887E+04  0.12263887887E+04  0.50400001928E-02 0.  1.
    10030    2    1    2    0    0  0.00000000000E+00  0.00000000000E+00  0.40085816983E+03  0.28536357473E+04  0.28253406353E+04 0.  0.
        1    1    3    3  502    0  0.36856546631E+03 -0.48558105508E+03 -0.10866990933E+04  0.12460113897E+04  0.50400001928E-02 0.  1.
       -1    1    3    3    0  502 -0.36856546631E+03  0.48558105508E+03  0.14875572631E+04  0.16076243575E+04  0.50400001928E-02 0. -1.
</event>
<event>
 5   0  0.9260173E-06  0.2853085E+04  0.7818609E-02  0.8286975E-01
       -2   -1    0    0    0  501  0.00000000000E+00  0.00000000000E+00  0.90726579013E+03  0.90726579014E+03  0.25500000920E-02 0. -1.
        2   -1    0    0  501    0  0.00000000000E+00  0.00000000000E+00 -0.22430287941E+04  0.22430287941E+04  0.25500000920E-02 0.  1.
    10030    2    1    2    0    0  0.00000000000E+00  0.00000000000E+00 -0.13357630040E+04  0.31502945843E+04  0.28530848506E+04 0.  0.
        1    1    3    3  502    0  0.14745082475E+02 -0.97617152397E+03  0.48061332028E+03  0.10881715974E+04  0.50400001928E-02 0. -1.
       -1    1    3    3    0  502 -0.14745082475E+02  0.97617152397E+03 -0.18163763243E+04  0.20621229869E+04  0.50400001928E-02 0.  1.
</event>
<event>
 5   0  0.3371603E-06  0.2780913E+04  0.7818609E-02  0.8309219E-01
        1   -1    0    0  501    0  0.00000000000E+00  0.00000000000E+00  0.13439652436E+04  0.13439652437E+04  0.50400001928E-02 0. -1.
       -1   -1    0    0    0  501  0.00000000000E+00  0.00000000000E+00 -0.14385557507E+04  0.14385557507E+04  0.50400001928E-02 0.  1.
    10030    2    1    2    0    0  0.00000000000E+00  0.00000000000E+00 -0.94590507060E+02  0.27825209944E+04  0.27809127495E+04 0.  0.
        1    1    3    3  502    0 -0.43893618608E+03 -0.71821209022E+03 -0.11546761665E+04  0.14289053963E+04  0.50400001928E-02 0.  1.
       -1    1    3    3    0  502  0.43893618608E+03  0.71821209022E+03  0.10600856595E+04  0.13536155981E+04  0.50400001928E-02 0. -1.
</event>
<event>
 5   0  0.3371603E-06  0.2759246E+04  0.7818609E-02  0.8316034E-01
       -1   -1    0    0    0  501  0.00000000000E+00  0.00000000000E+00  0.77857669589E+03  0.77857669590E+03  0.50400001928E-02 0.  1.
        1   -1    0    0  501    0  0.00000000000E+00  0.00000000000E+00 -0.24446657081E+04  0.24446657081E+04  0.50400001928E-02 0. -1.
    10030    2    1    2    0    0  0.00000000000E+00  0.00000000000E+00 -0.16660890122E+04  0.32232424040E+04  0.27592460924E+04 0.  0.
        1    1    3    3  502    0 -0.12571495926E+04 -0.53664566960E+03 -0.61467009592E+03  0.14987438072E+04  0.50400001928E-02 0. -1.
       -1    1    3    3    0  502  0.12571495926E+04  0.53664566960E+03 -0.10514189163E+04  0.17244985968E+04  0.50400001928E-02 0.  1.
</event>
<event>
 5   0  0.9252359E-06  0.2765140E+04  0.7818609E-02  0.8314174E-01
        2   -1    0    0  501    0  0.00000000000E+00  0.00000000000E+00  0.18899495828E+04  0.18899495828E+04  0.25500000920E-02 0.  1.
       -2   -1    0    0    0  501  0.00000000000E+00  0.00000000000E+00 -0.10114023014E+04  0.10114023014E+04  0.25500000920E-02 0. -1.
    10030    2    1    2    0    0  0.00000000000E+00  0.00000000000E+00  0.87854728135E+03  0.29013518842E+04  0.27651396764E+04 0.  0.
        5    1    3    3  502    0 -0.34306340461E+03  0.11326701417E+04  0.11892146520E+04  0.16777627151E+04  0.46999998093E+01 0.  1.
       -5    1    3    3    0  502  0.34306340461E+03 -0.11326701417E+04 -0.31066737069E+03  0.12235891691E+04  0.46999998093E+01 0. -1.
</event>
<event>
 5   0  0.3006875E-06  0.2805604E+04  0.7818609E-02  0.8301531E-01
       -3   -1    0    0    0  501  0.00000000000E+00  0.00000000000E+00  0.10666155130E+04  0.10666155178E+04  0.10100000352E+00 0.  1.
        3   -1    0    0  501    0  0.00000000000E+00  0.00000000000E+00 -0.18449513100E+04  0.18449513128E+04  0.10100000352E+00 0. -1.
    10030    2    1    2    0    0  0.00000000000E+00  0.00000000000E+00 -0.77833579699E+03  0.29115668305E+04  0.28056041766E+04 0.  0.
        4    1    3    3  502    0  0.13035326886E+04  0.34962370008E+03 -0.78626564919E+03  0.15619377343E+04  0.12699999809E+01 0.  1.
       -4    1    3    3    0  502 -0.13035326886E+04 -0.34962370008E+03  0.79298522054E+01  0.13496290962E+04  0.12699999809E+01 0. -1.
</event>
<event>
 5   0  0.9065579E-06  0.2468956E+04  0.7818609E-02  0.8414129E-01
       -2   -1    0    0    0  501  0.00000000000E+00  0.00000000000E+00  0.79250020826E+03  0.79250020826E+03  0.25500000920E-02 0.  1.
        2   -1    0    0  501    0  0.00000000000E+00  0.00000000000E+00 -0.19229467955E+04  0.19229467955E+04  0.25500000920E-02 0. -1.
    10030    2    1    2    0    0  0.00000000000E+00  0.00000000000E+00 -0.11304465872E+04  0.27154470038E+04  0.24689558408E+04 0.  0.
        3    1    3    3  502    0  0.22675201712E+03 -0.12107649636E+04 -0.47609277356E+03  0.13206182695E+04  0.10100000352E+00 0.  1.
       -3    1    3    3    0  502 -0.22675201712E+03  0.12107649636E+04 -0.65435381367E+03  0.13948287343E+04  0.10100000352E+00 0. -1.
</event>
<event>
 5   0  0.9426937E-06  0.2803663E+04  0.7818609E-02  0.8302132E-01
        2   -1    0    0  501    0  0.00000000000E+00  0.00000000000E+00  0.97682716001E+03  0.97682716002E+03  0.25500000920E-02 0.  1.
       -2   -1    0    0    0  501  0.00000000000E+00  0.00000000000E+00 -0.20117498038E+04  0.20117498038E+04  0.25500000920E-02 0. -1.
    10030    2    1    2    0    0  0.00000000000E+00  0.00000000000E+00 -0.10349226438E+04  0.29885769638E+04  0.28036632091E+04 0.  0.
        4    1    3    3  502    0 -0.10220571535E+04  0.94682093012E+03 -0.68280295553E+03  0.15515450969E+04  0.12699999809E+01 0. -1.
       -4    1    3    3    0  502  0.10220571535E+04 -0.94682093012E+03 -0.35211968829E+03  0.14370318669E+04  0.12699999809E+01 0.  1.
</event>
<event>
 5   0  0.9065579E-06  0.2792357E+04  0.7818609E-02  0.8305645E-01
       -2   -1    0    0    0  501  0.00000000000E+00  0.00000000000E+00  0.10609098640E+04  0.10609098640E+04  0.25500000920E-02 0.  1.
        2   -1    0    0  501    0  0.00000000000E+00  0.00000000000E+00 -0.18373980946E+04  0.18373980946E+04  0.25500000920E-02 0. -1.
    10030    2    1    2    0    0  0.00000000000E+00  0.00000000000E+00 -0.77648823053E+03  0.28983079586E+04  0.27923565407E+04 0.  0.
        3    1    3    3  502    0 -0.13076489489E+04  0.31306793948E+03  0.19955992901E+01  0.13446045147E+04  0.10100000352E+00 0.  1.
       -3    1    3    3    0  502  0.13076489489E+04 -0.31306793948E+03 -0.77848382982E+03  0.15537034439E+04  0.10100000352E+00 0. -1.
</event>
<event>
 5   0  0.9260173E-06  0.2791099E+04  0.7818609E-02  0.8306037E-01
       -2   -1    0    0    0  501  0.00000000000E+00  0.00000000000E+00  0.99300769959E+03  0.99300769959E+03  0.25500000920E-02 0.  1.
        2   -1    0    0  501    0  0.00000000000E+00  0.00000000000E+00 -0.19612720108E+04  0.19612720108E+04  0.25500000920E-02 0. -1.
    10030    2    1    2    0    0  0.00000000000E+00  0.00000000000E+00 -0.96826431121E+03  0.29542797104E+04  0.27910988572E+04 0.  0.
        1    1    3    3  502    0  0.54797456605E+03 -0.12622012735E+04 -0.23787122396E+03  0.13964279069E+04  0.50400001928E-02 0. -1.
       -1    1    3    3    0  502 -0.54797456605E+03  0.12622012735E+04 -0.73039308725E+03  0.15578518035E+04  0.50400001928E-02 0.  1.
</event>
<event>
 5   0  0.3397882E-06  0.2770800E+04  0.7818609E-02  0.8312392E-01
       -1   -1    0    0    0  501  0.00000000000E+00  0.00000000000E+00  0.89466052276E+03  0.89466052277E+03  0.50400001928E-02 0.  1.
        1   -1    0    0  501    0  0.00000000000E+00  0.00000000000E+00 -0.21453197319E+04  0.21453197320E+04  0.50400001928E-02 0. -1.
    10030    2    1    2    0    0  0.00000000000E+00  0.00000000000E+00 -0.12506592092E+04  0.30399802547E+04  0.27707997928E+04 0.  0.
        2    1    3    3  502    0  0.16274160518E+03  0.28060933232E+03  0.85240689195E+03  0.91204382400E+03  0.25500000920E-02 0.  1.
       -2    1    3    3    0  502 -0.16274160518E+03 -0.28060933232E+03 -0.21030661011E+04  0.21279364307E+04  0.25500000920E-02 0. -1.
</event>
<event>
 5   0  0.3357244E-06  0.2840716E+04  0.7818609E-02  0.8290738E-01
        1   -1    0    0  501    0  0.00000000000E+00  0.00000000000E+00  0.24461396875E+04  0.24461396875E+04  0.50400001928E-02 0.  1.
       -1   -1    0    0    0  501  0.00000000000E+00  0.00000000000E+00 -0.82473514488E+03  0.82473514490E+03  0.50400001928E-02 0. -1.
    10030    2    1    2    0    0  0.00000000000E+00  0.00000000000E+00  0.16214045426E+04  0.32708748324E+04  0.28407163671E+04 0.  0.
        4    1    3    3  502    0 -0.82820430773E+03  0.88057784904E+03 -0.47921959527E+02  0.12098090141E+04  0.12699999809E+01 0. -1.
       -4    1    3    3    0  502  0.82820430773E+03 -0.88057784904E+03  0.16693265021E+04  0.20610658183E+04  0.12699999809E+01 0.  1.
</event>
<event>
 5   0  0.9252359E-06  0.2786437E+04  0.7818609E-02  0.8307491E-01
       -2   -1    0    0    0  501  0.00000000000E+00  0.00000000000E+00  0.18415746532E+04  0.18415746532E+04  0.25500000920E-02 0.  1.
        2   -1    0    0  501    0  0.00000000000E+00  0.00000000000E+00 -0.10540210113E+04  0.10540210113E+04  0.25500000920E-02 0. -1.
    10030    2    1    2    0    0  0.00000000000E+00  0.00000000000E+00  0.78755364197E+03  0.28955956645E+04  0.27864374232E+04 0.  0.
        5    1    3    3  502    0 -0.44356868959E+03 -0.12918561642E+04  0.67910697796E+03  0.15254028677E+04  0.46999998093E+01 0. -1.
       -5    1    3    3    0  502  0.44356868959E+03  0.12918561642E+04  0.10844666402E+03  0.13701927968E+04  0.46999998093E+01 0.  1.
</event>
<event>
 5   0  0.3371603E-06  0.2774269E+04  0.7818609E-02  0.8311302E-01
       -1   -1    0    0    0  501  0.00000000000E+00  0.00000000000E+00  0.11305458261E+04  0.11305458261E+04  0.50400001928E-02 0.  1.
        1   -1    0    0  501    0  0.00000000000E+00  0.00000000000E+00 -0.17019587514E+04  0.17019587514E+04  0.50400001928E-02 0. -1.
    10030    2    1    2    0    0  0.00000000000E+00  0.00000000000E+00 -0.57141292533E+03  0.28325045775E+04  0.27742691741E+04 0.  0.
        1    1    3    3  502    0  0.80468974771E+03  0.92943488614E+03  0.37024968356E+03  0.12839235280E+04  0.50400001928E-02 0. -1.
       -1    1    3    3    0  502 -0.80468974771E+03 -0.92943488614E+03 -0.94166260889E+03  0.15485810494E+04  0.50400001928E-02 0.  1.
</event>
<event>
 5   0  0.3357244E-06  0.2795304E+04  0.7818609E-02  0.8304728E-01
        1   -1    0    0  501    0  0.00000000000E+00  0.00000000000E+00  0.86223525135E+03  0.86223525136E+03  0.50400001928E-02 0. -1.
       -1   -1    0    0    0  501  0.00000000000E+00  0.00000000000E+00 -0.22655436137E+04  0.22655436137E+04  0.50400001928E-02 0.  1.
    10030    2    1    2    0    0  0.00000000000E+00  0.00000000000E+00 -0.14033083624E+04  0.31277788651E+04  0.27953043249E+04 0.  0.
        4    1    3    3  502    0 -0.84265336346E+03  0.10464315064E+04 -0.27068580834E+03  0.13705312868E+04  0.12699999809E+01 0. -1.
       -4    1    3    3    0  502  0.84265336346E+03 -0.10464315064E+04 -0.11326225540E+04  0.17572475782E+04  0.12699999809E+01 0.  1.
</event>
<event>
 5   0  0.3600963E-06  0.2732289E+04  0.7818609E-02  0.8324604E-01
        1   -1    0    0  501    0  0.00000000000E+00  0.00000000000E+00  0.14522019325E+04  0.14522019325E+04  0.50400001928E-02 0.  1.
       -1   -1    0    0    0  501  0.00000000000E+00  0.00000000000E+00 -0.12851866291E+04  0.12851866291E+04  0.50400001928E-02 0. -1.
    10030    2    1    2    0    0  0.00000000000E+00  0.00000000000E+00  0.16701530341E+03  0.27373885616E+04  0.27322887889E+04 0.  0.
        5    1    3    3  502    0  0.26346754263E+03  0.72403470734E+03  0.12137476024E+04  0.14376532043E+04  0.46999998093E+01 0.  1.
       -5    1    3    3    0  502 -0.26346754263E+03 -0.72403470734E+03 -0.10467322990E+04  0.12997353574E+04  0.46999998093E+01 0. -1.
</event>
<event>
 5   0  0.9426937E-06  0.2755310E+04  0.7818609E-02  0.8317279E-01
       -2   -1    0    0    0  501  0.00000000000E+00  0.00000000000E+00  0.14902944039E+04  0.14902944039E+04  0.25500000920E-02 0.  1.
        2   -1    0    0  501    0  0.00000000000E+00  0.00000000000E+00 -0.12735290925E+04  0.12735290925E+04  0.25500000920E-02 0. -1.
    10030    2    1    2    0    0  0.00000000000E+00  0.00000000000E+00  0.21676531143E+03  0.27638234965E+04  0.27553099861E+04 0.  0.
        4    1    3    3  502    0 -0.96244113468E+03  0.31334741279E+03 -0.82909169023E+03  0.13083860984E+04  0.12699999809E+01 0. -1.
       -4    1    3    3    0  502  0.96244113468E+03 -0.31334741279E+03  0.10458570017E+04  0.14554373981E+04  0.12699999809E+01 0.  1.
</event>
<event>
 5   0  0.3371603E-06  0.2804198E+04  0.7818609E-02  0.8301966E-01
        1   -1    0    0  501    0  0.00000000000E+00  0.00000000000E+00  0.17943251523E+04  0.17943251523E+04  0.50400001928E-02 0. -1.
       -1   -1    0    0    0  501  0.00000000000E+00  0.00000000000E+00 -0.10956106991E+04  0.10956106991E+04  0.50400001928E-02 0.  1.
    10030    2    1    2    0    0  0.00000000000E+00  0.00000000000E+00  0.69871445316E+03  0.28899358514E+04  0.28041981632E+04 0.  0.
        1    1    3    3  502    0  0.12582434509E+04 -0.61863036483E+03  0.35071060785E+03  0.14452951396E+04  0.50400001928E-02 0.  1.
       -1    1    3    3    0  502 -0.12582434509E+04  0.61863036483E+03  0.34800384531E+03  0.14446407119E+04  0.50400001928E-02 0. -1.
</event>
<event>
 5   0  0.9342133E-06  0.2759311E+04  0.7818609E-02  0.8316013E-01
       -2   -1    0    0    0  501  0.00000000000E+00  0.00000000000E+00  0.80213336062E+03  0.80213336062E+03  0.25500000920E-02 0. -1.
        2   -1    0    0  501    0  0.00000000000E+00  0.00000000000E+00 -0.23729842009E+04  0.23729842009E+04  0.25500000920E-02 0.  1.
    10030    2    1    2    0    0  0.00000000000E+00  0.00000000000E+00 -0.15708508403E+04  0.31751175615E+04  0.27593113574E+04 0.  0.
        2    1    3    3  502    0 -0.89457607259E+03  0.37551772017E+03  0.34329135906E+03  0.10291398666E+04  0.25500000920E-02 0. -1.
       -2    1    3    3    0  502  0.89457607259E+03 -0.37551772017E+03 -0.19141421994E+04  0.21459776949E+04  0.25500000920E-02 0.  1.
</event>
<event>
 5   0  0.9252359E-06  0.2736262E+04  0.7818609E-02  0.8323334E-01
        2   -1    0    0  501    0  0.00000000000E+00  0.00000000000E+00  0.12773444010E+04  0.12773444010E+04  0.25500000920E-02 0.  1.
       -2   -1    0    0    0  501  0.00000000000E+00  0.00000000000E+00 -0.14653703731E+04  0.14653703731E+04  0.25500000920E-02 0. -1.
    10030    2    1    2    0    0  0.00000000000E+00  0.00000000000E+00 -0.18802597206E+03  0.27427147742E+04  0.27362621523E+04 0.  0.
        5    1    3    3  502    0 -0.76846487467E+03  0.10417119335E+04 -0.53784213319E+03  0.14017839584E+04  0.46999998093E+01 0. -1.
       -5    1    3    3    0  502  0.76846487467E+03 -0.10417119335E+04  0.34981616112E+03  0.13409308157E+04  0.46999998093E+01 0.  1.
</event>
<event>
 5   0  0.3438130E-06  0.2505924E+04  0.7818609E-02  0.8400878E-01
        1   -1    0    0  501    0  0.00000000000E+00  0.00000000000E+00  0.19451591722E+04  0.19451591722E+04  0.50400001928E-02 0. -1.
       -1   -1    0    0    0  501  0.00000000000E+00  0.00000000000E+00 -0.80708762094E+03  0.80708762096E+03  0.50400001928E-02 0.  1.
    10030    2    1    2    0    0  0.00000000000E+00  0.00000000000E+00  0.11380715512E+04  0.27522467931E+04  0.25059240920E+04 0.  0.
        3    1    3    3  502    0 -0.63588353432E+03  0.96766884388E+03  0.10948237875E+04  0.15935400831E+04  0.10100000352E+00 0. -1.
       -3    1    3    3    0  502  0.63588353432E+03 -0.96766884388E+03  0.43247763765E+02  0.11587067100E+04  0.10100000352E+00 0.  1.
</event>
<event>
 5   0  0.3600963E-06  0.2513401E+04  0.7818609E-02  0.8398227E-01
       -1   -1    0    0    0  501  0.00000000000E+00  0.00000000000E+00  0.12450211585E+04  0.12450211585E+04  0.50400001928E-02 0.  1.
        1   -1    0    0  501    0  0.00000000000E+00  0.00000000000E+00 -0.12684896165E+04  0.12684896165E+04  0.50400001928E-02 0. -1.
    10030    2    1    2    0    0  0.00000000000E+00  0.00000000000E+00 -0.23468457948E+02  0.25135107750E+04  0.25134012110E+04 0.  0.
        5    1    3    3  502    0  0.28566259114E+03  0.10948276410E+04 -0.55858860908E+03  0.12618613251E+04  0.46999998093E+01 0. -1.
       -5    1    3    3    0  502 -0.28566259114E+03 -0.10948276410E+04  0.53512015113E+03  0.12516494500E+04  0.46999998093E+01 0.  1.
</event>
<event>
 5   0  0.9342133E-06  0.2789276E+04  0.7818609E-02  0.8306605E-01
       -2   -1    0    0    0  501  0.00000000000E+00  0.00000000000E+00  0.20100028209E+04  0.20100028209E+04  0.25500000920E-02 0.  1.
        2   -1    0    0  501    0  0.00000000000E+00  0.00000000000E+00 -0.96766811189E+03  0.96766811190E+03  0.25500000920E-02 0. -1.
    10030    2    1    2    0    0  0.00000000000E+00  0.00000000000E+00  0.10423347090E+04  0.29776709328E+04  0.27892763467E+04 0.  0.
        2    1    3    3  502    0 -0.77125426552E+03  0.47297761968E+03  0.16542089967E+04  0.18854570734E+04  0.25500000920E-02 0.  1.
       -2    1    3    3    0  502  0.77125426552E+03 -0.47297761968E+03 -0.61187428768E+03  0.10922138594E+04  0.25500000920E-02 0. -1.
</event>
<event>
 5   0  0.3357244E-06  0.2777319E+04  0.7818609E-02  0.8310345E-01
        1   -1    0    0  501    0  0.00000000000E+00  0.00000000000E+00  0.15263505825E+04  0.15263505825E+04  0.50400001928E-02 0. -1.
       -1   -1    0    0    0  501  0.00000000000E+00  0.00000000000E+00 -0.12633894019E+04  0.12633894019E+04  0.50400001928E-02 0.  1.
    10030    2    1    2    0    0  0.00000000000E+00  0.00000000000E+00  0.26296118066E+03  0.27897399844E+04  0.27773189586E+04 0.  0.
        4    1    3    3  502    0 -0.69187326396E+03 -0.67363970709E+03 -0.87092765048E+03  0.13003828873E+04  0.12699999809E+01 0.  1.
       -4    1    3    3    0  502  0.69187326396E+03  0.67363970709E+03  0.11338888311E+04  0.14893570971E+04  0.12699999809E+01 0. -1.
</event>
<event>
 5   0  0.9065579E-06  0.2829425E+04  0.7818609E-02  0.8294191E-01
        2   -1    0    0  501    0  0.00000000000E+00  0.00000000000E+00  0.18948444793E+04  0.18948444793E+04  0.25500000920E-02 0. -1.
       -2   -1    0    0    0  501  0.00000000000E+00  0.00000000000E+00 -0.10562406583E+04  0.10562406583E+04  0.25500000920E-02 0.  1.
    10030    2    1    2    0    0  0.00000000000E+00  0.00000000000E+00  0.83860382101E+03  0.29510851376E+04  0.28294252280E+04 0.  0.
        3    1    3    3  502    0  0.65953203657E+03  0.22854825152E+03 -0.86413467615E+03  0.11108310219E+04  0.10100000352E+00 0.  1.
       -3    1    3    3    0  502 -0.65953203657E+03 -0.22854825152E+03  0.17027384972E+04  0.18402541157E+04  0.10100000352E+00 0. -1.
</event>
<event>
 5   0  0.9252359E-06  0.2801226E+04  0.7818609E-02  0.8302888E-01
       -2   -1    0    0    0  501  0.00000000000E+00  0.00000000000E+00  0.11516230710E+04  0.11516230710E+04  0.25500000920E-02 0. -1.
        2   -1    0    0  501    0  0.00000000000E+00  0.00000000000E+00 -0.17034368359E+04  0.17034368359E+04  0.25500000920E-02 0.  1.
    10030    2    1    2    0    0  0.00000000000E+00  0.00000000000E+00 -0.55181376489E+03  0.28550599069E+04  0.28012262744E+04 0.  0.
        5    1    3    3  502    0 -0.68484939287E+03 -0.95509836863E+03 -0.10524301740E+04  0.15776130533E+04  0.46999998093E+01 0.  1.
       -5    1    3    3    0  502  0.68484939287E+03  0.95509836863E+03  0.50061640912E+03  0.12774468536E+04  0.46999998093E+01 0. -1.
</event>
<event>
 5   0  0.9260173E-06  0.2858162E+04  0.7818609E-02  0.8285435E-01
        2   -1    0    0  501    0  0.00000000000E+00  0.00000000000E+00  0.17180900418E+04  0.17180900418E+04  0.25500000920E-02 0. -1.
       -2   -1    0    0    0  501  0.00000000000E+00  0.00000000000E+00 -0.11886877255E+04  0.11886877255E+04  0.25500000920E-02 0.  1.
    10030    2    1    2    0    0  0.00000000000E+00  0.00000000000E+00  0.52940231638E+03  0.29067777673E+04  0.28581620276E+04 0.  0.
        1    1    3    3  502    0  0.94125016393E+03 -0.47908721192E+03  0.12437786967E+04  0.16317052044E+04  0.50400001928E-02 0. -1.
       -1    1    3    3    0  502 -0.94125016393E+03  0.47908721192E+03 -0.71437638035E+03  0.12750725629E+04  0.50400001928E-02 0.  1.
</event>
<event>
 5   0  0.3371603E-06  0.2707330E+04  0.7818609E-02  0.8332631E-01
        1   -1    0    0  501    0  0.00000000000E+00  0.00000000000E+00  0.11666063195E+04  0.11666063195E+04  0.50400001928E-02 0. -1.
       -1   -1    0    0    0  501  0.00000000000E+00  0.00000000000E+00 -0.15707176437E+04  0.15707176437E+04  0.50400001928E-02 0.  1.
    10030    2    1    2    0    0  0.00000000000E+00  0.00000000000E+00 -0.40411132421E+03  0.27373239632E+04  0.27073301456E+04 0.  0.
        1    1    3    3  502    0  0.82177290057E+03  0.85758733918E+03 -0.85858949418E+03  0.14655861162E+04  0.50400001928E-02 0.  1.
       -1    1    3    3    0  502 -0.82177290057E+03 -0.85758733918E+03  0.45447816997E+03  0.12717378470E+04  0.50400001928E-02 0. -1.
</event>
<event>
 5   0  0.9260173E-06  0.2793004E+04  0.7818609E-02  0.8305443E-01
       -2   -1    0    0    0  501  0.00000000000E+00  0.00000000000E+00  0.15758415121E+04  0.15758415121E+04  0.25500000920E-02 0. -1.
        2   -1    0    0  501    0  0.00000000000E+00  0.00000000000E+00 -0.12375726779E+04  0.12375726779E+04  0.25500000920E-02 0.  1.
    10030    2    1    2    0    0  0.00000000000E+00  0.00000000000E+00  0.33826883426E+03  0.28134141900E+04  0.27930044039E+04 0.  0.
        1    1    3    3  502    0 -0.11693779528E+04 -0.14218021143E+01 -0.59983883935E+03  0.13142501479E+04  0.50400001928E-02 0.  1.
       -1    1    3    3    0  502  0.11693779528E+04  0.14218021143E+01  0.93810767360E+03  0.14991640421E+04  0.50400001928E-02 0. -1.
</event>
<event>
 5   0  0.3371603E-06  0.2938414E+04  0.7818609E-02  0.8261539E-01
        1   -1    0    0  501    0  0.00000000000E+00  0.00000000000E+00  0.23166005394E+04  0.23166005394E+04  0.50400001928E-02 0.  1.
       -1   -1    0    0    0  501  0.00000000000E+00  0.00000000000E+00 -0.93178287161E+03  0.93178287162E+03  0.50400001928E-02 0. -1.
    10030    2    1    2    0    0  0.00000000000E+00  0.00000000000E+00  0.13848176678E+04  0.32483834111E+04  0.29384136557E+04 0.  0.
        1    1    3    3  502    0  0.11681369855E+04  0.62771624644E+03 -0.67610566781E+01  0.13261287324E+04  0.50400001928E-02 0. -1.
       -1    1    3    3    0  502 -0.11681369855E+04 -0.62771624644E+03  0.13915787245E+04  0.19222546786E+04  0.50400001928E-02 0.  1.
</event>
<event>
 5   0  0.9426937E-06  0.2809844E+04  0.7818609E-02  0.8300219E-01
        2   -1    0    0  501    0  0.00000000000E+00  0.00000000000E+00  0.12864465487E+04  0.12864465487E+04  0.25500000920E-02 0. -1.
       -2   -1    0    0    0  501  0.00000000000E+00  0.00000000000E+00 -0.15343085096E+04  0.15343085096E+04  0.25500000920E-02 0.  1.
    10030    2    1    2    0    0  0.00000000000E+00  0.00000000000E+00 -0.24786196090E+03  0.28207550584E+04  0.28098440433E+04 0.  0.
        4    1    3    3  502    0 -0.55063638316E+03  0.62395811717E+03  0.10124009312E+04  0.13105271522E+04  0.12699999809E+01 0. -1.
       -4    1    3    3    0  502  0.55063638316E+03 -0.62395811717E+03 -0.12602628921E+04  0.15102279061E+04  0.12699999809E+01 0.  1.
</event>
<event>
 5   0  0.3371603E-06  0.2810222E+04  0.7818609E-02  0.8300102E-01
       -1   -1    0    0    0  501  0.00000000000E+00  0.00000000000E+00  0.18791543670E+04  0.18791543671E+04  0.50400001928E-02 0. -1.
        1   -1    0    0  501    0  0.00000000000E+00  0.00000000000E+00 -0.10506514838E+04  0.10506514838E+04  0.50400001928E-02 0.  1.
    10030    2    1    2    0    0  0.00000000000E+00  0.00000000000E+00  0.82850288328E+03  0.29298058508E+04  0.28102215742E+04 0.  0.
        1    1    3    3  502    0 -0.30196042076E+03  0.12532838104E+04 -0.16849382753E+03  0.13001117548E+04  0.50400001928E-02 0. -1.
       -1    1    3    3    0  502  0.30196042076E+03 -0.12532838104E+04  0.99699671081E+03  0.16296940960E+04  0.50400001928E-02 0.  1.
</event>
<event>
 5   0  0.9252359E-06  0.2810945E+04  0.7818609E-02  0.8299879E-01
        2   -1    0    0  501    0  0.00000000000E+00  0.00000000000E+00  0.21361083336E+04  0.21361083336E+04  0.25500000920E-02 0. -1.
       -2   -1    0    0    0  501  0.00000000000E+00  0.00000000000E+00 -0.92474355369E+03  0.92474355370E+03  0.25500000920E-02 0.  1.
    10030    2    1    2    0    0  0.00000000000E+00  0.00000000000E+00  0.12113647799E+04  0.30608518873E+04  0.28109446181E+04 0.  0.
        5    1    3    3  502    0  0.24126721583E+03  0.90904238751E+02 -0.89876397246E+03  0.93502525006E+03  0.46999998093E+01 0.  1.
       -5    1    3    3    0  502 -0.24126721583E+03 -0.90904238751E+02  0.21101287524E+04  0.21258266372E+04  0.46999998093E+01 0. -1.
</event>
<event>
 5   0  0.9252359E-06  0.2775935E+04  0.7818609E-02  0.8310779E-01
        2   -1    0    0  501    0  0.00000000000E+00  0.00000000000E+00  0.19422941295E+04  0.19422941295E+04  0.25500000920E-02 0. -1.
       -2   -1    0    0    0  501  0.00000000000E+00  0.00000000000E+00 -0.99184446365E+03  0.99184446365E+03  0.25500000920E-02 0.  1.
    10030    2    1    2    0    0  0.00000000000E+00  0.00000000000E+00  0.95044966584E+03  0.29341385931E+04  0.27759349266E+04 0.  0.
        5    1    3    3  502    0  0.81431987890E+03  0.77540672039E+03 -0.38481731667E+03  0.11884775574E+04  0.46999998093E+01 0.  1.
       -5    1    3    3    0  502 -0.81431987890E+03 -0.77540672039E+03  0.13352669825E+04  0.17456610358E+04  0.46999998093E+01 0. -1.
</event>
<event>
 5   0  0.9342133E-06  0.3043578E+04  0.7818609E-02  0.8231395E-01
        2   -1    0    0  501    0  0.00000000000E+00  0.00000000000E+00  0.12934373222E+04  0.12934373222E+04  0.25500000920E-02 0. -1.
       -2   -1    0    0    0  501  0.00000000000E+00  0.00000000000E+00 -0.17904556297E+04  0.17904556297E+04  0.25500000920E-02 0.  1.
    10030    2    1    2    0    0  0.00000000000E+00  0.00000000000E+00 -0.49701830749E+03  0.30838929519E+04  0.30435782462E+04 0.  0.
        2    1    3    3  502    0 -0.11289128320E+04  0.83707176157E+03 -0.83994345770E+03  0.16372655033E+04  0.25500000920E-02 0.  1.
       -2    1    3    3    0  502  0.11289128320E+04 -0.83707176157E+03  0.34292515020E+03  0.14466274485E+04  0.25500000920E-02 0. -1.
</event>
<event>
 5   0  0.9342133E-06  0.2778175E+04  0.7818609E-02  0.8310076E-01
        2   -1    0    0  501    0  0.00000000000E+00  0.00000000000E+00  0.16460788948E+04  0.16460788948E+04  0.25500000920E-02 0.  1.
       -2   -1    0    0    0  501  0.00000000000E+00  0.00000000000E+00 -0.11722184287E+04  0.11722184287E+04  0.25500000920E-02 0. -1.
    10030    2    1    2    0    0  0.00000000000E+00  0.00000000000E+00  0.47386046613E+03  0.28182973235E+04  0.27781749517E+04 0.  0.
        2    1    3    3  502    0  0.47029415319E+03 -0.90940927410E+03 -0.71543695973E+03  0.12490203608E+04  0.25500000920E-02 0. -1.
       -2    1    3    3    0  502 -0.47029415319E+03  0.90940927410E+03  0.11892974259E+04  0.15692769627E+04  0.25500000920E-02 0.  1.
</event>
<event>
 5   0  0.9260173E-06  0.2808505E+04  0.7818609E-02  0.8300633E-01
       -2   -1    0    0    0  501  0.00000000000E+00  0.00000000000E+00  0.12489786601E+04  0.12489786601E+04  0.25500000920E-02 0.  1.
        2   -1    0    0  501    0  0.00000000000E+00  0.00000000000E+00 -0.15788298165E+04  0.15788298165E+04  0.25500000920E-02 0. -1.
    10030    2    1    2    0    0  0.00000000000E+00  0.00000000000E+00 -0.32985115641E+03  0.28278084765E+04  0.28085047614E+04 0.  0.
        1    1    3    3  502    0 -0.81881005587E+03  0.93086150539E+03  0.49913137406E+03  0.13364449777E+04  0.50400001928E-02 0.  1.
       -1    1    3    3    0  502  0.81881005587E+03 -0.93086150539E+03 -0.82898253047E+03  0.14913634988E+04  0.50400001928E-02 0. -1.
</event>
<event>
 5   0  0.3600963E-06  0.2796479E+04  0.7818609E-02  0.8304362E-01
        1   -1    0    0  501    0  0.00000000000E+00  0.00000000000E+00  0.16668211815E+04  0.16668211815E+04  0.50400001928E-02 0.  1.
       -1   -1    0    0    0  501  0.00000000000E+00  0.00000000000E+00 -0.11729355485E+04  0.11729355485E+04  0.50400001928E-02 0. -1.
    10030    2    1    2    0    0  0.00000000000E+00  0.00000000000E+00  0.49388563294E+03  0.28397567300E+04  0.27964790840E+04 0.  0.
        5    1    3    3  502    0 -0.49599142630E+03  0.93695838207E+03 -0.67884211662E+03  0.12588674330E+04  0.46999998093E+01 0. -1.
       -5    1    3    3    0  502  0.49599142630E+03 -0.93695838207E+03  0.11727277496E+04  0.15808892970E+04  0.46999998093E+01 0.  1.
</event>
<event>
 5   0  0.3438130E-06  0.2775510E+04  0.7818609E-02  0.8310912E-01
       -1   -1    0    0    0  501  0.00000000000E+00  0.00000000000E+00  0.17916425976E+04  0.17916425976E+04  0.50400001928E-02 0.  1.
        1   -1    0    0  501    0  0.00000000000E+00  0.00000000000E+00 -0.10749152609E+04  0.10749152609E+04  0.50400001928E-02 0. -1.
    10030    2    1    2    0    0  0.00000000000E+00  0.00000000000E+00  0.71672733668E+03  0.28665578585E+04  0.27755100218E+04 0.  0.
        3    1    3    3  502    0  0.33780563244E+03  0.40511777869E+03 -0.96734432937E+03  0.11018112913E+04  0.10100000352E+00 0. -1.
       -3    1    3    3    0  502 -0.33780563244E+03 -0.40511777869E+03  0.16840716660E+04  0.17647465672E+04  0.10100000352E+00 0.  1.
</event>
<event>
 5   0  0.9065579E-06  0.2780267E+04  0.7818609E-02  0.8309421E-01
       -2   -1    0    0    0  501  0.00000000000E+00  0.00000000000E+00  0.10363249241E+04  0.10363249241E+04  0.25500000920E-02 0.  1.
        2   -1    0    0  501    0  0.00000000000E+00  0.00000000000E+00 -0.18647354574E+04  0.18647354574E+04  0.25500000920E-02 0. -1.
    10030    2    1    2    0    0  0.00000000000E+00  0.00000000000E+00 -0.82841053322E+03  0.29010603815E+04  0.27802674917E+04 0.  0.
        3    1    3    3  502    0  0.70778161319E+03  0.65846337398E+03  0.62816749262E+03  0.11528760713E+04  0.10100000352E+00 0.  1.
       -3    1    3    3    0  502 -0.70778161319E+03 -0.65846337398E+03 -0.14565780258E+04  0.17481843102E+04  0.10100000352E+00 0. -1.
</event>
<event>
 5   0  0.3371603E-06  0.2809179E+04  0.7818609E-02  0.8300424E-01
        1   -1    0    0  501    0  0.00000000000E+00  0.00000000000E+00  0.15997732566E+04  0.15997732566E+04  0.50400001928E-02 0. -1.
       -1   -1    0    0    0  501  0.00000000000E+00  0.00000000000E+00 -0.12332198154E+04  0.12332198154E+04  0.50400001928E-02 0.  1.
    10030    2    1    2    0    0  0.00000000000E+00  0.00000000000E+00  0.36655344121E+03  0.28329930721E+04  0.28091792967E+04 0.  0.
        1    1    3    3  502    0  0.11839283951E+04  0.23241992547E+03 -0.54196251893E+03  0.13226597591E+04  0.50400001928E-02 0.  1.
       -1    1    3    3    0  502 -0.11839283951E+04 -0.23241992547E+03  0.90851596014E+03  0.15103333130E+04  0.50400001928E-02 0. -1.
</event>
<event>
 5   0  0.9342133E-06  0.2928381E+04  0.7818609E-02  0.8264483E-01
       -2   -1    0    0    0  501  0.00000000000E+00  0.00000000000E+00  0.18170438688E+04  0.18170438688E+04  0.25500000920E-02 0. -1.
        2   -1    0    0  501    0  0.00000000000E+00  0.00000000000E+00 -0.11798582172E+04  0.11798582172E+04  0.25500000920E-02 0.  1.
    10030    2    1    2    0    0  0.00000000000E+00  0.00000000000E+00  0.63718565153E+03  0.29969020860E+04  0.29283812181E+04 0.  0.
        2    1    3    3  502    0  0.13267282579E+04 -0.40698100098E+03 -0.15925088242E+03  0.13968544123E+04  0.25500000920E-02 0.  1.
       -2    1    3    3    0  502 -0.13267282579E+04  0.40698100098E+03  0.79643653395E+03  0.16000476737E+04  0.25500000920E-02 0. -1.
</event>
<event>
 5   0  0.3357244E-06  0.2759500E+04  0.7818609E-02  0.8315953E-01
       -1   -1    0    0    0  501  0.00000000000E+00  0.00000000000E+00  0.14622939128E+04  0.14622939128E+04  0.50400001928E-02 0.  1.
        1   -1    0    0  501    0  0.00000000000E+00  0.00000000000E+00 -0.13018659446E+04  0.13018659446E+04  0.50400001928E-02 0. -1.
    10030    2    1    2    0    0  0.00000000000E+00  0.00000000000E+00  0.16042796818E+03  0.27641598574E+04  0.27595004230E+04 0.  0.
        4    1    3    3  502    0 -0.10469296281E+04  0.59636207443E+02  0.97843924967E+03  0.14342116656E+04  0.12699999809E+01 0.  1.
       -4    1    3    3    0  502  0.10469296281E+04 -0.59636207443E+02 -0.81801128149E+03  0.13299481919E+04  0.12699999809E+01 0. -1.
</event>
<event>
 5   0  0.3371603E-06  0.2729242E+04  0.7818609E-02  0.8325579E-01
       -1   -1    0    0    0  501  0.00000000000E+00  0.00000000000E+00  0.19863827526E+04  0.19863827526E+04  0.50400001928E-02 0.  1.
        1   -1    0    0  501    0  0.00000000000E+00  0.00000000000E+00 -0.93747786632E+03  0.93747786634E+03  0.50400001928E-02 0. -1.
    10030    2    1    2    0    0  0.00000000000E+00  0.00000000000E+00  0.10489048863E+04  0.29238606189E+04  0.27292415537E+04 0.  0.
        1    1    3    3  502    0  0.76916781179E+03  0.79338719970E+02 -0.68012758015E+03  0.10297996312E+04  0.50400001928E-02 0. -1.
       -1    1    3    3    0  502 -0.76916781179E+03 -0.79338719970E+02  0.17290324664E+04  0.18940609877E+04  0.50400001928E-02 0.  1.
</event>
<event>
 5   0  0.3397882E-06  0.2823094E+04  0.7818609E-02  0.8296134E-01
        1   -1    0    0  501    0  0.00000000000E+00  0.00000000000E+00  0.19125680517E+04  0.19125680518E+04  0.50400001928E-02 0.  1.
       -1   -1    0    0    0  501  0.00000000000E+00  0.00000000000E+00 -0.10417744653E+04  0.10417744653E+04  0.50400001928E-02 0. -1.
    10030    2    1    2    0    0  0.00000000000E+00  0.00000000000E+00  0.87079358644E+03  0.29543425171E+04  0.28230937352E+04 0.  0.
        2    1    3    3  502    0 -0.10965053645E+04 -0.61590018499E+03  0.11061376049E+04  0.16748723692E+04  0.25500000920E-02 0.  1.
       -2    1    3    3    0  502  0.10965053645E+04  0.61590018499E+03 -0.23534401847E+03  0.12794701478E+04  0.25500000920E-02 0. -1.
</event>
<event>
 5   0  0.3600963E-06  0.2751686E+04  0.7818609E-02  0.8318427E-01
       -1   -1    0    0    0  501  0.00000000000E+00  0.00000000000E+00  0.10084438860E+04  0.10084438860E+04  0.50400001928E-02 0. -1.
        1   -1    0    0  501    0  0.00000000000E+00  0.00000000000E+00 -0.18770940901E+04  0.18770940901E+04  0.50400001928E-02 0.  1.
    10030    2    1    2    0    0  0.00000000000E+00  0.00000000000E+00 -0.86865020406E+03  0.28855379761E+04  0.27516860712E+04 0.  0.
        5    1    3    3  502    0 -0.60276303485E+03 -0.96598637479E+03 -0.12442073010E+04  0.16865725156E+04  0.46999998093E+01 0.  1.
       -5    1    3    3    0  502  0.60276303485E+03  0.96598637479E+03  0.37555709694E+03  0.11989654605E+04  0.46999998093E+01 0. -1.
</event>
<event>
 5   0  0.9426937E-06  0.2814619E+04  0.7818609E-02  0.8298744E-01
       -2   -1    0    0    0  501  0.00000000000E+00  0.00000000000E+00  0.94142826672E+03  0.94142826673E+03  0.25500000920E-02 0. -1.
        2   -1    0    0  501    0  0.00000000000E+00  0.00000000000E+00 -0.21037400098E+04  0.21037400098E+04  0.25500000920E-02 0.  1.
    10030    2    1    2    0    0  0.00000000000E+00  0.00000000000E+00 -0.11623117431E+04  0.30451682765E+04  0.28146192006E+04 0.  0.
        4    1    3    3  502    0  0.58094276122E+03  0.94348742000E+03  0.35758887747E+03  0.11642742038E+04  0.12699999809E+01 0. -1.
       -4    1    3    3    0  502 -0.58094276122E+03 -0.94348742000E+03 -0.15199006206E+04  0.18808940727E+04  0.12699999809E+01 0.  1.
</event>
<event>
 5   0  0.9426937E-06  0.2794874E+04  0.7818609E-02  0.8304862E-01
       -2   -1    0    0    0  501  0.00000000000E+00  0.00000000000E+00  0.11029580377E+04  0.11029580377E+04  0.25500000920E-02 0. -1.
        2   -1    0    0  501    0  0.00000000000E+00  0.00000000000E+00 -0.17705383326E+04  0.17705383326E+04  0.25500000920E-02 0.  1.
    10030    2    1    2    0    0  0.00000000000E+00  0.00000000000E+00 -0.66758029488E+03  0.28734963703E+04  0.27948735105E+04 0.  0.
        4    1    3    3  502    0  0.94612299982E+03  0.25233771736E+03 -0.13588346954E+04  0.16748899655E+04  0.12699999809E+01 0.  1.
       -4    1    3    3    0  502 -0.94612299982E+03 -0.25233771736E+03  0.69125440049E+03  0.11986064047E+04  0.12699999809E+01 0. -1.
</event>
<event>
 5   0  0.3397882E-06  0.2811328E+04  0.7818609E-02  0.8299760E-01
       -1   -1    0    0    0  501  0.00000000000E+00  0.00000000000E+00  0.10280094314E+04  0.10280094314E+04  0.50400001928E-02 0.  1.
        1   -1    0    0  501    0  0.00000000000E+00  0.00000000000E+00 -0.19220551251E+04  0.19220551251E+04  0.50400001928E-02 0. -1.
    10030    2    1    2    0    0  0.00000000000E+00  0.00000000000E+00 -0.89404569375E+03  0.29500645565E+04  0.28113276552E+04 0.  0.
        2    1    3    3  502    0  0.42798908128E+03  0.15785200746E+03 -0.18422228963E+04  0.18978611934E+04  0.25500000920E-02 0. -1.
       -2    1    3    3    0  502 -0.42798908128E+03 -0.15785200746E+03  0.94817720250E+03  0.10522033631E+04  0.25500000920E-02 0.  1.
</event>
<event>
 5   0  0.9426937E-06  0.2797919E+04  0.7818609E-02  0.8303915E-01
       -2   -1    0    0    0  501  0.00000000000E+00  0.00000000000E+00  0.92734822880E+03  0.92734822880E+03  0.25500000920E-02 0. -1.
        2   -1    0    0  501    0  0.00000000000E+00  0.00000000000E+00 -0.21104126642E+04  0.21104126642E+04  0.25500000920E-02 0.  1.
    10030    2    1    2    0    0  0.00000000000E+00  0.00000000000E+00 -0.11830644354E+04  0.30377608930E+04  0.27979188310E+04 0.  0.
        4    1    3    3  502    0  0.13321618407E+03 -0.36394811654E+03 -0.20509621770E+04  0.20872595065E+04  0.12699999809E+01 0.  1.
       -4    1    3    3    0  502 -0.13321618407E+03  0.36394811654E+03  0.86789774151E+03  0.95050138655E+03  0.12699999809E+01 0. -1.
</event>
<event>
 5   0  0.9260173E-06  0.2550059E+04  0.7818609E-02  0.8385366E-01
       -2   -1    0    0    0  501  0.00000000000E+00  0.00000000000E+00  0.77517969424E+03  0.77517969424E+03  0.25500000920E-02 0.  1.
        2   -1    0    0  501    0  0.00000000000E+00  0.00000000000E+00 -0.20971912098E+04  0.20971912098E+04  0.25500000920E-02 0. -1.
    10030    2    1    2    0    0  0.00000000000E+00  0.00000000000E+00 -0.13220115156E+04  0.28723709040E+04  0.25500588548E+04 0.  0.
        1    1    3    3  502    0  0.34794450430E+03  0.70334747894E+03 -0.17929823691E+04  0.19571787936E+04  0.50400001928E-02 0. -1.
       -1    1    3    3    0  502 -0.34794450430E+03 -0.70334747894E+03  0.47097085350E+03  0.91519211048E+03  0.50400001928E-02 0.  1.
</event>
<event>
 5   0  0.9426937E-06  0.2793837E+04  0.7818609E-02  0.8305184E-01
        2   -1    0    0  501    0  0.00000000000E+00  0.00000000000E+00  0.22160928947E+04  0.22160928947E+04  0.25500000920E-02 0.  1.
       -2   -1    0    0    0  501  0.00000000000E+00  0.00000000000E+00 -0.88055056607E+03  0.88055056608E+03  0.25500000920E-02 0. -1.
    10030    2    1    2    0    0  0.00000000000E+00  0.00000000000E+00  0.13355423287E+04  0.30966434608E+04  0.27938373990E+04 0.  0.
        4    1    3    3  502    0  0.30091563565E+03 -0.13619140072E+04  0.75377099618E+03  0.15854123471E+04  0.12699999809E+01 0.  1.
       -4    1    3    3    0  502 -0.30091563565E+03  0.13619140072E+04  0.58177133249E+03  0.15112311137E+04  0.12699999809E+01 0. -1.
</event>
<event>
 5   0  0.3600963E-06  0.2826566E+04  0.7818609E-02  0.8295068E-01
       -1   -1    0    0    0  501  0.00000000000E+00  0.00000000000E+00  0.15456697479E+04  0.15456697479E+04  0.50400001928E-02 0. -1.
        1   -1    0    0  501    0  0.00000000000E+00  0.00000000000E+00 -0.12922351192E+04  0.12922351192E+04  0.50400001928E-02 0.  1.
    10030    2    1    2    0    0  0.00000000000E+00  0.00000000000E+00  0.25343462871E+03  0.28379048671E+04  0.28265659241E+04 0.  0.
        5    1    3    3  502    0  0.11838896730E+04 -0.76223721112E+03  0.24863887001E+03  0.14298404462E+04  0.46999998093E+01 0.  1.
       -5    1    3    3    0  502 -0.11838896730E+04  0.76223721112E+03  0.47957587067E+01  0.14080644209E+04  0.46999998093E+01 0. -1.
</event>
<event>
 5   0  0.9252359E-06  0.2774623E+04  0.7818609E-02  0.8311190E-01
       -2   -1    0    0    0  501  0.00000000000E+00  0.00000000000E+00  0.12652418544E+04  0.12652418544E+04  0.25500000920E-02 0. -1.
        2   -1    0    0  501    0  0.00000000000E+00  0.00000000000E+00 -0.15211584906E+04  0.15211584906E+04  0.25500000920E-02 0.  1.
    10030    2    1    2    0    0  0.00000000000E+00  0.00000000000E+00 -0.25591663622E+03  0.27864003449E+04  0.27746231379E+04 0.  0.
        5    1    3    3  502    0  0.38734061513E+03  0.12464048641E+04 -0.60011720914E+03  0.14365655544E+04  0.46999998093E+01 0.  1.
       -5    1    3    3    0  502 -0.38734061513E+03 -0.12464048641E+04  0.34420057292E+03  0.13498347905E+04  0.46999998093E+01 0. -1.
</event>
<event>
 5   0  0.3600963E-06  0.2791525E+04  0.7818609E-02  0.8305904E-01
        1   -1    0    0  501    0  0.00000000000E+00  0.00000000000E+00  0.19472678572E+04  0.19472678572E+04  0.50400001928E-02 0.  1.
       -1   -1    0    0    0  501  0.00000000000E+00  0.00000000000E+00 -0.10004547807E+04  0.10004547807E+04  0.50400001928E-02 0. -1.
    10030    2    1    2    0    0  0.00000000000E+00  0.00000000000E+00  0.94681307655E+03  0.29477226379E+04  0.27915253444E+04 0.  0.
        5    1    3    3  502    0 -0.60787774607E+03  0.58869032011E+03 -0.69868334573E+03  0.10973842330E+04  0.46999998093E+01 0. -1.
       -5    1    3    3    0  502  0.60787774607E+03 -0.58869032011E+03  0.16454964223E+04  0.18503384050E+04  0.46999998093E+01 0.  1.
</event>
<event>
 5   0  0.3438130E-06  0.2779721E+04  0.7818609E-02  0.8309592E-01
       -1   -1    0    0    0  501  0.00000000000E+00  0.00000000000E+00  0.12489901671E+04  0.12489901671E+04  0.50400001928E-02 0.  1.
        1   -1    0    0  501    0  0.00000000000E+00  0.00000000000E+00 -0.15466195853E+04  0.15466195853E+04  0.50400001928E-02 0. -1.
    10030    2    1    2    0    0  0.00000000000E+00  0.00000000000E+00 -0.29762941817E+03  0.27956097524E+04  0.27797213201E+04 0.  0.
        3    1    3    3  502    0 -0.45462095660E+03 -0.59291827976E+03  0.10298397755E+04  0.12723216080E+04  0.10100000352E+00 0.  1.
       -3    1    3    3    0  502  0.45462095660E+03  0.59291827976E+03 -0.13274691937E+04  0.15232881445E+04  0.10100000352E+00 0. -1.
</event>
<event>
 5   0  0.9252359E-06  0.2795266E+04  0.7818609E-02  0.8304740E-01
        2   -1    0    0  501    0  0.00000000000E+00  0.00000000000E+00  0.18690606991E+04  0.18690606991E+04  0.25500000920E-02 0. -1.
       -2   -1    0    0    0  501  0.00000000000E+00  0.00000000000E+00 -0.10451118363E+04  0.10451118363E+04  0.25500000920E-02 0.  1.
    10030    2    1    2    0    0  0.00000000000E+00  0.00000000000E+00  0.82394886282E+03  0.29141725354E+04  0.27952656112E+04 0.  0.
        5    1    3    3  502    0 -0.34407299252E+03  0.10433609445E+04 -0.48870121194E+03  0.12024305590E+04  0.46999998093E+01 0.  1.
       -5    1    3    3    0  502  0.34407299252E+03 -0.10433609445E+04  0.13126500748E+04  0.17117419763E+04  0.46999998093E+01 0. -1.
</event>
<event>
 5   0  0.3371603E-06  0.2799067E+04  0.7818609E-02  0.8303558E-01
       -1   -1    0    0    0  501  0.00000000000E+00  0.00000000000E+00  0.92239400847E+03  0.92239400848E+03  0.50400001928E-02 0. -1.
        1   -1    0    0  501    0  0.00000000000E+00  0.00000000000E+00 -0.21234902459E+04  0.21234902459E+04  0.50400001928E-02 0.  1.
    10030    2    1    2    0    0  0.00000000000E+00  0.00000000000E+00 -0.12010962374E+04  0.30458842544E+04  0.27990674732E+04 0.  0.
        1    1    3    3  502    0  0.13320280814E+04 -0.21154433992E+03 -0.10071903779E+04  0.16832950647E+04  0.50400001928E-02 0.  1.
       -1    1    3    3    0  502 -0.13320280814E+04  0.21154433992E+03 -0.19390585952E+03  0.13625891897E+04  0.50400001928E-02 0. -1.
</event>
<event>
 5   0  0.3357244E-06  0.2768133E+04  0.7818609E-02  0.8313231E-01
       -1   -1    0    0    0  501  0.00000000000E+00  0.00000000000E+00  0.95169991605E+03  0.95169991607E+03  0.50400001928E-02 0.  1.
        1   -1    0    0  501    0  0.00000000000E+00  0.00000000000E+00 -0.20128609839E+04  0.20128609839E+04  0.50400001928E-02 0. -1.
    10030    2    1    2    0    0  0.00000000000E+00  0.00000000000E+00 -0.10611610679E+04  0.29645609000E+04  0.27681326771E+04 0.  0.
        4    1    3    3  502    0  0.31429264221E+03  0.82209890449E+03 -0.16745606956E+04  0.18917667959E+04  0.12699999809E+01 0. -1.
       -4    1    3    3    0  502 -0.31429264221E+03 -0.82209890449E+03  0.61339962772E+03  0.10727941042E+04  0.12699999809E+01 0.  1.
</event>
<event>
 5   0  0.3600963E-06  0.2935051E+04  0.7818609E-02  0.8262524E-01
       -1   -1    0    0    0  501  0.00000000000E+00  0.00000000000E+00  0.13379701883E+04  0.13379701883E+04  0.50400001928E-02 0. -1.
        1   -1    0    0  501    0  0.00000000000E+00  0.00000000000E+00 -0.16096257400E+04  0.16096257400E+04  0.50400001928E-02 0.  1.
    10030    2    1    2    0    0  0.00000000000E+00  0.00000000000E+00 -0.27165555173E+03  0.29475959284E+04  0.29350511100E+04 0.  0.
        5    1    3    3  502    0  0.14620810575E+04  0.90648187765E+02 -0.47639857320E+02  0.14656704127E+04  0.46999998093E+01 0.  1.
       -5    1    3    3    0  502 -0.14620810575E+04 -0.90648187765E+02 -0.22401569441E+03  0.14819255157E+04  0.46999998093E+01 0. -1.
</event>
<event>
 5   0  0.3371603E-06  0.2799737E+04  0.7818609E-02  0.8303350E-01
        1   -1    0    0  501    0  0.00000000000E+00  0.00000000000E+00  0.20660105276E+04  0.20660105276E+04  0.50400001928E-02 0.  1.
       -1   -1    0    0    0  501  0.00000000000E+00  0.00000000000E+00 -0.94850995011E+03  0.94850995013E+03  0.50400001928E-02 0. -1.
    10030    2    1    2    0    0  0.00000000000E+00  0.00000000000E+00  0.11175005775E+04  0.30145204778E+04  0.27997368037E+04 0.  0.
        1    1    3    3  502    0 -0.12197907401E+04 -0.49477284838E+03  0.10716806373E+04  0.16974065540E+04  0.50400001928E-02 0. -1.
       -1    1    3    3    0  502  0.12197907401E+04  0.49477284838E+03  0.45819940253E+02  0.13171139238E+04  0.50400001928E-02 0.  1.
</event>
<event>
 5   0  0.3371603E-06  0.2818758E+04  0.7818609E-02  0.8297468E-01
        1   -1    0    0  501    0  0.00000000000E+00  0.00000000000E+00  0.23137394594E+04  0.23137394594E+04  0.50400001928E-02 0.  1.
       -1   -1    0    0    0  501  0.00000000000E+00  0.00000000000E+00 -0.85850186485E+03  0.85850186486E+03  0.50400001928E-02 0. -1.
    10030    2    1    2    0    0  0.00000000000E+00  0.00000000000E+00  0.14552375946E+04  0.31722413243E+04  0.28187583371E+04 0.  0.
        1    1    3    3  502    0  0.12523576823E+04  0.59388330245E+03  0.44013925170E+03  0.14542419683E+04  0.50400001928E-02 0. -1.
       -1    1    3    3    0  502 -0.12523576823E+04 -0.59388330245E+03  0.10150983429E+04  0.17179993560E+04  0.50400001928E-02 0.  1.
</event>
<event>
 5   0  0.9426937E-06  0.2769619E+04  0.7818609E-02  0.8312763E-01
       -2   -1    0    0    0  501  0.00000000000E+00  0.00000000000E+00  0.13114528169E+04  0.13114528169E+04  0.25500000920E-02 0. -1.
        2   -1    0    0  501    0  0.00000000000E+00  0.00000000000E+00 -0.14622693939E+04  0.14622693939E+04  0.25500000920E-02 0.  1.
    10030    2    1    2    0    0  0.00000000000E+00  0.00000000000E+00 -0.15081657706E+03  0.27737222108E+04  0.27696189743E+04 0.  0.
        4    1    3    3  502    0  0.93945818901E+03 -0.28771383259E+03 -0.10527304740E+04  0.14400013897E+04  0.12699999809E+01 0.  1.
       -4    1    3    3    0  502 -0.93945818901E+03  0.28771383259E+03  0.90191389697E+03  0.13337208212E+04  0.12699999809E+01 0. -1.
</event>
<event>
 5   0  0.3357244E-06  0.2791631E+04  0.7818609E-02  0.8305871E-01
        1   -1    0    0  501    0  0.00000000000E+00  0.00000000000E+00  0.23025441664E+04  0.23025441664E+04  0.50400001928E-02 0. -1.
       -1   -1    0    0    0  501  0.00000000000E+00  0.00000000000E+00 -0.84615134429E+03  0.84615134430E+03  0.50400001928E-02 0.  1.
    10030    2    1    2    0    0  0.00000000000E+00  0.00000000000E+00  0.14563928221E+04  0.31486955107E+04  0.27916309511E+04 0.  0.
        4    1    3    3  502    0  0.40023180098E+03  0.74767040645E+03 -0.52225478457E+03  0.99596596533E+03  0.12699999809E+01 0.  1.
       -4    1    3    3    0  502 -0.40023180098E+03 -0.74767040645E+03  0.19786476067E+04  0.21527295454E+04  0.12699999809E+01 0. -1.
</event>
<event>
 5   0  0.3371603E-06  0.2783916E+04  0.7818609E-02  0.8308279E-01
        1   -1    0    0  501    0  0.00000000000E+00  0.00000000000E+00  0.13547432289E+04  0.13547432289E+04  0.50400001928E-02 0.  1.
       -1   -1    0    0    0  501  0.00000000000E+00  0.00000000000E+00 -0.14301947339E+04  0.14301947339E+04  0.50400001928E-02 0. -1.
    10030    2    1    2    0    0  0.00000000000E+00  0.00000000000E+00 -0.75451504981E+02  0.27849379628E+04  0.27839156825E+04 0.  0.
        1    1    3    3  502    0  0.35893504714E+03  0.31626605110E+03  0.12699222017E+04  0.13570412600E+04  0.50400001928E-02 0.  1.
       -1    1    3    3    0  502 -0.35893504714E+03 -0.31626605110E+03 -0.13453737067E+04  0.14278967028E+04  0.50400001928E-02 0. -1.
</event>
<event>
 5   0  0.3438130E-06  0.2800371E+04  0.7818609E-02  0.8303153E-01
        1   -1    0    0  501    0  0.00000000000E+00  0.00000000000E+00  0.20950598732E+04  0.20950598732E+04  0.50400001928E-02 0. -1.
       -1   -1    0    0    0  501  0.00000000000E+00  0.00000000000E+00 -0.93578184490E+03  0.93578184491E+03  0.50400001928E-02 0.  1.
    10030    2    1    2    0    0  0.00000000000E+00  0.00000000000E+00  0.11592780283E+04  0.30308417181E+04  0.28003706850E+04 0.  0.
        3    1    3    3  502    0  0.91369949988E+03 -0.22657186550E+03  0.17014458458E+04  0.19445049660E+04  0.10100000352E+00 0. -1.
       -3    1    3    3    0  502 -0.91369949988E+03  0.22657186550E+03 -0.54216781756E+03  0.10863367521E+04  0.10100000352E+00 0.  1.
</event>
<event>
 5   0  0.3600963E-06  0.2870170E+04  0.7818609E-02  0.8281808E-01
        1   -1    0    0  501    0  0.00000000000E+00  0.00000000000E+00  0.15736904908E+04  0.15736904908E+04  0.50400001928E-02 0. -1.
       -1   -1    0    0    0  501  0.00000000000E+00  0.00000000000E+00 -0.13086878208E+04  0.13086878208E+04  0.50400001928E-02 0.  1.
    10030    2    1    2    0    0  0.00000000000E+00  0.00000000000E+00  0.26500267005E+03  0.28823783116E+04  0.28701704333E+04 0.  0.
        5    1    3    3  502    0  0.83759599895E+03 -0.46199276357E+03  0.12068380083E+04  0.15399624798E+04  0.46999998093E+01 0. -1.
       -5    1    3    3    0  502 -0.83759599895E+03  0.46199276357E+03 -0.94183533824E+03  0.13424158318E+04  0.46999998093E+01 0.  1.
</event>
<event>
 5   0  0.9426937E-06  0.2787376E+04  0.7818609E-02  0.8307198E-01
       -2   -1    0    0    0  501  0.00000000000E+00  0.00000000000E+00  0.10171522201E+04  0.10171522201E+04  0.25500000920E-02 0.  1.
        2   -1    0    0  501    0  0.00000000000E+00  0.00000000000E+00 -0.19096120701E+04  0.19096120701E+04  0.25500000920E-02 0. -1.
    10030    2    1    2    0    0  0.00000000000E+00  0.00000000000E+00 -0.89245984993E+03  0.29267642902E+04  0.27873759393E+04 0.  0.
        4    1    3    3  502    0  0.95123820208E+03  0.67888422105E+03  0.35110273250E+03  0.12202510579E+04  0.12699999809E+01 0.  1.
       -4    1    3    3    0  502 -0.95123820208E+03 -0.67888422105E+03 -0.12435625824E+04  0.17065132323E+04  0.12699999809E+01 0. -1.
</event>
<event>
 5   0  0.3397882E-06  0.2806584E+04  0.7818609E-02  0.8301227E-01
       -1   -1    0    0    0  501  0.00000000000E+00  0.00000000000E+00  0.17014707952E+04  0.17014707952E+04  0.50400001928E-02 0. -1.
        1   -1    0    0  501    0  0.00000000000E+00  0.00000000000E+00 -0.11573686690E+04  0.11573686690E+04  0.50400001928E-02 0.  1.
    10030    2    1    2    0    0  0.00000000000E+00  0.00000000000E+00  0.54410212623E+03  0.28588394642E+04  0.28065843936E+04 0.  0.
        2    1    3    3  502    0  0.38106959490E+03  0.38169798302E+03  0.15916721753E+04  0.16805736223E+04  0.25500000920E-02 0. -1.
       -2    1    3    3    0  502 -0.38106959490E+03 -0.38169798302E+03 -0.10475700491E+04  0.11782658419E+04  0.25500000920E-02 0.  1.
</event>
<event>
 5   0  0.3357244E-06  0.2805512E+04  0.7818609E-02  0.8301559E-01
        1   -1    0    0  501    0  0.00000000000E+00  0.00000000000E+00  0.16873958308E+04  0.16873958308E+04  0.50400001928E-02 0. -1.
       -1   -1    0    0    0  501  0.00000000000E+00  0.00000000000E+00 -0.11661307997E+04  0.11661307998E+04  0.50400001928E-02 0.  1.
    10030    2    1    2    0    0  0.00000000000E+00  0.00000000000E+00  0.52126503105E+03  0.28535266306E+04  0.28055118960E+04 0.  0.
        4    1    3    3  502    0 -0.89924209185E+03 -0.54243767215E+03  0.12065203176E+04  0.15995523929E+04  0.12699999809E+01 0. -1.
       -4    1    3    3    0  502  0.89924209185E+03  0.54243767215E+03 -0.68525528659E+03  0.12539742376E+04  0.12699999809E+01 0.  1.
</event>
<event>
 5   0  0.9426937E-06  0.2780090E+04  0.7818609E-02  0.8309476E-01
       -2   -1    0    0    0  501  0.00000000000E+00  0.00000000000E+00  0.10254812527E+04  0.10254812527E+04  0.25500000920E-02 0.  1.
        2   -1    0    0  501    0  0.00000000000E+00  0.00000000000E+00 -0.18842131405E+04  0.18842131405E+04  0.25500000920E-02 0. -1.
    10030    2    1    2    0    0  0.00000000000E+00  0.00000000000E+00 -0.85873188785E+03  0.29096943932E+04  0.27800901076E+04 0.  0.
        4    1    3    3  502    0  0.12343320749E+04 -0.46895231158E+03 -0.88405125839E+03  0.15890375017E+04  0.12699999809E+01 0. -1.
       -4    1    3    3    0  502 -0.12343320749E+04  0.46895231158E+03  0.25319370537E+02  0.13206568915E+04  0.12699999809E+01 0.  1.
</event>
<event>
 5   0  0.9252359E-06  0.2792993E+04  0.7818609E-02  0.8305447E-01
       -2   -1    0    0    0  501  0.00000000000E+00  0.00000000000E+00  0.10575613079E+04  0.10575613079E+04  0.25500000920E-02 0. -1.
        2   -1    0    0  501    0  0.00000000000E+00  0.00000000000E+00 -0.18440555641E+04  0.18440555641E+04  0.25500000920E-02 0.  1.
    10030    2    1    2    0    0  0.00000000000E+00  0.00000000000E+00 -0.78649425616E+03  0.29016168720E+04  0.27929925272E+04 0.  0.
        5    1    3    3  502    0  0.10680264593E+04  0.68027112101E+03 -0.10049862561E+04  0.16166226464E+04  0.46999998093E+01 0.  1.
       -5    1    3    3    0  502 -0.10680264593E+04 -0.68027112101E+03  0.21849199994E+03  0.12849942256E+04  0.46999998093E+01 0. -1.
</event>
<event>
 5   0  0.3357244E-06  0.2820169E+04  0.7818609E-02  0.8297034E-01
       -1   -1    0    0    0  501  0.00000000000E+00  0.00000000000E+00  0.13723952988E+04  0.13723952989E+04  0.50400001928E-02 0. -1.
        1   -1    0    0  501    0  0.00000000000E+00  0.00000000000E+00 -0.14488083374E+04  0.14488083374E+04  0.50400001928E-02 0.  1.
    10030    2    1    2    0    0  0.00000000000E+00  0.00000000000E+00 -0.76413038546E+02  0.28212036363E+04  0.28201686128E+04 0.  0.
        4    1    3    3  502    0  0.98959534403E+02  0.12627127291E+04  0.58177872206E+03  0.13938093557E+04  0.12699999809E+01 0. -1.
       -4    1    3    3    0  502 -0.98959534403E+02 -0.12627127291E+04 -0.65819176060E+03  0.14273942806E+04  0.12699999809E+01 0.  1.
</event>
<event>
 5   0  0.9426937E-06  0.2816418E+04  0.7818609E-02  0.8298189E-01
        2   -1    0    0  501    0  0.00000000000E+00  0.00000000000E+00  0.19752729432E+04  0.19752729432E+04  0.25500000920E-02 0.  1.
       -2   -1    0    0    0  501  0.00000000000E+00  0.00000000000E+00 -0.10039383630E+04  0.10039383630E+04  0.25500000920E-02 0. -1.
    10030    2    1    2    0    0  0.00000000000E+00  0.00000000000E+00  0.97133458017E+03  0.29792113062E+04  0.28164177851E+04 0.  0.
        4    1    3    3  502    0  0.13488823526E+03 -0.63706085569E+03  0.18064415076E+04  0.19202275655E+04  0.12699999809E+01 0.  1.
       -4    1    3    3    0  502 -0.13488823526E+03  0.63706085569E+03 -0.83510692746E+03  0.10589837407E+04  0.12699999809E+01 0. -1.
</event>
<event>
 5   0  0.9065579E-06  0.2512569E+04  0.7818609E-02  0.8398521E-01
        2   -1    0    0  501    0  0.00000000000E+00  0.00000000000E+00  0.76065685596E+03  0.76065685596E+03  0.25500000920E-02 0.  1.
       -2   -1    0    0    0  501  0.00000000000E+00  0.00000000000E+00 -0.20748528594E+04  0.20748528594E+04  0.25500000920E-02 0. -1.
    10030    2    1    2    0    0  0.00000000000E+00  0.00000000000E+00 -0.13141960035E+04  0.28355097154E+04  0.25125692449E+04 0.  0.
        3    1    3    3  502    0 -0.66834362295E+03 -0.10305444142E+04 -0.35948674863E+03  0.12798186280E+04  0.10100000352E+00 0.  1.
       -3    1    3    3    0  502  0.66834362295E+03  0.10305444142E+04 -0.95470925486E+03  0.15556910874E+04  0.10100000352E+00 0. -1.
</event>
<event>
 5   0  0.3600963E-06  0.2696026E+04  0.7818609E-02  0.8336296E-01
        1   -1    0    0  501    0  0.00000000000E+00  0.00000000000E+00  0.14096687631E+04  0.14096687631E+04  0.50400001928E-02 0. -1.
       -1   -1    0    0    0  501  0.00000000000E+00  0.00000000000E+00 -0.12890537217E+04  0.12890537217E+04  0.50400001928E-02 0.  1.
    10030    2    1    2    0    0  0.00000000000E+00  0.00000000000E+00  0.12061504148E+03  0.26987224848E+04  0.26960257903E+04 0.  0.
        5    1    3    3  502    0 -0.11481738686E+04  0.59735202493E+03  0.43749206671E+03  0.13662188963E+04  0.46999998093E+01 0. -1.
       -5    1    3    3    0  502  0.11481738686E+04 -0.59735202493E+03 -0.31687702524E+03  0.13325035885E+04  0.46999998093E+01 0.  1.
</event>
<event>
 5   0  0.9342133E-06  0.2821597E+04  0.7818609E-02  0.8296595E-01
       -2   -1    0    0    0  501  0.00000000000E+00  0.00000000000E+00  0.16558584276E+04  0.16558584276E+04  0.25500000920E-02 0.  1.
        2   -1    0    0  501    0  0.00000000000E+00  0.00000000000E+00 -0.12020060165E+04  0.12020060166E+04  0.25500000920E-02 0. -1.
    10030    2    1    2    0    0  0.00000000000E+00  0.00000000000E+00  0.45385241109E+03  0.28578644442E+04  0.28215965641E+04 0.  0.
        2    1    3    3  502    0  0.79100506850E+03  0.11365487717E+04 -0.46581166162E+02  0.13854969989E+04  0.25500000920E-02 0. -1.
       -2    1    3    3    0  502 -0.79100506850E+03 -0.11365487717E+04  0.50043357725E+03  0.14723674453E+04  0.25500000920E-02 0.  1.
</event>
<event>
 5   0  0.3006875E-06  0.2826419E+04  0.7818609E-02  0.8295113E-01
       -3   -1    0    0    0  501  0.00000000000E+00  0.00000000000E+00  0.15900350690E+04  0.15900350723E+04  0.10100000352E+00 0. -1.
        3   -1    0    0  501    0  0.00000000000E+00  0.00000000000E+00 -0.12560485118E+04  0.12560485158E+04  0.10100000352E+00 0.  1.
    10030    2    1    2    0    0  0.00000000000E+00  0.00000000000E+00  0.33398655727E+03  0.28460835881E+04  0.28264190719E+04 0.  0.
        1    1    3    3  502    0  0.96455575710E+03 -0.84049198276E+03 -0.43748871511E+03  0.13521061192E+04  0.50400001928E-02 0. -1.
       -1    1    3    3    0  502 -0.96455575710E+03  0.84049198276E+03  0.77147527239E+03  0.14939774689E+04  0.50400001928E-02 0.  1.
</event>
<event>
 5   0  0.9342133E-06  0.2857693E+04  0.7818609E-02  0.8285578E-01
       -2   -1    0    0    0  501  0.00000000000E+00  0.00000000000E+00  0.10807954872E+04  0.10807954872E+04  0.25500000920E-02 0.  1.
        2   -1    0    0  501    0  0.00000000000E+00  0.00000000000E+00 -0.18889805747E+04  0.18889805747E+04  0.25500000920E-02 0. -1.
    10030    2    1    2    0    0  0.00000000000E+00  0.00000000000E+00 -0.80818508752E+03  0.29697760619E+04  0.28576925521E+04 0.  0.
        2    1    3    3  502    0  0.89246912558E+03 -0.74741025074E+03 -0.12651292301E+04  0.17192077221E+04  0.25500000920E-02 0. -1.
       -2    1    3    3    0  502 -0.89246912558E+03  0.74741025074E+03  0.45694414254E+03  0.12505683398E+04  0.25500000920E-02 0.  1.
</event>
<event>
 5   0  0.3438130E-06  0.2796871E+04  0.7818609E-02  0.8304240E-01
       -1   -1    0    0    0  501  0.00000000000E+00  0.00000000000E+00  0.15313860939E+04  0.15313860939E+04  0.50400001928E-02 0. -1.
        1   -1    0    0  501    0  0.00000000000E+00  0.00000000000E+00 -0.12770273156E+04  0.12770273156E+04  0.50400001928E-02 0.  1.
    10030    2    1    2    0    0  0.00000000000E+00  0.00000000000E+00  0.25435877825E+03  0.28084134095E+04  0.27968710179E+04 0.  0.
        3    1    3    3  502    0  0.12197370262E+04  0.21435970211E+03 -0.52504981690E+03  0.13451341254E+04  0.10100000352E+00 0. -1.
       -3    1    3    3    0  502 -0.12197370262E+04 -0.21435970211E+03  0.77940859516E+03  0.14632792841E+04  0.10100000352E+00 0.  1.
</event>
<event>
 5   0  0.9065579E-06  0.2847694E+04  0.7818609E-02  0.8288612E-01
        2   -1    0    0  501    0  0.00000000000E+00  0.00000000000E+00  0.20151644930E+04  0.20151644930E+04  0.25500000920E-02 0. -1.
       -2   -1    0    0    0  501  0.00000000000E+00  0.00000000000E+00 -0.10060419920E+04  0.10060419920E+04  0.25500000920E-02 0.  1.
    10030    2    1    2    0    0  0.00000000000E+00  0.00000000000E+00  0.10091225010E+04  0.30212064851E+04  0.28476938746E+04 0.  0.
        3    1    3    3  502    0 -0.10234991704E+04 -0.97752362587E+03  0.33939267165E+03  0.14554347758E+04  0.10100000352E+00 0. -1.
       -3    1    3    3    0  502  0.10234991704E+04  0.97752362587E+03  0.66972982933E+03  0.15657717092E+04  0.10100000352E+00 0.  1.
</event>
<event>
 5   0  0.3357244E-06  0.2778820E+04  0.7818609E-02  0.8309874E-01
       -1   -1    0    0    0  501  0.00000000000E+00  0.00000000000E+00  0.65542769042E+03  0.65542769044E+03  0.50400001928E-02 0. -1.
        1   -1    0    0  501    0  0.00000000000E+00  0.00000000000E+00 -0.29453447213E+04  0.29453447213E+04  0.50400001928E-02 0.  1.
    10030    2    1    2    0    0  0.00000000000E+00  0.00000000000E+00 -0.22899170309E+04  0.36007724118E+04  0.27788202448E+04 0.  0.
        4    1    3    3  502    0  0.98708066595E+03  0.26490863546E+03  0.74707202457E+02  0.10247378227E+04  0.12699999809E+01 0. -1.
       -4    1    3    3    0  502 -0.98708066595E+03 -0.26490863546E+03 -0.23646242334E+04  0.25760345891E+04  0.12699999809E+01 0.  1.
</event>
<event>
 5   0  0.3371603E-06  0.2785256E+04  0.7818609E-02  0.8307860E-01
        1   -1    0    0  501    0  0.00000000000E+00  0.00000000000E+00  0.19400509195E+04  0.19400509195E+04  0.50400001928E-02 0. -1.
       -1   -1    0    0    0  501  0.00000000000E+00  0.00000000000E+00 -0.99967108848E+03  0.99967108849E+03  0.50400001928E-02 0.  1.
    10030    2    1    2    0    0  0.00000000000E+00  0.00000000000E+00  0.94037983099E+03  0.29397220080E+04  0.27852560488E+04 0.  0.
        1    1    3    3  502    0 -0.87522782748E+03  0.61187657695E+03  0.14136281493E+04  0.17716549438E+04  0.50400001928E-02 0. -1.
       -1    1    3    3    0  502  0.87522782748E+03 -0.61187657695E+03 -0.47324831836E+03  0.11680670641E+04  0.50400001928E-02 0.  1.
</event>
<event>
 5   0  0.9342133E-06  0.2808847E+04  0.7818609E-02  0.8300527E-01
        2   -1    0    0  501    0  0.00000000000E+00  0.00000000000E+00  0.13982990167E+04  0.13982990167E+04  0.25500000920E-02 0. -1.
       -2   -1    0    0    0  501  0.00000000000E+00  0.00000000000E+00 -0.14105752985E+04  0.14105752985E+04  0.25500000920E-02 0.  1.
    10030    2    1    2    0    0  0.00000000000E+00  0.00000000000E+00 -0.12276281867E+02  0.28088743152E+04  0.28088474881E+04 0.  0.
        2    1    3    3  502    0  0.59429740686E+03  0.71957522493E+03  0.10433613494E+04  0.13998502839E+04  0.25500000920E-02 0. -1.
       -2    1    3    3    0  502 -0.59429740686E+03 -0.71957522493E+03 -0.10556376312E+04  0.14090240312E+04  0.25500000920E-02 0.  1.
</event>
<event>
 5   0  0.3600963E-06  0.2829467E+04  0.7818609E-02  0.8294178E-01
        1   -1    0    0  501    0  0.00000000000E+00  0.00000000000E+00  0.20022324183E+04  0.20022324183E+04  0.50400001928E-02 0.  1.
       -1   -1    0    0    0  501  0.00000000000E+00  0.00000000000E+00 -0.99961960589E+03  0.99961960591E+03  0.50400001928E-02 0. -1.
    10030    2    1    2    0    0  0.00000000000E+00  0.00000000000E+00  0.10026128125E+04  0.30018520243E+04  0.28294669328E+04 0.  0.
        5    1    3    3  502    0 -0.10766950074E+03 -0.44931925535E+03 -0.91730859972E+03  0.10271113239E+04  0.46999998093E+01 0. -1.
       -5    1    3    3    0  502  0.10766950074E+03  0.44931925535E+03  0.19199214122E+04  0.19747407003E+04  0.46999998093E+01 0.  1.
</event>
<event>
 5   0  0.9426937E-06  0.2829363E+04  0.7818609E-02  0.8294210E-01
       -2   -1    0    0    0  501  0.00000000000E+00  0.00000000000E+00  0.83125175846E+03  0.83125175847E+03  0.25500000920E-02 0. -1.
        2   -1    0    0  501    0  0.00000000000E+00  0.00000000000E+00 -0.24076025153E+04  0.24076025153E+04  0.25500000920E-02 0.  1.
    10030    2    1    2    0    0  0.00000000000E+00  0.00000000000E+00 -0.15763507568E+04  0.32388542738E+04  0.28293630552E+04 0.  0.
        4    1    3    3  502    0 -0.81990179142E+03 -0.88704589345E+03  0.54762638193E+02  0.12091691048E+04  0.12699999809E+01 0. -1.
       -4    1    3    3    0  502  0.81990179142E+03  0.88704589345E+03 -0.16311133950E+04  0.20296851689E+04  0.12699999809E+01 0.  1.
</event>
<event>
 5   0  0.9065579E-06  0.2830493E+04  0.7818609E-02  0.8293864E-01
       -2   -1    0    0    0  501  0.00000000000E+00  0.00000000000E+00  0.98149928148E+03  0.98149928148E+03  0.25500000920E-02 0.  1.
        2   -1    0    0  501    0  0.00000000000E+00  0.00000000000E+00 -0.20406768201E+04  0.20406768201E+04  0.25500000920E-02 0. -1.
    10030    2    1    2    0    0  0.00000000000E+00  0.00000000000E+00 -0.10591775386E+04  0.30221761015E+04  0.28304931250E+04 0.  0.
        3    1    3    3  502    0  0.47505519104E+03 -0.10923489970E+04 -0.13455530954E+04  0.17970578479E+04  0.10100000352E+00 0. -1.
       -3    1    3    3    0  502 -0.47505519104E+03  0.10923489970E+04  0.28637555680E+03  0.12251182537E+04  0.10100000352E+00 0.  1.
</event>
<event>
 5   0  0.3397882E-06  0.2786152E+04  0.7818609E-02  0.8307581E-01
        1   -1    0    0  501    0  0.00000000000E+00  0.00000000000E+00  0.12423573526E+04  0.12423573526E+04  0.50400001928E-02 0. -1.
       -1   -1    0    0    0  501  0.00000000000E+00  0.00000000000E+00 -0.15620790248E+04  0.15620790248E+04  0.50400001928E-02 0.  1.
    10030    2    1    2    0    0  0.00000000000E+00  0.00000000000E+00 -0.31972167227E+03  0.28044363774E+04  0.27861517273E+04 0.  0.
        2    1    3    3  502    0  0.62876810907E+03 -0.25497741921E+03  0.10647986125E+04  0.12626000572E+04  0.25500000920E-02 0. -1.
       -2    1    3    3    0  502 -0.62876810907E+03  0.25497741921E+03 -0.13845202848E+04  0.15418363202E+04  0.25500000920E-02 0.  1.
</event>
<event>
 5   0  0.3357244E-06  0.2820295E+04  0.7818609E-02  0.8296995E-01
        1   -1    0    0  501    0  0.00000000000E+00  0.00000000000E+00  0.21898638866E+04  0.21898638866E+04  0.50400001928E-02 0.  1.
       -1   -1    0    0    0  501  0.00000000000E+00  0.00000000000E+00 -0.90805454138E+03  0.90805454139E+03  0.50400001928E-02 0. -1.
    10030    2    1    2    0    0  0.00000000000E+00  0.00000000000E+00  0.12818093453E+04  0.30979184280E+04  0.28202949117E+04 0.  0.
        4    1    3    3  502    0  0.98729247452E+02 -0.10959962994E+04  0.16094993930E+04  0.19497295355E+04  0.12699999809E+01 0.  1.
       -4    1    3    3    0  502 -0.98729247452E+02  0.10959962994E+04 -0.32769004777E+03  0.11481888925E+04  0.12699999809E+01 0. -1.
</event>
<event>
 5   0  0.3438130E-06  0.2820864E+04  0.7818609E-02  0.8296820E-01
        1   -1    0    0  501    0  0.00000000000E+00  0.00000000000E+00  0.16159876346E+04  0.16159876346E+04  0.50400001928E-02 0.  1.
       -1   -1    0    0    0  501  0.00000000000E+00  0.00000000000E+00 -0.12310234509E+04  0.12310234509E+04  0.50400001928E-02 0. -1.
    10030    2    1    2    0    0  0.00000000000E+00  0.00000000000E+00  0.38496418371E+03  0.28470110855E+04  0.28208641758E+04 0.  0.
        3    1    3    3  502    0  0.13678713568E+04  0.33504811489E+03  0.11437368451E+03  0.14129439614E+04  0.10100000352E+00 0. -1.
       -3    1    3    3    0  502 -0.13678713568E+04 -0.33504811489E+03  0.27059049920E+03  0.14340671241E+04  0.10100000352E+00 0.  1.
</event>
<event>
 5   0  0.3600963E-06  0.2791193E+04  0.7818609E-02  0.8306008E-01
       -1   -1    0    0    0  501  0.00000000000E+00  0.00000000000E+00  0.70445105389E+03  0.70445105391E+03  0.50400001928E-02 0. -1.
        1   -1    0    0  501    0  0.00000000000E+00  0.00000000000E+00 -0.27648331134E+04  0.27648331134E+04  0.50400001928E-02 0.  1.
    10030    2    1    2    0    0  0.00000000000E+00  0.00000000000E+00 -0.20603820595E+04  0.34692841673E+04  0.27911930070E+04 0.  0.
        5    1    3    3  502    0 -0.66935762556E+03  0.30382919115E+03 -0.25046944099E+04  0.26103386725E+04  0.46999998093E+01 0.  1.
       -5    1    3    3    0  502  0.66935762556E+03 -0.30382919115E+03  0.44431235040E+03  0.85894549478E+03  0.46999998093E+01 0. -1.
</event>
<event>
 5   0  0.9426937E-06  0.2787629E+04  0.7818609E-02  0.8307119E-01
       -2   -1    0    0    0  501  0.00000000000E+00  0.00000000000E+00  0.10624312955E+04  0.10624312955E+04  0.25500000920E-02 0. -1.
        2   -1    0    0  501    0  0.00000000000E+00  0.00000000000E+00 -0.18285593685E+04  0.18285593685E+04  0.25500000920E-02 0.  1.
    10030    2    1    2    0    0  0.00000000000E+00  0.00000000000E+00 -0.76612807301E+03  0.28909906640E+04  0.27876288841E+04 0.  0.
        4    1    3    3  502    0 -0.30517504555E+03  0.36984468041E+03  0.97420232161E+03  0.10858124481E+04  0.12699999809E+01 0. -1.
       -4    1    3    3    0  502  0.30517504555E+03 -0.36984468041E+03 -0.17403303946E+04  0.18051782160E+04  0.12699999809E+01 0.  1.
</event>
<event>
 5   0  0.9260173E-06  0.2817883E+04  0.7818609E-02  0.8297738E-01
        2   -1    0    0  501    0  0.00000000000E+00  0.00000000000E+00  0.16694257507E+04  0.16694257507E+04  0.25500000920E-02 0. -1.
       -2   -1    0    0    0  501  0.00000000000E+00  0.00000000000E+00 -0.11891013603E+04  0.11891013603E+04  0.25500000920E-02 0.  1.
    10030    2    1    2    0    0  0.00000000000E+00  0.00000000000E+00  0.48032439047E+03  0.28585271110E+04  0.28178831992E+04 0.  0.
        1    1    3    3  502    0 -0.99209859197E+03  0.19239527122E+03 -0.75575217231E+03  0.12619179460E+04  0.50400001928E-02 0.  1.
       -1    1    3    3    0  502  0.99209859197E+03 -0.19239527122E+03  0.12360765628E+04  0.15966091650E+04  0.50400001928E-02 0. -1.
</event>
<event>
 5   0  0.9252359E-06  0.2813294E+04  0.7818609E-02  0.8299153E-01
        2   -1    0    0  501    0  0.00000000000E+00  0.00000000000E+00  0.20730483135E+04  0.20730483135E+04  0.25500000920E-02 0. -1.
       -2   -1    0    0    0  501  0.00000000000E+00  0.00000000000E+00 -0.95446692723E+03  0.95446692723E+03  0.25500000920E-02 0.  1.
    10030    2    1    2    0    0  0.00000000000E+00  0.00000000000E+00  0.11185813862E+04  0.30275152407E+04  0.28132941928E+04 0.  0.
        5    1    3    3  502    0  0.79639596301E+03 -0.35422996555E+03  0.17474009710E+04  0.19527308165E+04  0.46999998093E+01 0. -1.
       -5    1    3    3    0  502 -0.79639596301E+03  0.35422996555E+03 -0.62881958471E+03  0.10747844242E+04  0.46999998093E+01 0.  1.
</event>
<event>
 5   0  0.9426937E-06  0.2794789E+04  0.7818609E-02  0.8304888E-01
        2   -1    0    0  501    0  0.00000000000E+00  0.00000000000E+00  0.19569482842E+04  0.19569482842E+04  0.25500000920E-02 0. -1.
       -2   -1    0    0    0  501  0.00000000000E+00  0.00000000000E+00 -0.99783504507E+03  0.99783504507E+03  0.25500000920E-02 0.  1.
    10030    2    1    2    0    0  0.00000000000E+00  0.00000000000E+00  0.95911323912E+03  0.29547833293E+04  0.27947891365E+04 0.  0.
        4    1    3    3  502    0 -0.76306588581E+03  0.54610452358E+03  0.15743107059E+04  0.18327453474E+04  0.12699999809E+01 0. -1.
       -4    1    3    3    0  502  0.76306588581E+03 -0.54610452358E+03 -0.61519746677E+03  0.11220379819E+04  0.12699999809E+01 0.  1.
</event>
<event>
 5   0  0.9342133E-06  0.2889721E+04  0.7818609E-02  0.8275942E-01
       -2   -1    0    0    0  501  0.00000000000E+00  0.00000000000E+00  0.10072062131E+04  0.10072062131E+04  0.25500000920E-02 0.  1.
        2   -1    0    0  501    0  0.00000000000E+00  0.00000000000E+00 -0.20726852817E+04  0.20726852817E+04  0.25500000920E-02 0. -1.
    10030    2    1    2    0    0  0.00000000000E+00  0.00000000000E+00 -0.10654790686E+04  0.30798914949E+04  0.28897207433E+04 0.  0.
        2    1    3    3  502    0 -0.63236351430E+03 -0.45344967432E+03  0.76480242667E+03  0.10910650637E+04  0.25500000920E-02 0.  1.
       -2    1    3    3    0  502  0.63236351430E+03  0.45344967432E+03 -0.18302814953E+04  0.19888264312E+04  0.25500000920E-02 0. -1.
</event>
<event>
 5   0  0.9252359E-06  0.2795586E+04  0.7818609E-02  0.8304640E-01
       -2   -1    0    0    0  501  0.00000000000E+00  0.00000000000E+00  0.10884011322E+04  0.10884011322E+04  0.25500000920E-02 0. -1.
        2   -1    0    0  501    0  0.00000000000E+00  0.00000000000E+00 -0.17951337372E+04  0.17951337372E+04  0.25500000920E-02 0.  1.
    10030    2    1    2    0    0  0.00000000000E+00  0.00000000000E+00 -0.70673260493E+03  0.28835348694E+04  0.27955862298E+04 0.  0.
        5    1    3    3  502    0 -0.11947782559E+04 -0.38964796838E+03 -0.98456820628E+03  0.15964702512E+04  0.46999998093E+01 0.  1.
       -5    1    3    3    0  502  0.11947782559E+04  0.38964796838E+03  0.27783560136E+03  0.12870646182E+04  0.46999998093E+01 0. -1.
</event>
<event>
 5   0  0.9252359E-06  0.2881448E+04  0.7818609E-02  0.8278419E-01
        2   -1    0    0  501    0  0.00000000000E+00  0.00000000000E+00  0.16881449957E+04  0.16881449957E+04  0.25500000920E-02 0.  1.
       -2   -1    0    0    0  501  0.00000000000E+00  0.00000000000E+00 -0.12295660395E+04  0.12295660395E+04  0.25500000920E-02 0. -1.
    10030    2    1    2    0    0  0.00000000000E+00  0.00000000000E+00  0.45857895622E+03  0.29177110352E+04  0.28814480780E+04 0.  0.
        5    1    3    3  502    0  0.56431132039E+03 -0.12051063753E+04 -0.32986928373E+03  0.13709720918E+04  0.46999998093E+01 0.  1.
       -5    1    3    3    0  502 -0.56431132039E+03  0.12051063753E+04  0.78844823994E+03  0.15467389435E+04  0.46999998093E+01 0. -1.
</event>
<event>
 5   0  0.3397882E-06  0.2763102E+04  0.7818609E-02  0.8314816E-01
       -1   -1    0    0    0  501  0.00000000000E+00  0.00000000000E+00  0.17645352988E+04  0.17645352988E+04  0.50400001928E-02 0.  1.
        1   -1    0    0  501    0  0.00000000000E+00  0.00000000000E+00 -0.10816914634E+04  0.10816914634E+04  0.50400001928E-02 0. -1.
    10030    2    1    2    0    0  0.00000000000E+00  0.00000000000E+00  0.68284383535E+03  0.28462267622E+04  0.27631017134E+04 0.  0.
        2    1    3    3  502    0  0.11411312814E+04 -0.16972292490E+03 -0.44150715043E+03  0.12352793354E+04  0.25500000920E-02 0. -1.
       -2    1    3    3    0  502 -0.11411312814E+04  0.16972292490E+03  0.11243509858E+04  0.16109474268E+04  0.25500000920E-02 0.  1.
</event>
<event>
 5   0  0.3397882E-06  0.2806057E+04  0.7818609E-02  0.8301390E-01
        1   -1    0    0  501    0  0.00000000000E+00  0.00000000000E+00  0.16575353386E+04  0.16575353386E+04  0.50400001928E-02 0. -1.
       -1   -1    0    0    0  501  0.00000000000E+00  0.00000000000E+00 -0.11876003687E+04  0.11876003687E+04  0.50400001928E-02 0.  1.
    10030    2    1    2    0    0  0.00000000000E+00  0.00000000000E+00  0.46993496994E+03  0.28451357073E+04  0.28060574329E+04 0.  0.
        2    1    3    3  502    0 -0.38259337259E+03  0.84761260965E+02  0.16009214446E+04  0.16481843440E+04  0.25500000920E-02 0. -1.
       -2    1    3    3    0  502  0.38259337259E+03 -0.84761260965E+02 -0.11309864747E+04  0.11969513632E+04  0.25500000920E-02 0.  1.
</event>
<event>
 5   0  0.3397882E-06  0.2816621E+04  0.7818609E-02  0.8298127E-01
        1   -1    0    0  501    0  0.00000000000E+00  0.00000000000E+00  0.23445951421E+04  0.23445951421E+04  0.50400001928E-02 0. -1.
       -1   -1    0    0    0  501  0.00000000000E+00  0.00000000000E+00 -0.84591916857E+03  0.84591916858E+03  0.50400001928E-02 0.  1.
    10030    2    1    2    0    0  0.00000000000E+00  0.00000000000E+00  0.14986759735E+04  0.31905143106E+04  0.28166206512E+04 0.  0.
        2    1    3    3  502    0  0.28506026538E+03 -0.13766755634E+04  0.84304152084E+03  0.16392723897E+04  0.25500000920E-02 0.  1.
       -2    1    3    3    0  502 -0.28506026538E+03  0.13766755634E+04  0.65563445265E+03  0.15512419209E+04  0.25500000920E-02 0. -1.
</event>
<event>
 5   0  0.3600963E-06  0.2814380E+04  0.7818609E-02  0.8298818E-01
        1   -1    0    0  501    0  0.00000000000E+00  0.00000000000E+00  0.17972885637E+04  0.17972885637E+04  0.50400001928E-02 0.  1.
       -1   -1    0    0    0  501  0.00000000000E+00  0.00000000000E+00 -0.11017618054E+04  0.11017618054E+04  0.50400001928E-02 0. -1.
    10030    2    1    2    0    0  0.00000000000E+00  0.00000000000E+00  0.69552675826E+03  0.28990503691E+04  0.28143801398E+04 0.  0.
        5    1    3    3  502    0 -0.19093118742E+03  0.12731033195E+04 -0.23758865017E+03  0.13090902326E+04  0.46999998093E+01 0. -1.
       -5    1    3    3    0  502  0.19093118742E+03 -0.12731033195E+04  0.93311540844E+03  0.15899601365E+04  0.46999998093E+01 0.  1.
</event>
<event>
 5   0  0.9252359E-06  0.2796365E+04  0.7818609E-02  0.8304398E-01
        2   -1    0    0  501    0  0.00000000000E+00  0.00000000000E+00  0.15272184401E+04  0.15272184401E+04  0.25500000920E-02 0. -1.
       -2   -1    0    0    0  501  0.00000000000E+00  0.00000000000E+00 -0.12800489009E+04  0.12800489009E+04  0.25500000920E-02 0.  1.
    10030    2    1    2    0    0  0.00000000000E+00  0.00000000000E+00  0.24716953925E+03  0.28072673410E+04  0.27963649874E+04 0.  0.
        5    1    3    3  502    0  0.78639936092E+03  0.93968050769E+03  0.79961110663E+03  0.14631552970E+04  0.46999998093E+01 0. -1.
       -5    1    3    3    0  502 -0.78639936092E+03 -0.93968050769E+03 -0.55244156738E+03  0.13441120440E+04  0.46999998093E+01 0.  1.
</event>
<event>
 5   0  0.3438130E-06  0.2832699E+04  0.7818609E-02  0.8293188E-01
       -1   -1    0    0    0  501  0.00000000000E+00  0.00000000000E+00  0.10744240942E+04  0.10744240943E+04  0.50400001928E-02 0. -1.
        1   -1    0    0  501    0  0.00000000000E+00  0.00000000000E+00 -0.18670888948E+04  0.18670888948E+04  0.50400001928E-02 0.  1.
    10030    2    1    2    0    0  0.00000000000E+00  0.00000000000E+00 -0.79266480051E+03  0.29415129890E+04  0.28326985683E+04 0.  0.
        3    1    3    3  502    0  0.34669505676E+03  0.10742479513E+03  0.10253115989E+04  0.10876586938E+04  0.10100000352E+00 0. -1.
       -3    1    3    3    0  502 -0.34669505676E+03 -0.10742479513E+03 -0.18179763994E+04  0.18538542953E+04  0.10100000352E+00 0.  1.
</event>
<event>
 5   0  0.3397882E-06  0.2805957E+04  0.7818609E-02  0.8301421E-01
       -1   -1    0    0    0  501  0.00000000000E+00  0.00000000000E+00  0.17571976025E+04  0.17571976025E+04  0.50400001928E-02 0.  1.
        1   -1    0    0  501    0  0.00000000000E+00  0.00000000000E+00 -0.11201636658E+04  0.11201636658E+04  0.50400001928E-02 0. -1.
    10030    2    1    2    0    0  0.00000000000E+00  0.00000000000E+00  0.63703393668E+03  0.28773612683E+04  0.28059571686E+04 0.  0.
        2    1    3    3  502    0 -0.80446355219E+03  0.81858025533E+03 -0.50893303387E+03  0.12554871860E+04  0.25500000920E-02 0. -1.
       -2    1    3    3    0  502  0.80446355219E+03 -0.81858025533E+03  0.11459669706E+04  0.16218740823E+04  0.25500000920E-02 0.  1.
</event>
<event>
 5   0  0.3600963E-06  0.2766064E+04  0.7818609E-02  0.8313882E-01
        1   -1    0    0  501    0  0.00000000000E+00  0.00000000000E+00  0.10088617129E+04  0.10088617129E+04  0.50400001928E-02 0.  1.
       -1   -1    0    0    0  501  0.00000000000E+00  0.00000000000E+00 -0.18959758078E+04  0.18959758078E+04  0.50400001928E-02 0. -1.
    10030    2    1    2    0    0  0.00000000000E+00  0.00000000000E+00 -0.88711409487E+03  0.29048375207E+04  0.27660639191E+04 0.  0.
        5    1    3    3  502    0 -0.10382897531E+04  0.64246449325E+03 -0.11257223931E+04  0.16607465890E+04  0.46999998093E+01 0. -1.
       -5    1    3    3    0  502  0.10382897531E+04 -0.64246449325E+03  0.23860829827E+03  0.12440909317E+04  0.46999998093E+01 0.  1.
</event>
<event>
 5   0  0.9342133E-06  0.2799586E+04  0.7818609E-02  0.8303397E-01
       -2   -1    0    0    0  501  0.00000000000E+00  0.00000000000E+00  0.10074158146E+04  0.10074158146E+04  0.25500000920E-02 0.  1.
        2   -1    0    0  501    0  0.00000000000E+00  0.00000000000E+00 -0.19449966500E+04  0.19449966500E+04  0.25500000920E-02 0. -1.
    10030    2    1    2    0    0  0.00000000000E+00  0.00000000000E+00 -0.93758083538E+03  0.29524124646E+04  0.27995859584E+04 0.  0.
        2    1    3    3  502    0 -0.39520160189E+03 -0.13408300730E+04 -0.39121685953E+03  0.14515716386E+04  0.25500000920E-02 0.  1.
       -2    1    3    3    0  502  0.39520160189E+03  0.13408300730E+04 -0.54636397585E+03  0.15008408260E+04  0.25500000920E-02 0. -1.
</event>
<event>
 5   0  0.9426937E-06  0.2856020E+04  0.7818609E-02  0.8286084E-01
        2   -1    0    0  501    0  0.00000000000E+00  0.00000000000E+00  0.14100060973E+04  0.14100060973E+04  0.25500000920E-02 0.  1.
       -2   -1    0    0    0  501  0.00000000000E+00  0.00000000000E+00 -0.14462437335E+04  0.14462437335E+04  0.25500000920E-02 0. -1.
    10030    2    1    2    0    0  0.00000000000E+00  0.00000000000E+00 -0.36237636186E+02  0.28562498308E+04  0.28560199456E+04 0.  0.
        4    1    3    3  502    0 -0.13385249482E+04  0.19258417488E+02  0.47910421139E+03  0.14218165781E+04  0.12699999809E+01 0.  1.
       -4    1    3    3    0  502  0.13385249482E+04 -0.19258417488E+02 -0.51534184757E+03  0.14344332527E+04  0.12699999809E+01 0. -1.
</event>
<event>
 5   0  0.3438130E-06  0.2530944E+04  0.7818609E-02  0.8392044E-01
        1   -1    0    0  501    0  0.00000000000E+00  0.00000000000E+00  0.10594351202E+04  0.10594351202E+04  0.50400001928E-02 0. -1.
       -1   -1    0    0    0  501  0.00000000000E+00  0.00000000000E+00 -0.15115782116E+04  0.15115782116E+04  0.50400001928E-02 0.  1.
    10030    2    1    2    0    0  0.00000000000E+00  0.00000000000E+00 -0.45214309141E+03  0.25710133318E+04  0.25309437325E+04 0.  0.
        3    1    3    3  502    0  0.12252195953E+04 -0.27322113529E+03 -0.63518800489E+02  0.12569198438E+04  0.10100000352E+00 0. -1.
       -3    1    3    3    0  502 -0.12252195953E+04  0.27322113529E+03 -0.38862429092E+03  0.13140934880E+04  0.10100000352E+00 0.  1.
</event>
<event>
 5   0  0.9342133E-06  0.2833327E+04  0.7818609E-02  0.8292996E-01
       -2   -1    0    0    0  501  0.00000000000E+00  0.00000000000E+00  0.14845841118E+04  0.14845841118E+04  0.25500000920E-02 0. -1.
        2   -1    0    0  501    0  0.00000000000E+00  0.00000000000E+00 -0.13518506293E+04  0.13518506293E+04  0.25500000920E-02 0.  1.
    10030    2    1    2    0    0  0.00000000000E+00  0.00000000000E+00  0.13273348246E+03  0.28364347411E+04  0.28333273484E+04 0.  0.
        2    1    3    3  502    0 -0.12279110839E+04 -0.61972564146E+03 -0.27328468813E+03  0.14023230803E+04  0.25500000920E-02 0. -1.
       -2    1    3    3    0  502  0.12279110839E+04  0.61972564146E+03  0.40601817059E+03  0.14341116608E+04  0.25500000920E-02 0.  1.
</event>
<event>
 5   0  0.3600963E-06  0.3060823E+04  0.7818609E-02  0.8226573E-01
        1   -1    0    0  501    0  0.00000000000E+00  0.00000000000E+00  0.24007237229E+04  0.24007237229E+04  0.50400001928E-02 0. -1.
       -1   -1    0    0    0  501  0.00000000000E+00  0.00000000000E+00 -0.97560577655E+03  0.97560577656E+03  0.50400001928E-02 0.  1.
    10030    2    1    2    0    0  0.00000000000E+00  0.00000000000E+00  0.14251179463E+04  0.33763294994E+04  0.30608233742E+04 0.  0.
        5    1    3    3  502    0  0.11044684808E+03 -0.60600964321E+02 -0.96986838103E+03  0.97802747898E+03  0.46999998093E+01 0.  1.
       -5    1    3    3    0  502 -0.11044684808E+03  0.60600964321E+02  0.23949863274E+04  0.23983020205E+04  0.46999998093E+01 0. -1.
</event>
<event>
 5   0  0.3371603E-06  0.2833827E+04  0.7818609E-02  0.8292843E-01
        1   -1    0    0  501    0  0.00000000000E+00  0.00000000000E+00  0.66377658321E+03  0.66377658323E+03  0.50400001928E-02 0.  1.
       -1   -1    0    0    0  501  0.00000000000E+00  0.00000000000E+00 -0.30245766654E+04  0.30245766654E+04  0.50400001928E-02 0. -1.
    10030    2    1    2    0    0  0.00000000000E+00  0.00000000000E+00 -0.23608000822E+04  0.36883532486E+04  0.28338265047E+04 0.  0.
        1    1    3    3  502    0  0.18551633786E+03  0.13494682526E+04 -0.67269349155E+03  0.15192094688E+04  0.50400001928E-02 0.  1.
       -1    1    3    3    0  502 -0.18551633786E+03 -0.13494682526E+04 -0.16881065906E+04  0.21691437798E+04  0.50400001928E-02 0. -1.
</event>
<event>
 5   0  0.3357244E-06  0.2743450E+04  0.7818609E-02  0.8321043E-01
       -1   -1    0    0    0  501  0.00000000000E+00  0.00000000000E+00  0.12167927639E+04  0.12167927640E+04  0.50400001928E-02 0.  1.
        1   -1    0    0  501    0  0.00000000000E+00  0.00000000000E+00 -0.15463841593E+04  0.15463841594E+04  0.50400001928E-02 0. -1.
    10030    2    1    2    0    0  0.00000000000E+00  0.00000000000E+00 -0.32959139540E+03  0.27631769233E+04  0.27434496937E+04 0.  0.
        4    1    3    3  502    0  0.40063058267E+02 -0.12453848828E+04  0.41294811915E+03  0.13126752519E+04  0.12699999809E+01 0. -1.
       -4    1    3    3    0  502 -0.40063058267E+02  0.12453848828E+04 -0.74253951455E+03  0.14505016714E+04  0.12699999809E+01 0.  1.
</event>
<event>
 5   0  0.3600963E-06  0.2794304E+04  0.7818609E-02  0.8305039E-01
       -1   -1    0    0    0  501  0.00000000000E+00  0.00000000000E+00  0.11579386241E+04  0.11579386241E+04  0.50400001928E-02 0. -1.
        1   -1    0    0  501    0  0.00000000000E+00  0.00000000000E+00 -0.16857839291E+04  0.16857839291E+04  0.50400001928E-02 0.  1.
    10030    2    1    2    0    0  0.00000000000E+00  0.00000000000E+00 -0.52784530503E+03  0.28437225532E+04  0.27943044382E+04 0.  0.
        5    1    3    3  502    0  0.62685756859E+03 -0.12485608338E+04 -0.27670124687E+03  0.14242332102E+04  0.46999998093E+01 0.  1.
       -5    1    3    3    0  502 -0.62685756859E+03  0.12485608338E+04 -0.25114405816E+03  0.14194893430E+04  0.46999998093E+01 0. -1.
</event>
<event>
 5   0  0.3371603E-06  0.2817050E+04  0.7818609E-02  0.8297994E-01
       -1   -1    0    0    0  501  0.00000000000E+00  0.00000000000E+00  0.20082681226E+04  0.20082681226E+04  0.50400001928E-02 0.  1.
        1   -1    0    0  501    0  0.00000000000E+00  0.00000000000E+00 -0.98788740933E+03  0.98788740935E+03  0.50400001928E-02 0. -1.
    10030    2    1    2    0    0  0.00000000000E+00  0.00000000000E+00  0.10203807132E+04  0.29961555319E+04  0.28170500833E+04 0.  0.
        1    1    3    3  502    0 -0.43716099425E+03 -0.11495202495E+04  0.12404566819E+04  0.17467796994E+04  0.50400001928E-02 0.  1.
       -1    1    3    3    0  502  0.43716099425E+03  0.11495202495E+04 -0.22007596861E+03  0.12493758325E+04  0.50400001928E-02 0. -1.
</event>
<event>
 5   0  0.9065579E-06  0.2801622E+04  0.7818609E-02  0.8302765E-01
        2   -1    0    0  501    0  0.00000000000E+00  0.00000000000E+00  0.17224626875E+04  0.17224626875E+04  0.25500000920E-02 0. -1.
       -2   -1    0    0    0  501  0.00000000000E+00  0.00000000000E+00 -0.11392247257E+04  0.11392247258E+04  0.25500000920E-02 0.  1.
    10030    2    1    2    0    0  0.00000000000E+00  0.00000000000E+00  0.58323796179E+03  0.28616874133E+04  0.28016224462E+04 0.  0.
        3    1    3    3  502    0  0.49371926017E+03  0.95373928840E+03 -0.62704902000E+03  0.12436108000E+04  0.10100000352E+00 0.  1.
       -3    1    3    3    0  502 -0.49371926017E+03 -0.95373928840E+03  0.12102869818E+04  0.16180766133E+04  0.10100000352E+00 0. -1.
</event>
<event>
 5   0  0.9065579E-06  0.2791599E+04  0.7818609E-02  0.8305881E-01
        2   -1    0    0  501    0  0.00000000000E+00  0.00000000000E+00  0.16139702976E+04  0.16139702976E+04  0.25500000920E-02 0. -1.
       -2   -1    0    0    0  501  0.00000000000E+00  0.00000000000E+00 -0.12071198280E+04  0.12071198280E+04  0.25500000920E-02 0.  1.
    10030    2    1    2    0    0  0.00000000000E+00  0.00000000000E+00  0.40685046961E+03  0.28210901255E+04  0.27915985012E+04 0.  0.
        3    1    3    3  502    0 -0.32970874644E+03 -0.43516080433E+03  0.15015906250E+04  0.15977631859E+04  0.10100000352E+00 0. -1.
       -3    1    3    3    0  502  0.32970874644E+03  0.43516080433E+03 -0.10947401554E+04  0.12233269396E+04  0.10100000352E+00 0.  1.
</event>
<event>
 5   0  0.3600963E-06  0.2809680E+04  0.7818609E-02  0.8300270E-01
       -1   -1    0    0    0  501  0.00000000000E+00  0.00000000000E+00  0.85320834939E+03  0.85320834940E+03  0.50400001928E-02 0.  1.
        1   -1    0    0  501    0  0.00000000000E+00  0.00000000000E+00 -0.23131217081E+04  0.23131217081E+04  0.50400001928E-02 0. -1.
    10030    2    1    2    0    0  0.00000000000E+00  0.00000000000E+00 -0.14599133587E+04  0.31663300575E+04  0.28096795223E+04 0.  0.
        5    1    3    3  502    0  0.12707760588E+04 -0.54529061091E+03 -0.10090618120E+04  0.17118532275E+04  0.46999998093E+01 0. -1.
       -5    1    3    3    0  502 -0.12707760588E+04  0.54529061091E+03 -0.45085154675E+03  0.14544768301E+04  0.46999998093E+01 0.  1.
</event>
<event>
 5   0  0.3438130E-06  0.2929383E+04  0.7818609E-02  0.8264188E-01
        1   -1    0    0  501    0  0.00000000000E+00  0.00000000000E+00  0.17459315980E+04  0.17459315980E+04  0.50400001928E-02 0. -1.
       -1   -1    0    0    0  501  0.00000000000E+00  0.00000000000E+00 -0.12287546325E+04  0.12287546325E+04  0.50400001928E-02 0.  1.
    10030    2    1    2    0    0  0.00000000000E+00  0.00000000000E+00  0.51717696554E+03  0.29746862305E+04  0.29293832382E+04 0.  0.
        3    1    3    3  502    0 -0.33280774160E+02  0.42312864446E+03 -0.11649385027E+04  0.12398496623E+04  0.10100000352E+00 0.  1.
       -3    1    3    3    0  502  0.33280774160E+02 -0.42312864446E+03  0.16821154683E+04  0.17348365682E+04  0.10100000352E+00 0. -1.
</event>
<event>
 5   0  0.3438130E-06  0.2754035E+04  0.7818609E-02  0.8317682E-01
       -1   -1    0    0    0  501  0.00000000000E+00  0.00000000000E+00  0.98139433245E+03  0.98139433247E+03  0.50400001928E-02 0.  1.
        1   -1    0    0  501    0  0.00000000000E+00  0.00000000000E+00 -0.19321257575E+04  0.19321257575E+04  0.50400001928E-02 0. -1.
    10030    2    1    2    0    0  0.00000000000E+00  0.00000000000E+00 -0.95073142505E+03  0.29135200900E+04  0.27540350528E+04 0.  0.
        3    1    3    3  502    0 -0.55981724394E+03  0.37220233662E+03  0.79599662085E+03  0.10418927760E+04  0.10100000352E+00 0.  1.
       -3    1    3    3    0  502  0.55981724394E+03 -0.37220233662E+03 -0.17467280459E+04  0.18716273140E+04  0.10100000352E+00 0. -1.
</event>
<event>
 5   0  0.9342133E-06  0.2299469E+04  0.7818609E-02  0.8478130E-01
        2   -1    0    0  501    0  0.00000000000E+00  0.00000000000E+00  0.12554281200E+04  0.12554281200E+04  0.25500000920E-02 0. -1.
       -2   -1    0    0    0  501  0.00000000000E+00  0.00000000000E+00 -0.10529392188E+04  0.10529392188E+04  0.25500000920E-02 0.  1.
    10030    2    1    2    0    0  0.00000000000E+00  0.00000000000E+00  0.20248890115E+03  0.23083673388E+04  0.22994690726E+04 0.  0.
        2    1    3    3  502    0  0.10639607118E+04 -0.24286239958E+03 -0.26194967433E+03  0.11223244510E+04  0.25500000920E-02 0.  1.
       -2    1    3    3    0  502 -0.10639607118E+04  0.24286239958E+03  0.46443857548E+03  0.11860428878E+04  0.25500000920E-02 0. -1.
</event>
<event>
 5   0  0.9342133E-06  0.2850834E+04  0.7818609E-02  0.8287658E-01
        2   -1    0    0  501    0  0.00000000000E+00  0.00000000000E+00  0.18951571005E+04  0.18951571005E+04  0.25500000920E-02 0.  1.
       -2   -1    0    0    0  501  0.00000000000E+00  0.00000000000E+00 -0.10721079448E+04  0.10721079448E+04  0.25500000920E-02 0. -1.
    10030    2    1    2    0    0  0.00000000000E+00  0.00000000000E+00  0.82304915570E+03  0.29672650454E+04  0.28508335512E+04 0.  0.
        2    1    3    3  502    0  0.36950984053E+03  0.37611716043E+02  0.18439054376E+04  0.18809411012E+04  0.25500000920E-02 0.  1.
       -2    1    3    3    0  502 -0.36950984053E+03 -0.37611716043E+02 -0.10208562819E+04  0.10863239442E+04  0.25500000920E-02 0. -1.
</event>
<event>
 5   0  0.3357244E-06  0.2806096E+04  0.7818609E-02  0.8301378E-01
       -1   -1    0    0    0  501  0.00000000000E+00  0.00000000000E+00  0.15452723490E+04  0.15452723490E+04  0.50400001928E-02 0. -1.
        1   -1    0    0  501    0  0.00000000000E+00  0.00000000000E+00 -0.12739139184E+04  0.12739139185E+04  0.50400001928E-02 0.  1.
    10030    2    1    2    0    0  0.00000000000E+00  0.00000000000E+00  0.27135843058E+03  0.28191862675E+04  0.28060961874E+04 0.  0.
        4    1    3    3  502    0  0.84918616438E+03  0.11116436024E+04  0.24422812857E+03  0.14200414192E+04  0.12699999809E+01 0. -1.
       -4    1    3    3    0  502 -0.84918616438E+03 -0.11116436024E+04  0.27130302011E+02  0.13991448483E+04  0.12699999809E+01 0.  1.
</event>
<event>
 5   0  0.9065579E-06  0.2789974E+04  0.7818609E-02  0.8306388E-01
       -2   -1    0    0    0  501  0.00000000000E+00  0.00000000000E+00  0.18165330754E+04  0.18165330754E+04  0.25500000920E-02 0.  1.
        2   -1    0    0  501    0  0.00000000000E+00  0.00000000000E+00 -0.10712648963E+04  0.10712648963E+04  0.25500000920E-02 0. -1.
    10030    2    1    2    0    0  0.00000000000E+00  0.00000000000E+00  0.74526817908E+03  0.28877979717E+04  0.27899735602E+04 0.  0.
        3    1    3    3  502    0  0.10161975423E+04 -0.15721271123E+03 -0.60308206752E+03  0.11920911340E+04  0.10100000352E+00 0. -1.
       -3    1    3    3    0  502 -0.10161975423E+04  0.15721271123E+03  0.13483502466E+04  0.16957068376E+04  0.10100000352E+00 0.  1.
</event>
<event>
 5   0  0.3397882E-06  0.2802999E+04  0.7818609E-02  0.8302338E-01
        1   -1    0    0  501    0  0.00000000000E+00  0.00000000000E+00  0.22703642907E+04  0.22703642907E+04  0.50400001928E-02 0.  1.
       -1   -1    0    0    0  501  0.00000000000E+00  0.00000000000E+00 -0.86514796709E+03  0.86514796710E+03  0.50400001928E-02 0. -1.
    10030    2    1    2    0    0  0.00000000000E+00  0.00000000000E+00  0.14052163236E+04  0.31355122578E+04  0.28029991442E+04 0.  0.
        2    1    3    3  502    0  0.54437288786E+02 -0.63610200661E+03  0.20982555481E+04  0.21932317539E+04  0.25500000920E-02 0.  1.
       -2    1    3    3    0  502 -0.54437288786E+02  0.63610200661E+03 -0.69303922452E+03  0.94228050386E+03  0.25500000920E-02 0. -1.
</event>
<event>
 5   0  0.3006875E-06  0.2603868E+04  0.7818609E-02  0.8366888E-01
       -4   -1    0    0    0  501  0.00000000000E+00  0.00000000000E+00  0.13479374661E+04  0.13479380644E+04  0.12699999809E+01 0.  1.
        4   -1    0    0  501    0  0.00000000000E+00  0.00000000000E+00 -0.12574995859E+04  0.12575002273E+04  0.12699999809E+01 0. -1.
    10030    2    1    2    0    0  0.00000000000E+00  0.00000000000E+00  0.90437880174E+02  0.26054382916E+04  0.26038682151E+04 0.  0.
        5    1    3    3  502    0 -0.91952380915E+03 -0.48375272167E+03  0.83021069336E+03  0.13299671487E+04  0.46999998093E+01 0. -1.
       -5    1    3    3    0  502  0.91952380915E+03  0.48375272167E+03 -0.73977281319E+03  0.12754711429E+04  0.46999998093E+01 0.  1.
</event>
<event>
 5   0  0.9342133E-06  0.2791796E+04  0.7818609E-02  0.8305820E-01
        2   -1    0    0  501    0  0.00000000000E+00  0.00000000000E+00  0.20809616715E+04  0.20809616715E+04  0.25500000920E-02 0.  1.
       -2   -1    0    0    0  501  0.00000000000E+00  0.00000000000E+00 -0.93636099488E+03  0.93636099489E+03  0.25500000920E-02 0. -1.
    10030    2    1    2    0    0  0.00000000000E+00  0.00000000000E+00  0.11446006766E+04  0.30173226663E+04  0.27917960821E+04 0.  0.
        2    1    3    3  502    0 -0.88833820214E+03 -0.10080789359E+04  0.16336548923E+03  0.13535347005E+04  0.25500000920E-02 0. -1.
       -2    1    3    3    0  502  0.88833820214E+03  0.10080789359E+04  0.98123518735E+03  0.16637879658E+04  0.25500000920E-02 0.  1.
</event>
<event>
 5   0  0.3006875E-06  0.2837310E+04  0.7818609E-02  0.8291778E-01
        3   -1    0    0  501    0  0.00000000000E+00  0.00000000000E+00  0.19713728917E+04  0.19713728943E+04  0.10100000352E+00 0.  1.
       -3   -1    0    0    0  501  0.00000000000E+00  0.00000000000E+00 -0.10209036370E+04  0.10209036420E+04  0.10100000352E+00 0. -1.
    10030    2    1    2    0    0  0.00000000000E+00  0.00000000000E+00  0.95046925463E+03  0.29922765363E+04  0.28373098290E+04 0.  0.
        2    1    3    3  502    0 -0.37847031413E+03  0.12792491566E+04  0.98415021400E+03  0.16577906464E+04  0.25500000920E-02 0.  1.
       -2    1    3    3    0  502  0.37847031413E+03 -0.12792491566E+04 -0.33680959378E+02  0.13344858899E+04  0.25500000920E-02 0. -1.
</event>
<event>
 5   0  0.9252359E-06  0.2799870E+04  0.7818609E-02  0.8303309E-01
       -2   -1    0    0    0  501  0.00000000000E+00  0.00000000000E+00  0.10071391305E+04  0.10071391305E+04  0.25500000920E-02 0.  1.
        2   -1    0    0  501    0  0.00000000000E+00  0.00000000000E+00 -0.19459259072E+04  0.19459259072E+04  0.25500000920E-02 0. -1.
    10030    2    1    2    0    0  0.00000000000E+00  0.00000000000E+00 -0.93878677666E+03  0.29530650378E+04  0.27998700872E+04 0.  0.
        5    1    3    3  502    0 -0.67847635322E+02 -0.71814436376E+03  0.79602792236E+03  0.10742519127E+04  0.46999998093E+01 0.  1.
       -5    1    3    3    0  502  0.67847635322E+02  0.71814436376E+03 -0.17348146990E+04  0.18788131250E+04  0.46999998093E+01 0. -1.
</event>
<event>
 5   0  0.3438130E-06  0.2790911E+04  0.7818609E-02  0.8306096E-01
       -1   -1    0    0    0  501  0.00000000000E+00  0.00000000000E+00  0.74536662449E+03  0.74536662451E+03  0.50400001928E-02 0. -1.
        1   -1    0    0  501    0  0.00000000000E+00  0.00000000000E+00 -0.26125348123E+04  0.26125348123E+04  0.50400001928E-02 0.  1.
    10030    2    1    2    0    0  0.00000000000E+00  0.00000000000E+00 -0.18671681878E+04  0.33579014368E+04  0.27909111447E+04 0.  0.
        3    1    3    3  502    0  0.13585662196E+04 -0.12033808347E+03 -0.12886941434E+04  0.18764104116E+04  0.10100000352E+00 0.  1.
       -3    1    3    3    0  502 -0.13585662196E+04  0.12033808347E+03 -0.57847404436E+03  0.14814910251E+04  0.10100000352E+00 0. -1.
</event>
<event>
 5   0  0.9426937E-06  0.2868672E+04  0.7818609E-02  0.8282260E-01
       -2   -1    0    0    0  501  0.00000000000E+00  0.00000000000E+00  0.69032626681E+03  0.69032626682E+03  0.25500000920E-02 0. -1.
        2   -1    0    0  501    0  0.00000000000E+00  0.00000000000E+00 -0.29802137954E+04  0.29802137954E+04  0.25500000920E-02 0.  1.
    10030    2    1    2    0    0  0.00000000000E+00  0.00000000000E+00 -0.22898875285E+04  0.36705400622E+04  0.28686720716E+04 0.  0.
        4    1    3    3  502    0 -0.18020629366E+03  0.11580942389E+04 -0.86982709234E+02  0.11752549421E+04  0.12699999809E+01 0. -1.
       -4    1    3    3    0  502  0.18020629366E+03 -0.11580942389E+04 -0.22029048193E+04  0.24952851200E+04  0.12699999809E+01 0.  1.
</event>
<event>
 5   0  0.3357244E-06  0.2822284E+04  0.7818609E-02  0.8296383E-01
       -1   -1    0    0    0  501  0.00000000000E+00  0.00000000000E+00  0.18749818741E+04  0.18749818741E+04  0.50400001928E-02 0. -1.
        1   -1    0    0  501    0  0.00000000000E+00  0.00000000000E+00 -0.10620489015E+04  0.10620489015E+04  0.50400001928E-02 0.  1.
    10030    2    1    2    0    0  0.00000000000E+00  0.00000000000E+00  0.81293297259E+03  0.29370307757E+04  0.28222844930E+04 0.  0.
        4    1    3    3  502    0  0.55192989261E+03  0.11122236682E+04 -0.29135819545E+03  0.12753663417E+04  0.12699999809E+01 0.  1.
       -4    1    3    3    0  502 -0.55192989261E+03 -0.11122236682E+04  0.11042911680E+04  0.16616644340E+04  0.12699999809E+01 0. -1.
</event>
<event>
 5   0  0.3371603E-06  0.2792094E+04  0.7818609E-02  0.8305727E-01
        1   -1    0    0  501    0  0.00000000000E+00  0.00000000000E+00  0.13156229744E+04  0.13156229744E+04  0.50400001928E-02 0.  1.
       -1   -1    0    0    0  501  0.00000000000E+00  0.00000000000E+00 -0.14813873587E+04  0.14813873587E+04  0.50400001928E-02 0. -1.
    10030    2    1    2    0    0  0.00000000000E+00  0.00000000000E+00 -0.16576438425E+03  0.27970103331E+04  0.27920940121E+04 0.  0.
        1    1    3    3  502    0  0.11156540885E+04 -0.51346251621E+03  0.58207832882E+03  0.13590963843E+04  0.50400001928E-02 0.  1.
       -1    1    3    3    0  502 -0.11156540885E+04  0.51346251621E+03 -0.74784271307E+03  0.14379139489E+04  0.50400001928E-02 0. -1.
</event>
<event>
 5   0  0.9252359E-06  0.2764068E+04  0.7818609E-02  0.8314511E-01
       -2   -1    0    0    0  501  0.00000000000E+00  0.00000000000E+00  0.15730649234E+04  0.15730649234E+04  0.25500000920E-02 0. -1.
        2   -1    0    0  501    0  0.00000000000E+00  0.00000000000E+00 -0.12142016968E+04  0.12142016968E+04  0.25500000920E-02 0.  1.
    10030    2    1    2    0    0  0.00000000000E+00  0.00000000000E+00  0.35886322669E+03  0.27872666202E+04  0.27640680883E+04 0.  0.
        5    1    3    3  502    0 -0.13378718885E+04  0.33612707981E+03  0.94382742061E+02  0.13826831871E+04  0.46999998093E+01 0. -1.
       -5    1    3    3    0  502  0.13378718885E+04 -0.33612707981E+03  0.26448048463E+03  0.14045834331E+04  0.46999998093E+01 0.  1.
</event>
<event>
 5   0  0.3600963E-06  0.2799567E+04  0.7818609E-02  0.8303403E-01
       -1   -1    0    0    0  501  0.00000000000E+00  0.00000000000E+00  0.17209905795E+04  0.17209905795E+04  0.50400001928E-02 0. -1.
        1   -1    0    0  501    0  0.00000000000E+00  0.00000000000E+00 -0.11385266836E+04  0.11385266836E+04  0.50400001928E-02 0.  1.
    10030    2    1    2    0    0  0.00000000000E+00  0.00000000000E+00  0.58246389590E+03  0.28595172631E+04  0.27995668930E+04 0.  0.
        5    1    3    3  502    0  0.64362681587E+03 -0.94157986636E+03 -0.53765271203E+03  0.12609205572E+04  0.46999998093E+01 0.  1.
       -5    1    3    3    0  502 -0.64362681587E+03  0.94157986636E+03  0.11201166079E+04  0.15985967059E+04  0.46999998093E+01 0. -1.
</event>
<event>
 5   0  0.9065579E-06  0.2644755E+04  0.7818609E-02  0.8353156E-01
        2   -1    0    0  501    0  0.00000000000E+00  0.00000000000E+00  0.20476216751E+04  0.20476216751E+04  0.25500000920E-02 0.  1.
       -2   -1    0    0    0  501  0.00000000000E+00  0.00000000000E+00 -0.85400622898E+03  0.85400622898E+03  0.25500000920E-02 0. -1.
    10030    2    1    2    0    0  0.00000000000E+00  0.00000000000E+00  0.11936154461E+04  0.29016279041E+04  0.26447545558E+04 0.  0.
        3    1    3    3  502    0 -0.20382487068E+03 -0.12992698309E+04  0.44544023675E+03  0.13885473294E+04  0.10100000352E+00 0. -1.
       -3    1    3    3    0  502  0.20382487068E+03  0.12992698309E+04  0.74817520935E+03  0.15130805746E+04  0.10100000352E+00 0.  1.
</event>
<event>
 5   0  0.9260173E-06  0.2865833E+04  0.7818609E-02  0.8283116E-01
        2   -1    0    0  501    0  0.00000000000E+00  0.00000000000E+00  0.14684262574E+04  0.14684262574E+04  0.25500000920E-02 0.  1.
       -2   -1    0    0    0  501  0.00000000000E+00  0.00000000000E+00 -0.13982656544E+04  0.13982656544E+04  0.25500000920E-02 0. -1.
    10030    2    1    2    0    0  0.00000000000E+00  0.00000000000E+00  0.70160602997E+02  0.28666919118E+04  0.28658332133E+04 0.  0.
        1    1    3    3  502    0  0.17111619576E+03  0.13371043528E+04  0.52114893821E+03  0.14452422006E+04  0.50400001928E-02 0.  1.
       -1    1    3    3    0  502 -0.17111619576E+03 -0.13371043528E+04 -0.45098833522E+03  0.14214497111E+04  0.50400001928E-02 0. -1.
</event>
<event>
 5   0  0.3397882E-06  0.2809813E+04  0.7818609E-02  0.8300228E-01
        1   -1    0    0  501    0  0.00000000000E+00  0.00000000000E+00  0.20974687088E+04  0.20974687088E+04  0.50400001928E-02 0.  1.
       -1   -1    0    0    0  501  0.00000000000E+00  0.00000000000E+00 -0.94102106745E+03  0.94102106746E+03  0.50400001928E-02 0. -1.
    10030    2    1    2    0    0  0.00000000000E+00  0.00000000000E+00  0.11564476414E+04  0.30384897763E+04  0.28098129784E+04 0.  0.
        2    1    3    3  502    0 -0.13635708520E+04  0.17872436966E+03  0.88881744218E+03  0.16374566603E+04  0.25500000920E-02 0.  1.
       -2    1    3    3    0  502  0.13635708520E+04 -0.17872436966E+03  0.26763019920E+03  0.14010331160E+04  0.25500000920E-02 0. -1.
</event>
<event>
 5   0  0.3397882E-06  0.2793940E+04  0.7818609E-02  0.8305152E-01
       -1   -1    0    0    0  501  0.00000000000E+00  0.00000000000E+00  0.16699771796E+04  0.16699771796E+04  0.50400001928E-02 0. -1.
        1   -1    0    0  501    0  0.00000000000E+00  0.00000000000E+00 -0.11685940729E+04  0.11685940729E+04  0.50400001928E-02 0.  1.
    10030    2    1    2    0    0  0.00000000000E+00  0.00000000000E+00  0.50138310672E+03  0.28385712525E+04  0.27939401811E+04 0.  0.
        2    1    3    3  502    0  0.11383186271E+04 -0.37202151296E+03 -0.48007303943E+03  0.12902090630E+04  0.25500000920E-02 0. -1.
       -2    1    3    3    0  502 -0.11383186271E+04  0.37202151296E+03  0.98145614615E+03  0.15483621895E+04  0.25500000920E-02 0.  1.
</event>
<event>
 5   0  0.9065579E-06  0.2810893E+04  0.7818609E-02  0.8299895E-01
       -2   -1    0    0    0  501  0.00000000000E+00  0.00000000000E+00  0.11260492409E+04  0.11260492409E+04  0.25500000920E-02 0. -1.
        2   -1    0    0  501    0  0.00000000000E+00  0.00000000000E+00 -0.17541679397E+04  0.17541679397E+04  0.25500000920E-02 0.  1.
    10030    2    1    2    0    0  0.00000000000E+00  0.00000000000E+00 -0.62811869885E+03  0.28802171806E+04  0.28108927243E+04 0.  0.
        3    1    3    3  502    0  0.13240890774E+04 -0.45578046348E+03 -0.19139154593E+03  0.14133571558E+04  0.10100000352E+00 0. -1.
       -3    1    3    3    0  502 -0.13240890774E+04  0.45578046348E+03 -0.43672715292E+03  0.14668600247E+04  0.10100000352E+00 0.  1.
</event>
<event>
 5   0  0.9252359E-06  0.2768678E+04  0.7818609E-02  0.8313059E-01
       -2   -1    0    0    0  501  0.00000000000E+00  0.00000000000E+00  0.65024447243E+03  0.65024447244E+03  0.25500000920E-02 0. -1.
        2   -1    0    0  501    0  0.00000000000E+00  0.00000000000E+00 -0.29471911234E+04  0.29471911234E+04  0.25500000920E-02 0.  1.
    10030    2    1    2    0    0  0.00000000000E+00  0.00000000000E+00 -0.22969466509E+04  0.35974355958E+04  0.27686781952E+04 0.  0.
        5    1    3    3  502    0  0.71737817782E+03 -0.93088700562E+02  0.38511185837E+03  0.81953046901E+03  0.46999998093E+01 0. -1.
       -5    1    3    3    0  502 -0.71737817782E+03  0.93088700562E+02 -0.26820585093E+04  0.27779051268E+04  0.46999998093E+01 0.  1.
</event>
<event>
 5   0  0.3357244E-06  0.2797325E+04  0.7818609E-02  0.8304099E-01
        1   -1    0    0  501    0  0.00000000000E+00  0.00000000000E+00  0.10374149376E+04  0.10374149376E+04  0.50400001928E-02 0. -1.
       -1   -1    0    0    0  501  0.00000000000E+00  0.00000000000E+00 -0.18857029334E+04  0.18857029334E+04  0.50400001928E-02 0.  1.
    10030    2    1    2    0    0  0.00000000000E+00  0.00000000000E+00 -0.84828799582E+03  0.29231178710E+04  0.27973247155E+04 0.  0.
        4    1    3    3  502    0  0.10177517820E+03  0.92225962218E+03  0.66950179443E+03  0.11441832298E+04  0.12699999809E+01 0. -1.
       -4    1    3    3    0  502 -0.10177517820E+03 -0.92225962218E+03 -0.15177897903E+04  0.17789346413E+04  0.12699999809E+01 0.  1.
</event>
<event>
 5   0  0.3357244E-06  0.2808580E+04  0.7818609E-02  0.8300609E-01
        1   -1    0    0  501    0  0.00000000000E+00  0.00000000000E+00  0.21331500253E+04  0.21331500253E+04  0.50400001928E-02 0. -1.
       -1   -1    0    0    0  501  0.00000000000E+00  0.00000000000E+00 -0.92446893280E+03  0.92446893281E+03  0.50400001928E-02 0.  1.
    10030    2    1    2    0    0  0.00000000000E+00  0.00000000000E+00  0.12086810925E+04  0.30576189581E+04  0.28085803726E+04 0.  0.
        4    1    3    3  502    0  0.13086547798E+04  0.25726921872E+03  0.10829404251E+04  0.17180006871E+04  0.12699999809E+01 0. -1.
       -4    1    3    3    0  502 -0.13086547798E+04 -0.25726921872E+03  0.12574066738E+03  0.13396182710E+04  0.12699999809E+01 0.  1.
</event>
<event>
 5   0  0.3371603E-06  0.2835836E+04  0.7818609E-02  0.8292228E-01
        1   -1    0    0  501    0  0.00000000000E+00  0.00000000000E+00  0.17326938358E+04  0.17326938358E+04  0.50400001928E-02 0. -1.
       -1   -1    0    0    0  501  0.00000000000E+00  0.00000000000E+00 -0.11603270992E+04  0.11603270992E+04  0.50400001928E-02 0.  1.
    10030    2    1    2    0    0  0.00000000000E+00  0.00000000000E+00  0.57236673660E+03  0.28930209349E+04  0.28358361111E+04 0.  0.
        1    1    3    3  502    0 -0.70068943684E+02 -0.13821166671E+04 -0.28807317746E+02  0.13841914608E+04  0.50400001928E-02 0.  1.
       -1    1    3    3    0  502  0.70068943684E+02  0.13821166671E+04  0.60117405435E+03  0.15088294742E+04  0.50400001928E-02 0. -1.
</event>
<event>
 5   0  0.3371603E-06  0.2570716E+04  0.7818609E-02  0.8378217E-01
       -1   -1    0    0    0  501  0.00000000000E+00  0.00000000000E+00  0.12212965968E+04  0.12212965968E+04  0.50400001928E-02 0.  1.
        1   -1    0    0  501    0  0.00000000000E+00  0.00000000000E+00 -0.13527799448E+04  0.13527799449E+04  0.50400001928E-02 0. -1.
    10030    2    1    2    0    0  0.00000000000E+00  0.00000000000E+00 -0.13148334809E+03  0.25740765416E+04  0.25707162759E+04 0.  0.
        1    1    3    3  502    0 -0.66443560367E+03 -0.42615901252E+03  0.95000994848E+03  0.12351538680E+04  0.50400001928E-02 0.  1.
       -1    1    3    3    0  502  0.66443560367E+03  0.42615901252E+03 -0.10814932966E+04  0.13389226736E+04  0.50400001928E-02 0. -1.
</event>
<event>
 5   0  0.3397882E-06  0.2814894E+04  0.7818609E-02  0.8298659E-01
        1   -1    0    0  501    0  0.00000000000E+00  0.00000000000E+00  0.17010693724E+04  0.17010693725E+04  0.50400001928E-02 0. -1.
       -1   -1    0    0    0  501  0.00000000000E+00  0.00000000000E+00 -0.11645068998E+04  0.11645068999E+04  0.50400001928E-02 0.  1.
    10030    2    1    2    0    0  0.00000000000E+00  0.00000000000E+00  0.53656247260E+03  0.28655762723E+04  0.28148939741E+04 0.  0.
        2    1    3    3  502    0  0.65552968795E+03 -0.89669049635E+03 -0.61165090662E+03  0.12680259657E+04  0.25500000920E-02 0.  1.
       -2    1    3    3    0  502 -0.65552968795E+03  0.89669049635E+03  0.11482133792E+04  0.15975503066E+04  0.25500000920E-02 0. -1.
</event>
<event>
 5   0  0.3600963E-06  0.2850211E+04  0.7818609E-02  0.8287847E-01
       -1   -1    0    0    0  501  0.00000000000E+00  0.00000000000E+00  0.17784787602E+04  0.17784787602E+04  0.50400001928E-02 0.  1.
        1   -1    0    0  501    0  0.00000000000E+00  0.00000000000E+00 -0.11419454102E+04  0.11419454102E+04  0.50400001928E-02 0. -1.
    10030    2    1    2    0    0  0.00000000000E+00  0.00000000000E+00  0.63653334994E+03  0.29204241704E+04  0.28502109798E+04 0.  0.
        5    1    3    3  502    0 -0.13777854056E+04  0.36367457422E+03  0.29904972458E+03  0.14560235738E+04  0.46999998093E+01 0. -1.
       -5    1    3    3    0  502  0.13777854056E+04 -0.36367457422E+03  0.33748362536E+03  0.14644005966E+04  0.46999998093E+01 0.  1.
</event>
<event>
 5   0  0.3397882E-06  0.2852763E+04  0.7818609E-02  0.8287072E-01
        1   -1    0    0  501    0  0.00000000000E+00  0.00000000000E+00  0.22074234631E+04  0.22074234631E+04  0.50400001928E-02 0.  1.
       -1   -1    0    0    0  501  0.00000000000E+00  0.00000000000E+00 -0.92169183019E+03  0.92169183021E+03  0.50400001928E-02 0. -1.
    10030    2    1    2    0    0  0.00000000000E+00  0.00000000000E+00  0.12857316329E+04  0.31291152933E+04  0.28527629917E+04 0.  0.
        2    1    3    3  502    0 -0.41715474001E+03 -0.80135372770E+03  0.18535948321E+04  0.20620377484E+04  0.25500000920E-02 0.  1.
       -2    1    3    3    0  502  0.41715474001E+03  0.80135372770E+03 -0.56786319918E+03  0.10670775450E+04  0.25500000920E-02 0. -1.
</event>
<event>
 5   0  0.9260173E-06  0.2741696E+04  0.7818609E-02  0.8321601E-01
       -2   -1    0    0    0  501  0.00000000000E+00  0.00000000000E+00  0.10592967785E+04  0.10592967785E+04  0.25500000920E-02 0.  1.
        2   -1    0    0  501    0  0.00000000000E+00  0.00000000000E+00 -0.17740302252E+04  0.17740302252E+04  0.25500000920E-02 0. -1.
    10030    2    1    2    0    0  0.00000000000E+00  0.00000000000E+00 -0.71473344667E+03  0.28333270037E+04  0.27416961921E+04 0.  0.
        1    1    3    3  502    0 -0.10095729690E+04 -0.92291570194E+03 -0.45102416538E+03  0.14402894745E+04  0.50400001928E-02 0. -1.
       -1    1    3    3    0  502  0.10095729690E+04  0.92291570194E+03 -0.26370928129E+03  0.13930375292E+04  0.50400001928E-02 0.  1.
</event>
<event>
 5   0  0.9260173E-06  0.2804265E+04  0.7818609E-02  0.8301945E-01
        2   -1    0    0  501    0  0.00000000000E+00  0.00000000000E+00  0.20540587876E+04  0.20540587876E+04  0.25500000920E-02 0. -1.
       -2   -1    0    0    0  501  0.00000000000E+00  0.00000000000E+00 -0.95711779237E+03  0.95711779237E+03  0.25500000920E-02 0.  1.
    10030    2    1    2    0    0  0.00000000000E+00  0.00000000000E+00  0.10969409952E+04  0.30111765799E+04  0.28042654740E+04 0.  0.
        1    1    3    3  502    0 -0.75041106424E+03  0.24898626474E+03  0.17918670898E+04  0.19585450193E+04  0.50400001928E-02 0. -1.
       -1    1    3    3    0  502  0.75041106424E+03 -0.24898626474E+03 -0.69492609459E+03  0.10526315606E+04  0.50400001928E-02 0.  1.
</event>
<event>
 5   0  0.9342133E-06  0.2778554E+04  0.7818609E-02  0.8309958E-01
       -2   -1    0    0    0  501  0.00000000000E+00  0.00000000000E+00  0.11372547374E+04  0.11372547374E+04  0.25500000920E-02 0. -1.
        2   -1    0    0  501    0  0.00000000000E+00  0.00000000000E+00 -0.16971488788E+04  0.16971488788E+04  0.25500000920E-02 0.  1.
    10030    2    1    2    0    0  0.00000000000E+00  0.00000000000E+00 -0.55989414147E+03  0.28344036162E+04  0.27785540142E+04 0.  0.
        2    1    3    3  502    0  0.11565950365E+04  0.14779835420E+03 -0.10504666518E+04  0.15694064542E+04  0.25500000920E-02 0.  1.
       -2    1    3    3    0  502 -0.11565950365E+04 -0.14779835420E+03  0.49057251028E+03  0.12649971620E+04  0.25500000920E-02 0. -1.
</event>
<event>
 5   0  0.3357244E-06  0.2830048E+04  0.7818609E-02  0.8294000E-01
       -1   -1    0    0    0  501  0.00000000000E+00  0.00000000000E+00  0.15821745125E+04  0.15821745125E+04  0.50400001928E-02 0.  1.
        1   -1    0    0  501    0  0.00000000000E+00  0.00000000000E+00 -0.12655320307E+04  0.12655320307E+04  0.50400001928E-02 0. -1.
    10030    2    1    2    0    0  0.00000000000E+00  0.00000000000E+00  0.31664248185E+03  0.28477065432E+04  0.28300477195E+04 0.  0.
        4    1    3    3  502    0 -0.43506935378E+03  0.11861081094E+04 -0.48295680477E+03  0.13525482165E+04  0.12699999809E+01 0. -1.
       -4    1    3    3    0  502  0.43506935378E+03 -0.11861081094E+04  0.79959928662E+03  0.14951583267E+04  0.12699999809E+01 0.  1.
</event>
<event>
 5   0  0.3357244E-06  0.2868633E+04  0.7818609E-02  0.8282272E-01
       -1   -1    0    0    0  501  0.00000000000E+00  0.00000000000E+00  0.11045539832E+04  0.11045539832E+04  0.50400001928E-02 0.  1.
        1   -1    0    0  501    0  0.00000000000E+00  0.00000000000E+00 -0.18625283923E+04  0.18625283924E+04  0.50400001928E-02 0. -1.
    10030    2    1    2    0    0  0.00000000000E+00  0.00000000000E+00 -0.75797440919E+03  0.29670823755E+04  0.28686325345E+04 0.  0.
        4    1    3    3  502    0  0.72484957698E+03 -0.44423520752E+03  0.81586875408E+03  0.11783018568E+04  0.12699999809E+01 0.  1.
       -4    1    3    3    0  502 -0.72484957698E+03  0.44423520752E+03 -0.15738431633E+04  0.17887805188E+04  0.12699999809E+01 0. -1.
</event>
<event>
 5   0  0.3371603E-06  0.2805053E+04  0.7818609E-02  0.8301701E-01
       -1   -1    0    0    0  501  0.00000000000E+00  0.00000000000E+00  0.17892024745E+04  0.17892024745E+04  0.50400001928E-02 0.  1.
        1   -1    0    0  501    0  0.00000000000E+00  0.00000000000E+00 -0.10994175539E+04  0.10994175539E+04  0.50400001928E-02 0. -1.
    10030    2    1    2    0    0  0.00000000000E+00  0.00000000000E+00  0.68978492059E+03  0.28886200284E+04  0.28050530176E+04 0.  0.
        1    1    3    3  502    0  0.66775532721E+02  0.13017679150E+04 -0.18823924448E+03  0.13170014007E+04  0.50400001928E-02 0. -1.
       -1    1    3    3    0  502 -0.66775532721E+02 -0.13017679150E+04  0.87802416507E+03  0.15716186277E+04  0.50400001928E-02 0.  1.
</event>
<event>
 5   0  0.3397882E-06  0.2800953E+04  0.7818609E-02  0.8302973E-01
        1   -1    0    0  501    0  0.00000000000E+00  0.00000000000E+00  0.17156424890E+04  0.17156424890E+04  0.50400001928E-02 0. -1.
       -1   -1    0    0    0  501  0.00000000000E+00  0.00000000000E+00 -0.11432067258E+04  0.11432067259E+04  0.50400001928E-02 0.  1.
    10030    2    1    2    0    0  0.00000000000E+00  0.00000000000E+00  0.57243576314E+03  0.28588492148E+04  0.28009527183E+04 0.  0.
        2    1    3    3  502    0  0.59786743040E+01  0.71901150818E+03 -0.94042260735E+03  0.11838107847E+04  0.25500000920E-02 0.  1.
       -2    1    3    3    0  502 -0.59786743040E+01 -0.71901150818E+03  0.15128583705E+04  0.16750384302E+04  0.25500000920E-02 0. -1.
</event>
<event>
 5   0  0.3397882E-06  0.2358868E+04  0.7818609E-02  0.8455065E-01
       -1   -1    0    0    0  501  0.00000000000E+00  0.00000000000E+00  0.53081067178E+03  0.53081067180E+03  0.50400001928E-02 0. -1.
        1   -1    0    0  501    0  0.00000000000E+00  0.00000000000E+00 -0.26206413641E+04  0.26206413641E+04  0.50400001928E-02 0.  1.
    10030    2    1    2    0    0  0.00000000000E+00  0.00000000000E+00 -0.20898306923E+04  0.31514520359E+04  0.23588678666E+04 0.  0.
        2    1    3    3  502    0  0.68719850593E+03 -0.83315829344E+03 -0.16781716311E+04  0.19956589267E+04  0.25500000920E-02 0.  1.
       -2    1    3    3    0  502 -0.68719850593E+03  0.83315829344E+03 -0.41165906123E+03  0.11557931092E+04  0.25500000920E-02 0. -1.
</event>
<event>
 5   0  0.9065579E-06  0.2789379E+04  0.7818609E-02  0.8306573E-01
        2   -1    0    0  501    0  0.00000000000E+00  0.00000000000E+00  0.22706112025E+04  0.22706112025E+04  0.25500000920E-02 0.  1.
       -2   -1    0    0    0  501  0.00000000000E+00  0.00000000000E+00 -0.85666719793E+03  0.85666719793E+03  0.25500000920E-02 0. -1.
    10030    2    1    2    0    0  0.00000000000E+00  0.00000000000E+00  0.14139440046E+04  0.31272784004E+04  0.27893785232E+04 0.  0.
        3    1    3    3  502    0  0.99092778785E+03 -0.63689247286E+03  0.15441463046E+04  0.19421528578E+04  0.10100000352E+00 0.  1.
       -3    1    3    3    0  502 -0.99092778785E+03  0.63689247286E+03 -0.13020230005E+03  0.11851255427E+04  0.10100000352E+00 0. -1.
</event>
<event>
 5   0  0.9260173E-06  0.2783675E+04  0.7818609E-02  0.8308355E-01
       -2   -1    0    0    0  501  0.00000000000E+00  0.00000000000E+00  0.10509323434E+04  0.10509323434E+04  0.25500000920E-02 0.  1.
        2   -1    0    0  501    0  0.00000000000E+00  0.00000000000E+00 -0.18433260638E+04  0.18433260638E+04  0.25500000920E-02 0. -1.
    10030    2    1    2    0    0  0.00000000000E+00  0.00000000000E+00 -0.79239372036E+03  0.28942584072E+04  0.27836745355E+04 0.  0.
        1    1    3    3  502    0  0.65196462874E+03  0.73983121895E+03  0.62506741532E+03  0.11675261810E+04  0.50400001928E-02 0.  1.
       -1    1    3    3    0  502 -0.65196462874E+03 -0.73983121895E+03 -0.14174611357E+04  0.17267322262E+04  0.50400001928E-02 0. -1.
</event>
<event>
 5   0  0.9065579E-06  0.2801911E+04  0.7818609E-02  0.8302675E-01
        2   -1    0    0  501    0  0.00000000000E+00  0.00000000000E+00  0.18857817040E+04  0.18857817040E+04  0.25500000920E-02 0. -1.
       -2   -1    0    0    0  501  0.00000000000E+00  0.00000000000E+00 -0.10407759971E+04  0.10407759971E+04  0.25500000920E-02 0.  1.
    10030    2    1    2    0    0  0.00000000000E+00  0.00000000000E+00  0.84500570689E+03  0.29265577010E+04  0.28019110144E+04 0.  0.
        3    1    3    3  502    0 -0.11767921368E+04 -0.58485661450E+03  0.92967526049E+03  0.16097183272E+04  0.10100000352E+00 0. -1.
       -3    1    3    3    0  502  0.11767921368E+04  0.58485661450E+03 -0.84669553601E+02  0.13168393738E+04  0.10100000352E+00 0.  1.
</event>
<event>
 5   0  0.3371603E-06  0.2810527E+04  0.7818609E-02  0.8300008E-01
        1   -1    0    0  501    0  0.00000000000E+00  0.00000000000E+00  0.17054040424E+04  0.17054040424E+04  0.50400001928E-02 0.  1.
       -1   -1    0    0    0  501  0.00000000000E+00  0.00000000000E+00 -0.11579457050E+04  0.11579457051E+04  0.50400001928E-02 0. -1.
    10030    2    1    2    0    0  0.00000000000E+00  0.00000000000E+00  0.54745833735E+03  0.28633497475E+04  0.28105268448E+04 0.  0.
        1    1    3    3  502    0 -0.31306707841E+03 -0.18022809065E+03 -0.11098345410E+04  0.11671443221E+04  0.50400001928E-02 0. -1.
       -1    1    3    3    0  502  0.31306707841E+03  0.18022809065E+03  0.16572928784E+04  0.16962054253E+04  0.50400001928E-02 0.  1.
</event>
<event>
 5   0  0.9342133E-06  0.2802794E+04  0.7818609E-02  0.8302401E-01
        2   -1    0    0  501    0  0.00000000000E+00  0.00000000000E+00  0.12248789483E+04  0.12248789483E+04  0.25500000920E-02 0.  1.
       -2   -1    0    0    0  501  0.00000000000E+00  0.00000000000E+00 -0.16033532193E+04  0.16033532193E+04  0.25500000920E-02 0. -1.
    10030    2    1    2    0    0  0.00000000000E+00  0.00000000000E+00 -0.37847427101E+03  0.28282321675E+04  0.28027940380E+04 0.  0.
        2    1    3    3  502    0 -0.90161876468E+02 -0.68057052859E+03  0.10435746672E+04  0.12491411027E+04  0.25500000920E-02 0.  1.
       -2    1    3    3    0  502  0.90161876468E+02  0.68057052859E+03 -0.14220489382E+04  0.15790910649E+04  0.25500000920E-02 0. -1.
</event>
<event>
 5   0  0.9342133E-06  0.2790928E+04  0.7818609E-02  0.8306090E-01
        2   -1    0    0  501    0  0.00000000000E+00  0.00000000000E+00  0.11442801814E+04  0.11442801814E+04  0.25500000920E-02 0.  1.
       -2   -1    0    0    0  501  0.00000000000E+00  0.00000000000E+00 -0.17017854289E+04  0.17017854289E+04  0.25500000920E-02 0. -1.
    10030    2    1    2    0    0  0.00000000000E+00  0.00000000000E+00 -0.55750524753E+03  0.28460656103E+04  0.27909276875E+04 0.  0.
        2    1    3    3  502    0 -0.43266038149E+03 -0.18408238729E+03 -0.16185732545E+04  0.16854853044E+04  0.25500000920E-02 0. -1.
       -2    1    3    3    0  502  0.43266038149E+03  0.18408238729E+03  0.10610680070E+04  0.11605803059E+04  0.25500000920E-02 0.  1.
</event>
<event>
 5   0  0.3371603E-06  0.2776032E+04  0.7818609E-02  0.8310748E-01
       -1   -1    0    0    0  501  0.00000000000E+00  0.00000000000E+00  0.16025495475E+04  0.16025495475E+04  0.50400001928E-02 0.  1.
        1   -1    0    0  501    0  0.00000000000E+00  0.00000000000E+00 -0.12022023227E+04  0.12022023227E+04  0.50400001928E-02 0. -1.
    10030    2    1    2    0    0  0.00000000000E+00  0.00000000000E+00  0.40034722475E+03  0.28047518702E+04  0.27760322680E+04 0.  0.
        1    1    3    3  502    0  0.70052216155E+03  0.20902348086E+03  0.13922814765E+04  0.15725361122E+04  0.50400001928E-02 0.  1.
       -1    1    3    3    0  502 -0.70052216155E+03 -0.20902348086E+03 -0.99193425177E+03  0.12322157580E+04  0.50400001928E-02 0. -1.
</event>
<event>
 5   0  0.3357244E-06  0.2788140E+04  0.7818609E-02  0.8306960E-01
       -1   -1    0    0    0  501  0.00000000000E+00  0.00000000000E+00  0.77375017769E+03  0.77375017770E+03  0.50400001928E-02 0. -1.
        1   -1    0    0  501    0  0.00000000000E+00  0.00000000000E+00 -0.25117031316E+04  0.25117031316E+04  0.50400001928E-02 0.  1.
    10030    2    1    2    0    0  0.00000000000E+00  0.00000000000E+00 -0.17379529539E+04  0.32854533093E+04  0.27881396984E+04 0.  0.
        4    1    3    3  502    0 -0.11059361051E+04  0.53428923540E+03 -0.16460466370E+04  0.20537845066E+04  0.12699999809E+01 0. -1.
       -4    1    3    3    0  502  0.11059361051E+04 -0.53428923540E+03 -0.91906316923E+02  0.12316688027E+04  0.12699999809E+01 0.  1.
</event>
<event>
 5   0  0.3600963E-06  0.2591094E+04  0.7818609E-02  0.8371233E-01
       -1   -1    0    0    0  501  0.00000000000E+00  0.00000000000E+00  0.80249154008E+03  0.80249154009E+03  0.50400001928E-02 0. -1.
        1   -1    0    0  501    0  0.00000000000E+00  0.00000000000E+00 -0.20915381934E+04  0.20915381934E+04  0.50400001928E-02 0.  1.
    10030    2    1    2    0    0  0.00000000000E+00  0.00000000000E+00 -0.12890466533E+04  0.28940297335E+04  0.25910937505E+04 0.  0.
        5    1    3    3  502    0 -0.99505559184E+03 -0.22822687604E+02  0.28175030422E+03  0.10344379294E+04  0.46999998093E+01 0. -1.
       -5    1    3    3    0  502  0.99505559184E+03  0.22822687604E+02 -0.15707969575E+04  0.18595918040E+04  0.46999998093E+01 0.  1.
</event>
<event>
 5   0  0.9426937E-06  0.2803426E+04  0.7818609E-02  0.8302205E-01
        2   -1    0    0  501    0  0.00000000000E+00  0.00000000000E+00  0.16600869614E+04  0.16600869614E+04  0.25500000920E-02 0. -1.
       -2   -1    0    0    0  501  0.00000000000E+00  0.00000000000E+00 -0.11835522038E+04  0.11835522038E+04  0.25500000920E-02 0.  1.
    10030    2    1    2    0    0  0.00000000000E+00  0.00000000000E+00  0.47653475759E+03  0.28436391652E+04  0.28034261765E+04 0.  0.
        4    1    3    3  502    0  0.12864033679E+04  0.51191514299E+03  0.46028420727E+03  0.14590249837E+04  0.12699999809E+01 0. -1.
       -4    1    3    3    0  502 -0.12864033679E+04 -0.51191514299E+03  0.16250550323E+02  0.13846141816E+04  0.12699999809E+01 0.  1.
</event>
<event>
 5   0  0.3600963E-06  0.2798387E+04  0.7818609E-02  0.8303769E-01
       -1   -1    0    0    0  501  0.00000000000E+00  0.00000000000E+00  0.88303876348E+03  0.88303876349E+03  0.50400001928E-02 0. -1.
        1   -1    0    0  501    0  0.00000000000E+00  0.00000000000E+00 -0.22170515213E+04  0.22170515213E+04  0.50400001928E-02 0.  1.
    10030    2    1    2    0    0  0.00000000000E+00  0.00000000000E+00 -0.13340127578E+04  0.31000902848E+04  0.27983869882E+04 0.  0.
        5    1    3    3  502    0  0.36738196798E+03  0.13093681615E+04 -0.30242664015E+03  0.13931613171E+04  0.46999998093E+01 0. -1.
       -5    1    3    3    0  502 -0.36738196798E+03 -0.13093681615E+04 -0.10315861177E+04  0.17069289677E+04  0.46999998093E+01 0.  1.
</event>
<event>
 5   0  0.9065579E-06  0.2805369E+04  0.7818609E-02  0.8301603E-01
       -2   -1    0    0    0  501  0.00000000000E+00  0.00000000000E+00  0.11830699614E+04  0.11830699614E+04  0.25500000920E-02 0.  1.
        2   -1    0    0  501    0  0.00000000000E+00  0.00000000000E+00 -0.16630665377E+04  0.16630665377E+04  0.25500000920E-02 0. -1.
    10030    2    1    2    0    0  0.00000000000E+00  0.00000000000E+00 -0.47999657635E+03  0.28461364991E+04  0.28053691839E+04 0.  0.
        3    1    3    3  502    0 -0.12370847817E+04 -0.63580897281E+03 -0.56000553530E+02  0.13920373124E+04  0.10100000352E+00 0.  1.
       -3    1    3    3    0  502  0.12370847817E+04  0.63580897281E+03 -0.42399602282E+03  0.14540991866E+04  0.10100000352E+00 0. -1.
</event>
<event>
 5   0  0.3600963E-06  0.2813810E+04  0.7818609E-02  0.8298994E-01
        1   -1    0    0  501    0  0.00000000000E+00  0.00000000000E+00  0.18200326750E+04  0.18200326750E+04  0.50400001928E-02 0.  1.
       -1   -1    0    0    0  501  0.00000000000E+00  0.00000000000E+00 -0.10875532103E+04  0.10875532103E+04  0.50400001928E-02 0. -1.
    10030    2    1    2    0    0  0.00000000000E+00  0.00000000000E+00  0.73247946470E+03  0.29075858852E+04  0.28138104971E+04 0.  0.
        5    1    3    3  502    0 -0.46776702371E+03 -0.96424581524E+03 -0.57561049913E+03  0.12165218935E+04  0.46999998093E+01 0. -1.
       -5    1    3    3    0  502  0.46776702371E+03  0.96424581524E+03  0.13080899638E+04  0.16910639917E+04  0.46999998093E+01 0.  1.
</event>
<event>
 5   0  0.3438130E-06  0.2785516E+04  0.7818609E-02  0.8307779E-01
        1   -1    0    0  501    0  0.00000000000E+00  0.00000000000E+00  0.11116232895E+04  0.11116232895E+04  0.50400001928E-02 0.  1.
       -1   -1    0    0    0  501  0.00000000000E+00  0.00000000000E+00 -0.17449925240E+04  0.17449925240E+04  0.50400001928E-02 0. -1.
    10030    2    1    2    0    0  0.00000000000E+00  0.00000000000E+00 -0.63336923454E+03  0.28566158135E+04  0.27855156289E+04 0.  0.
        3    1    3    3  502    0 -0.40977234314E+03  0.58372134805E+03 -0.15435186926E+04  0.17003217196E+04  0.10100000352E+00 0. -1.
       -3    1    3    3    0  502  0.40977234314E+03 -0.58372134805E+03  0.91014945811E+03  0.11562940939E+04  0.10100000352E+00 0.  1.
</event>
<event>
 5   0  0.3438130E-06  0.2795403E+04  0.7818609E-02  0.8304697E-01
        1   -1    0    0  501    0  0.00000000000E+00  0.00000000000E+00  0.96092835890E+03  0.96092835891E+03  0.50400001928E-02 0.  1.
       -1   -1    0    0    0  501  0.00000000000E+00  0.00000000000E+00 -0.20330015620E+04  0.20330015620E+04  0.50400001928E-02 0. -1.
    10030    2    1    2    0    0  0.00000000000E+00  0.00000000000E+00 -0.10720732031E+04  0.29939299209E+04  0.27954025504E+04 0.  0.
        3    1    3    3  502    0  0.39273002516E+03 -0.16955375185E+03 -0.19611698736E+04  0.20072799084E+04  0.10100000352E+00 0. -1.
       -3    1    3    3    0  502 -0.39273002516E+03  0.16955375185E+03  0.88909667051E+03  0.98665001249E+03  0.10100000352E+00 0.  1.
</event>
<event>
 5   0  0.3006875E-06  0.2688342E+04  0.7818609E-02  0.8338797E-01
       -3   -1    0    0    0  501  0.00000000000E+00  0.00000000000E+00  0.11140682014E+04  0.11140682060E+04  0.10100000352E+00 0. -1.
        3   -1    0    0  501    0  0.00000000000E+00  0.00000000000E+00 -0.16217999292E+04  0.16217999324E+04  0.10100000352E+00 0.  1.
    10030    2    1    2    0    0  0.00000000000E+00  0.00000000000E+00 -0.50773172787E+03  0.27358681383E+04  0.26883420472E+04 0.  0.
        2    1    3    3  502    0 -0.66135074956E+03  0.19273766087E+03  0.92077644657E+03  0.11499399482E+04  0.25500000920E-02 0. -1.
       -2    1    3    3    0  502  0.66135074956E+03 -0.19273766087E+03 -0.14285081744E+04  0.15859281902E+04  0.25500000920E-02 0.  1.
</event>
<event>
 5   0  0.9426937E-06  0.2700540E+04  0.7818609E-02  0.8334830E-01
       -2   -1    0    0    0  501  0.00000000000E+00  0.00000000000E+00  0.10472471524E+04  0.10472471524E+04  0.25500000920E-02 0. -1.
        2   -1    0    0  501    0  0.00000000000E+00  0.00000000000E+00 -0.17409734670E+04  0.17409734670E+04  0.25500000920E-02 0.  1.
    10030    2    1    2    0    0  0.00000000000E+00  0.00000000000E+00 -0.69372631459E+03  0.27882206193E+04  0.27005403205E+04 0.  0.
        4    1    3    3  502    0 -0.32518006911E+03  0.47691194087E+03 -0.16071678436E+04  0.17076818109E+04  0.12699999809E+01 0.  1.
       -4    1    3    3    0  502  0.32518006911E+03 -0.47691194087E+03  0.91344152904E+03  0.10805388084E+04  0.12699999809E+01 0. -1.
</event>
<event>
 5   0  0.9065579E-06  0.2845834E+04  0.7818609E-02  0.8289178E-01
        2   -1    0    0  501    0  0.00000000000E+00  0.00000000000E+00  0.18531377643E+04  0.18531377644E+04  0.25500000920E-02 0.  1.
       -2   -1    0    0    0  501  0.00000000000E+00  0.00000000000E+00 -0.10925757690E+04  0.10925757690E+04  0.25500000920E-02 0. -1.
    10030    2    1    2    0    0  0.00000000000E+00  0.00000000000E+00  0.76056199537E+03  0.29457135333E+04  0.28458344421E+04 0.  0.
        3    1    3    3  502    0 -0.74856755354E+03  0.89632815738E+03  0.12217934302E+04  0.16901292093E+04  0.10100000352E+00 0.  1.
       -3    1    3    3    0  502  0.74856755354E+03 -0.89632815738E+03 -0.46123143487E+03  0.12555843240E+04  0.10100000352E+00 0. -1.
</event>
<event>
 5   0  0.9342133E-06  0.2783272E+04  0.7818609E-02  0.8308481E-01
       -2   -1    0    0    0  501  0.00000000000E+00  0.00000000000E+00  0.11722636445E+04  0.11722636445E+04  0.25500000920E-02 0.  1.
        2   -1    0    0  501    0  0.00000000000E+00  0.00000000000E+00 -0.16520602157E+04  0.16520602157E+04  0.25500000920E-02 0. -1.
    10030    2    1    2    0    0  0.00000000000E+00  0.00000000000E+00 -0.47979657120E+03  0.28243238603E+04  0.27832715495E+04 0.  0.
        2    1    3    3  502    0 -0.76866539039E+03  0.43494901804E+03 -0.13312251012E+04  0.15975566972E+04  0.25500000920E-02 0.  1.
       -2    1    3    3    0  502  0.76866539039E+03 -0.43494901804E+03  0.85142853002E+03  0.12267671631E+04  0.25500000920E-02 0. -1.
</event>
<event>
 5   0  0.9260173E-06  0.2791912E+04  0.7818609E-02  0.8305784E-01
        2   -1    0    0  501    0  0.00000000000E+00  0.00000000000E+00  0.13171589606E+04  0.13171589606E+04  0.25500000920E-02 0. -1.
       -2   -1    0    0    0  501  0.00000000000E+00  0.00000000000E+00 -0.14794672456E+04  0.14794672456E+04  0.25500000920E-02 0.  1.
    10030    2    1    2    0    0  0.00000000000E+00  0.00000000000E+00 -0.16230828494E+03  0.27966262062E+04  0.27919122761E+04 0.  0.
        1    1    3    3  502    0  0.67335676282E+03 -0.58380761015E+03  0.99511468329E+03  0.13358495007E+04  0.50400001928E-02 0. -1.
       -1    1    3    3    0  502 -0.67335676282E+03  0.58380761015E+03 -0.11574229682E+04  0.14607767054E+04  0.50400001928E-02 0.  1.
</event>
<event>
 5   0  0.9252359E-06  0.2547430E+04  0.7818609E-02  0.8386281E-01
        2   -1    0    0  501    0  0.00000000000E+00  0.00000000000E+00  0.54220410240E+03  0.54220410240E+03  0.25500000920E-02 0.  1.
       -2   -1    0    0    0  501  0.00000000000E+00  0.00000000000E+00 -0.29921378183E+04  0.29921378183E+04  0.25500000920E-02 0. -1.
    10030    2    1    2    0    0  0.00000000000E+00  0.00000000000E+00 -0.24499337159E+04  0.35343419207E+04  0.25474296065E+04 0.  0.
        5    1    3    3  502    0 -0.12823827836E+03  0.71155023863E+02 -0.29803725994E+04  0.29839824085E+04  0.46999998093E+01 0. -1.
       -5    1    3    3    0  502  0.12823827836E+03 -0.71155023863E+02  0.53043888350E+03  0.55035951212E+03  0.46999998093E+01 0.  1.
</event>
<event>
 5   0  0.9065579E-06  0.2806499E+04  0.7818609E-02  0.8301253E-01
       -2   -1    0    0    0  501  0.00000000000E+00  0.00000000000E+00  0.19554337462E+04  0.19554337462E+04  0.25500000920E-02 0. -1.
        2   -1    0    0  501    0  0.00000000000E+00  0.00000000000E+00 -0.10069937142E+04  0.10069937143E+04  0.25500000920E-02 0.  1.
    10030    2    1    2    0    0  0.00000000000E+00  0.00000000000E+00  0.94844003192E+03  0.29624274604E+04  0.28064992364E+04 0.  0.
        3    1    3    3  502    0  0.87428714341E+02 -0.10094404731E+04  0.14989807343E+04  0.18092974053E+04  0.10100000352E+00 0. -1.
       -3    1    3    3    0  502 -0.87428714341E+02  0.10094404731E+04 -0.55054070234E+03  0.11531300551E+04  0.10100000352E+00 0.  1.
</event>
<event>
 5   0  0.3438130E-06  0.2351008E+04  0.7818609E-02  0.8458076E-01
        1   -1    0    0  501    0  0.00000000000E+00  0.00000000000E+00  0.74286120940E+03  0.74286120942E+03  0.50400001928E-02 0.  1.
       -1   -1    0    0    0  501  0.00000000000E+00  0.00000000000E+00 -0.18601186027E+04  0.18601186027E+04  0.50400001928E-02 0. -1.
    10030    2    1    2    0    0  0.00000000000E+00  0.00000000000E+00 -0.11172573933E+04  0.26029798121E+04  0.23510082559E+04 0.  0.
        3    1    3    3  502    0  0.11355703428E+03 -0.32891067640E+03  0.68453443522E+03  0.76789637080E+03  0.10100000352E+00 0.  1.
       -3    1    3    3    0  502 -0.11355703428E+03  0.32891067640E+03 -0.18017918285E+04  0.18350834413E+04  0.10100000352E+00 0. -1.
</event>
<event>
 5   0  0.3438130E-06  0.2740960E+04  0.7818609E-02  0.8321836E-01
        1   -1    0    0  501    0  0.00000000000E+00  0.00000000000E+00  0.22555669823E+04  0.22555669823E+04  0.50400001928E-02 0.  1.
       -1   -1    0    0    0  501  0.00000000000E+00  0.00000000000E+00 -0.83270188520E+03  0.83270188522E+03  0.50400001928E-02 0. -1.
    10030    2    1    2    0    0  0.00000000000E+00  0.00000000000E+00  0.14228650971E+04  0.30882688675E+04  0.27409595972E+04 0.  0.
        3    1    3    3  502    0 -0.89419893314E+03 -0.66303738577E+03  0.16120999588E+04  0.19591009658E+04  0.10100000352E+00 0.  1.
       -3    1    3    3    0  502  0.89419893314E+03  0.66303738577E+03 -0.18923486176E+03  0.11291679016E+04  0.10100000352E+00 0. -1.
</event>
<event>
 5   0  0.3600963E-06  0.2800686E+04  0.7818609E-02  0.8303055E-01
       -1   -1    0    0    0  501  0.00000000000E+00  0.00000000000E+00  0.11305911865E+04  0.11305911865E+04  0.50400001928E-02 0. -1.
        1   -1    0    0  501    0  0.00000000000E+00  0.00000000000E+00 -0.17344564133E+04  0.17344564133E+04  0.50400001928E-02 0.  1.
    10030    2    1    2    0    0  0.00000000000E+00  0.00000000000E+00 -0.60386522675E+03  0.28650475998E+04  0.28006864404E+04 0.  0.
        5    1    3    3  502    0  0.45076337471E+03 -0.23941897246E+03 -0.16359046618E+04  0.17136846901E+04  0.46999998093E+01 0.  1.
       -5    1    3    3    0  502 -0.45076337471E+03  0.23941897246E+03  0.10320394351E+04  0.11513629098E+04  0.46999998093E+01 0. -1.
</event>
<event>
 5   0  0.3438130E-06  0.2808597E+04  0.7818609E-02  0.8300604E-01
        1   -1    0    0  501    0  0.00000000000E+00  0.00000000000E+00  0.21000434694E+04  0.21000434694E+04  0.50400001928E-02 0.  1.
       -1   -1    0    0    0  501  0.00000000000E+00  0.00000000000E+00 -0.93905392607E+03  0.93905392609E+03  0.50400001928E-02 0. -1.
    10030    2    1    2    0    0  0.00000000000E+00  0.00000000000E+00  0.11609895434E+04  0.30390973955E+04  0.28085968489E+04 0.  0.
        3    1    3    3  502    0  0.67873014384E+03 -0.24693285163E+03 -0.72267095841E+03  0.10217160886E+04  0.10100000352E+00 0. -1.
       -3    1    3    3    0  502 -0.67873014384E+03  0.24693285163E+03  0.18836605018E+04  0.20173813069E+04  0.10100000352E+00 0.  1.
</event>
<event>
 5   0  0.9342133E-06  0.3021319E+04  0.7818609E-02  0.8237669E-01
       -2   -1    0    0    0  501  0.00000000000E+00  0.00000000000E+00  0.12608530276E+04  0.12608530276E+04  0.25500000920E-02 0. -1.
        2   -1    0    0  501    0  0.00000000000E+00  0.00000000000E+00 -0.18099589517E+04  0.18099589517E+04  0.25500000920E-02 0.  1.
    10030    2    1    2    0    0  0.00000000000E+00  0.00000000000E+00 -0.54910592417E+03  0.30708119793E+04  0.30213190656E+04 0.  0.
        2    1    3    3  502    0 -0.11994487549E+04  0.44562108965E+03 -0.10907246510E+04  0.16813493794E+04  0.25500000920E-02 0.  1.
       -2    1    3    3    0  502  0.11994487549E+04 -0.44562108965E+03  0.54161872684E+03  0.13894625999E+04  0.25500000920E-02 0. -1.
</event>
<event>
 5   0  0.9065579E-06  0.2814053E+04  0.7818609E-02  0.8298919E-01
        2   -1    0    0  501    0  0.00000000000E+00  0.00000000000E+00  0.14951318401E+04  0.14951318401E+04  0.25500000920E-02 0.  1.
       -2   -1    0    0    0  501  0.00000000000E+00  0.00000000000E+00 -0.13241131551E+04  0.13241131551E+04  0.25500000920E-02 0. -1.
    10030    2    1    2    0    0  0.00000000000E+00  0.00000000000E+00  0.17101868505E+03  0.28192449952E+04  0.28140531183E+04 0.  0.
        3    1    3    3  502    0  0.75446636595E+03 -0.90846543204E+03 -0.68088228638E+03  0.13631322888E+04  0.10100000352E+00 0. -1.
       -3    1    3    3    0  502 -0.75446636595E+03  0.90846543204E+03  0.85190097143E+03  0.14561127064E+04  0.10100000352E+00 0.  1.
</event>
<event>
 5   0  0.3438130E-06  0.2810935E+04  0.7818609E-02  0.8299881E-01
       -1   -1    0    0    0  501  0.00000000000E+00  0.00000000000E+00  0.11282061995E+04  0.11282061995E+04  0.50400001928E-02 0.  1.
        1   -1    0    0  501    0  0.00000000000E+00  0.00000000000E+00 -0.17508673144E+04  0.17508673144E+04  0.50400001928E-02 0. -1.
    10030    2    1    2    0    0  0.00000000000E+00  0.00000000000E+00 -0.62266111484E+03  0.28790735139E+04  0.28109353309E+04 0.  0.
        3    1    3    3  502    0 -0.60540621323E+02  0.14269033109E+03 -0.17420861146E+04  0.17489681924E+04  0.10100000352E+00 0. -1.
       -3    1    3    3    0  502  0.60540621323E+02 -0.14269033109E+03  0.11194249997E+04  0.11301053215E+04  0.10100000352E+00 0.  1.
</event>
<event>
 5   0  0.3397882E-06  0.2803880E+04  0.7818609E-02  0.8302065E-01
       -1   -1    0    0    0  501  0.00000000000E+00  0.00000000000E+00  0.16011412109E+04  0.16011412110E+04  0.50400001928E-02 0. -1.
        1   -1    0    0  501    0  0.00000000000E+00  0.00000000000E+00 -0.12275220395E+04  0.12275220395E+04  0.50400001928E-02 0.  1.
    10030    2    1    2    0    0  0.00000000000E+00  0.00000000000E+00  0.37361917149E+03  0.28286632504E+04  0.28038802576E+04 0.  0.
        2    1    3    3  502    0  0.13021489687E+04  0.44418923851E+03  0.45852287875E+03  0.14502204131E+04  0.25500000920E-02 0. -1.
       -2    1    3    3    0  502 -0.13021489687E+04 -0.44418923851E+03 -0.84903707259E+02  0.13784428373E+04  0.25500000920E-02 0.  1.
</event>
<event>
 5   0  0.9342133E-06  0.3043047E+04  0.7818609E-02  0.8231544E-01
        2   -1    0    0  501    0  0.00000000000E+00  0.00000000000E+00  0.13120665555E+04  0.13120665555E+04  0.25500000920E-02 0.  1.
       -2   -1    0    0    0  501  0.00000000000E+00  0.00000000000E+00 -0.17644175881E+04  0.17644175881E+04  0.25500000920E-02 0. -1.
    10030    2    1    2    0    0  0.00000000000E+00  0.00000000000E+00 -0.45235103255E+03  0.30764841436E+04  0.30430467018E+04 0.  0.
        2    1    3    3  502    0 -0.10445815262E+04 -0.10244754829E+03  0.88746693019E+03  0.13744975872E+04  0.25500000920E-02 0.  1.
       -2    1    3    3    0  502  0.10445815262E+04  0.10244754829E+03 -0.13398179627E+04  0.17019865564E+04  0.25500000920E-02 0. -1.
</event>
<event>
 5   0  0.3357244E-06  0.2777143E+04  0.7818609E-02  0.8310400E-01
       -1   -1    0    0    0  501  0.00000000000E+00  0.00000000000E+00  0.16143786470E+04  0.16143786470E+04  0.50400001928E-02 0. -1.
        1   -1    0    0  501    0  0.00000000000E+00  0.00000000000E+00 -0.11943484675E+04  0.11943484675E+04  0.50400001928E-02 0.  1.
    10030    2    1    2    0    0  0.00000000000E+00  0.00000000000E+00  0.42003017956E+03  0.28087271145E+04  0.27771428937E+04 0.  0.
        4    1    3    3  502    0  0.12682053254E+04  0.24662713978E+03 -0.30465286025E+03  0.13273977067E+04  0.12699999809E+01 0.  1.
       -4    1    3    3    0  502 -0.12682053254E+04 -0.24662713978E+03  0.72468303980E+03  0.14813294078E+04  0.12699999809E+01 0. -1.
</event>
<event>
 5   0  0.9260173E-06  0.2824027E+04  0.7818609E-02  0.8295848E-01
        2   -1    0    0  501    0  0.00000000000E+00  0.00000000000E+00  0.21780148813E+04  0.21780148813E+04  0.25500000920E-02 0. -1.
       -2   -1    0    0    0  501  0.00000000000E+00  0.00000000000E+00 -0.91541242061E+03  0.91541242061E+03  0.25500000920E-02 0.  1.
    10030    2    1    2    0    0  0.00000000000E+00  0.00000000000E+00  0.12626024607E+04  0.30934273019E+04  0.28240268232E+04 0.  0.
        1    1    3    3  502    0  0.16036910427E+03 -0.12740682798E+04 -0.11924364767E+02  0.12841769433E+04  0.50400001928E-02 0.  1.
       -1    1    3    3    0  502 -0.16036910427E+03  0.12740682798E+04  0.12745268255E+04  0.18092503586E+04  0.50400001928E-02 0. -1.
</event>
<event>
 5   0  0.3357244E-06  0.2787801E+04  0.7818609E-02  0.8307066E-01
       -1   -1    0    0    0  501  0.00000000000E+00  0.00000000000E+00  0.10129235869E+04  0.10129235869E+04  0.50400001928E-02 0.  1.
        1   -1    0    0  501    0  0.00000000000E+00  0.00000000000E+00 -0.19181685756E+04  0.19181685756E+04  0.50400001928E-02 0. -1.
    10030    2    1    2    0    0  0.00000000000E+00  0.00000000000E+00 -0.90524498872E+03  0.29310921625E+04  0.27878007059E+04 0.  0.
        4    1    3    3  502    0  0.34128714203E+03  0.13098464356E+04 -0.80256952867E+03  0.15736244976E+04  0.12699999809E+01 0.  1.
       -4    1    3    3    0  502 -0.34128714203E+03 -0.13098464356E+04 -0.10267546005E+03  0.13574676649E+04  0.12699999809E+01 0. -1.
</event>
<event>
 5   0  0.3438130E-06  0.2720371E+04  0.7818609E-02  0.8328425E-01
       -1   -1    0    0    0  501  0.00000000000E+00  0.00000000000E+00  0.20769287056E+04  0.20769287056E+04  0.50400001928E-02 0. -1.
        1   -1    0    0  501    0  0.00000000000E+00  0.00000000000E+00 -0.89078875585E+03  0.89078875586E+03  0.50400001928E-02 0.  1.
    10030    2    1    2    0    0  0.00000000000E+00  0.00000000000E+00  0.11861399498E+04  0.29677174615E+04  0.27203711053E+04 0.  0.
        3    1    3    3  502    0  0.48421332447E+03 -0.11674596430E+04  0.11414479144E+04  0.17030349125E+04  0.10100000352E+00 0. -1.
       -3    1    3    3    0  502 -0.48421332447E+03  0.11674596430E+04  0.44692035346E+02  0.12646825490E+04  0.10100000352E+00 0.  1.
</event>
<event>
 5   0  0.3397882E-06  0.2798539E+04  0.7818609E-02  0.8303722E-01
       -1   -1    0    0    0  501  0.00000000000E+00  0.00000000000E+00  0.29977502184E+04  0.29977502184E+04  0.50400001928E-02 0. -1.
        1   -1    0    0  501    0  0.00000000000E+00  0.00000000000E+00 -0.65314139474E+03  0.65314139476E+03  0.50400001928E-02 0.  1.
    10030    2    1    2    0    0  0.00000000000E+00  0.00000000000E+00  0.23446088236E+04  0.36508916131E+04  0.27985387321E+04 0.  0.
        2    1    3    3  502    0 -0.74936285013E+03 -0.10849680314E+04  0.56144421950E+03  0.14331503487E+04  0.25500000920E-02 0.  1.
       -2    1    3    3    0  502  0.74936285013E+03  0.10849680314E+04  0.17831646041E+04  0.22177412644E+04  0.25500000920E-02 0. -1.
</event>
<event>
 5   0  0.9260173E-06  0.2791152E+04  0.7818609E-02  0.8306021E-01
        2   -1    0    0  501    0  0.00000000000E+00  0.00000000000E+00  0.21824044071E+04  0.21824044071E+04  0.25500000920E-02 0.  1.
       -2   -1    0    0    0  501  0.00000000000E+00  0.00000000000E+00 -0.89242515533E+03  0.89242515534E+03  0.25500000920E-02 0. -1.
    10030    2    1    2    0    0  0.00000000000E+00  0.00000000000E+00  0.12899792518E+04  0.30748295625E+04  0.27911521578E+04 0.  0.
        1    1    3    3  502    0  0.11698429669E+04  0.36222506968E+03  0.13822564376E+04  0.18467193690E+04  0.50400001928E-02 0. -1.
       -1    1    3    3    0  502 -0.11698429669E+04 -0.36222506968E+03 -0.92277185840E+02  0.12281101935E+04  0.50400001928E-02 0.  1.
</event>
<event>
 5   0  0.9252359E-06  0.2797712E+04  0.7818609E-02  0.8303979E-01
        2   -1    0    0  501    0  0.00000000000E+00  0.00000000000E+00  0.17207633583E+04  0.17207633583E+04  0.25500000920E-02 0. -1.
       -2   -1    0    0    0  501  0.00000000000E+00  0.00000000000E+00 -0.11371689606E+04  0.11371689606E+04  0.25500000920E-02 0.  1.
    10030    2    1    2    0    0  0.00000000000E+00  0.00000000000E+00  0.58359439767E+03  0.28579323189E+04  0.27977124081E+04 0.  0.
        5    1    3    3  502    0  0.35970019466E+03  0.77061644175E+03  0.14263532521E+04  0.16606443388E+04  0.46999998093E+01 0. -1.
       -5    1    3    3    0  502 -0.35970019466E+03 -0.77061644175E+03 -0.84275885444E+03  0.11972879800E+04  0.46999998093E+01 0.  1.
</event>
<event>
 5   0  0.3600963E-06  0.2758547E+04  0.7818609E-02  0.8316254E-01
        1   -1    0    0  501    0  0.00000000000E+00  0.00000000000E+00  0.21885208159E+04  0.21885208159E+04  0.50400001928E-02 0. -1.
       -1   -1    0    0    0  501  0.00000000000E+00  0.00000000000E+00 -0.86926111076E+03  0.86926111078E+03  0.50400001928E-02 0.  1.
    10030    2    1    2    0    0  0.00000000000E+00  0.00000000000E+00  0.13192597052E+04  0.30577819267E+04  0.27585474695E+04 0.  0.
        5    1    3    3  502    0  0.75291346463E+03  0.10957162973E+04  0.10667604311E+04  0.17045447477E+04  0.46999998093E+01 0.  1.
       -5    1    3    3    0  502 -0.75291346463E+03 -0.10957162973E+04  0.25249927403E+03  0.13532371790E+04  0.46999998093E+01 0. -1.
</event>
<event>
 5   0  0.9426937E-06  0.2745805E+04  0.7818609E-02  0.8320294E-01
        2   -1    0    0  501    0  0.00000000000E+00  0.00000000000E+00  0.22038306805E+04  0.22038306805E+04  0.25500000920E-02 0.  1.
       -2   -1    0    0    0  501  0.00000000000E+00  0.00000000000E+00 -0.85526572317E+03  0.85526572317E+03  0.25500000920E-02 0. -1.
    10030    2    1    2    0    0  0.00000000000E+00  0.00000000000E+00  0.13485649574E+04  0.30590964037E+04  0.27458046840E+04 0.  0.
        4    1    3    3  502    0 -0.56021684212E+03  0.16013677215E+03  0.20592516815E+04  0.21400948102E+04  0.12699999809E+01 0.  1.
       -4    1    3    3    0  502  0.56021684212E+03 -0.16013677215E+03 -0.71068672417E+03  0.91900159347E+03  0.12699999809E+01 0. -1.
</event>
<event>
 5   0  0.3371603E-06  0.2737126E+04  0.7818609E-02  0.8323058E-01
       -1   -1    0    0    0  501  0.00000000000E+00  0.00000000000E+00  0.22791165203E+04  0.22791165203E+04  0.50400001928E-02 0.  1.
        1   -1    0    0  501    0  0.00000000000E+00  0.00000000000E+00 -0.82179414010E+03  0.82179414011E+03  0.50400001928E-02 0. -1.
    10030    2    1    2    0    0  0.00000000000E+00  0.00000000000E+00  0.14573223802E+04  0.31009106604E+04  0.27371259387E+04 0.  0.
        1    1    3    3  502    0 -0.10214238962E+04 -0.46818967070E+03 -0.15649874578E+03  0.11344603127E+04  0.50400001928E-02 0. -1.
       -1    1    3    3    0  502  0.10214238962E+04  0.46818967070E+03  0.16138211260E+04  0.19664503478E+04  0.50400001928E-02 0.  1.
</event>
<event>
 5   0  0.3600963E-06  0.2804403E+04  0.7818609E-02  0.8301903E-01
        1   -1    0    0  501    0  0.00000000000E+00  0.00000000000E+00  0.17810198481E+04  0.17810198481E+04  0.50400001928E-02 0.  1.
       -1   -1    0    0    0  501  0.00000000000E+00  0.00000000000E+00 -0.11039566978E+04  0.11039566978E+04  0.50400001928E-02 0. -1.
    10030    2    1    2    0    0  0.00000000000E+00  0.00000000000E+00  0.67706315033E+03  0.28849765459E+04  0.28044028172E+04 0.  0.
        5    1    3    3  502    0  0.38430269966E+03  0.12166685008E+04  0.93676850055E+03  0.15828860096E+04  0.46999998093E+01 0.  1.
       -5    1    3    3    0  502 -0.38430269966E+03 -0.12166685008E+04 -0.25970535022E+03  0.13020905363E+04  0.46999998093E+01 0. -1.
</event>
<event>
 5   0  0.3397882E-06  0.2809468E+04  0.7818609E-02  0.8300335E-01
       -1   -1    0    0    0  501  0.00000000000E+00  0.00000000000E+00  0.11711773492E+04  0.11711773492E+04  0.50400001928E-02 0.  1.
        1   -1    0    0  501    0  0.00000000000E+00  0.00000000000E+00 -0.16848665804E+04  0.16848665804E+04  0.50400001928E-02 0. -1.
    10030    2    1    2    0    0  0.00000000000E+00  0.00000000000E+00 -0.51368923115E+03  0.28560439296E+04  0.28094679748E+04 0.  0.
        2    1    3    3  502    0 -0.76851880780E+03  0.98631940135E+03 -0.90763767384E+03  0.15450738709E+04  0.25500000920E-02 0.  1.
       -2    1    3    3    0  502  0.76851880780E+03 -0.98631940135E+03  0.39394844269E+03  0.13109700587E+04  0.25500000920E-02 0. -1.
</event>
<event>
 5   0  0.3397882E-06  0.2766400E+04  0.7818609E-02  0.8313776E-01
        1   -1    0    0  501    0  0.00000000000E+00  0.00000000000E+00  0.24118900604E+04  0.24118900604E+04  0.50400001928E-02 0. -1.
       -1   -1    0    0    0  501  0.00000000000E+00  0.00000000000E+00 -0.79325444467E+03  0.79325444469E+03  0.50400001928E-02 0.  1.
    10030    2    1    2    0    0  0.00000000000E+00  0.00000000000E+00  0.16186356157E+04  0.32051445050E+04  0.27664001955E+04 0.  0.
        2    1    3    3  502    0  0.60763641313E+03 -0.16124762577E+03  0.22368020152E+04  0.23234685414E+04  0.25500000920E-02 0. -1.
       -2    1    3    3    0  502 -0.60763641313E+03  0.16124762577E+03 -0.61816639955E+03  0.88167596367E+03  0.25500000920E-02 0.  1.
</event>
<event>
 5   0  0.3006875E-06  0.2798748E+04  0.7818609E-02  0.8303657E-01
        3   -1    0    0  501    0  0.00000000000E+00  0.00000000000E+00  0.81631201303E+03  0.81631201927E+03  0.10100000352E+00 0. -1.
       -3   -1    0    0    0  501  0.00000000000E+00  0.00000000000E+00 -0.23988967563E+04  0.23988967584E+04  0.10100000352E+00 0.  1.
    10030    2    1    2    0    0  0.00000000000E+00  0.00000000000E+00 -0.15825847433E+04  0.32152087777E+04  0.27987484729E+04 0.  0.
        2    1    3    3  502    0  0.59045635972E+03  0.10959838950E+04 -0.15254739973E+04  0.19689820535E+04  0.25500000920E-02 0.  1.
       -2    1    3    3    0  502 -0.59045635972E+03 -0.10959838950E+04 -0.57110746016E+02  0.12462267242E+04  0.25500000920E-02 0. -1.
</event>
<event>
 5   0  0.3600963E-06  0.2740188E+04  0.7818609E-02  0.8322082E-01
        1   -1    0    0  501    0  0.00000000000E+00  0.00000000000E+00  0.15615735322E+04  0.15615735322E+04  0.50400001928E-02 0. -1.
       -1   -1    0    0    0  501  0.00000000000E+00  0.00000000000E+00 -0.12020937758E+04  0.12020937758E+04  0.50400001928E-02 0.  1.
    10030    2    1    2    0    0  0.00000000000E+00  0.00000000000E+00  0.35947975641E+03  0.27636673080E+04  0.27401881858E+04 0.  0.
        5    1    3    3  502    0 -0.52132152170E+03 -0.11613520385E+04  0.69065823656E+03  0.14482905703E+04  0.46999998093E+01 0. -1.
       -5    1    3    3    0  502  0.52132152170E+03  0.11613520385E+04 -0.33117848015E+03  0.13153767377E+04  0.46999998093E+01 0.  1.
</event>
<event>
 5   0  0.3357244E-06  0.2789566E+04  0.7818609E-02  0.8306515E-01
       -1   -1    0    0    0  501  0.00000000000E+00  0.00000000000E+00  0.92664520134E+03  0.92664520135E+03  0.50400001928E-02 0.  1.
        1   -1    0    0  501    0  0.00000000000E+00  0.00000000000E+00 -0.20994223455E+04  0.20994223455E+04  0.50400001928E-02 0. -1.
    10030    2    1    2    0    0  0.00000000000E+00  0.00000000000E+00 -0.11727771442E+04  0.30260675469E+04  0.27895660179E+04 0.  0.
        4    1    3    3  502    0 -0.10424551914E+04 -0.27798265464E+03  0.37254218712E+03  0.11413923412E+04  0.12699999809E+01 0.  1.
       -4    1    3    3    0  502  0.10424551914E+04  0.27798265464E+03 -0.15453193313E+04  0.18846752057E+04  0.12699999809E+01 0. -1.
</event>
<event>
 5   0  0.3397882E-06  0.2791043E+04  0.7818609E-02  0.8306055E-01
        1   -1    0    0  501    0  0.00000000000E+00  0.00000000000E+00  0.14210373904E+04  0.14210373904E+04  0.50400001928E-02 0.  1.
       -1   -1    0    0    0  501  0.00000000000E+00  0.00000000000E+00 -0.13704634941E+04  0.13704634941E+04  0.50400001928E-02 0. -1.
    10030    2    1    2    0    0  0.00000000000E+00  0.00000000000E+00  0.50573896267E+02  0.27915008845E+04  0.27910427208E+04 0.  0.
        2    1    3    3  502    0 -0.30164776103E+03  0.32264753601E+03 -0.12987079297E+04  0.13717634967E+04  0.25500000920E-02 0. -1.
       -2    1    3    3    0  502  0.30164776103E+03 -0.32264753601E+03  0.13492818260E+04  0.14197373878E+04  0.25500000920E-02 0.  1.
</event>
<event>
 5   0  0.3397882E-06  0.2529165E+04  0.7818609E-02  0.8392669E-01
       -1   -1    0    0    0  501  0.00000000000E+00  0.00000000000E+00  0.88796813395E+03  0.88796813396E+03  0.50400001928E-02 0. -1.
        1   -1    0    0  501    0  0.00000000000E+00  0.00000000000E+00 -0.18009301704E+04  0.18009301704E+04  0.50400001928E-02 0.  1.
    10030    2    1    2    0    0  0.00000000000E+00  0.00000000000E+00 -0.91296203645E+03  0.26888983044E+04  0.25291647655E+04 0.  0.
        2    1    3    3  502    0 -0.11044968774E+04  0.61219198183E+03 -0.52761110743E+03  0.13685999618E+04  0.25500000920E-02 0.  1.
       -2    1    3    3    0  502  0.11044968774E+04 -0.61219198183E+03 -0.38535092902E+03  0.13202983425E+04  0.25500000920E-02 0. -1.
</event>
<event>
 5   0  0.9260173E-06  0.2792053E+04  0.7818609E-02  0.8305740E-01
       -2   -1    0    0    0  501  0.00000000000E+00  0.00000000000E+00  0.13428412581E+04  0.13428412581E+04  0.25500000920E-02 0.  1.
        2   -1    0    0  501    0  0.00000000000E+00  0.00000000000E+00 -0.14513184266E+04  0.14513184266E+04  0.25500000920E-02 0. -1.
    10030    2    1    2    0    0  0.00000000000E+00  0.00000000000E+00 -0.10847716853E+03  0.27941596848E+04  0.27920531957E+04 0.  0.
        1    1    3    3  502    0 -0.12518892360E+04 -0.53720932305E+03  0.25106492606E+03  0.13852270981E+04  0.50400001928E-02 0.  1.
       -1    1    3    3    0  502  0.12518892360E+04  0.53720932305E+03 -0.35954209459E+03  0.14089325867E+04  0.50400001928E-02 0. -1.
</event>
<event>
 5   0  0.3600963E-06  0.2820498E+04  0.7818609E-02  0.8296933E-01
        1   -1    0    0  501    0  0.00000000000E+00  0.00000000000E+00  0.19246130255E+04  0.19246130255E+04  0.50400001928E-02 0. -1.
       -1   -1    0    0    0  501  0.00000000000E+00  0.00000000000E+00 -0.10333515466E+04  0.10333515466E+04  0.50400001928E-02 0.  1.
    10030    2    1    2    0    0  0.00000000000E+00  0.00000000000E+00  0.89126147889E+03  0.29579645720E+04  0.28204977195E+04 0.  0.
        5    1    3    3  502    0 -0.45633018689E+03  0.13242312926E+04  0.61780920509E+03  0.15308612150E+04  0.46999998093E+01 0. -1.
       -5    1    3    3    0  502  0.45633018689E+03 -0.13242312926E+04  0.27345227380E+03  0.14271033570E+04  0.46999998093E+01 0.  1.
</event>
<event>
 5   0  0.3397882E-06  0.2816114E+04  0.7818609E-02  0.8298283E-01
        1   -1    0    0  501    0  0.00000000000E+00  0.00000000000E+00  0.23667999672E+04  0.23667999672E+04  0.50400001928E-02 0. -1.
       -1   -1    0    0    0  501  0.00000000000E+00  0.00000000000E+00 -0.83768130225E+03  0.83768130227E+03  0.50400001928E-02 0.  1.
    10030    2    1    2    0    0  0.00000000000E+00  0.00000000000E+00  0.15291186650E+04  0.32044812695E+04  0.28161136900E+04 0.  0.
        2    1    3    3  502    0 -0.95143831843E+02 -0.14200813330E+03 -0.82583107580E+03  0.84333600920E+03  0.25500000920E-02 0.  1.
       -2    1    3    3    0  502  0.95143831843E+02  0.14200813330E+03  0.23549497408E+04  0.23611452603E+04  0.25500000920E-02 0. -1.
</event>
<event>
 5   0  0.3371603E-06  0.2705749E+04  0.7818609E-02  0.8333142E-01
        1   -1    0    0  501    0  0.00000000000E+00  0.00000000000E+00  0.10959122573E+04  0.10959122573E+04  0.50400001928E-02 0.  1.
       -1   -1    0    0    0  501  0.00000000000E+00  0.00000000000E+00 -0.16700879694E+04  0.16700879695E+04  0.50400001928E-02 0. -1.
    10030    2    1    2    0    0  0.00000000000E+00  0.00000000000E+00 -0.57417571214E+03  0.27660002268E+04  0.27057493428E+04 0.  0.
        1    1    3    3  502    0 -0.34232736376E+03 -0.13076424066E+04 -0.22968418634E+03  0.13710840649E+04  0.50400001928E-02 0.  1.
       -1    1    3    3    0  502  0.34232736376E+03  0.13076424066E+04 -0.34449152580E+03  0.13949161619E+04  0.50400001928E-02 0. -1.
</event>
<event>
 5   0  0.9252359E-06  0.2507832E+04  0.7818609E-02  0.8400201E-01
       -2   -1    0    0    0  501  0.00000000000E+00  0.00000000000E+00  0.87102017546E+03  0.87102017546E+03  0.25500000920E-02 0. -1.
        2   -1    0    0  501    0  0.00000000000E+00  0.00000000000E+00 -0.18051309319E+04  0.18051309319E+04  0.25500000920E-02 0.  1.
    10030    2    1    2    0    0  0.00000000000E+00  0.00000000000E+00 -0.93411075640E+03  0.26761511073E+04  0.25078321004E+04 0.  0.
        5    1    3    3  502    0 -0.11124347679E+04 -0.54592816314E+03 -0.67158226934E+03  0.14094656812E+04  0.46999998093E+01 0.  1.
       -5    1    3    3    0  502  0.11124347679E+04  0.54592816314E+03 -0.26252848707E+03  0.12666854261E+04  0.46999998093E+01 0. -1.
</event>
<event>
 5   0  0.9252359E-06  0.2826366E+04  0.7818609E-02  0.8295129E-01
       -2   -1    0    0    0  501  0.00000000000E+00  0.00000000000E+00  0.10880063456E+04  0.10880063456E+04  0.25500000920E-02 0.  1.
        2   -1    0    0  501    0  0.00000000000E+00  0.00000000000E+00 -0.18355467103E+04  0.18355467103E+04  0.25500000920E-02 0. -1.
    10030    2    1    2    0    0  0.00000000000E+00  0.00000000000E+00 -0.74754036473E+03  0.29235530559E+04  0.28263661960E+04 0.  0.
        5    1    3    3  502    0 -0.50855356337E+03 -0.73731573476E+03 -0.15044268042E+04  0.17508807266E+04  0.46999998093E+01 0. -1.
       -5    1    3    3    0  502  0.50855356337E+03  0.73731573476E+03  0.75688643950E+03  0.11726723293E+04  0.46999998093E+01 0.  1.
</event>
<event>
 5   0  0.9426937E-06  0.2808980E+04  0.7818609E-02  0.8300486E-01
        2   -1    0    0  501    0  0.00000000000E+00  0.00000000000E+00  0.21851360151E+04  0.21851360151E+04  0.25500000920E-02 0. -1.
       -2   -1    0    0    0  501  0.00000000000E+00  0.00000000000E+00 -0.90273166447E+03  0.90273166448E+03  0.25500000920E-02 0.  1.
    10030    2    1    2    0    0  0.00000000000E+00  0.00000000000E+00  0.12824043507E+04  0.30878676796E+04  0.28089795101E+04 0.  0.
        4    1    3    3  502    0 -0.23943798547E+03  0.11565793903E+04 -0.19424206850E+03  0.11969703543E+04  0.12699999809E+01 0.  1.
       -4    1    3    3    0  502  0.23943798547E+03 -0.11565793903E+04  0.14766464192E+04  0.18908973253E+04  0.12699999809E+01 0. -1.
</event>
<event>
 5   0  0.3600963E-06  0.2778088E+04  0.7818609E-02  0.8310103E-01
       -1   -1    0    0    0  501  0.00000000000E+00  0.00000000000E+00  0.97895362931E+03  0.97895362932E+03  0.50400001928E-02 0.  1.
        1   -1    0    0  501    0  0.00000000000E+00  0.00000000000E+00 -0.19709246099E+04  0.19709246099E+04  0.50400001928E-02 0. -1.
    10030    2    1    2    0    0  0.00000000000E+00  0.00000000000E+00 -0.99197098058E+03  0.29498782392E+04  0.27780884075E+04 0.  0.
        5    1    3    3  502    0  0.10024819314E+04 -0.96064510431E+03 -0.45334414633E+03  0.14605998919E+04  0.46999998093E+01 0.  1.
       -5    1    3    3    0  502 -0.10024819314E+04  0.96064510431E+03 -0.53862683425E+03  0.14892783473E+04  0.46999998093E+01 0. -1.
</event>
<event>
 5   0  0.9342133E-06  0.2820101E+04  0.7818609E-02  0.8297055E-01
        2   -1    0    0  501    0  0.00000000000E+00  0.00000000000E+00  0.23237235958E+04  0.23237235958E+04  0.25500000920E-02 0. -1.
       -2   -1    0    0    0  501  0.00000000000E+00  0.00000000000E+00 -0.85562748628E+03  0.85562748628E+03  0.25500000920E-02 0.  1.
    10030    2    1    2    0    0  0.00000000000E+00  0.00000000000E+00  0.14680961095E+04  0.31793510820E+04  0.28201005507E+04 0.  0.
        2    1    3    3  502    0 -0.26509064321E+03 -0.84686232621E+03  0.19694490749E+04  0.21601339096E+04  0.25500000920E-02 0. -1.
       -2    1    3    3    0  502  0.26509064321E+03  0.84686232621E+03 -0.50135296543E+03  0.10192171725E+04  0.25500000920E-02 0.  1.
</event>
<event>
 5   0  0.3397882E-06  0.2304397E+04  0.7818609E-02  0.8476190E-01
        1   -1    0    0  501    0  0.00000000000E+00  0.00000000000E+00  0.72072328450E+03  0.72072328451E+03  0.50400001928E-02 0. -1.
       -1   -1    0    0    0  501  0.00000000000E+00  0.00000000000E+00 -0.18419844977E+04  0.18419844977E+04  0.50400001928E-02 0.  1.
    10030    2    1    2    0    0  0.00000000000E+00  0.00000000000E+00 -0.11212612132E+04  0.25627077822E+04  0.23043967689E+04 0.  0.
        2    1    3    3  502    0 -0.25350938677E+03 -0.43978743411E+03  0.58966534708E+03  0.77806504736E+03  0.25500000920E-02 0. -1.
       -2    1    3    3    0  502  0.25350938677E+03  0.43978743411E+03 -0.17109265603E+04  0.17846427348E+04  0.25500000920E-02 0.  1.
</event>
<event>
 5   0  0.9342133E-06  0.2791190E+04  0.7818609E-02  0.8306009E-01
       -2   -1    0    0    0  501  0.00000000000E+00  0.00000000000E+00  0.10516335547E+04  0.10516335547E+04  0.25500000920E-02 0.  1.
        2   -1    0    0  501    0  0.00000000000E+00  0.00000000000E+00 -0.18520571380E+04  0.18520571380E+04  0.25500000920E-02 0. -1.
    10030    2    1    2    0    0  0.00000000000E+00  0.00000000000E+00 -0.80042358330E+03  0.29036906926E+04  0.27911900196E+04 0.  0.
        2    1    3    3  502    0 -0.99003998822E+03 -0.16496385754E+03 -0.14089827988E+04  0.17299204548E+04  0.25500000920E-02 0. -1.
       -2    1    3    3    0  502  0.99003998822E+03  0.16496385754E+03  0.60855921545E+03  0.11737702379E+04  0.25500000920E-02 0.  1.
</event>
<event>
 5   0  0.3600963E-06  0.3036704E+04  0.7818609E-02  0.8233327E-01
       -1   -1    0    0    0  501  0.00000000000E+00  0.00000000000E+00  0.12519352424E+04  0.12519352424E+04  0.50400001928E-02 0. -1.
        1   -1    0    0  501    0  0.00000000000E+00  0.00000000000E+00 -0.18414632663E+04  0.18414632663E+04  0.50400001928E-02 0.  1.
    10030    2    1    2    0    0  0.00000000000E+00  0.00000000000E+00 -0.58952802388E+03  0.30933985087E+04  0.30367039768E+04 0.  0.
        5    1    3    3  502    0 -0.13805112332E+04 -0.16317357291E+03  0.32732034612E+03  0.14281448032E+04  0.46999998093E+01 0. -1.
       -5    1    3    3    0  502  0.13805112332E+04  0.16317357291E+03 -0.91684837001E+03  0.16652537055E+04  0.46999998093E+01 0.  1.
</event>
<event>
 5   0  0.9426937E-06  0.2804234E+04  0.7818609E-02  0.8301955E-01
       -2   -1    0    0    0  501  0.00000000000E+00  0.00000000000E+00  0.12189614697E+04  0.12189614697E+04  0.25500000920E-02 0. -1.
        2   -1    0    0  501    0  0.00000000000E+00  0.00000000000E+00 -0.16127930551E+04  0.16127930551E+04  0.25500000920E-02 0.  1.
    10030    2    1    2    0    0  0.00000000000E+00  0.00000000000E+00 -0.39383158538E+03  0.28317545249E+04  0.28042343646E+04 0.  0.
        4    1    3    3  502    0 -0.50963742915E+03 -0.82426530782E+03  0.82633374173E+03  0.12735669093E+04  0.12699999809E+01 0. -1.
       -4    1    3    3    0  502  0.50963742915E+03  0.82426530782E+03 -0.12201653271E+04  0.15581876155E+04  0.12699999809E+01 0.  1.
</event>
<event>
 5   0  0.3371603E-06  0.2795079E+04  0.7818609E-02  0.8304798E-01
        1   -1    0    0  501    0  0.00000000000E+00  0.00000000000E+00  0.23995168915E+04  0.23995168915E+04  0.50400001928E-02 0.  1.
       -1   -1    0    0    0  501  0.00000000000E+00  0.00000000000E+00 -0.81396262169E+03  0.81396262171E+03  0.50400001928E-02 0. -1.
    10030    2    1    2    0    0  0.00000000000E+00  0.00000000000E+00  0.15855542698E+04  0.32134795132E+04  0.27950792904E+04 0.  0.
        1    1    3    3  502    0  0.37149374543E+03  0.67457351984E+01  0.23416913621E+04  0.23709853528E+04  0.50400001928E-02 0.  1.
       -1    1    3    3    0  502 -0.37149374543E+03 -0.67457351984E+01 -0.75613709233E+03  0.84249416037E+03  0.50400001928E-02 0. -1.
</event>
<event>
 5   0  0.3600963E-06  0.2807715E+04  0.7818609E-02  0.8300877E-01
        1   -1    0    0  501    0  0.00000000000E+00  0.00000000000E+00  0.13259993268E+04  0.13259993268E+04  0.50400001928E-02 0. -1.
       -1   -1    0    0    0  501  0.00000000000E+00  0.00000000000E+00 -0.14862867510E+04  0.14862867510E+04  0.50400001928E-02 0.  1.
    10030    2    1    2    0    0  0.00000000000E+00  0.00000000000E+00 -0.16028742424E+03  0.28122860778E+04  0.28077145377E+04 0.  0.
        5    1    3    3  502    0  0.24479352001E+03  0.49510791370E+03 -0.13728796379E+04  0.14798230651E+04  0.46999998093E+01 0.  1.
       -5    1    3    3    0  502 -0.24479352001E+03 -0.49510791370E+03  0.12125922137E+04  0.13324630127E+04  0.46999998093E+01 0. -1.
</event>
<event>
 5   0  0.3371603E-06  0.2810036E+04  0.7818609E-02  0.8300159E-01
       -1   -1    0    0    0  501  0.00000000000E+00  0.00000000000E+00  0.97568459840E+03  0.97568459841E+03  0.50400001928E-02 0. -1.
        1   -1    0    0  501    0  0.00000000000E+00  0.00000000000E+00 -0.20232722635E+04  0.20232722635E+04  0.50400001928E-02 0.  1.
    10030    2    1    2    0    0  0.00000000000E+00  0.00000000000E+00 -0.10475876651E+04  0.29989568619E+04  0.28100360040E+04 0.  0.
        1    1    3    3  502    0 -0.53689219779E+02  0.75538009235E+03  0.73923847718E+03  0.10582793310E+04  0.50400001928E-02 0. -1.
       -1    1    3    3    0  502  0.53689219779E+02 -0.75538009235E+03 -0.17868261423E+04  0.19406775309E+04  0.50400001928E-02 0.  1.
</event>
<event>
 5   0  0.9342133E-06  0.2777497E+04  0.7818609E-02  0.8310289E-01
       -2   -1    0    0    0  501  0.00000000000E+00  0.00000000000E+00  0.16851996496E+04  0.16851996496E+04  0.25500000920E-02 0. -1.
        2   -1    0    0  501    0  0.00000000000E+00  0.00000000000E+00 -0.11444475860E+04  0.11444475860E+04  0.25500000920E-02 0.  1.
    10030    2    1    2    0    0  0.00000000000E+00  0.00000000000E+00  0.54075206359E+03  0.28296472357E+04  0.27774971978E+04 0.  0.
        2    1    3    3  502    0 -0.11275621195E+04  0.46697147891E+03  0.94551320520E+03  0.15438438770E+04  0.25500000920E-02 0. -1.
       -2    1    3    3    0  502  0.11275621195E+04 -0.46697147891E+03 -0.40476114161E+03  0.12858033587E+04  0.25500000920E-02 0.  1.
</event>
<event>
 5   0  0.9065579E-06  0.2791675E+04  0.7818609E-02  0.8305857E-01
        2   -1    0    0  501    0  0.00000000000E+00  0.00000000000E+00  0.25752735972E+04  0.25752735972E+04  0.25500000920E-02 0.  1.
       -2   -1    0    0    0  501  0.00000000000E+00  0.00000000000E+00 -0.75656535615E+03  0.75656535615E+03  0.25500000920E-02 0. -1.
    10030    2    1    2    0    0  0.00000000000E+00  0.00000000000E+00  0.18187082410E+04  0.33318389533E+04  0.27916753294E+04 0.  0.
        3    1    3    3  502    0 -0.72648102582E+03  0.11804530906E+04  0.11058949086E+04  0.17732026785E+04  0.10100000352E+00 0.  1.
       -3    1    3    3    0  502  0.72648102582E+03 -0.11804530906E+04  0.71281333248E+03  0.15586362748E+04  0.10100000352E+00 0. -1.
</event>
<event>
 5   0  0.3600963E-06  0.2803044E+04  0.7818609E-02  0.8302324E-01
        1   -1    0    0  501    0  0.00000000000E+00  0.00000000000E+00  0.10906259961E+04  0.10906259961E+04  0.50400001928E-02 0. -1.
       -1   -1    0    0    0  501  0.00000000000E+00  0.00000000000E+00 -0.18010430041E+04  0.18010430041E+04  0.50400001928E-02 0.  1.
    10030    2    1    2    0    0  0.00000000000E+00  0.00000000000E+00 -0.71041700803E+03  0.28916690002E+04  0.28030442881E+04 0.  0.
        5    1    3    3  502    0  0.62406535630E+03 -0.28184731822E+03  0.90629823594E+03  0.11359111154E+04  0.46999998093E+01 0. -1.
       -5    1    3    3    0  502 -0.62406535630E+03  0.28184731822E+03 -0.16167152440E+04  0.17557578847E+04  0.46999998093E+01 0.  1.
</event>
<event>
 5   0  0.3006875E-06  0.2696582E+04  0.7818609E-02  0.8336115E-01
        4   -1    0    0  501    0  0.00000000000E+00  0.00000000000E+00  0.13871566080E+04  0.13871571894E+04  0.12699999809E+01 0.  1.
       -4   -1    0    0    0  501  0.00000000000E+00  0.00000000000E+00 -0.13105135792E+04  0.13105141946E+04  0.12699999809E+01 0. -1.
    10030    2    1    2    0    0  0.00000000000E+00  0.00000000000E+00  0.76643028840E+02  0.26976713840E+04  0.26965824189E+04 0.  0.
        3    1    3    3  502    0 -0.13420446201E+04 -0.31488194062E+02 -0.87482624965E+02  0.13452614945E+04  0.10100000352E+00 0. -1.
       -3    1    3    3    0  502  0.13420446201E+04  0.31488194062E+02  0.16412565381E+03  0.13524098895E+04  0.10100000352E+00 0.  1.
</event>
<event>
 5   0  0.9252359E-06  0.2825051E+04  0.7818609E-02  0.8295533E-01
       -2   -1    0    0    0  501  0.00000000000E+00  0.00000000000E+00  0.15754094768E+04  0.15754094768E+04  0.25500000920E-02 0.  1.
        2   -1    0    0  501    0  0.00000000000E+00  0.00000000000E+00 -0.12664825807E+04  0.12664825807E+04  0.25500000920E-02 0. -1.
    10030    2    1    2    0    0  0.00000000000E+00  0.00000000000E+00  0.30892689610E+03  0.28418920576E+04  0.28250512632E+04 0.  0.
        5    1    3    3  502    0 -0.73695226784E+03 -0.87827694420E+03 -0.67552317704E+03  0.13307226189E+04  0.46999998093E+01 0. -1.
       -5    1    3    3    0  502  0.73695226784E+03  0.87827694420E+03  0.98445007314E+03  0.15111694386E+04  0.46999998093E+01 0.  1.
</event>
<event>
 5   0  0.9252359E-06  0.2866578E+04  0.7818609E-02  0.8282891E-01
        2   -1    0    0  501    0  0.00000000000E+00  0.00000000000E+00  0.27071719364E+04  0.27071719364E+04  0.25500000920E-02 0.  1.
       -2   -1    0    0    0  501  0.00000000000E+00  0.00000000000E+00 -0.75884276832E+03  0.75884276833E+03  0.25500000920E-02 0. -1.
    10030    2    1    2    0    0  0.00000000000E+00  0.00000000000E+00  0.19483291681E+04  0.34660147048E+04  0.28665783412E+04 0.  0.
        5    1    3    3  502    0  0.11850855488E+04 -0.62783005970E+03  0.36275850255E+03  0.13893214758E+04  0.46999998093E+01 0.  1.
       -5    1    3    3    0  502 -0.11850855488E+04  0.62783005970E+03  0.15855706656E+04  0.20766932290E+04  0.46999998093E+01 0. -1.
</event>
<event>
 5   0  0.3371603E-06  0.2790881E+04  0.7818609E-02  0.8306105E-01
       -1   -1    0    0    0  501  0.00000000000E+00  0.00000000000E+00  0.76613869018E+03  0.76613869019E+03  0.50400001928E-02 0.  1.
        1   -1    0    0  501    0  0.00000000000E+00  0.00000000000E+00 -0.25416465163E+04  0.25416465163E+04  0.50400001928E-02 0. -1.
    10030    2    1    2    0    0  0.00000000000E+00  0.00000000000E+00 -0.17755078261E+04  0.33077852065E+04  0.27908806731E+04 0.  0.
        1    1    3    3  502    0  0.13617518223E+04  0.24990355991E+03 -0.68098989320E+03  0.15429086329E+04  0.50400001928E-02 0. -1.
       -1    1    3    3    0  502 -0.13617518223E+04 -0.24990355991E+03 -0.10945179329E+04  0.17648765736E+04  0.50400001928E-02 0.  1.
</event>
<event>
 5   0  0.9426937E-06  0.2800136E+04  0.7818609E-02  0.8303226E-01
        2   -1    0    0  501    0  0.00000000000E+00  0.00000000000E+00  0.12796456493E+04  0.12796456493E+04  0.25500000920E-02 0. -1.
       -2   -1    0    0    0  501  0.00000000000E+00  0.00000000000E+00 -0.15318223340E+04  0.15318223340E+04  0.25500000920E-02 0.  1.
    10030    2    1    2    0    0  0.00000000000E+00  0.00000000000E+00 -0.25217668462E+03  0.28114679833E+04  0.28001355576E+04 0.  0.
        4    1    3    3  502    0  0.21768957388E+03  0.51584805096E+03  0.11623432231E+04  0.12901671766E+04  0.12699999809E+01 0. -1.
       -4    1    3    3    0  502 -0.21768957388E+03 -0.51584805096E+03 -0.14145199077E+04  0.15213008067E+04  0.12699999809E+01 0.  1.
</event>
<event>
 5   0  0.3371603E-06  0.2787200E+04  0.7818609E-02  0.8307253E-01
       -1   -1    0    0    0  501  0.00000000000E+00  0.00000000000E+00  0.82863129651E+03  0.82863129653E+03  0.50400001928E-02 0. -1.
        1   -1    0    0  501    0  0.00000000000E+00  0.00000000000E+00 -0.23437689830E+04  0.23437689830E+04  0.50400001928E-02 0.  1.
    10030    2    1    2    0    0  0.00000000000E+00  0.00000000000E+00 -0.15151376865E+04  0.31724002795E+04  0.27871995487E+04 0.  0.
        1    1    3    3  502    0  0.17611512176E+03  0.10888733389E+04 -0.17270207010E+04  0.20492101371E+04  0.50400001928E-02 0.  1.
       -1    1    3    3    0  502 -0.17611512176E+03 -0.10888733389E+04  0.21188301450E+03  0.11231901425E+04  0.50400001928E-02 0. -1.
</event>
<event>
 5   0  0.3438130E-06  0.2416514E+04  0.7818609E-02  0.8433347E-01
       -1   -1    0    0    0  501  0.00000000000E+00  0.00000000000E+00  0.85044239290E+03  0.85044239291E+03  0.50400001928E-02 0. -1.
        1   -1    0    0  501    0  0.00000000000E+00  0.00000000000E+00 -0.17166184990E+04  0.17166184990E+04  0.50400001928E-02 0.  1.
    10030    2    1    2    0    0  0.00000000000E+00  0.00000000000E+00 -0.86617610610E+03  0.25670608919E+04  0.24165141374E+04 0.  0.
        3    1    3    3  502    0  0.99141391110E+03  0.31274053705E+03 -0.10872236646E+04  0.15042484814E+04  0.10100000352E+00 0.  1.
       -3    1    3    3    0  502 -0.99141391110E+03 -0.31274053705E+03  0.22104755853E+03  0.10628124105E+04  0.10100000352E+00 0. -1.
</event>
<event>
 5   0  0.3357244E-06  0.2787339E+04  0.7818609E-02  0.8307210E-01
        1   -1    0    0  501    0  0.00000000000E+00  0.00000000000E+00  0.20836761326E+04  0.20836761326E+04  0.50400001928E-02 0.  1.
       -1   -1    0    0    0  501  0.00000000000E+00  0.00000000000E+00 -0.93215789277E+03  0.93215789278E+03  0.50400001928E-02 0. -1.
    10030    2    1    2    0    0  0.00000000000E+00  0.00000000000E+00  0.11515182398E+04  0.30158340254E+04  0.27873393428E+04 0.  0.
        4    1    3    3  502    0  0.69542921808E+03  0.11362895994E+04  0.10186266623E+04  0.16770145322E+04  0.12699999809E+01 0.  1.
       -4    1    3    3    0  502 -0.69542921808E+03 -0.11362895994E+04  0.13289157750E+03  0.13388194932E+04  0.12699999809E+01 0. -1.
</event>
<event>
 5   0  0.9426937E-06  0.2806782E+04  0.7818609E-02  0.8301166E-01
       -2   -1    0    0    0  501  0.00000000000E+00  0.00000000000E+00  0.86197518605E+03  0.86197518605E+03  0.25500000920E-02 0.  1.
        2   -1    0    0  501    0  0.00000000000E+00  0.00000000000E+00 -0.22848754719E+04  0.22848754719E+04  0.25500000920E-02 0. -1.
    10030    2    1    2    0    0  0.00000000000E+00  0.00000000000E+00 -0.14229002859E+04  0.31468506580E+04  0.28067817585E+04 0.  0.
        4    1    3    3  502    0  0.10679833901E+04 -0.98190520727E+02  0.30335390821E+03  0.11145649853E+04  0.12699999809E+01 0.  1.
       -4    1    3    3    0  502 -0.10679833901E+04  0.98190520727E+02 -0.17262541941E+04  0.20322856727E+04  0.12699999809E+01 0. -1.
</event>
<event>
 5   0  0.3357244E-06  0.2810652E+04  0.7818609E-02  0.8299969E-01
       -1   -1    0    0    0  501  0.00000000000E+00  0.00000000000E+00  0.13539213633E+04  0.13539213633E+04  0.50400001928E-02 0. -1.
        1   -1    0    0  501    0  0.00000000000E+00  0.00000000000E+00 -0.14586824311E+04  0.14586824311E+04  0.50400001928E-02 0.  1.
    10030    2    1    2    0    0  0.00000000000E+00  0.00000000000E+00 -0.10476106778E+03  0.28126037944E+04  0.28106520992E+04 0.  0.
        4    1    3    3  502    0  0.16198318143E+02  0.58675226750E+03  0.12253769326E+04  0.13587092584E+04  0.12699999809E+01 0. -1.
       -4    1    3    3    0  502 -0.16198318143E+02 -0.58675226750E+03 -0.13301380004E+04  0.14538945360E+04  0.12699999809E+01 0.  1.
</event>
<event>
 5   0  0.3438130E-06  0.2768620E+04  0.7818609E-02  0.8313077E-01
        1   -1    0    0  501    0  0.00000000000E+00  0.00000000000E+00  0.13957731397E+04  0.13957731397E+04  0.50400001928E-02 0. -1.
       -1   -1    0    0    0  501  0.00000000000E+00  0.00000000000E+00 -0.13729412390E+04  0.13729412390E+04  0.50400001928E-02 0.  1.
    10030    2    1    2    0    0  0.00000000000E+00  0.00000000000E+00  0.22831900726E+02  0.27687143787E+04  0.27686202368E+04 0.  0.
        3    1    3    3  502    0 -0.13281739102E+04  0.50172546596E+02 -0.37557430480E+03  0.13811659165E+04  0.10100000352E+00 0.  1.
       -3    1    3    3    0  502  0.13281739102E+04 -0.50172546596E+02  0.39840620553E+03  0.13875484622E+04  0.10100000352E+00 0. -1.
</event>
<event>
 5   0  0.9260173E-06  0.2793215E+04  0.7818609E-02  0.8305378E-01
       -2   -1    0    0    0  501  0.00000000000E+00  0.00000000000E+00  0.79378108113E+03  0.79378108114E+03  0.25500000920E-02 0.  1.
        2   -1    0    0  501    0  0.00000000000E+00  0.00000000000E+00 -0.24572416422E+04  0.24572416422E+04  0.25500000920E-02 0. -1.
    10030    2    1    2    0    0  0.00000000000E+00  0.00000000000E+00 -0.16634605610E+04  0.32510227233E+04  0.27932145835E+04 0.  0.
        1    1    3    3  502    0  0.44724171044E+03  0.16612176546E+02  0.70805756023E+03  0.83764349254E+03  0.50400001928E-02 0.  1.
       -1    1    3    3    0  502 -0.44724171044E+03 -0.16612176546E+02 -0.23715181213E+04  0.24133792308E+04  0.50400001928E-02 0. -1.
</event>
<event>
 5   0  0.9252359E-06  0.2805193E+04  0.7818609E-02  0.8301658E-01
        2   -1    0    0  501    0  0.00000000000E+00  0.00000000000E+00  0.24865989659E+04  0.24865989659E+04  0.25500000920E-02 0.  1.
       -2   -1    0    0    0  501  0.00000000000E+00  0.00000000000E+00 -0.79115157398E+03  0.79115157399E+03  0.25500000920E-02 0. -1.
    10030    2    1    2    0    0  0.00000000000E+00  0.00000000000E+00  0.16954473919E+04  0.32777505399E+04  0.28051928174E+04 0.  0.
        5    1    3    3  502    0  0.23086834807E+03 -0.12496297707E+03  0.24576278651E+04  0.24716133907E+04  0.46999998093E+01 0.  1.
       -5    1    3    3    0  502 -0.23086834807E+03  0.12496297707E+03 -0.76218047313E+03  0.80613714924E+03  0.46999998093E+01 0. -1.
</event>
<event>
 5   0  0.3357244E-06  0.2800578E+04  0.7818609E-02  0.8303089E-01
       -1   -1    0    0    0  501  0.00000000000E+00  0.00000000000E+00  0.13811141127E+04  0.13811141127E+04  0.50400001928E-02 0. -1.
        1   -1    0    0  501    0  0.00000000000E+00  0.00000000000E+00 -0.14197298657E+04  0.14197298657E+04  0.50400001928E-02 0.  1.
    10030    2    1    2    0    0  0.00000000000E+00  0.00000000000E+00 -0.38615753028E+02  0.28008439784E+04  0.28005777645E+04 0.  0.
        4    1    3    3  502    0  0.11786468360E+04  0.74978582025E+03 -0.11637482006E+03  0.14017602691E+04  0.12699999809E+01 0.  1.
       -4    1    3    3    0  502 -0.11786468360E+04 -0.74978582025E+03  0.77759067031E+02  0.13990837093E+04  0.12699999809E+01 0. -1.
</event>
<event>
 5   0  0.9260173E-06  0.2800165E+04  0.7818609E-02  0.8303217E-01
       -2   -1    0    0    0  501  0.00000000000E+00  0.00000000000E+00  0.15602285449E+04  0.15602285449E+04  0.25500000920E-02 0. -1.
        2   -1    0    0  501    0  0.00000000000E+00  0.00000000000E+00 -0.12563747185E+04  0.12563747185E+04  0.25500000920E-02 0.  1.
    10030    2    1    2    0    0  0.00000000000E+00  0.00000000000E+00  0.30385382645E+03  0.28166032634E+04  0.28001654943E+04 0.  0.
        1    1    3    3  502    0  0.12175221917E+04 -0.67862760715E+03  0.19487817194E+02  0.13940141647E+04  0.50400001928E-02 0.  1.
       -1    1    3    3    0  502 -0.12175221917E+04  0.67862760715E+03  0.28436600925E+03  0.14225890987E+04  0.50400001928E-02 0. -1.
</event>
<event>
 5   0  0.9342133E-06  0.2787016E+04  0.7818609E-02  0.8307311E-01
        2   -1    0    0  501    0  0.00000000000E+00  0.00000000000E+00  0.10467784216E+04  0.10467784216E+04  0.25500000920E-02 0.  1.
       -2   -1    0    0    0  501  0.00000000000E+00  0.00000000000E+00 -0.18550868324E+04  0.18550868324E+04  0.25500000920E-02 0. -1.
    10030    2    1    2    0    0  0.00000000000E+00  0.00000000000E+00 -0.80830841081E+03  0.29018652540E+04  0.27870162299E+04 0.  0.
        2    1    3    3  502    0  0.10135723741E+04 -0.83109308158E+03  0.88437827220E+02  0.13137221613E+04  0.25500000920E-02 0.  1.
       -2    1    3    3    0  502 -0.10135723741E+04  0.83109308158E+03 -0.89674623803E+03  0.15881430928E+04  0.25500000920E-02 0. -1.
</event>
<event>
 5   0  0.3371603E-06  0.2808617E+04  0.7818609E-02  0.8300598E-01
        1   -1    0    0  501    0  0.00000000000E+00  0.00000000000E+00  0.16643104742E+04  0.16643104742E+04  0.50400001928E-02 0. -1.
       -1   -1    0    0    0  501  0.00000000000E+00  0.00000000000E+00 -0.11849245390E+04  0.11849245390E+04  0.50400001928E-02 0.  1.
    10030    2    1    2    0    0  0.00000000000E+00  0.00000000000E+00  0.47938593515E+03  0.28492350132E+04  0.28086169703E+04 0.  0.
        1    1    3    3  502    0 -0.13546240198E+04 -0.34604726201E+03  0.10615578981E+03  0.14021497759E+04  0.50400001928E-02 0. -1.
       -1    1    3    3    0  502  0.13546240198E+04  0.34604726201E+03  0.37323014534E+03  0.14470852373E+04  0.50400001928E-02 0.  1.
</event>
<event>
 5   0  0.9342133E-06  0.2792798E+04  0.7818609E-02  0.8305508E-01
        2   -1    0    0  501    0  0.00000000000E+00  0.00000000000E+00  0.26681006932E+04  0.26681006932E+04  0.25500000920E-02 0.  1.
       -2   -1    0    0    0  501  0.00000000000E+00  0.00000000000E+00 -0.73083095617E+03  0.73083095617E+03  0.25500000920E-02 0. -1.
    10030    2    1    2    0    0  0.00000000000E+00  0.00000000000E+00  0.19372697370E+04  0.33989316493E+04  0.27927982962E+04 0.  0.
        2    1    3    3  502    0  0.19472454207E+03  0.12076686093E+04  0.17882598544E+04  0.21666228154E+04  0.25500000920E-02 0.  1.
       -2    1    3    3    0  502 -0.19472454207E+03 -0.12076686093E+04  0.14900988256E+03  0.12323088340E+04  0.25500000920E-02 0. -1.
</event>
<event>
 5   0  0.3357244E-06  0.2619470E+04  0.7818609E-02  0.8361618E-01
       -1   -1    0    0    0  501  0.00000000000E+00  0.00000000000E+00  0.10136724078E+04  0.10136724078E+04  0.50400001928E-02 0. -1.
        1   -1    0    0  501    0  0.00000000000E+00  0.00000000000E+00 -0.16922677984E+04  0.16922677984E+04  0.50400001928E-02 0.  1.
    10030    2    1    2    0    0  0.00000000000E+00  0.00000000000E+00 -0.67859539063E+03  0.27059402062E+04  0.26194695447E+04 0.  0.
        4    1    3    3  502    0 -0.10081349684E+04 -0.54034691546E+03 -0.99839794595E+03  0.15182591923E+04  0.12699999809E+01 0.  1.
       -4    1    3    3    0  502  0.10081349684E+04  0.54034691546E+03  0.31980255532E+03  0.11876810140E+04  0.12699999809E+01 0. -1.
</event>
<event>
 5   0  0.3371603E-06  0.2516452E+04  0.7818609E-02  0.8397148E-01
       -1   -1    0    0    0  501  0.00000000000E+00  0.00000000000E+00  0.13055144862E+04  0.13055144862E+04  0.50400001928E-02 0. -1.
        1   -1    0    0  501    0  0.00000000000E+00  0.00000000000E+00 -0.12126508653E+04  0.12126508653E+04  0.50400001928E-02 0.  1.
    10030    2    1    2    0    0  0.00000000000E+00  0.00000000000E+00  0.92863620928E+02  0.25181653516E+04  0.25164524803E+04 0.  0.
        1    1    3    3  502    0 -0.81892463241E+02  0.93578074025E+03  0.88410452251E+03  0.12899739440E+04  0.50400001928E-02 0. -1.
       -1    1    3    3    0  502  0.81892463241E+02 -0.93578074025E+03 -0.79124090158E+03  0.12281914076E+04  0.50400001928E-02 0.  1.
</event>
<event>
 5   0  0.9260173E-06  0.2729289E+04  0.7818609E-02  0.8325564E-01
       -2   -1    0    0    0  501  0.00000000000E+00  0.00000000000E+00  0.12507828009E+04  0.12507828009E+04  0.25500000920E-02 0. -1.
        2   -1    0    0  501    0  0.00000000000E+00  0.00000000000E+00 -0.14888716394E+04  0.14888716394E+04  0.25500000920E-02 0.  1.
    10030    2    1    2    0    0  0.00000000000E+00  0.00000000000E+00 -0.23808883847E+03  0.27396544403E+04  0.27292893136E+04 0.  0.
        1    1    3    3  502    0  0.87182319817E+03  0.12093092009E+03  0.92777516778E+03  0.12788536813E+04  0.50400001928E-02 0. -1.
       -1    1    3    3    0  502 -0.87182319817E+03 -0.12093092009E+03 -0.11658640063E+04  0.14608007590E+04  0.50400001928E-02 0.  1.
</event>
<event>
 5   0  0.9342133E-06  0.2772279E+04  0.7818609E-02  0.8311927E-01
        2   -1    0    0  501    0  0.00000000000E+00  0.00000000000E+00  0.15956717571E+04  0.15956717571E+04  0.25500000920E-02 0. -1.
       -2   -1    0    0    0  501  0.00000000000E+00  0.00000000000E+00 -0.12041217592E+04  0.12041217592E+04  0.25500000920E-02 0.  1.
    10030    2    1    2    0    0  0.00000000000E+00  0.00000000000E+00  0.39154999795E+03  0.27997935163E+04  0.27722792668E+04 0.  0.
        2    1    3    3  502    0 -0.75849201792E+03 -0.82479850364E+03  0.10198268129E+04  0.15151400731E+04  0.25500000920E-02 0. -1.
       -2    1    3    3    0  502  0.75849201792E+03  0.82479850364E+03 -0.62827681494E+03  0.12846534432E+04  0.25500000920E-02 0.  1.
</event>
<event>
 5   0  0.3371603E-06  0.2844848E+04  0.7818609E-02  0.8289478E-01
       -1   -1    0    0    0  501  0.00000000000E+00  0.00000000000E+00  0.13908021095E+04  0.13908021095E+04  0.50400001928E-02 0.  1.
        1   -1    0    0  501    0  0.00000000000E+00  0.00000000000E+00 -0.14547650521E+04  0.14547650521E+04  0.50400001928E-02 0. -1.
    10030    2    1    2    0    0  0.00000000000E+00  0.00000000000E+00 -0.63962942601E+02  0.28455671616E+04  0.28448481881E+04 0.  0.
        1    1    3    3  502    0  0.45406745795E+03  0.10717380271E+04  0.78583793649E+03  0.14044005545E+04  0.50400001928E-02 0.  1.
       -1    1    3    3    0  502 -0.45406745795E+03 -0.10717380271E+04 -0.84980087909E+03  0.14411666071E+04  0.50400001928E-02 0. -1.
</event>
<event>
 5   0  0.3397882E-06  0.2791482E+04  0.7818609E-02  0.8305918E-01
       -1   -1    0    0    0  501  0.00000000000E+00  0.00000000000E+00  0.16332728409E+04  0.16332728409E+04  0.50400001928E-02 0.  1.
        1   -1    0    0  501    0  0.00000000000E+00  0.00000000000E+00 -0.11927540050E+04  0.11927540050E+04  0.50400001928E-02 0. -1.
    10030    2    1    2    0    0  0.00000000000E+00  0.00000000000E+00  0.44051883595E+03  0.28260268459E+04  0.27914818447E+04 0.  0.
        2    1    3    3  502    0  0.13421284463E+04  0.22070455389E+03 -0.96782885797E+02  0.13635931187E+04  0.25500000920E-02 0. -1.
       -2    1    3    3    0  502 -0.13421284463E+04 -0.22070455389E+03  0.53730172174E+03  0.14624337272E+04  0.25500000920E-02 0.  1.
</event>
<event>
 5   0  0.9260173E-06  0.2756960E+04  0.7818609E-02  0.8316757E-01
       -2   -1    0    0    0  501  0.00000000000E+00  0.00000000000E+00  0.70356984512E+03  0.70356984513E+03  0.25500000920E-02 0.  1.
        2   -1    0    0  501    0  0.00000000000E+00  0.00000000000E+00 -0.27008074770E+04  0.27008074770E+04  0.25500000920E-02 0. -1.
    10030    2    1    2    0    0  0.00000000000E+00  0.00000000000E+00 -0.19972376319E+04  0.34043773221E+04  0.27569597011E+04 0.  0.
        1    1    3    3  502    0  0.68295303292E+03 -0.42753675547E+03 -0.23797499478E+04  0.25124534496E+04  0.50400001928E-02 0. -1.
       -1    1    3    3    0  502 -0.68295303292E+03  0.42753675547E+03  0.38251231594E+03  0.89192387249E+03  0.50400001928E-02 0.  1.
</event>
<event>
 5   0  0.3397882E-06  0.2797361E+04  0.7818609E-02  0.8304088E-01
       -1   -1    0    0    0  501  0.00000000000E+00  0.00000000000E+00  0.12156159187E+04  0.12156159187E+04  0.50400001928E-02 0. -1.
        1   -1    0    0  501    0  0.00000000000E+00  0.00000000000E+00 -0.16093134096E+04  0.16093134096E+04  0.50400001928E-02 0.  1.
    10030    2    1    2    0    0  0.00000000000E+00  0.00000000000E+00 -0.39369749087E+03  0.28249293283E+04  0.27973608984E+04 0.  0.
        2    1    3    3  502    0 -0.54806973184E+03  0.83018478352E+03 -0.11897576209E+04  0.15508418367E+04  0.25500000920E-02 0.  1.
       -2    1    3    3    0  502  0.54806973184E+03 -0.83018478352E+03  0.79606013006E+03  0.12740874917E+04  0.25500000920E-02 0. -1.
</event>
<event>
 5   0  0.3438130E-06  0.2863092E+04  0.7818609E-02  0.8283944E-01
       -1   -1    0    0    0  501  0.00000000000E+00  0.00000000000E+00  0.14029154879E+04  0.14029154879E+04  0.50400001928E-02 0. -1.
        1   -1    0    0  501    0  0.00000000000E+00  0.00000000000E+00 -0.14607612803E+04  0.14607612803E+04  0.50400001928E-02 0.  1.
    10030    2    1    2    0    0  0.00000000000E+00  0.00000000000E+00 -0.57845792362E+02  0.28636767682E+04  0.28630924709E+04 0.  0.
        3    1    3    3  502    0  0.90649154094E+03 -0.10100312122E+04 -0.48446578706E+03  0.14410402744E+04  0.10100000352E+00 0. -1.
       -3    1    3    3    0  502 -0.90649154094E+03  0.10100312122E+04  0.42661999470E+03  0.14226364938E+04  0.10100000352E+00 0.  1.
</event>
<event>
 5   0  0.9260173E-06  0.2776897E+04  0.7818609E-02  0.8310477E-01
        2   -1    0    0  501    0  0.00000000000E+00  0.00000000000E+00  0.24901389227E+04  0.24901389227E+04  0.25500000920E-02 0.  1.
       -2   -1    0    0    0  501  0.00000000000E+00  0.00000000000E+00 -0.77416944563E+03  0.77416944563E+03  0.25500000920E-02 0. -1.
    10030    2    1    2    0    0  0.00000000000E+00  0.00000000000E+00  0.17159694771E+04  0.32643083683E+04  0.27768971672E+04 0.  0.
        1    1    3    3  502    0  0.62106804339E+03 -0.90020526609E+03 -0.14754809589E+03  0.11035694252E+04  0.50400001928E-02 0. -1.
       -1    1    3    3    0  502 -0.62106804339E+03  0.90020526609E+03  0.18635175729E+04  0.21607389431E+04  0.50400001928E-02 0.  1.
</event>
<event>
 5   0  0.9426937E-06  0.2682937E+04  0.7818609E-02  0.8340563E-01
       -2   -1    0    0    0  501  0.00000000000E+00  0.00000000000E+00  0.21012435048E+04  0.21012435048E+04  0.25500000920E-02 0.  1.
        2   -1    0    0  501    0  0.00000000000E+00  0.00000000000E+00 -0.85641566651E+03  0.85641566651E+03  0.25500000920E-02 0. -1.
    10030    2    1    2    0    0  0.00000000000E+00  0.00000000000E+00  0.12448278383E+04  0.29576591713E+04  0.26829370896E+04 0.  0.
        4    1    3    3  502    0 -0.65369885253E+03 -0.11027816656E+04  0.18688146790E+03  0.12955214733E+04  0.12699999809E+01 0.  1.
       -4    1    3    3    0  502  0.65369885253E+03  0.11027816656E+04  0.10579463704E+04  0.16621376981E+04  0.12699999809E+01 0. -1.
</event>
<event>
 5   0  0.9426937E-06  0.2959989E+04  0.7818609E-02  0.8255249E-01
        2   -1    0    0  501    0  0.00000000000E+00  0.00000000000E+00  0.15924915269E+04  0.15924915269E+04  0.25500000920E-02 0.  1.
       -2   -1    0    0    0  501  0.00000000000E+00  0.00000000000E+00 -0.13754446196E+04  0.13754446196E+04  0.25500000920E-02 0. -1.
    10030    2    1    2    0    0  0.00000000000E+00  0.00000000000E+00  0.21704690735E+03  0.29679361465E+04  0.29599891233E+04 0.  0.
        4    1    3    3  502    0  0.57873641590E+03  0.97165527943E+03  0.10657238275E+04  0.15539686968E+04  0.12699999809E+01 0.  1.
       -4    1    3    3    0  502 -0.57873641590E+03 -0.97165527943E+03 -0.84867692019E+03  0.14139674497E+04  0.12699999809E+01 0. -1.
</event>
<event>
 5   0  0.9065579E-06  0.2761898E+04  0.7818609E-02  0.8315196E-01
        2   -1    0    0  501    0  0.00000000000E+00  0.00000000000E+00  0.22606794874E+04  0.22606794874E+04  0.25500000920E-02 0. -1.
       -2   -1    0    0    0  501  0.00000000000E+00  0.00000000000E+00 -0.84356050918E+03  0.84356050918E+03  0.25500000920E-02 0.  1.
    10030    2    1    2    0    0  0.00000000000E+00  0.00000000000E+00  0.14171189782E+04  0.31042399966E+04  0.27618978543E+04 0.  0.
        3    1    3    3  502    0  0.53807471321E+03  0.99455644410E+03  0.15995016852E+04  0.19588447026E+04  0.10100000352E+00 0. -1.
       -3    1    3    3    0  502 -0.53807471321E+03 -0.99455644410E+03 -0.18238270703E+03  0.11453952940E+04  0.10100000352E+00 0.  1.
</event>
<event>
 5   0  0.3371603E-06  0.2768184E+04  0.7818609E-02  0.8313214E-01
       -1   -1    0    0    0  501  0.00000000000E+00  0.00000000000E+00  0.97818572473E+03  0.97818572475E+03  0.50400001928E-02 0.  1.
        1   -1    0    0  501    0  0.00000000000E+00  0.00000000000E+00 -0.19584328681E+04  0.19584328682E+04  0.50400001928E-02 0. -1.
    10030    2    1    2    0    0  0.00000000000E+00  0.00000000000E+00 -0.98024714341E+03  0.29366185929E+04  0.27681842962E+04 0.  0.
        1    1    3    3  502    0 -0.49147503426E+03 -0.18604401425E+02 -0.18626052705E+04  0.19264454902E+04  0.50400001928E-02 0. -1.
       -1    1    3    3    0  502  0.49147503426E+03  0.18604401425E+02  0.88235812705E+03  0.10101731027E+04  0.50400001928E-02 0.  1.
</event>
<event>
 5   0  0.9342133E-06  0.2771739E+04  0.7818609E-02  0.8312096E-01
       -2   -1    0    0    0  501  0.00000000000E+00  0.00000000000E+00  0.14125404404E+04  0.14125404404E+04  0.25500000920E-02 0.  1.
        2   -1    0    0  501    0  0.00000000000E+00  0.00000000000E+00 -0.13597020574E+04  0.13597020574E+04  0.25500000920E-02 0. -1.
    10030    2    1    2    0    0  0.00000000000E+00  0.00000000000E+00  0.52838382962E+02  0.27722424978E+04  0.27717389076E+04 0.  0.
        2    1    3    3  502    0  0.91285918387E+03 -0.13028185251E+03 -0.10083454511E+04  0.13663988435E+04  0.25500000920E-02 0. -1.
       -2    1    3    3    0  502 -0.91285918387E+03  0.13028185251E+03  0.10611838341E+04  0.14058436543E+04  0.25500000920E-02 0.  1.
</event>
<event>
 5   0  0.9260173E-06  0.2813378E+04  0.7818609E-02  0.8299127E-01
       -2   -1    0    0    0  501  0.00000000000E+00  0.00000000000E+00  0.17911390840E+04  0.17911390840E+04  0.25500000920E-02 0. -1.
        2   -1    0    0  501    0  0.00000000000E+00  0.00000000000E+00 -0.11047575146E+04  0.11047575146E+04  0.25500000920E-02 0.  1.
    10030    2    1    2    0    0  0.00000000000E+00  0.00000000000E+00  0.68638156945E+03  0.28958965986E+04  0.28133782986E+04 0.  0.
        1    1    3    3  502    0  0.13393021443E+04  0.42457479568E+03  0.41435894787E+03  0.14648164829E+04  0.50400001928E-02 0. -1.
       -1    1    3    3    0  502 -0.13393021443E+04 -0.42457479568E+03  0.27202262158E+03  0.14310801157E+04  0.50400001928E-02 0.  1.
</event>
<event>
 5   0  0.3397882E-06  0.2799081E+04  0.7818609E-02  0.8303554E-01
        1   -1    0    0  501    0  0.00000000000E+00  0.00000000000E+00  0.19906309937E+04  0.19906309937E+04  0.50400001928E-02 0. -1.
       -1   -1    0    0    0  501  0.00000000000E+00  0.00000000000E+00 -0.98396646616E+03  0.98396646617E+03  0.50400001928E-02 0.  1.
    10030    2    1    2    0    0  0.00000000000E+00  0.00000000000E+00  0.10066645276E+04  0.29745974599E+04  0.27990813810E+04 0.  0.
        2    1    3    3  502    0 -0.32348405059E+03 -0.71349351195E+01  0.19503372834E+04  0.19769947793E+04  0.25500000920E-02 0. -1.
       -2    1    3    3    0  502  0.32348405059E+03  0.71349351195E+01 -0.94367275583E+03  0.99760268062E+03  0.25500000920E-02 0.  1.
</event>
<event>
 5   0  0.3397882E-06  0.2802004E+04  0.7818609E-02  0.8302647E-01
       -1   -1    0    0    0  501  0.00000000000E+00  0.00000000000E+00  0.25833098767E+04  0.25833098767E+04  0.50400001928E-02 0.  1.
        1   -1    0    0  501    0  0.00000000000E+00  0.00000000000E+00 -0.75980278153E+03  0.75980278155E+03  0.50400001928E-02 0. -1.
    10030    2    1    2    0    0  0.00000000000E+00  0.00000000000E+00  0.18235070951E+04  0.33431126582E+04  0.28020035902E+04 0.  0.
        2    1    3    3  502    0  0.76093494563E+03  0.38670199280E+03 -0.41375679159E+03  0.94855421843E+03  0.25500000920E-02 0. -1.
       -2    1    3    3    0  502 -0.76093494563E+03 -0.38670199280E+03  0.22372638867E+04  0.23945584398E+04  0.25500000920E-02 0.  1.
</event>
<event>
 5   0  0.9260173E-06  0.2800515E+04  0.7818609E-02  0.8303108E-01
       -2   -1    0    0    0  501  0.00000000000E+00  0.00000000000E+00  0.12278264737E+04  0.12278264737E+04  0.25500000920E-02 0.  1.
        2   -1    0    0  501    0  0.00000000000E+00  0.00000000000E+00 -0.15969041119E+04  0.15969041119E+04  0.25500000920E-02 0. -1.
    10030    2    1    2    0    0  0.00000000000E+00  0.00000000000E+00 -0.36907763820E+03  0.28247305856E+04  0.28005150559E+04 0.  0.
        1    1    3    3  502    0  0.38195233738E+03 -0.18178146570E+03  0.11618399790E+04  0.12364482303E+04  0.50400001928E-02 0.  1.
       -1    1    3    3    0  502 -0.38195233738E+03  0.18178146570E+03 -0.15309176172E+04  0.15882823553E+04  0.50400001928E-02 0. -1.
</event>
<event>
 5   0  0.9426937E-06  0.2799197E+04  0.7818609E-02  0.8303518E-01
        2   -1    0    0  501    0  0.00000000000E+00  0.00000000000E+00  0.14212995982E+04  0.14212995982E+04  0.25500000920E-02 0. -1.
       -2   -1    0    0    0  501  0.00000000000E+00  0.00000000000E+00 -0.13782291955E+04  0.13782291955E+04  0.25500000920E-02 0.  1.
    10030    2    1    2    0    0  0.00000000000E+00  0.00000000000E+00  0.43070402720E+02  0.27995287938E+04  0.27991974578E+04 0.  0.
        4    1    3    3  502    0  0.49595939344E+02 -0.13008072257E+04  0.53571257373E+03  0.14076749519E+04  0.12699999809E+01 0. -1.
       -4    1    3    3    0  502 -0.49595939344E+02  0.13008072257E+04 -0.49264217101E+03  0.13918538419E+04  0.12699999809E+01 0.  1.
</event>
<event>
 5   0  0.9426937E-06  0.2746823E+04  0.7818609E-02  0.8319971E-01
       -2   -1    0    0    0  501  0.00000000000E+00  0.00000000000E+00  0.19832917722E+04  0.19832917722E+04  0.25500000920E-02 0. -1.
        2   -1    0    0  501    0  0.00000000000E+00  0.00000000000E+00 -0.95107464373E+03  0.95107464374E+03  0.25500000920E-02 0.  1.
    10030    2    1    2    0    0  0.00000000000E+00  0.00000000000E+00  0.10322171285E+04  0.29343664159E+04  0.27468225393E+04 0.  0.
        4    1    3    3  502    0  0.47645685720E+03  0.84809305435E+03 -0.51961523855E+03  0.11028483915E+04  0.12699999809E+01 0.  1.
       -4    1    3    3    0  502 -0.47645685720E+03 -0.84809305435E+03  0.15518323670E+04  0.18315180244E+04  0.12699999809E+01 0. -1.
</event>
<event>
 5   0  0.3438130E-06  0.2765237E+04  0.7818609E-02  0.8314143E-01
        1   -1    0    0  501    0  0.00000000000E+00  0.00000000000E+00  0.17971791949E+04  0.17971791949E+04  0.50400001928E-02 0.  1.
       -1   -1    0    0    0  501  0.00000000000E+00  0.00000000000E+00 -0.10636858338E+04  0.10636858338E+04  0.50400001928E-02 0. -1.
    10030    2    1    2    0    0  0.00000000000E+00  0.00000000000E+00  0.73349336112E+03  0.28608650287E+04  0.27652370968E+04 0.  0.
        3    1    3    3  502    0  0.10437700928E+04  0.46846131229E+03  0.11699463631E+04  0.16363638075E+04  0.10100000352E+00 0.  1.
       -3    1    3    3    0  502 -0.10437700928E+04 -0.46846131229E+03 -0.43645300195E+03  0.12245012212E+04  0.10100000352E+00 0. -1.
</event>
<event>
 5   0  0.3600963E-06  0.2815930E+04  0.7818609E-02  0.8298340E-01
        1   -1    0    0  501    0  0.00000000000E+00  0.00000000000E+00  0.17922171453E+04  0.17922171453E+04  0.50400001928E-02 0. -1.
       -1   -1    0    0    0  501  0.00000000000E+00  0.00000000000E+00 -0.11060963745E+04  0.11060963746E+04  0.50400001928E-02 0.  1.
    10030    2    1    2    0    0  0.00000000000E+00  0.00000000000E+00  0.68612077076E+03  0.28983135199E+04  0.28159296062E+04 0.  0.
        5    1    3    3  502    0 -0.12750430315E+04 -0.66898120083E+02 -0.26770828391E+03  0.13045688583E+04  0.46999998093E+01 0.  1.
       -5    1    3    3    0  502  0.12750430315E+04  0.66898120083E+02  0.95382905467E+03  0.15937446616E+04  0.46999998093E+01 0. -1.
</event>
<event>
 5   0  0.9342133E-06  0.2794821E+04  0.7818609E-02  0.8304878E-01
       -2   -1    0    0    0  501  0.00000000000E+00  0.00000000000E+00  0.98901466573E+03  0.98901466573E+03  0.25500000920E-02 0.  1.
        2   -1    0    0  501    0  0.00000000000E+00  0.00000000000E+00 -0.19744460720E+04  0.19744460720E+04  0.25500000920E-02 0. -1.
    10030    2    1    2    0    0  0.00000000000E+00  0.00000000000E+00 -0.98543140625E+03  0.29634607377E+04  0.27948210117E+04 0.  0.
        2    1    3    3  502    0 -0.56024665134E+03  0.92306664457E+03 -0.14332724884E+04  0.17944911164E+04  0.25500000920E-02 0. -1.
       -2    1    3    3    0  502  0.56024665134E+03 -0.92306664457E+03  0.44784108220E+03  0.11689696213E+04  0.25500000920E-02 0.  1.
</event>
<event>
 5   0  0.3397882E-06  0.2887818E+04  0.7818609E-02  0.8276511E-01
       -1   -1    0    0    0  501  0.00000000000E+00  0.00000000000E+00  0.12813607781E+04  0.12813607781E+04  0.50400001928E-02 0. -1.
        1   -1    0    0  501    0  0.00000000000E+00  0.00000000000E+00 -0.16270776973E+04  0.16270776973E+04  0.50400001928E-02 0.  1.
    10030    2    1    2    0    0  0.00000000000E+00  0.00000000000E+00 -0.34571691921E+03  0.29084384755E+04  0.28878182383E+04 0.  0.
        2    1    3    3  502    0  0.67099776482E+03  0.77642208711E+03  0.85017229614E+03  0.13326147946E+04  0.25500000920E-02 0. -1.
       -2    1    3    3    0  502 -0.67099776482E+03 -0.77642208711E+03 -0.11958892153E+04  0.15758236809E+04  0.25500000920E-02 0.  1.
</event>
<event>
 5   0  0.3397882E-06  0.2594819E+04  0.7818609E-02  0.8369963E-01
       -1   -1    0    0    0  501  0.00000000000E+00  0.00000000000E+00  0.91945797160E+03  0.91945797161E+03  0.50400001928E-02 0. -1.
        1   -1    0    0  501    0  0.00000000000E+00  0.00000000000E+00 -0.18307214884E+04  0.18307214884E+04  0.50400001928E-02 0.  1.
    10030    2    1    2    0    0  0.00000000000E+00  0.00000000000E+00 -0.91126351682E+03  0.27501794600E+04  0.25948190429E+04 0.  0.
        2    1    3    3  502    0  0.14079301453E+03  0.93283246416E+03 -0.13996168301E+04  0.16878762840E+04  0.25500000920E-02 0.  1.
       -2    1    3    3    0  502 -0.14079301453E+03 -0.93283246416E+03  0.48835331328E+03  0.10623031760E+04  0.25500000920E-02 0. -1.
</event>
<event>
 5   0  0.3371603E-06  0.2754450E+04  0.7818609E-02  0.8317551E-01
        1   -1    0    0  501    0  0.00000000000E+00  0.00000000000E+00  0.14465780659E+04  0.14465780659E+04  0.50400001928E-02 0. -1.
       -1   -1    0    0    0  501  0.00000000000E+00  0.00000000000E+00 -0.13111968237E+04  0.13111968237E+04  0.50400001928E-02 0.  1.
    10030    2    1    2    0    0  0.00000000000E+00  0.00000000000E+00  0.13538124219E+03  0.27577748895E+04  0.27544499016E+04 0.  0.
        1    1    3    3  502    0 -0.63719441829E+03  0.78057897399E+03 -0.87228682061E+03  0.13327432456E+04  0.50400001928E-02 0.  1.
       -1    1    3    3    0  502  0.63719441829E+03 -0.78057897399E+03  0.10076680628E+04  0.14250316439E+04  0.50400001928E-02 0. -1.
</event>
<event>
 5   0  0.9342133E-06  0.2731016E+04  0.7818609E-02  0.8325011E-01
        2   -1    0    0  501    0  0.00000000000E+00  0.00000000000E+00  0.77752902407E+03  0.77752902407E+03  0.25500000920E-02 0. -1.
       -2   -1    0    0    0  501  0.00000000000E+00  0.00000000000E+00 -0.23981250689E+04  0.23981250689E+04  0.25500000920E-02 0.  1.
    10030    2    1    2    0    0  0.00000000000E+00  0.00000000000E+00 -0.16205960448E+04  0.31756540929E+04  0.27310158142E+04 0.  0.
        2    1    3    3  502    0 -0.29000602883E+03  0.12229535823E+04 -0.18964371165E+03  0.12710954719E+04  0.25500000920E-02 0.  1.
       -2    1    3    3    0  502  0.29000602883E+03 -0.12229535823E+04 -0.14309523332E+04  0.19045586211E+04  0.25500000920E-02 0. -1.
</event>
<event>
 5   0  0.9426937E-06  0.2770107E+04  0.7818609E-02  0.8312609E-01
       -2   -1    0    0    0  501  0.00000000000E+00  0.00000000000E+00  0.66188099137E+03  0.66188099138E+03  0.25500000920E-02 0.  1.
        2   -1    0    0  501    0  0.00000000000E+00  0.00000000000E+00 -0.28983665794E+04  0.28983665794E+04  0.25500000920E-02 0. -1.
    10030    2    1    2    0    0  0.00000000000E+00  0.00000000000E+00 -0.22364855880E+04  0.35602475707E+04  0.27701073950E+04 0.  0.
        4    1    3    3  502    0  0.66530036297E+03  0.12141068674E+04 -0.11711108358E+04  0.18133345695E+04  0.12699999809E+01 0.  1.
       -4    1    3    3    0  502 -0.66530036297E+03 -0.12141068674E+04 -0.10653747522E+04  0.17469130012E+04  0.12699999809E+01 0. -1.
</event>
<event>
 5   0  0.3438130E-06  0.2899392E+04  0.7818609E-02  0.8273058E-01
        1   -1    0    0  501    0  0.00000000000E+00  0.00000000000E+00  0.17597606690E+04  0.17597606690E+04  0.50400001928E-02 0.  1.
       -1   -1    0    0    0  501  0.00000000000E+00  0.00000000000E+00 -0.11942638722E+04  0.11942638722E+04  0.50400001928E-02 0. -1.
    10030    2    1    2    0    0  0.00000000000E+00  0.00000000000E+00  0.56549679682E+03  0.29540245411E+04  0.28993920677E+04 0.  0.
        3    1    3    3  502    0  0.21281931791E+03  0.12945311085E+04 -0.34573449094E+03  0.13567001148E+04  0.10100000352E+00 0. -1.
       -3    1    3    3    0  502 -0.21281931791E+03 -0.12945311085E+04  0.91123128776E+03  0.15973244264E+04  0.10100000352E+00 0.  1.
</event>
<event>
 5   0  0.9260173E-06  0.2793074E+04  0.7818609E-02  0.8305422E-01
       -2   -1    0    0    0  501  0.00000000000E+00  0.00000000000E+00  0.14815389933E+04  0.14815389933E+04  0.25500000920E-02 0.  1.
        2   -1    0    0  501    0  0.00000000000E+00  0.00000000000E+00 -0.13164122366E+04  0.13164122366E+04  0.25500000920E-02 0. -1.
    10030    2    1    2    0    0  0.00000000000E+00  0.00000000000E+00  0.16512675669E+03  0.27979512299E+04  0.27930743347E+04 0.  0.
        1    1    3    3  502    0 -0.98020499015E+03 -0.91064728162E+03 -0.31843016131E+03  0.13753101693E+04  0.50400001928E-02 0. -1.
       -1    1    3    3    0  502  0.98020499015E+03  0.91064728162E+03  0.48355691800E+03  0.14226410606E+04  0.50400001928E-02 0.  1.
</event>
<event>
 5   0  0.3397882E-06  0.2679251E+04  0.7818609E-02  0.8341769E-01
       -1   -1    0    0    0  501  0.00000000000E+00  0.00000000000E+00  0.68653651289E+03  0.68653651291E+03  0.50400001928E-02 0. -1.
        1   -1    0    0  501    0  0.00000000000E+00  0.00000000000E+00 -0.26139845816E+04  0.26139845816E+04  0.50400001928E-02 0.  1.
    10030    2    1    2    0    0  0.00000000000E+00  0.00000000000E+00 -0.19274480687E+04  0.33005210945E+04  0.26792505366E+04 0.  0.
        2    1    3    3  502    0 -0.78108566222E+03  0.95761565439E+03 -0.16008266813E+04  0.20223176350E+04  0.25500000920E-02 0.  1.
       -2    1    3    3    0  502  0.78108566222E+03 -0.95761565439E+03 -0.32662138743E+03  0.12782034595E+04  0.25500000920E-02 0. -1.
</event>
<event>
 5   0  0.3371603E-06  0.2782266E+04  0.7818609E-02  0.8308795E-01
       -1   -1    0    0    0  501  0.00000000000E+00  0.00000000000E+00  0.10690783933E+04  0.10690783933E+04  0.50400001928E-02 0.  1.
        1   -1    0    0  501    0  0.00000000000E+00  0.00000000000E+00 -0.18102049030E+04  0.18102049030E+04  0.50400001928E-02 0. -1.
    10030    2    1    2    0    0  0.00000000000E+00  0.00000000000E+00 -0.74112650964E+03  0.28792832963E+04  0.27822659465E+04 0.  0.
        1    1    3    3  502    0  0.11721462983E+04 -0.73721281315E+03 -0.23233441127E+03  0.14040615923E+04  0.50400001928E-02 0. -1.
       -1    1    3    3    0  502 -0.11721462983E+04  0.73721281315E+03 -0.50879209837E+03  0.14752217039E+04  0.50400001928E-02 0.  1.
</event>
<event>
 5   0  0.3438130E-06  0.2765931E+04  0.7818609E-02  0.8313924E-01
       -1   -1    0    0    0  501  0.00000000000E+00  0.00000000000E+00  0.13399522582E+04  0.13399522582E+04  0.50400001928E-02 0.  1.
        1   -1    0    0  501    0  0.00000000000E+00  0.00000000000E+00 -0.14273590718E+04  0.14273590718E+04  0.50400001928E-02 0. -1.
    10030    2    1    2    0    0  0.00000000000E+00  0.00000000000E+00 -0.87406813596E+02  0.27673113300E+04  0.27659305931E+04 0.  0.
        3    1    3    3  502    0  0.47215614435E+03  0.52081733968E+03 -0.12352684928E+04  0.14212918016E+04  0.10100000352E+00 0. -1.
       -3    1    3    3    0  502 -0.47215614435E+03 -0.52081733968E+03  0.11478616792E+04  0.13460195283E+04  0.10100000352E+00 0.  1.
</event>
<event>
 5   0  0.3371603E-06  0.2836644E+04  0.7818609E-02  0.8291981E-01
        1   -1    0    0  501    0  0.00000000000E+00  0.00000000000E+00  0.16142822499E+04  0.16142822499E+04  0.50400001928E-02 0.  1.
       -1   -1    0    0    0  501  0.00000000000E+00  0.00000000000E+00 -0.12461497388E+04  0.12461497388E+04  0.50400001928E-02 0. -1.
    10030    2    1    2    0    0  0.00000000000E+00  0.00000000000E+00  0.36813251106E+03  0.28604319887E+04  0.28366440764E+04 0.  0.
        1    1    3    3  502    0 -0.83261386953E+03 -0.27062682507E+03 -0.94115539912E+03  0.12854019681E+04  0.50400001928E-02 0. -1.
       -1    1    3    3    0  502  0.83261386953E+03  0.27062682507E+03  0.13092879102E+04  0.15750300206E+04  0.50400001928E-02 0.  1.
</event>
<event>
 5   0  0.3371603E-06  0.2788737E+04  0.7818609E-02  0.8306773E-01
       -1   -1    0    0    0  501  0.00000000000E+00  0.00000000000E+00  0.13790304757E+04  0.13790304757E+04  0.50400001928E-02 0. -1.
        1   -1    0    0  501    0  0.00000000000E+00  0.00000000000E+00 -0.14098774934E+04  0.14098774934E+04  0.50400001928E-02 0.  1.
    10030    2    1    2    0    0  0.00000000000E+00  0.00000000000E+00 -0.30847017745E+02  0.27889079691E+04  0.27887373705E+04 0.  0.
        1    1    3    3  502    0 -0.65413811461E+03 -0.12249961711E+04  0.11009009736E+03  0.13930657278E+04  0.50400001928E-02 0.  1.
       -1    1    3    3    0  502  0.65413811461E+03  0.12249961711E+04 -0.14093711510E+03  0.13958422413E+04  0.50400001928E-02 0. -1.
</event>
<event>
 5   0  0.3397882E-06  0.2796934E+04  0.7818609E-02  0.8304221E-01
       -1   -1    0    0    0  501  0.00000000000E+00  0.00000000000E+00  0.87419194507E+03  0.87419194509E+03  0.50400001928E-02 0. -1.
        1   -1    0    0  501    0  0.00000000000E+00  0.00000000000E+00 -0.22371627527E+04  0.22371627528E+04  0.50400001928E-02 0.  1.
    10030    2    1    2    0    0  0.00000000000E+00  0.00000000000E+00 -0.13629708077E+04  0.31113546978E+04  0.27969337914E+04 0.  0.
        2    1    3    3  502    0 -0.99038297829E+03  0.93156355512E+03 -0.10454352322E+04  0.17151104704E+04  0.25500000920E-02 0. -1.
       -2    1    3    3    0  502  0.99038297829E+03 -0.93156355512E+03 -0.31753557543E+03  0.13962442274E+04  0.25500000920E-02 0.  1.
</event>
<event>
 5   0  0.3371603E-06  0.2820146E+04  0.7818609E-02  0.8297041E-01
       -1   -1    0    0    0  501  0.00000000000E+00  0.00000000000E+00  0.97628234514E+03  0.97628234516E+03  0.50400001928E-02 0. -1.
        1   -1    0    0  501    0  0.00000000000E+00  0.00000000000E+00 -0.20366094700E+04  0.20366094700E+04  0.50400001928E-02 0.  1.
    10030    2    1    2    0    0  0.00000000000E+00  0.00000000000E+00 -0.10603271248E+04  0.30128918151E+04  0.28201460030E+04 0.  0.
        1    1    3    3  502    0  0.22253667102E+03  0.11409283124E+04 -0.13828789880E+04  0.18065420780E+04  0.50400001928E-02 0. -1.
       -1    1    3    3    0  502 -0.22253667102E+03 -0.11409283124E+04  0.32255186319E+03  0.12063497372E+04  0.50400001928E-02 0.  1.
</event>
<event>
 5   0  0.9342133E-06  0.2647364E+04  0.7818609E-02  0.8352288E-01
       -2   -1    0    0    0  501  0.00000000000E+00  0.00000000000E+00  0.13470307165E+04  0.13470307165E+04  0.25500000920E-02 0.  1.
        2   -1    0    0  501    0  0.00000000000E+00  0.00000000000E+00 -0.13007381175E+04  0.13007381175E+04  0.25500000920E-02 0. -1.
    10030    2    1    2    0    0  0.00000000000E+00  0.00000000000E+00  0.46292599038E+02  0.26477688340E+04  0.26473641219E+04 0.  0.
        2    1    3    3  502    0 -0.17505385084E+03 -0.11921069939E+04 -0.52499885240E+03  0.13143008524E+04  0.25500000920E-02 0. -1.
       -2    1    3    3    0  502  0.17505385084E+03  0.11921069939E+04  0.57129145144E+03  0.13334679816E+04  0.25500000920E-02 0.  1.
</event>
<event>
 5   0  0.3397882E-06  0.2795038E+04  0.7818609E-02  0.8304811E-01
        1   -1    0    0  501    0  0.00000000000E+00  0.00000000000E+00  0.18898233543E+04  0.18898233543E+04  0.50400001928E-02 0. -1.
       -1   -1    0    0    0  501  0.00000000000E+00  0.00000000000E+00 -0.10334611229E+04  0.10334611229E+04  0.50400001928E-02 0.  1.
    10030    2    1    2    0    0  0.00000000000E+00  0.00000000000E+00  0.85636223142E+03  0.29232844772E+04  0.27950377213E+04 0.  0.
        2    1    3    3  502    0 -0.12083366732E+04 -0.26470537664E+03 -0.25197510561E+03  0.12623937207E+04  0.25500000920E-02 0.  1.
       -2    1    3    3    0  502  0.12083366732E+04  0.26470537664E+03  0.11083373370E+04  0.16608907565E+04  0.25500000920E-02 0. -1.
</event>
<event>
 5   0  0.3600963E-06  0.2787951E+04  0.7818609E-02  0.8307019E-01
       -1   -1    0    0    0  501  0.00000000000E+00  0.00000000000E+00  0.25661249167E+04  0.25661249167E+04  0.50400001928E-02 0.  1.
        1   -1    0    0  501    0  0.00000000000E+00  0.00000000000E+00 -0.75723837182E+03  0.75723837184E+03  0.50400001928E-02 0. -1.
    10030    2    1    2    0    0  0.00000000000E+00  0.00000000000E+00  0.18088865449E+04  0.33233632886E+04  0.27879514012E+04 0.  0.
        5    1    3    3  502    0  0.20867555406E+03 -0.13042990562E+04  0.37347503634E+03  0.13726788436E+04  0.46999998093E+01 0. -1.
       -5    1    3    3    0  502 -0.20867555406E+03  0.13042990562E+04  0.14354115086E+04  0.19506844450E+04  0.46999998093E+01 0.  1.
</event>
<event>
 5   0  0.9260173E-06  0.2659680E+04  0.7818609E-02  0.8348207E-01
       -2   -1    0    0    0  501  0.00000000000E+00  0.00000000000E+00  0.12188661272E+04  0.12188661272E+04  0.25500000920E-02 0.  1.
        2   -1    0    0  501    0  0.00000000000E+00  0.00000000000E+00 -0.14509181737E+04  0.14509181737E+04  0.25500000920E-02 0. -1.
    10030    2    1    2    0    0  0.00000000000E+00  0.00000000000E+00 -0.23205204648E+03  0.26697843009E+04  0.26596804434E+04 0.  0.
        1    1    3    3  502    0  0.17075639172E+03 -0.13131017342E+04 -0.23929769991E+03  0.13456066658E+04  0.50400001928E-02 0. -1.
       -1    1    3    3    0  502 -0.17075639172E+03  0.13131017342E+04  0.72456534362E+01  0.13241776351E+04  0.50400001928E-02 0.  1.
</event>
<event>
 5   0  0.9260173E-06  0.2826875E+04  0.7818609E-02  0.8294973E-01
       -2   -1    0    0    0  501  0.00000000000E+00  0.00000000000E+00  0.12862242872E+04  0.12862242872E+04  0.25500000920E-02 0.  1.
        2   -1    0    0  501    0  0.00000000000E+00  0.00000000000E+00 -0.15532325062E+04  0.15532325062E+04  0.25500000920E-02 0. -1.
    10030    2    1    2    0    0  0.00000000000E+00  0.00000000000E+00 -0.26700821904E+03  0.28394567934E+04  0.28268748633E+04 0.  0.
        1    1    3    3  502    0  0.40369209119E+03 -0.70925577752E+03  0.10256662251E+04  0.13107258553E+04  0.50400001928E-02 0.  1.
       -1    1    3    3    0  502 -0.40369209119E+03  0.70925577752E+03 -0.12926744441E+04  0.15287309381E+04  0.50400001928E-02 0. -1.
</event>
<event>
 5   0  0.9342133E-06  0.2815614E+04  0.7818609E-02  0.8298437E-01
        2   -1    0    0  501    0  0.00000000000E+00  0.00000000000E+00  0.17357251026E+04  0.17357251026E+04  0.25500000920E-02 0.  1.
       -2   -1    0    0    0  501  0.00000000000E+00  0.00000000000E+00 -0.11418399899E+04  0.11418399899E+04  0.25500000920E-02 0. -1.
    10030    2    1    2    0    0  0.00000000000E+00  0.00000000000E+00  0.59388511267E+03  0.28775650925E+04  0.28156138469E+04 0.  0.
        2    1    3    3  502    0 -0.32031010083E+03 -0.13467168291E+04  0.35031434525E+02  0.13847281249E+04  0.25500000920E-02 0. -1.
       -2    1    3    3    0  502  0.32031010083E+03  0.13467168291E+04  0.55885367815E+03  0.14928369677E+04  0.25500000920E-02 0.  1.
</event>
<event>
 5   0  0.9252359E-06  0.2742186E+04  0.7818609E-02  0.8321446E-01
        2   -1    0    0  501    0  0.00000000000E+00  0.00000000000E+00  0.23638434745E+04  0.23638434745E+04  0.25500000920E-02 0.  1.
       -2   -1    0    0    0  501  0.00000000000E+00  0.00000000000E+00 -0.79527083019E+03  0.79527083020E+03  0.25500000920E-02 0. -1.
    10030    2    1    2    0    0  0.00000000000E+00  0.00000000000E+00  0.15685726443E+04  0.31591143047E+04  0.27421858160E+04 0.  0.
        5    1    3    3  502    0 -0.64445808714E+03 -0.83568678141E+03 -0.22411280835E+03  0.10788638763E+04  0.46999998093E+01 0. -1.
       -5    1    3    3    0  502  0.64445808714E+03  0.83568678141E+03  0.17926854526E+04  0.20802504284E+04  0.46999998093E+01 0.  1.
</event>
<event>
 5   0  0.3357244E-06  0.2824039E+04  0.7818609E-02  0.8295844E-01
       -1   -1    0    0    0  501  0.00000000000E+00  0.00000000000E+00  0.14517191496E+04  0.14517191497E+04  0.50400001928E-02 0.  1.
        1   -1    0    0  501    0  0.00000000000E+00  0.00000000000E+00 -0.13734057660E+04  0.13734057660E+04  0.50400001928E-02 0. -1.
    10030    2    1    2    0    0  0.00000000000E+00  0.00000000000E+00  0.78313383680E+02  0.28251249156E+04  0.28240392708E+04 0.  0.
        4    1    3    3  502    0 -0.82976703344E+03  0.76426070670E+03 -0.81039888653E+03  0.13890125002E+04  0.12699999809E+01 0. -1.
       -4    1    3    3    0  502  0.82976703344E+03 -0.76426070670E+03  0.88871227021E+03  0.14361124154E+04  0.12699999809E+01 0.  1.
</event>
<event>
 5   0  0.9260173E-06  0.3029631E+04  0.7818609E-02  0.8235320E-01
        2   -1    0    0  501    0  0.00000000000E+00  0.00000000000E+00  0.10992973873E+04  0.10992973873E+04  0.25500000920E-02 0. -1.
       -2   -1    0    0    0  501  0.00000000000E+00  0.00000000000E+00 -0.20873930656E+04  0.20873930656E+04  0.25500000920E-02 0.  1.
    10030    2    1    2    0    0  0.00000000000E+00  0.00000000000E+00 -0.98809567822E+03  0.31866904529E+04  0.30296308312E+04 0.  0.
        1    1    3    3  502    0  0.10590055217E+04  0.36598903781E+03 -0.15663198638E+04  0.19258241318E+04  0.50400001928E-02 0.  1.
       -1    1    3    3    0  502 -0.10590055217E+04 -0.36598903781E+03  0.57822418556E+03  0.12608663211E+04  0.50400001928E-02 0. -1.
</event>
<event>
 5   0  0.3371603E-06  0.2803417E+04  0.7818609E-02  0.8302208E-01
       -1   -1    0    0    0  501  0.00000000000E+00  0.00000000000E+00  0.10188485466E+04  0.10188485466E+04  0.50400001928E-02 0.  1.
        1   -1    0    0  501    0  0.00000000000E+00  0.00000000000E+00 -0.19284387271E+04  0.19284387271E+04  0.50400001928E-02 0. -1.
    10030    2    1    2    0    0  0.00000000000E+00  0.00000000000E+00 -0.90959018050E+03  0.29472872736E+04  0.28034171964E+04 0.  0.
        1    1    3    3  502    0  0.95561061721E+03  0.63683923692E+03 -0.12998043309E+04  0.17344299248E+04  0.50400001928E-02 0. -1.
       -1    1    3    3    0  502 -0.95561061721E+03 -0.63683923692E+03  0.39021415040E+03  0.12128573488E+04  0.50400001928E-02 0.  1.
</event>
<event>
 5   0  0.3397882E-06  0.2769283E+04  0.7818609E-02  0.8312869E-01
        1   -1    0    0  501    0  0.00000000000E+00  0.00000000000E+00  0.17068670651E+04  0.17068670651E+04  0.50400001928E-02 0. -1.
       -1   -1    0    0    0  501  0.00000000000E+00  0.00000000000E+00 -0.11232466054E+04  0.11232466055E+04  0.50400001928E-02 0.  1.
    10030    2    1    2    0    0  0.00000000000E+00  0.00000000000E+00  0.58362045964E+03  0.28301136706E+04  0.27692833996E+04 0.  0.
        2    1    3    3  502    0  0.95824783687E+03  0.38892682232E+03 -0.64913677167E+03  0.12210166003E+04  0.25500000920E-02 0.  1.
       -2    1    3    3    0  502 -0.95824783687E+03 -0.38892682232E+03  0.12327572313E+04  0.16090970702E+04  0.25500000920E-02 0. -1.
</event>
<event>
 5   0  0.3438130E-06  0.2863506E+04  0.7818609E-02  0.8283819E-01
       -1   -1    0    0    0  501  0.00000000000E+00  0.00000000000E+00  0.13659077127E+04  0.13659077127E+04  0.50400001928E-02 0. -1.
        1   -1    0    0  501    0  0.00000000000E+00  0.00000000000E+00 -0.15007720719E+04  0.15007720719E+04  0.50400001928E-02 0.  1.
    10030    2    1    2    0    0  0.00000000000E+00  0.00000000000E+00 -0.13486435917E+03  0.28666797846E+04  0.28635056473E+04 0.  0.
        3    1    3    3  502    0 -0.52440234021E+02 -0.13653627027E+04  0.36076948909E+03  0.14131949344E+04  0.10100000352E+00 0. -1.
       -3    1    3    3    0  502  0.52440234021E+02  0.13653627027E+04 -0.49563384825E+03  0.14534848502E+04  0.10100000352E+00 0.  1.
</event>
<event>
 5   0  0.3600963E-06  0.2806301E+04  0.7818609E-02  0.8301315E-01
       -1   -1    0    0    0  501  0.00000000000E+00  0.00000000000E+00  0.86578454306E+03  0.86578454308E+03  0.50400001928E-02 0.  1.
        1   -1    0    0  501    0  0.00000000000E+00  0.00000000000E+00 -0.22740428525E+04  0.22740428525E+04  0.50400001928E-02 0. -1.
    10030    2    1    2    0    0  0.00000000000E+00  0.00000000000E+00 -0.14082583094E+04  0.31398273956E+04  0.28063008762E+04 0.  0.
        5    1    3    3  502    0  0.50413784695E+03 -0.12378759371E+04 -0.22639594505E+03  0.13556433965E+04  0.46999998093E+01 0.  1.
       -5    1    3    3    0  502 -0.50413784695E+03  0.12378759371E+04 -0.11818623644E+04  0.17841839991E+04  0.46999998093E+01 0. -1.
</event>
<event>
 5   0  0.3397882E-06  0.2803881E+04  0.7818609E-02  0.8302064E-01
       -1   -1    0    0    0  501  0.00000000000E+00  0.00000000000E+00  0.17658421918E+04  0.17658421918E+04  0.50400001928E-02 0. -1.
        1   -1    0    0  501    0  0.00000000000E+00  0.00000000000E+00 -0.11130313373E+04  0.11130313374E+04  0.50400001928E-02 0.  1.
    10030    2    1    2    0    0  0.00000000000E+00  0.00000000000E+00  0.65281085443E+03  0.28788735291E+04  0.28038813786E+04 0.  0.
        2    1    3    3  502    0  0.98439904750E+03 -0.75630651810E+03  0.99528653533E+03  0.15911116622E+04  0.25500000920E-02 0. -1.
       -2    1    3    3    0  502 -0.98439904750E+03  0.75630651810E+03 -0.34247568089E+03  0.12877618670E+04  0.25500000920E-02 0.  1.
</event>
<event>
 5   0  0.9260173E-06  0.2739554E+04  0.7818609E-02  0.8322284E-01
       -2   -1    0    0    0  501  0.00000000000E+00  0.00000000000E+00  0.95891093606E+03  0.95891093606E+03  0.25500000920E-02 0. -1.
        2   -1    0    0  501    0  0.00000000000E+00  0.00000000000E+00 -0.19566868717E+04  0.19566868717E+04  0.25500000920E-02 0.  1.
    10030    2    1    2    0    0  0.00000000000E+00  0.00000000000E+00 -0.99777593560E+03  0.29155978077E+04  0.27395535692E+04 0.  0.
        1    1    3    3  502    0  0.11706450672E+04 -0.69833298282E+03 -0.35527351193E+03  0.14086511621E+04  0.50400001928E-02 0. -1.
       -1    1    3    3    0  502 -0.11706450672E+04  0.69833298282E+03 -0.64250242367E+03  0.15069466456E+04  0.50400001928E-02 0.  1.
</event>
<event>
 5   0  0.9065579E-06  0.2921070E+04  0.7818609E-02  0.8266636E-01
        2   -1    0    0  501    0  0.00000000000E+00  0.00000000000E+00  0.28146898988E+04  0.28146898988E+04  0.25500000920E-02 0.  1.
       -2   -1    0    0    0  501  0.00000000000E+00  0.00000000000E+00 -0.75786792156E+03  0.75786792156E+03  0.25500000920E-02 0. -1.
    10030    2    1    2    0    0  0.00000000000E+00  0.00000000000E+00  0.20568219772E+04  0.35725578203E+04  0.29210704774E+04 0.  0.
        3    1    3    3  502    0 -0.42514376080E+03 -0.71339854911E+03 -0.44099696299E+03  0.94029944102E+03  0.10100000352E+00 0. -1.
       -3    1    3    3    0  502  0.42514376080E+03  0.71339854911E+03  0.24978189402E+04  0.26322583793E+04  0.10100000352E+00 0.  1.
</event>
<event>
 5   0  0.3371603E-06  0.3022074E+04  0.7818609E-02  0.8237455E-01
        1   -1    0    0  501    0  0.00000000000E+00  0.00000000000E+00  0.17124924623E+04  0.17124924623E+04  0.50400001928E-02 0. -1.
       -1   -1    0    0    0  501  0.00000000000E+00  0.00000000000E+00 -0.13332805115E+04  0.13332805115E+04  0.50400001928E-02 0.  1.
    10030    2    1    2    0    0  0.00000000000E+00  0.00000000000E+00  0.37921195084E+03  0.30457729738E+04  0.30220740071E+04 0.  0.
        1    1    3    3  502    0 -0.68417628658E+03 -0.13308759716E+04  0.40078381911E+03  0.15491790447E+04  0.50400001928E-02 0. -1.
       -1    1    3    3    0  502  0.68417628658E+03  0.13308759716E+04 -0.21571868267E+02  0.14965939291E+04  0.50400001928E-02 0.  1.
</event>
<event>
 5   0  0.3397882E-06  0.2797760E+04  0.7818609E-02  0.8303964E-01
       -1   -1    0    0    0  501  0.00000000000E+00  0.00000000000E+00  0.15980770282E+04  0.15980770282E+04  0.50400001928E-02 0.  1.
        1   -1    0    0  501    0  0.00000000000E+00  0.00000000000E+00 -0.12245127008E+04  0.12245127008E+04  0.50400001928E-02 0. -1.
    10030    2    1    2    0    0  0.00000000000E+00  0.00000000000E+00  0.37356432736E+03  0.28225897290E+04  0.27977602598E+04 0.  0.
        2    1    3    3  502    0 -0.33595389589E+03 -0.11382565646E+04  0.93387595893E+03  0.15101712928E+04  0.25500000920E-02 0.  1.
       -2    1    3    3    0  502  0.33595389589E+03  0.11382565646E+04 -0.56031163156E+03  0.13124184361E+04  0.25500000920E-02 0. -1.
</event>
<event>
 5   0  0.3371603E-06  0.2845805E+04  0.7818609E-02  0.8289187E-01
        1   -1    0    0  501    0  0.00000000000E+00  0.00000000000E+00  0.21824188952E+04  0.21824188952E+04  0.50400001928E-02 0. -1.
       -1   -1    0    0    0  501  0.00000000000E+00  0.00000000000E+00 -0.92771005858E+03  0.92771005859E+03  0.50400001928E-02 0.  1.
    10030    2    1    2    0    0  0.00000000000E+00  0.00000000000E+00  0.12547088366E+04  0.31101289538E+04  0.28458053069E+04 0.  0.
        1    1    3    3  502    0 -0.62984625393E+03 -0.69691287801E+03 -0.54067917702E+03  0.10838486221E+04  0.50400001928E-02 0.  1.
       -1    1    3    3    0  502  0.62984625393E+03  0.69691287801E+03  0.17953880136E+04  0.20262803317E+04  0.50400001928E-02 0. -1.
</event>
<event>
 5   0  0.3357244E-06  0.2793337E+04  0.7818609E-02  0.8305340E-01
        1   -1    0    0  501    0  0.00000000000E+00  0.00000000000E+00  0.13968572884E+04  0.13968572884E+04  0.50400001928E-02 0. -1.
       -1   -1    0    0    0  501  0.00000000000E+00  0.00000000000E+00 -0.13964798203E+04  0.13964798204E+04  0.50400001928E-02 0.  1.
    10030    2    1    2    0    0  0.00000000000E+00  0.00000000000E+00  0.37746808312E+00  0.27933371088E+04  0.27933370833E+04 0.  0.
        4    1    3    3  502    0  0.11868437677E+04 -0.39982108590E+03  0.61843332927E+03  0.13967520988E+04  0.12699999809E+01 0.  1.
       -4    1    3    3    0  502 -0.11868437677E+04  0.39982108590E+03 -0.61805586119E+03  0.13965850100E+04  0.12699999809E+01 0. -1.
</event>
<event>
 5   0  0.3438130E-06  0.2790239E+04  0.7818609E-02  0.8306305E-01
        1   -1    0    0  501    0  0.00000000000E+00  0.00000000000E+00  0.13312525575E+04  0.13312525575E+04  0.50400001928E-02 0.  1.
       -1   -1    0    0    0  501  0.00000000000E+00  0.00000000000E+00 -0.14620502089E+04  0.14620502089E+04  0.50400001928E-02 0. -1.
    10030    2    1    2    0    0  0.00000000000E+00  0.00000000000E+00 -0.13079765142E+03  0.27933027664E+04  0.27902387567E+04 0.  0.
        3    1    3    3  502    0 -0.15591879911E+03 -0.10603297411E+04  0.82874950776E+03  0.13547824876E+04  0.10100000352E+00 0.  1.
       -3    1    3    3    0  502  0.15591879911E+03  0.10603297411E+04 -0.95954715918E+03  0.14385202789E+04  0.10100000352E+00 0. -1.
</event>
<event>
 5   0  0.9260173E-06  0.2787631E+04  0.7818609E-02  0.8307119E-01
        2   -1    0    0  501    0  0.00000000000E+00  0.00000000000E+00  0.17588108163E+04  0.17588108163E+04  0.25500000920E-02 0.  1.
       -2   -1    0    0    0  501  0.00000000000E+00  0.00000000000E+00 -0.11045653402E+04  0.11045653402E+04  0.25500000920E-02 0. -1.
    10030    2    1    2    0    0  0.00000000000E+00  0.00000000000E+00  0.65424547614E+03  0.28633761565E+04  0.27876308706E+04 0.  0.
        1    1    3    3  502    0  0.65611510222E+03 -0.39002412245E+03 -0.87080619318E+03  0.11579763683E+04  0.50400001928E-02 0. -1.
       -1    1    3    3    0  502 -0.65611510222E+03  0.39002412245E+03  0.15250516693E+04  0.17053997882E+04  0.50400001928E-02 0.  1.
</event>
<event>
 5   0  0.3600963E-06  0.2799014E+04  0.7818609E-02  0.8303575E-01
        1   -1    0    0  501    0  0.00000000000E+00  0.00000000000E+00  0.18040071022E+04  0.18040071022E+04  0.50400001928E-02 0. -1.
       -1   -1    0    0    0  501  0.00000000000E+00  0.00000000000E+00 -0.10857051838E+04  0.10857051838E+04  0.50400001928E-02 0.  1.
    10030    2    1    2    0    0  0.00000000000E+00  0.00000000000E+00  0.71830191839E+03  0.28897122861E+04  0.27990140139E+04 0.  0.
        5    1    3    3  502    0  0.67818920847E+03 -0.75323152377E+03 -0.63715838349E+03  0.11972014144E+04  0.46999998093E+01 0.  1.
       -5    1    3    3    0  502 -0.67818920847E+03  0.75323152377E+03  0.13554603019E+04  0.16925108717E+04  0.46999998093E+01 0. -1.
</event>
<event>
 5   0  0.9342133E-06  0.2812949E+04  0.7818609E-02  0.8299259E-01
       -2   -1    0    0    0  501  0.00000000000E+00  0.00000000000E+00  0.95011292780E+03  0.95011292781E+03  0.25500000920E-02 0. -1.
        2   -1    0    0  501    0  0.00000000000E+00  0.00000000000E+00 -0.20820376351E+04  0.20820376351E+04  0.25500000920E-02 0.  1.
    10030    2    1    2    0    0  0.00000000000E+00  0.00000000000E+00 -0.11319247072E+04  0.30321505629E+04  0.28129492518E+04 0.  0.
        2    1    3    3  502    0 -0.16423242958E+03 -0.13966829209E+04 -0.54245959349E+03  0.15073015236E+04  0.25500000920E-02 0. -1.
       -2    1    3    3    0  502  0.16423242958E+03  0.13966829209E+04 -0.58946511376E+03  0.15248490393E+04  0.25500000920E-02 0.  1.
</event>
<event>
 5   0  0.3357244E-06  0.2641868E+04  0.7818609E-02  0.8354117E-01
        1   -1    0    0  501    0  0.00000000000E+00  0.00000000000E+00  0.12347793294E+04  0.12347793294E+04  0.50400001928E-02 0. -1.
       -1   -1    0    0    0  501  0.00000000000E+00  0.00000000000E+00 -0.14131001456E+04  0.14131001456E+04  0.50400001928E-02 0.  1.
    10030    2    1    2    0    0  0.00000000000E+00  0.00000000000E+00 -0.17832081618E+03  0.26478794750E+04  0.26418681649E+04 0.  0.
        4    1    3    3  502    0  0.11491910101E+03 -0.13847903736E+03  0.12224357299E+04  0.12356106062E+04  0.12699999809E+01 0. -1.
       -4    1    3    3    0  502 -0.11491910101E+03  0.13847903736E+03 -0.14007565461E+04  0.14122688688E+04  0.12699999809E+01 0.  1.
</event>
<event>
 5   0  0.9065579E-06  0.2811852E+04  0.7818609E-02  0.8299598E-01
        2   -1    0    0  501    0  0.00000000000E+00  0.00000000000E+00  0.26396156353E+04  0.26396156353E+04  0.25500000920E-02 0. -1.
       -2   -1    0    0    0  501  0.00000000000E+00  0.00000000000E+00 -0.74883172389E+03  0.74883172389E+03  0.25500000920E-02 0.  1.
    10030    2    1    2    0    0  0.00000000000E+00  0.00000000000E+00  0.18907839114E+04  0.33884473592E+04  0.28118520065E+04 0.  0.
        3    1    3    3  502    0 -0.11355040850E+04 -0.65091149953E+03  0.32672286081E+03  0.13490007952E+04  0.10100000352E+00 0.  1.
       -3    1    3    3    0  502  0.11355040850E+04  0.65091149953E+03  0.15640610506E+04  0.20394465640E+04  0.10100000352E+00 0. -1.
</event>
<event>
 5   0  0.3371603E-06  0.2760321E+04  0.7818609E-02  0.8315694E-01
        1   -1    0    0  501    0  0.00000000000E+00  0.00000000000E+00  0.17747153668E+04  0.17747153669E+04  0.50400001928E-02 0.  1.
       -1   -1    0    0    0  501  0.00000000000E+00  0.00000000000E+00 -0.10733230171E+04  0.10733230171E+04  0.50400001928E-02 0. -1.
    10030    2    1    2    0    0  0.00000000000E+00  0.00000000000E+00  0.70139234973E+03  0.28480383840E+04  0.27603208887E+04 0.  0.
        1    1    3    3  502    0 -0.86553639294E+03  0.73145028871E+03 -0.46216554400E+03  0.12238340420E+04  0.50400001928E-02 0. -1.
       -1    1    3    3    0  502  0.86553639294E+03 -0.73145028871E+03  0.11635578937E+04  0.16242043420E+04  0.50400001928E-02 0.  1.
</event>
<event>
 5   0  0.9065579E-06  0.2836631E+04  0.7818609E-02  0.8291985E-01
        2   -1    0    0  501    0  0.00000000000E+00  0.00000000000E+00  0.18156597363E+04  0.18156597363E+04  0.25500000920E-02 0. -1.
       -2   -1    0    0    0  501  0.00000000000E+00  0.00000000000E+00 -0.11079270597E+04  0.11079270597E+04  0.25500000920E-02 0.  1.
    10030    2    1    2    0    0  0.00000000000E+00  0.00000000000E+00  0.70773267660E+03  0.29235867960E+04  0.28366307854E+04 0.  0.
        3    1    3    3  502    0 -0.15759786762E+02  0.10570544187E+04 -0.62063721659E+03  0.12258886490E+04  0.10100000352E+00 0.  1.
       -3    1    3    3    0  502  0.15759786762E+02 -0.10570544187E+04  0.13283698932E+04  0.16976981470E+04  0.10100000352E+00 0. -1.
</event>
<event>
 5   0  0.3600963E-06  0.2814568E+04  0.7818609E-02  0.8298760E-01
        1   -1    0    0  501    0  0.00000000000E+00  0.00000000000E+00  0.11628715678E+04  0.11628715678E+04  0.50400001928E-02 0. -1.
       -1   -1    0    0    0  501  0.00000000000E+00  0.00000000000E+00 -0.17030667264E+04  0.17030667264E+04  0.50400001928E-02 0.  1.
    10030    2    1    2    0    0  0.00000000000E+00  0.00000000000E+00 -0.54019515858E+03  0.28659382942E+04  0.28145677282E+04 0.  0.
        5    1    3    3  502    0 -0.47409116496E+03  0.13005900693E+04 -0.12238892228E+02  0.13843658626E+04  0.46999998093E+01 0.  1.
       -5    1    3    3    0  502  0.47409116496E+03 -0.13005900693E+04 -0.52795626636E+03  0.14815724316E+04  0.46999998093E+01 0. -1.
</event>
<event>
 5   0  0.3600963E-06  0.2765363E+04  0.7818609E-02  0.8314103E-01
        1   -1    0    0  501    0  0.00000000000E+00  0.00000000000E+00  0.80826889162E+03  0.80826889163E+03  0.50400001928E-02 0. -1.
       -1   -1    0    0    0  501  0.00000000000E+00  0.00000000000E+00 -0.23653124762E+04  0.23653124762E+04  0.50400001928E-02 0.  1.
    10030    2    1    2    0    0  0.00000000000E+00  0.00000000000E+00 -0.15570435846E+04  0.31735813679E+04  0.27653632626E+04 0.  0.
        5    1    3    3  502    0 -0.61881665598E+03 -0.27536993823E+03  0.60483371928E+03  0.90807960806E+03  0.46999998093E+01 0. -1.
       -5    1    3    3    0  502  0.61881665598E+03  0.27536993823E+03 -0.21618773039E+04  0.22655017598E+04  0.46999998093E+01 0.  1.
</event>
<event>
 5   0  0.3438130E-06  0.2757483E+04  0.7818609E-02  0.8316591E-01
        1   -1    0    0  501    0  0.00000000000E+00  0.00000000000E+00  0.14497419716E+04  0.14497419716E+04  0.50400001928E-02 0.  1.
       -1   -1    0    0    0  501  0.00000000000E+00  0.00000000000E+00 -0.13112180307E+04  0.13112180307E+04  0.50400001928E-02 0. -1.
    10030    2    1    2    0    0  0.00000000000E+00  0.00000000000E+00  0.13852394098E+03  0.27609600023E+04  0.27574827746E+04 0.  0.
        3    1    3    3  502    0  0.47087796768E+03 -0.16018975209E+03 -0.12182604160E+04  0.13158819357E+04  0.10100000352E+00 0. -1.
       -3    1    3    3    0  502 -0.47087796768E+03  0.16018975209E+03  0.13567843570E+04  0.14450780667E+04  0.10100000352E+00 0.  1.
</event>
<event>
 5   0  0.9252359E-06  0.2845377E+04  0.7818609E-02  0.8289317E-01
        2   -1    0    0  501    0  0.00000000000E+00  0.00000000000E+00  0.22726560457E+04  0.22726560457E+04  0.25500000920E-02 0. -1.
       -2   -1    0    0    0  501  0.00000000000E+00  0.00000000000E+00 -0.89060662556E+03  0.89060662557E+03  0.25500000920E-02 0.  1.
    10030    2    1    2    0    0  0.00000000000E+00  0.00000000000E+00  0.13820494201E+04  0.31632626712E+04  0.28453769746E+04 0.  0.
        5    1    3    3  502    0  0.81511362845E+03  0.85186701884E+03  0.15761750775E+04  0.19683591161E+04  0.46999998093E+01 0. -1.
       -5    1    3    3    0  502 -0.81511362845E+03 -0.85186701884E+03 -0.19412565743E+03  0.11949035551E+04  0.46999998093E+01 0.  1.
</event>
<event>
 5   0  0.9260173E-06  0.2752529E+04  0.7818609E-02  0.8318159E-01
        2   -1    0    0  501    0  0.00000000000E+00  0.00000000000E+00  0.12872925278E+04  0.12872925278E+04  0.25500000920E-02 0. -1.
       -2   -1    0    0    0  501  0.00000000000E+00  0.00000000000E+00 -0.14713861791E+04  0.14713861791E+04  0.25500000920E-02 0.  1.
    10030    2    1    2    0    0  0.00000000000E+00  0.00000000000E+00 -0.18409365128E+03  0.27586787069E+04  0.27525293342E+04 0.  0.
        1    1    3    3  502    0  0.77928185797E+03  0.35809988327E+03  0.98673546808E+03  0.13073494654E+04  0.50400001928E-02 0. -1.
       -1    1    3    3    0  502 -0.77928185797E+03 -0.35809988327E+03 -0.11708291194E+04  0.14513292415E+04  0.50400001928E-02 0.  1.
</event>
<event>
 5   0  0.9260173E-06  0.2810439E+04  0.7818609E-02  0.8300035E-01
        2   -1    0    0  501    0  0.00000000000E+00  0.00000000000E+00  0.20096494706E+04  0.20096494706E+04  0.25500000920E-02 0.  1.
       -2   -1    0    0    0  501  0.00000000000E+00  0.00000000000E+00 -0.98258034303E+03  0.98258034303E+03  0.25500000920E-02 0. -1.
    10030    2    1    2    0    0  0.00000000000E+00  0.00000000000E+00  0.10270691276E+04  0.29922298136E+04  0.28104391587E+04 0.  0.
        1    1    3    3  502    0  0.12439458399E+04 -0.16535380521E+03  0.11868148220E+04  0.17272152602E+04  0.50400001928E-02 0.  1.
       -1    1    3    3    0  502 -0.12439458399E+04  0.16535380521E+03 -0.15974569440E+03  0.12650145534E+04  0.50400001928E-02 0. -1.
</event>
<event>
 5   0  0.3397882E-06  0.2834853E+04  0.7818609E-02  0.8292529E-01
        1   -1    0    0  501    0  0.00000000000E+00  0.00000000000E+00  0.25439936890E+04  0.25439936890E+04  0.50400001928E-02 0. -1.
       -1   -1    0    0    0  501  0.00000000000E+00  0.00000000000E+00 -0.78974143555E+03  0.78974143557E+03  0.50400001928E-02 0.  1.
    10030    2    1    2    0    0  0.00000000000E+00  0.00000000000E+00  0.17542522535E+04  0.33337351246E+04  0.28348525380E+04 0.  0.
        2    1    3    3  502    0  0.75804211695E+03  0.11005918875E+04  0.32158593665E+03  0.13745355101E+04  0.25500000920E-02 0.  1.
       -2    1    3    3    0  502 -0.75804211695E+03 -0.11005918875E+04  0.14326663168E+04  0.19591996145E+04  0.25500000920E-02 0. -1.
</event>
<event>
 5   0  0.3397882E-06  0.2834479E+04  0.7818609E-02  0.8292643E-01
        1   -1    0    0  501    0  0.00000000000E+00  0.00000000000E+00  0.13655825703E+04  0.13655825704E+04  0.50400001928E-02 0.  1.
       -1   -1    0    0    0  501  0.00000000000E+00  0.00000000000E+00 -0.14708507895E+04  0.14708507895E+04  0.50400001928E-02 0. -1.
    10030    2    1    2    0    0  0.00000000000E+00  0.00000000000E+00 -0.10526821912E+03  0.28364333598E+04  0.28344792832E+04 0.  0.
        2    1    3    3  502    0  0.54350312343E+03 -0.99061259046E+03 -0.90871160640E+03  0.14499881838E+04  0.25500000920E-02 0. -1.
       -2    1    3    3    0  502 -0.54350312343E+03  0.99061259046E+03  0.80344338728E+03  0.13864451760E+04  0.25500000920E-02 0.  1.
</event>
<event>
 5   0  0.9342133E-06  0.2797029E+04  0.7818609E-02  0.8304191E-01
        2   -1    0    0  501    0  0.00000000000E+00  0.00000000000E+00  0.30925352283E+04  0.30925352283E+04  0.25500000920E-02 0.  1.
       -2   -1    0    0    0  501  0.00000000000E+00  0.00000000000E+00 -0.63243982580E+03  0.63243982580E+03  0.25500000920E-02 0. -1.
    10030    2    1    2    0    0  0.00000000000E+00  0.00000000000E+00  0.24600954025E+04  0.37249750541E+04  0.27970287385E+04 0.  0.
        2    1    3    3  502    0 -0.45193753330E+03  0.52725980562E+03 -0.38659880573E+03  0.79480127908E+03  0.25500000920E-02 0. -1.
       -2    1    3    3    0  502  0.45193753330E+03 -0.52725980562E+03  0.28466942082E+04  0.29301737750E+04  0.25500000920E-02 0.  1.
</event>
<event>
 5   0  0.3600963E-06  0.2792105E+04  0.7818609E-02  0.8305724E-01
        1   -1    0    0  501    0  0.00000000000E+00  0.00000000000E+00  0.17494878616E+04  0.17494878616E+04  0.50400001928E-02 0. -1.
       -1   -1    0    0    0  501  0.00000000000E+00  0.00000000000E+00 -0.11140191479E+04  0.11140191479E+04  0.50400001928E-02 0.  1.
    10030    2    1    2    0    0  0.00000000000E+00  0.00000000000E+00  0.63546871371E+03  0.28635070095E+04  0.27921052823E+04 0.  0.
        5    1    3    3  502    0 -0.29651745246E+03  0.11377311551E+04  0.10897025744E+04  0.16030684862E+04  0.46999998093E+01 0. -1.
       -5    1    3    3    0  502  0.29651745246E+03 -0.11377311551E+04 -0.45423386072E+03  0.12604385233E+04  0.46999998093E+01 0.  1.
</event>
<event>
 5   0  0.3357244E-06  0.2788000E+04  0.7818609E-02  0.8307004E-01
       -1   -1    0    0    0  501  0.00000000000E+00  0.00000000000E+00  0.15262319487E+04  0.15262319487E+04  0.50400001928E-02 0. -1.
        1   -1    0    0  501    0  0.00000000000E+00  0.00000000000E+00 -0.12732241227E+04  0.12732241227E+04  0.50400001928E-02 0.  1.
    10030    2    1    2    0    0  0.00000000000E+00  0.00000000000E+00  0.25300782598E+03  0.27994560714E+04  0.27879995222E+04 0.  0.
        4    1    3    3  502    0 -0.73148010782E+03  0.62024255395E+03 -0.88932008146E+03  0.13079204081E+04  0.12699999809E+01 0.  1.
       -4    1    3    3    0  502  0.73148010782E+03 -0.62024255395E+03  0.11423279074E+04  0.14915356633E+04  0.12699999809E+01 0. -1.
</event>
<event>
 5   0  0.3438130E-06  0.2793821E+04  0.7818609E-02  0.8305189E-01
        1   -1    0    0  501    0  0.00000000000E+00  0.00000000000E+00  0.66691927462E+03  0.66691927464E+03  0.50400001928E-02 0.  1.
       -1   -1    0    0    0  501  0.00000000000E+00  0.00000000000E+00 -0.29259290232E+04  0.29259290232E+04  0.50400001928E-02 0. -1.
    10030    2    1    2    0    0  0.00000000000E+00  0.00000000000E+00 -0.22590097486E+04  0.35928482979E+04  0.27938206541E+04 0.  0.
        3    1    3    3  502    0  0.20446912907E+03 -0.10036064789E+04  0.92074857825E+02  0.10283537227E+04  0.10100000352E+00 0.  1.
       -3    1    3    3    0  502 -0.20446912907E+03  0.10036064789E+04 -0.23510846064E+04  0.25644945752E+04  0.10100000352E+00 0. -1.
</event>
<event>
 5   0  0.3600963E-06  0.2798369E+04  0.7818609E-02  0.8303775E-01
        1   -1    0    0  501    0  0.00000000000E+00  0.00000000000E+00  0.12960221696E+04  0.12960221696E+04  0.50400001928E-02 0. -1.
       -1   -1    0    0    0  501  0.00000000000E+00  0.00000000000E+00 -0.15105585894E+04  0.15105585894E+04  0.50400001928E-02 0.  1.
    10030    2    1    2    0    0  0.00000000000E+00  0.00000000000E+00 -0.21453641974E+03  0.28065807590E+04  0.27983691110E+04 0.  0.
        5    1    3    3  502    0  0.31750363971E+03  0.41215113201E+03  0.11953958489E+04  0.13037140953E+04  0.46999998093E+01 0. -1.
       -5    1    3    3    0  502 -0.31750363971E+03 -0.41215113201E+03 -0.14099322686E+04  0.15028666637E+04  0.46999998093E+01 0.  1.
</event>
<event>
 5   0  0.9342133E-06  0.2773668E+04  0.7818609E-02  0.8311490E-01
       -2   -1    0    0    0  501  0.00000000000E+00  0.00000000000E+00  0.12825270832E+04  0.12825270832E+04  0.25500000920E-02 0.  1.
        2   -1    0    0  501    0  0.00000000000E+00  0.00000000000E+00 -0.14996239595E+04  0.14996239595E+04  0.25500000920E-02 0. -1.
    10030    2    1    2    0    0  0.00000000000E+00  0.00000000000E+00 -0.21709687629E+03  0.27821510428E+04  0.27736678552E+04 0.  0.
        2    1    3    3  502    0  0.13451710665E+04 -0.18975572023E+03 -0.38835664890E+03  0.14129095223E+04  0.25500000920E-02 0.  1.
       -2    1    3    3    0  502 -0.13451710665E+04  0.18975572023E+03  0.17125977261E+03  0.13692415204E+04  0.25500000920E-02 0. -1.
</event>
<event>
 5   0  0.9342133E-06  0.2586545E+04  0.7818609E-02  0.8372786E-01
       -2   -1    0    0    0  501  0.00000000000E+00  0.00000000000E+00  0.14381480865E+04  0.14381480865E+04  0.25500000920E-02 0. -1.
        2   -1    0    0  501    0  0.00000000000E+00  0.00000000000E+00 -0.11629912375E+04  0.11629912375E+04  0.25500000920E-02 0.  1.
    10030    2    1    2    0    0  0.00000000000E+00  0.00000000000E+00  0.27515684896E+03  0.26011393240E+04  0.25865448945E+04 0.  0.
        2    1    3    3  502    0  0.51803816893E+03 -0.86171398235E+03  0.95558006017E+03  0.13871004950E+04  0.25500000920E-02 0. -1.
       -2    1    3    3    0  502 -0.51803816893E+03  0.86171398235E+03 -0.68042321122E+03  0.12140388290E+04  0.25500000920E-02 0.  1.
</event>
<event>
 5   0  0.3357244E-06  0.2637241E+04  0.7818609E-02  0.8355660E-01
        1   -1    0    0  501    0  0.00000000000E+00  0.00000000000E+00  0.15908314141E+04  0.15908314141E+04  0.50400001928E-02 0. -1.
       -1   -1    0    0    0  501  0.00000000000E+00  0.00000000000E+00 -0.10929880106E+04  0.10929880106E+04  0.50400001928E-02 0.  1.
    10030    2    1    2    0    0  0.00000000000E+00  0.00000000000E+00  0.49784340351E+03  0.26838194247E+04  0.26372407266E+04 0.  0.
        4    1    3    3  502    0 -0.89056013659E+03 -0.23403458789E+03 -0.71161772429E+03  0.11637314740E+04  0.12699999809E+01 0.  1.
       -4    1    3    3    0  502  0.89056013659E+03  0.23403458789E+03  0.12094611278E+04  0.15200879507E+04  0.12699999809E+01 0. -1.
</event>
<event>
 5   0  0.3371603E-06  0.2622056E+04  0.7818609E-02  0.8360748E-01
        1   -1    0    0  501    0  0.00000000000E+00  0.00000000000E+00  0.19953647615E+04  0.19953647615E+04  0.50400001928E-02 0. -1.
       -1   -1    0    0    0  501  0.00000000000E+00  0.00000000000E+00 -0.86139345974E+03  0.86139345976E+03  0.50400001928E-02 0.  1.
    10030    2    1    2    0    0  0.00000000000E+00  0.00000000000E+00  0.11339713017E+04  0.28567582212E+04  0.26220558006E+04 0.  0.
        1    1    3    3  502    0 -0.10368426357E+03  0.22664382656E+03 -0.83534487037E+03  0.87173327521E+03  0.50400001928E-02 0.  1.
       -1    1    3    3    0  502  0.10368426357E+03 -0.22664382656E+03  0.19693161721E+04  0.19850249460E+04  0.50400001928E-02 0. -1.
</event>
<event>
 5   0  0.3371603E-06  0.2841723E+04  0.7818609E-02  0.8290431E-01
        1   -1    0    0  501    0  0.00000000000E+00  0.00000000000E+00  0.89375568927E+03  0.89375568928E+03  0.50400001928E-02 0. -1.
       -1   -1    0    0    0  501  0.00000000000E+00  0.00000000000E+00 -0.22588360103E+04  0.22588360103E+04  0.50400001928E-02 0.  1.
    10030    2    1    2    0    0  0.00000000000E+00  0.00000000000E+00 -0.13650803211E+04  0.31525916996E+04  0.28417230937E+04 0.  0.
        1    1    3    3  502    0 -0.29314105603E+03  0.90177068481E+03 -0.18564689496E+04  0.20846100373E+04  0.50400001928E-02 0.  1.
       -1    1    3    3    0  502  0.29314105603E+03 -0.90177068481E+03  0.49138862856E+03  0.10679816623E+04  0.50400001928E-02 0. -1.
</event>
<event>
 5   0  0.3600963E-06  0.2646728E+04  0.7818609E-02  0.8352500E-01
       -1   -1    0    0    0  501  0.00000000000E+00  0.00000000000E+00  0.79223594565E+03  0.79223594567E+03  0.50400001928E-02 0. -1.
        1   -1    0    0  501    0  0.00000000000E+00  0.00000000000E+00 -0.22105694349E+04  0.22105694349E+04  0.50400001928E-02 0.  1.
    10030    2    1    2    0    0  0.00000000000E+00  0.00000000000E+00 -0.14183334892E+04  0.30028053805E+04  0.26467282193E+04 0.  0.
        5    1    3    3  502    0  0.94144045424E+03  0.34885356803E+03 -0.16872789241E+04  0.19634004172E+04  0.46999998093E+01 0. -1.
       -5    1    3    3    0  502 -0.94144045424E+03 -0.34885356803E+03  0.26894543486E+03  0.10394049633E+04  0.46999998093E+01 0.  1.
</event>
<event>
 5   0  0.9260173E-06  0.2788275E+04  0.7818609E-02  0.8306918E-01
        2   -1    0    0  501    0  0.00000000000E+00  0.00000000000E+00  0.12383107813E+04  0.12383107813E+04  0.25500000920E-02 0.  1.
       -2   -1    0    0    0  501  0.00000000000E+00  0.00000000000E+00 -0.15695735709E+04  0.15695735709E+04  0.25500000920E-02 0. -1.
    10030    2    1    2    0    0  0.00000000000E+00  0.00000000000E+00 -0.33126278961E+03  0.28078843522E+04  0.27882753629E+04 0.  0.
        1    1    3    3  502    0  0.13177700297E+04  0.32561480309E+03  0.15453060025E+03  0.13661707645E+04  0.50400001928E-02 0.  1.
       -1    1    3    3    0  502 -0.13177700297E+04 -0.32561480309E+03 -0.48579338987E+03  0.14417135877E+04  0.50400001928E-02 0. -1.
</event>
<event>
 5   0  0.9065579E-06  0.2802196E+04  0.7818609E-02  0.8302587E-01
       -2   -1    0    0    0  501  0.00000000000E+00  0.00000000000E+00  0.27664206032E+04  0.27664206032E+04  0.25500000920E-02 0. -1.
        2   -1    0    0  501    0  0.00000000000E+00  0.00000000000E+00 -0.70960843876E+03  0.70960843877E+03  0.25500000920E-02 0.  1.
    10030    2    1    2    0    0  0.00000000000E+00  0.00000000000E+00  0.20568121644E+04  0.34760290419E+04  0.28021958570E+04 0.  0.
        3    1    3    3  502    0 -0.34189707941E+03  0.11738390053E+04  0.17953944783E+03  0.12357289536E+04  0.10100000352E+00 0.  1.
       -3    1    3    3    0  502  0.34189707941E+03 -0.11738390053E+04  0.18772727166E+04  0.22403000883E+04  0.10100000352E+00 0. -1.
</event>
<event>
 5   0  0.9260173E-06  0.2868973E+04  0.7818609E-02  0.8282169E-01
        2   -1    0    0  501    0  0.00000000000E+00  0.00000000000E+00  0.27457492660E+04  0.27457492660E+04  0.25500000920E-02 0. -1.
       -2   -1    0    0    0  501  0.00000000000E+00  0.00000000000E+00 -0.74943175869E+03  0.74943175870E+03  0.25500000920E-02 0.  1.
    10030    2    1    2    0    0  0.00000000000E+00  0.00000000000E+00  0.19963175073E+04  0.34951810247E+04  0.28689731274E+04 0.  0.
        1    1    3    3  502    0 -0.10797886114E+04 -0.94006436239E+03  0.11077166393E+04  0.18101659051E+04  0.50400001928E-02 0. -1.
       -1    1    3    3    0  502  0.10797886114E+04  0.94006436239E+03  0.88860086799E+03  0.16850151196E+04  0.50400001928E-02 0.  1.
</event>
<event>
 5   0  0.9065579E-06  0.2760761E+04  0.7818609E-02  0.8315555E-01
        2   -1    0    0  501    0  0.00000000000E+00  0.00000000000E+00  0.10215756784E+04  0.10215756784E+04  0.25500000920E-02 0.  1.
       -2   -1    0    0    0  501  0.00000000000E+00  0.00000000000E+00 -0.18652078325E+04  0.18652078325E+04  0.25500000920E-02 0. -1.
    10030    2    1    2    0    0  0.00000000000E+00  0.00000000000E+00 -0.84363215409E+03  0.28867835108E+04  0.27607614578E+04 0.  0.
        3    1    3    3  502    0 -0.72537032055E+03  0.61846595207E+03  0.62215120490E+03  0.11383032846E+04  0.10100000352E+00 0.  1.
       -3    1    3    3    0  502  0.72537032055E+03 -0.61846595207E+03 -0.14657833590E+04  0.17484802262E+04  0.10100000352E+00 0. -1.
</event>
<event>
 5   0  0.9252359E-06  0.2784437E+04  0.7818609E-02  0.8308116E-01
       -2   -1    0    0    0  501  0.00000000000E+00  0.00000000000E+00  0.99863326618E+03  0.99863326619E+03  0.25500000920E-02 0.  1.
        2   -1    0    0  501    0  0.00000000000E+00  0.00000000000E+00 -0.19409250938E+04  0.19409250938E+04  0.25500000920E-02 0. -1.
    10030    2    1    2    0    0  0.00000000000E+00  0.00000000000E+00 -0.94229182757E+03  0.29395583599E+04  0.27844370101E+04 0.  0.
        5    1    3    3  502    0  0.59766425571E+02 -0.94338489137E+03  0.60790304739E+03  0.11238840171E+04  0.46999998093E+01 0.  1.
       -5    1    3    3    0  502 -0.59766425571E+02  0.94338489137E+03 -0.15501948750E+04  0.18156743428E+04  0.46999998093E+01 0. -1.
</event>
<event>
 5   0  0.3397882E-06  0.2787943E+04  0.7818609E-02  0.8307021E-01
       -1   -1    0    0    0  501  0.00000000000E+00  0.00000000000E+00  0.16408490540E+04  0.16408490540E+04  0.50400001928E-02 0. -1.
        1   -1    0    0  501    0  0.00000000000E+00  0.00000000000E+00 -0.11842384293E+04  0.11842384293E+04  0.50400001928E-02 0.  1.
    10030    2    1    2    0    0  0.00000000000E+00  0.00000000000E+00  0.45661062473E+03  0.28250874833E+04  0.27879429739E+04 0.  0.
        2    1    3    3  502    0  0.37208658250E+03  0.11358946801E+04 -0.49850348171E+03  0.12950717626E+04  0.25500000920E-02 0.  1.
       -2    1    3    3    0  502 -0.37208658250E+03 -0.11358946801E+04  0.95511410643E+03  0.15300157206E+04  0.25500000920E-02 0. -1.
</event>
<event>
 5   0  0.3438130E-06  0.2807743E+04  0.7818609E-02  0.8300869E-01
       -1   -1    0    0    0  501  0.00000000000E+00  0.00000000000E+00  0.19477754402E+04  0.19477754402E+04  0.50400001928E-02 0.  1.
        1   -1    0    0  501    0  0.00000000000E+00  0.00000000000E+00 -0.10118491616E+04  0.10118491616E+04  0.50400001928E-02 0. -1.
    10030    2    1    2    0    0  0.00000000000E+00  0.00000000000E+00  0.93592627862E+03  0.29596246019E+04  0.28077428274E+04 0.  0.
        3    1    3    3  502    0 -0.74785354559E+03  0.11880270227E+04  0.45455484872E+03  0.14755721782E+04  0.10100000352E+00 0. -1.
       -3    1    3    3    0  502  0.74785354559E+03 -0.11880270227E+04  0.48137142990E+03  0.14840524236E+04  0.10100000352E+00 0.  1.
</event>
<event>
 5   0  0.9260173E-06  0.2808016E+04  0.7818609E-02  0.8300784E-01
       -2   -1    0    0    0  501  0.00000000000E+00  0.00000000000E+00  0.13376104512E+04  0.13376104512E+04  0.25500000920E-02 0.  1.
        2   -1    0    0  501    0  0.00000000000E+00  0.00000000000E+00 -0.14737011429E+04  0.14737011429E+04  0.25500000920E-02 0. -1.
    10030    2    1    2    0    0  0.00000000000E+00  0.00000000000E+00 -0.13609069176E+03  0.28113115941E+04  0.28080157056E+04 0.  0.
        1    1    3    3  502    0 -0.74606645006E+03  0.96283909602E+03 -0.76712259393E+03  0.14394969076E+04  0.50400001928E-02 0. -1.
       -1    1    3    3    0  502  0.74606645006E+03 -0.96283909602E+03  0.63103190217E+03  0.13718146866E+04  0.50400001928E-02 0.  1.
</event>
<event>
 5   0  0.3438130E-06  0.2814733E+04  0.7818609E-02  0.8298709E-01
        1   -1    0    0  501    0  0.00000000000E+00  0.00000000000E+00  0.17599787430E+04  0.17599787430E+04  0.50400001928E-02 0. -1.
       -1   -1    0    0    0  501  0.00000000000E+00  0.00000000000E+00 -0.11254002692E+04  0.11254002692E+04  0.50400001928E-02 0.  1.
    10030    2    1    2    0    0  0.00000000000E+00  0.00000000000E+00  0.63457847382E+03  0.28853790122E+04  0.28147330610E+04 0.  0.
        3    1    3    3  502    0 -0.59161248635E+03 -0.33473249522E+03  0.15805457636E+04  0.17205162302E+04  0.10100000352E+00 0. -1.
       -3    1    3    3    0  502  0.59161248635E+03  0.33473249522E+03 -0.94596728977E+03  0.11648627820E+04  0.10100000352E+00 0.  1.
</event>
<event>
 5   0  0.3397882E-06  0.2731946E+04  0.7818609E-02  0.8324713E-01
        1   -1    0    0  501    0  0.00000000000E+00  0.00000000000E+00  0.25024630038E+04  0.25024630038E+04  0.50400001928E-02 0. -1.
       -1   -1    0    0    0  501  0.00000000000E+00  0.00000000000E+00 -0.74561850699E+03  0.74561850700E+03  0.50400001928E-02 0.  1.
    10030    2    1    2    0    0  0.00000000000E+00  0.00000000000E+00  0.17568444968E+04  0.32480815108E+04  0.27319463602E+04 0.  0.
        2    1    3    3  502    0  0.89073971775E+02  0.13570860076E+02 -0.74208160500E+03  0.74753157069E+03  0.25500000920E-02 0.  1.
       -2    1    3    3    0  502 -0.89073971775E+02 -0.13570860076E+02  0.24989261018E+04  0.25005499401E+04  0.25500000920E-02 0. -1.
</event>
<event>
 5   0  0.3357244E-06  0.2819053E+04  0.7818609E-02  0.8297377E-01
       -1   -1    0    0    0  501  0.00000000000E+00  0.00000000000E+00  0.10803822427E+04  0.10803822427E+04  0.50400001928E-02 0. -1.
        1   -1    0    0  501    0  0.00000000000E+00  0.00000000000E+00 -0.18389467195E+04  0.18389467195E+04  0.50400001928E-02 0.  1.
    10030    2    1    2    0    0  0.00000000000E+00  0.00000000000E+00 -0.75856447681E+03  0.29193289623E+04  0.28190533029E+04 0.  0.
        4    1    3    3  502    0 -0.21851225765E+03 -0.23410214923E+03  0.10422105826E+04  0.10903008459E+04  0.12699999809E+01 0. -1.
       -4    1    3    3    0  502  0.21851225765E+03  0.23410214923E+03 -0.18007750594E+04  0.18290281164E+04  0.12699999809E+01 0.  1.
</event>
<event>
 5   0  0.9426937E-06  0.2822407E+04  0.7818609E-02  0.8296345E-01
       -2   -1    0    0    0  501  0.00000000000E+00  0.00000000000E+00  0.13133408333E+04  0.13133408333E+04  0.25500000920E-02 0.  1.
        2   -1    0    0  501    0  0.00000000000E+00  0.00000000000E+00 -0.15163584863E+04  0.15163584863E+04  0.25500000920E-02 0. -1.
    10030    2    1    2    0    0  0.00000000000E+00  0.00000000000E+00 -0.20301765300E+03  0.28296993196E+04  0.28224071415E+04 0.  0.
        4    1    3    3  502    0 -0.11811595358E+04  0.60654535903E+03 -0.58071737637E+03  0.14492306255E+04  0.12699999809E+01 0.  1.
       -4    1    3    3    0  502  0.11811595358E+04 -0.60654535903E+03  0.37769972337E+03  0.13804686942E+04  0.12699999809E+01 0. -1.
</event>
<event>
 5   0  0.3006875E-06  0.2855992E+04  0.7818609E-02  0.8286093E-01
       -3   -1    0    0    0  501  0.00000000000E+00  0.00000000000E+00  0.15249594633E+04  0.15249594666E+04  0.10100000352E+00 0.  1.
        3   -1    0    0  501    0  0.00000000000E+00  0.00000000000E+00 -0.13371982408E+04  0.13371982446E+04  0.10100000352E+00 0. -1.
    10030    2    1    2    0    0  0.00000000000E+00  0.00000000000E+00  0.18776122250E+03  0.28621577112E+04  0.28559923822E+04 0.  0.
        2    1    3    3  502    0 -0.42722626329E+02 -0.12831791638E+04 -0.53260818900E+03  0.13899803856E+04  0.25500000920E-02 0. -1.
       -2    1    3    3    0  502  0.42722626329E+02  0.12831791638E+04  0.72036941150E+03  0.14721773257E+04  0.25500000920E-02 0.  1.
</event>
<event>
 5   0  0.3600963E-06  0.2819480E+04  0.7818609E-02  0.8297246E-01
        1   -1    0    0  501    0  0.00000000000E+00  0.00000000000E+00  0.13080677579E+04  0.13080677579E+04  0.50400001928E-02 0. -1.
       -1   -1    0    0    0  501  0.00000000000E+00  0.00000000000E+00 -0.15193145102E+04  0.15193145102E+04  0.50400001928E-02 0.  1.
    10030    2    1    2    0    0  0.00000000000E+00  0.00000000000E+00 -0.21124675228E+03  0.28273822681E+04  0.28194796151E+04 0.  0.
        5    1    3    3  502    0  0.11103282079E+04 -0.64585967974E+03 -0.68809629698E+03  0.14572103689E+04  0.46999998093E+01 0.  1.
       -5    1    3    3    0  502 -0.11103282079E+04  0.64585967974E+03  0.47684954470E+03  0.13701718993E+04  0.46999998093E+01 0. -1.
</event>
<event>
 5   0  0.3600963E-06  0.2812648E+04  0.7818609E-02  0.8299352E-01
        1   -1    0    0  501    0  0.00000000000E+00  0.00000000000E+00  0.11602921603E+04  0.11602921603E+04  0.50400001928E-02 0.  1.
       -1   -1    0    0    0  501  0.00000000000E+00  0.00000000000E+00 -0.17045257537E+04  0.17045257537E+04  0.50400001928E-02 0. -1.
    10030    2    1    2    0    0  0.00000000000E+00  0.00000000000E+00 -0.54423359337E+03  0.28648179140E+04  0.28126484807E+04 0.  0.
        5    1    3    3  502    0  0.65608130011E+03 -0.44813553331E+03  0.90977553412E+03  0.12078831653E+04  0.46999998093E+01 0.  1.
       -5    1    3    3    0  502 -0.65608130011E+03  0.44813553331E+03 -0.14540091275E+04  0.16569347487E+04  0.46999998093E+01 0. -1.
</event>
<event>
 5   0  0.9252359E-06  0.2793781E+04  0.7818609E-02  0.8305202E-01
        2   -1    0    0  501    0  0.00000000000E+00  0.00000000000E+00  0.22304521263E+04  0.22304521263E+04  0.25500000920E-02 0.  1.
       -2   -1    0    0    0  501  0.00000000000E+00  0.00000000000E+00 -0.87484640810E+03  0.87484640810E+03  0.25500000920E-02 0. -1.
    10030    2    1    2    0    0  0.00000000000E+00  0.00000000000E+00  0.13556057182E+04  0.31052985344E+04  0.27937809729E+04 0.  0.
        5    1    3    3  502    0  0.56548304030E+03 -0.74443215418E+03  0.18314832445E+04  0.20562838485E+04  0.46999998093E+01 0.  1.
       -5    1    3    3    0  502 -0.56548304030E+03  0.74443215418E+03 -0.47587752629E+03  0.10490146858E+04  0.46999998093E+01 0. -1.
</event>
<event>
 5   0  0.9065579E-06  0.2836801E+04  0.7818609E-02  0.8291933E-01
        2   -1    0    0  501    0  0.00000000000E+00  0.00000000000E+00  0.16434792094E+04  0.16434792094E+04  0.25500000920E-02 0. -1.
       -2   -1    0    0    0  501  0.00000000000E+00  0.00000000000E+00 -0.12241468154E+04  0.12241468154E+04  0.25500000920E-02 0.  1.
    10030    2    1    2    0    0  0.00000000000E+00  0.00000000000E+00  0.41933239396E+03  0.28676260248E+04  0.28368009027E+04 0.  0.
        3    1    3    3  502    0 -0.13304529051E+04 -0.44694008476E+02  0.70463703804E+03  0.15061925019E+04  0.10100000352E+00 0. -1.
       -3    1    3    3    0  502  0.13304529051E+04  0.44694008476E+02 -0.28530464408E+03  0.13614335229E+04  0.10100000352E+00 0.  1.
</event>
<event>
 5   0  0.3397882E-06  0.2721257E+04  0.7818609E-02  0.8328141E-01
       -1   -1    0    0    0  501  0.00000000000E+00  0.00000000000E+00  0.94683686811E+03  0.94683686812E+03  0.50400001928E-02 0.  1.
        1   -1    0    0  501    0  0.00000000000E+00  0.00000000000E+00 -0.19552571609E+04  0.19552571610E+04  0.50400001928E-02 0. -1.
    10030    2    1    2    0    0  0.00000000000E+00  0.00000000000E+00 -0.10084202928E+04  0.29020940291E+04  0.27212567440E+04 0.  0.
        2    1    3    3  502    0  0.18801180906E+03  0.86985819123E+03 -0.16018327888E+04  0.18324491798E+04  0.25500000920E-02 0. -1.
       -2    1    3    3    0  502 -0.18801180906E+03 -0.86985819123E+03  0.59341249598E+03  0.10696448493E+04  0.25500000920E-02 0.  1.
</event>
<event>
 5   0  0.3397882E-06  0.2805799E+04  0.7818609E-02  0.8301470E-01
        1   -1    0    0  501    0  0.00000000000E+00  0.00000000000E+00  0.13566149787E+04  0.13566149787E+04  0.50400001928E-02 0. -1.
       -1   -1    0    0    0  501  0.00000000000E+00  0.00000000000E+00 -0.14507631177E+04  0.14507631177E+04  0.50400001928E-02 0.  1.
    10030    2    1    2    0    0  0.00000000000E+00  0.00000000000E+00 -0.94148139020E+02  0.28073780964E+04  0.28057989779E+04 0.  0.
        2    1    3    3  502    0  0.65229941422E+03  0.98645446925E+03  0.70802942742E+03  0.13783659223E+04  0.25500000920E-02 0. -1.
       -2    1    3    3    0  502 -0.65229941422E+03 -0.98645446925E+03 -0.80217756644E+03  0.14290121741E+04  0.25500000920E-02 0.  1.
</event>
<event>
 5   0  0.9260173E-06  0.2796101E+04  0.7818609E-02  0.8304480E-01
       -2   -1    0    0    0  501  0.00000000000E+00  0.00000000000E+00  0.13166517194E+04  0.13166517194E+04  0.25500000920E-02 0. -1.
        2   -1    0    0  501    0  0.00000000000E+00  0.00000000000E+00 -0.14844816141E+04  0.14844816141E+04  0.25500000920E-02 0.  1.
    10030    2    1    2    0    0  0.00000000000E+00  0.00000000000E+00 -0.16782989471E+03  0.28011333335E+04  0.27961010494E+04 0.  0.
        1    1    3    3  502    0 -0.44453125666E+03  0.29319522266E+03 -0.13789029307E+04  0.14781558676E+04  0.50400001928E-02 0.  1.
       -1    1    3    3    0  502  0.44453125666E+03 -0.29319522266E+03  0.12110730359E+04  0.13229774659E+04  0.50400001928E-02 0. -1.
</event>
<event>
 5   0  0.9260173E-06  0.2777202E+04  0.7818609E-02  0.8310381E-01
       -2   -1    0    0    0  501  0.00000000000E+00  0.00000000000E+00  0.12668660839E+04  0.12668660839E+04  0.25500000920E-02 0.  1.
        2   -1    0    0  501    0  0.00000000000E+00  0.00000000000E+00 -0.15220331114E+04  0.15220331114E+04  0.25500000920E-02 0. -1.
    10030    2    1    2    0    0  0.00000000000E+00  0.00000000000E+00 -0.25516702755E+03  0.27888991953E+04  0.27772015609E+04 0.  0.
        1    1    3    3  502    0 -0.93516891560E+03 -0.10164062952E+04  0.16511183500E+02  0.13812658241E+04  0.50400001928E-02 0.  1.
       -1    1    3    3    0  502  0.93516891560E+03  0.10164062952E+04 -0.27167821105E+03  0.14076333713E+04  0.50400001928E-02 0. -1.
</event>
<event>
 5   0  0.9065579E-06  0.2801368E+04  0.7818609E-02  0.8302844E-01
       -2   -1    0    0    0  501  0.00000000000E+00  0.00000000000E+00  0.10296977492E+04  0.10296977492E+04  0.25500000920E-02 0.  1.
        2   -1    0    0  501    0  0.00000000000E+00  0.00000000000E+00 -0.19053311086E+04  0.19053311086E+04  0.25500000920E-02 0. -1.
    10030    2    1    2    0    0  0.00000000000E+00  0.00000000000E+00 -0.87563335935E+03  0.29350288578E+04  0.28013676332E+04 0.  0.
        3    1    3    3  502    0 -0.10077162484E+04 -0.23333320906E+03 -0.14273251494E+04  0.17627233237E+04  0.10100000352E+00 0. -1.
       -3    1    3    3    0  502  0.10077162484E+04  0.23333320906E+03  0.55169179002E+03  0.11723055341E+04  0.10100000352E+00 0.  1.
</event>
<event>
 5   0  0.3357244E-06  0.2842703E+04  0.7818609E-02  0.8290132E-01
       -1   -1    0    0    0  501  0.00000000000E+00  0.00000000000E+00  0.14782979085E+04  0.14782979085E+04  0.50400001928E-02 0.  1.
        1   -1    0    0  501    0  0.00000000000E+00  0.00000000000E+00 -0.13665988875E+04  0.13665988875E+04  0.50400001928E-02 0. -1.
    10030    2    1    2    0    0  0.00000000000E+00  0.00000000000E+00  0.11169902097E+03  0.28448967960E+04  0.28427031341E+04 0.  0.
        4    1    3    3  502    0  0.57998140235E+03  0.12635178289E+04 -0.23998464733E+03  0.14108330783E+04  0.12699999809E+01 0. -1.
       -4    1    3    3    0  502 -0.57998140235E+03 -0.12635178289E+04  0.35168366830E+03  0.14340637177E+04  0.12699999809E+01 0.  1.
</event>
<event>
 5   0  0.3357244E-06  0.2826045E+04  0.7818609E-02  0.8295228E-01
        1   -1    0    0  501    0  0.00000000000E+00  0.00000000000E+00  0.63358208709E+03  0.63358208711E+03  0.50400001928E-02 0.  1.
       -1   -1    0    0    0  501  0.00000000000E+00  0.00000000000E+00 -0.31513399116E+04  0.31513399116E+04  0.50400001928E-02 0. -1.
    10030    2    1    2    0    0  0.00000000000E+00  0.00000000000E+00 -0.25177578245E+04  0.37849219987E+04  0.28260449525E+04 0.  0.
        4    1    3    3  502    0  0.76931235324E+03  0.70359169589E+02 -0.28434689162E+04  0.29465418714E+04  0.12699999809E+01 0. -1.
       -4    1    3    3    0  502 -0.76931235324E+03 -0.70359169589E+02  0.32571109174E+03  0.83838012725E+03  0.12699999809E+01 0.  1.
</event>
<event>
 5   0  0.3371603E-06  0.2770561E+04  0.7818609E-02  0.8312467E-01
       -1   -1    0    0    0  501  0.00000000000E+00  0.00000000000E+00  0.17070168329E+04  0.17070168329E+04  0.50400001928E-02 0.  1.
        1   -1    0    0  501    0  0.00000000000E+00  0.00000000000E+00 -0.11241842167E+04  0.11241842167E+04  0.50400001928E-02 0. -1.
    10030    2    1    2    0    0  0.00000000000E+00  0.00000000000E+00  0.58283261612E+03  0.28312010496E+04  0.27705605073E+04 0.  0.
        1    1    3    3  502    0  0.12197035573E+04  0.41108102863E+03  0.81481525732E+03  0.15233477224E+04  0.50400001928E-02 0.  1.
       -1    1    3    3    0  502 -0.12197035573E+04 -0.41108102863E+03 -0.23198264120E+03  0.13078533272E+04  0.50400001928E-02 0. -1.
</event>
<event>
 5   0  0.9252359E-06  0.2801260E+04  0.7818609E-02  0.8302877E-01
        2   -1    0    0  501    0  0.00000000000E+00  0.00000000000E+00  0.13106701961E+04  0.13106701961E+04  0.25500000920E-02 0. -1.
       -2   -1    0    0    0  501  0.00000000000E+00  0.00000000000E+00 -0.14967644610E+04  0.14967644610E+04  0.25500000920E-02 0.  1.
    10030    2    1    2    0    0  0.00000000000E+00  0.00000000000E+00 -0.18609426490E+03  0.28074346571E+04  0.28012601233E+04 0.  0.
        5    1    3    3  502    0 -0.55186185667E+03 -0.13332800121E+03  0.11901713879E+04  0.13186576081E+04  0.46999998093E+01 0. -1.
       -5    1    3    3    0  502  0.55186185667E+03  0.13332800121E+03 -0.13762656528E+04  0.14887770490E+04  0.46999998093E+01 0.  1.
</event>
<event>
 5   0  0.3438130E-06  0.2736609E+04  0.7818609E-02  0.8323223E-01
        1   -1    0    0  501    0  0.00000000000E+00  0.00000000000E+00  0.18077568426E+04  0.18077568426E+04  0.50400001928E-02 0.  1.
       -1   -1    0    0    0  501  0.00000000000E+00  0.00000000000E+00 -0.10356800066E+04  0.10356800066E+04  0.50400001928E-02 0. -1.
    10030    2    1    2    0    0  0.00000000000E+00  0.00000000000E+00  0.77207683595E+03  0.28434368492E+04  0.27366093025E+04 0.  0.
        3    1    3    3  502    0 -0.22182772595E+02 -0.11737194617E+04 -0.34435925164E+03  0.12233939491E+04  0.10100000352E+00 0. -1.
       -3    1    3    3    0  502  0.22182772595E+02  0.11737194617E+04  0.11164360876E+04  0.16200429001E+04  0.10100000352E+00 0.  1.
</event>
<event>
 5   0  0.3006875E-06  0.2789235E+04  0.7818609E-02  0.8306618E-01
        4   -1    0    0  501    0  0.00000000000E+00  0.00000000000E+00  0.13204846919E+04  0.13204853026E+04  0.12699999809E+01 0.  1.
       -4   -1    0    0    0  501  0.00000000000E+00  0.00000000000E+00 -0.14729105077E+04  0.14729110552E+04  0.12699999809E+01 0. -1.
    10030    2    1    2    0    0  0.00000000000E+00  0.00000000000E+00 -0.15242581582E+03  0.27933963578E+04  0.27892345872E+04 0.  0.
        5    1    3    3  502    0 -0.19473874748E+03  0.13022311647E+04 -0.53647029685E+03  0.14218128061E+04  0.46999998093E+01 0. -1.
       -5    1    3    3    0  502  0.19473874748E+03 -0.13022311647E+04  0.38404448103E+03  0.13715835518E+04  0.46999998093E+01 0.  1.
</event>
<event>
 5   0  0.9260173E-06  0.2805735E+04  0.7818609E-02  0.8301490E-01
       -2   -1    0    0    0  501  0.00000000000E+00  0.00000000000E+00  0.61633844625E+03  0.61633844626E+03  0.25500000920E-02 0.  1.
        2   -1    0    0  501    0  0.00000000000E+00  0.00000000000E+00 -0.31931109486E+04  0.31931109486E+04  0.25500000920E-02 0. -1.
    10030    2    1    2    0    0  0.00000000000E+00  0.00000000000E+00 -0.25767725023E+04  0.38094493948E+04  0.28057348704E+04 0.  0.
        1    1    3    3  502    0  0.62449073570E+02 -0.71990425259E+03  0.34421812571E+03  0.80040498361E+03  0.50400001928E-02 0.  1.
       -1    1    3    3    0  502 -0.62449073570E+02  0.71990425259E+03 -0.29209906280E+04  0.30090444112E+04  0.50400001928E-02 0. -1.
</event>
<event>
 5   0  0.9260173E-06  0.2797700E+04  0.7818609E-02  0.8303983E-01
       -2   -1    0    0    0  501  0.00000000000E+00  0.00000000000E+00  0.10227201177E+04  0.10227201177E+04  0.25500000920E-02 0.  1.
        2   -1    0    0  501    0  0.00000000000E+00  0.00000000000E+00 -0.19133101626E+04  0.19133101626E+04  0.25500000920E-02 0. -1.
    10030    2    1    2    0    0  0.00000000000E+00  0.00000000000E+00 -0.89059004486E+03  0.29360302803E+04  0.27976996227E+04 0.  0.
        1    1    3    3  502    0 -0.36032686000E+03 -0.35488604805E+03 -0.18140060342E+04  0.18831881067E+04  0.50400001928E-02 0. -1.
       -1    1    3    3    0  502  0.36032686000E+03  0.35488604805E+03  0.92341598934E+03  0.10528421736E+04  0.50400001928E-02 0.  1.
</event>
<event>
 5   0  0.9252359E-06  0.2779465E+04  0.7818609E-02  0.8309672E-01
        2   -1    0    0  501    0  0.00000000000E+00  0.00000000000E+00  0.10966141151E+04  0.10966141151E+04  0.25500000920E-02 0. -1.
       -2   -1    0    0    0  501  0.00000000000E+00  0.00000000000E+00 -0.17612001200E+04  0.17612001200E+04  0.25500000920E-02 0.  1.
    10030    2    1    2    0    0  0.00000000000E+00  0.00000000000E+00 -0.66458600494E+03  0.28578142351E+04  0.27794653522E+04 0.  0.
        5    1    3    3  502    0 -0.16141988418E+03 -0.68392076783E+03 -0.15650608920E+04  0.17155878530E+04  0.46999998093E+01 0.  1.
       -5    1    3    3    0  502  0.16141988418E+03  0.68392076783E+03  0.90047488706E+03  0.11422263821E+04  0.46999998093E+01 0. -1.
</event>
<event>
 5   0  0.3357244E-06  0.2813679E+04  0.7818609E-02  0.8299034E-01
        1   -1    0    0  501    0  0.00000000000E+00  0.00000000000E+00  0.15167910508E+04  0.15167910508E+04  0.50400001928E-02 0.  1.
       -1   -1    0    0    0  501  0.00000000000E+00  0.00000000000E+00 -0.13048586819E+04  0.13048586819E+04  0.50400001928E-02 0. -1.
    10030    2    1    2    0    0  0.00000000000E+00  0.00000000000E+00  0.21193236890E+03  0.28216497327E+04  0.28136794212E+04 0.  0.
        4    1    3    3  502    0  0.37857948364E+02 -0.42155764951E+02 -0.13037134370E+04  0.13049447006E+04  0.12699999809E+01 0. -1.
       -4    1    3    3    0  502 -0.37857948364E+02  0.42155764951E+02  0.15156458059E+04  0.15167050322E+04  0.12699999809E+01 0.  1.
</event>
<event>
 5   0  0.9260173E-06  0.2786455E+04  0.7818609E-02  0.8307486E-01
        2   -1    0    0  501    0  0.00000000000E+00  0.00000000000E+00  0.18627687232E+04  0.18627687232E+04  0.25500000920E-02 0.  1.
       -2   -1    0    0    0  501  0.00000000000E+00  0.00000000000E+00 -0.10420416000E+04  0.10420416000E+04  0.25500000920E-02 0. -1.
    10030    2    1    2    0    0  0.00000000000E+00  0.00000000000E+00  0.82072712325E+03  0.29048103232E+04  0.27864547373E+04 0.  0.
        1    1    3    3  502    0 -0.83248164589E+03  0.11141770467E+04  0.32524803001E+03  0.14283565603E+04  0.50400001928E-02 0. -1.
       -1    1    3    3    0  502  0.83248164589E+03 -0.11141770467E+04  0.49547909324E+03  0.14764537629E+04  0.50400001928E-02 0.  1.
</event>
<event>
 5   0  0.3371603E-06  0.2863555E+04  0.7818609E-02  0.8283804E-01
       -1   -1    0    0    0  501  0.00000000000E+00  0.00000000000E+00  0.86959195440E+03  0.86959195441E+03  0.50400001928E-02 0. -1.
        1   -1    0    0  501    0  0.00000000000E+00  0.00000000000E+00 -0.23574121977E+04  0.23574121977E+04  0.50400001928E-02 0.  1.
    10030    2    1    2    0    0  0.00000000000E+00  0.00000000000E+00 -0.14878202433E+04  0.32270041521E+04  0.28635549098E+04 0.  0.
        1    1    3    3  502    0  0.12932460174E+04  0.53638695436E+03 -0.10815930403E+04  0.17691918299E+04  0.50400001928E-02 0. -1.
       -1    1    3    3    0  502 -0.12932460174E+04 -0.53638695436E+03 -0.40622720298E+03  0.14578123222E+04  0.50400001928E-02 0.  1.
</event>
<event>
 5   0  0.3397882E-06  0.2810517E+04  0.7818609E-02  0.8300011E-01
       -1   -1    0    0    0  501  0.00000000000E+00  0.00000000000E+00  0.10662548276E+04  0.10662548276E+04  0.50400001928E-02 0.  1.
        1   -1    0    0  501    0  0.00000000000E+00  0.00000000000E+00 -0.18520447840E+04  0.18520447840E+04  0.50400001928E-02 0. -1.
    10030    2    1    2    0    0  0.00000000000E+00  0.00000000000E+00 -0.78578995636E+03  0.29182996116E+04  0.28105171708E+04 0.  0.
        2    1    3    3  502    0 -0.41926517639E+03  0.84703309410E+03 -0.14727303940E+04  0.17499094731E+04  0.25500000920E-02 0. -1.
       -2    1    3    3    0  502  0.41926517639E+03 -0.84703309410E+03  0.68694043769E+03  0.11683901384E+04  0.25500000920E-02 0.  1.
</event>
<event>
 5   0  0.3397882E-06  0.2791275E+04  0.7818609E-02  0.8305982E-01
        1   -1    0    0  501    0  0.00000000000E+00  0.00000000000E+00  0.13803210222E+04  0.13803210222E+04  0.50400001928E-02 0.  1.
       -1   -1    0    0    0  501  0.00000000000E+00  0.00000000000E+00 -0.14111235503E+04  0.14111235503E+04  0.50400001928E-02 0. -1.
    10030    2    1    2    0    0  0.00000000000E+00  0.00000000000E+00 -0.30802528083E+02  0.27914445725E+04  0.27912746203E+04 0.  0.
        2    1    3    3  502    0 -0.52390437160E+03  0.28891769065E+03 -0.12763722739E+04  0.14096366213E+04  0.25500000920E-02 0. -1.
       -2    1    3    3    0  502  0.52390437160E+03 -0.28891769065E+03  0.12455697458E+04  0.13818079513E+04  0.25500000920E-02 0.  1.
</event>
<event>
 5   0  0.3371603E-06  0.2807204E+04  0.7818609E-02  0.8301035E-01
       -1   -1    0    0    0  501  0.00000000000E+00  0.00000000000E+00  0.10129626640E+04  0.10129626640E+04  0.50400001928E-02 0.  1.
        1   -1    0    0  501    0  0.00000000000E+00  0.00000000000E+00 -0.19448879872E+04  0.19448879872E+04  0.50400001928E-02 0. -1.
    10030    2    1    2    0    0  0.00000000000E+00  0.00000000000E+00 -0.93192532316E+03  0.29578506512E+04  0.28072042439E+04 0.  0.
        1    1    3    3  502    0  0.71657764503E+03 -0.62416927901E+03 -0.15543667377E+04  0.18218470752E+04  0.50400001928E-02 0. -1.
       -1    1    3    3    0  502 -0.71657764503E+03  0.62416927901E+03  0.62244141449E+03  0.11360035760E+04  0.50400001928E-02 0.  1.
</event>
<event>
 5   0  0.3357244E-06  0.2796944E+04  0.7818609E-02  0.8304218E-01
       -1   -1    0    0    0  501  0.00000000000E+00  0.00000000000E+00  0.13300421411E+04  0.13300421411E+04  0.50400001928E-02 0.  1.
        1   -1    0    0  501    0  0.00000000000E+00  0.00000000000E+00 -0.14704228665E+04  0.14704228665E+04  0.50400001928E-02 0. -1.
    10030    2    1    2    0    0  0.00000000000E+00  0.00000000000E+00 -0.14038072544E+03  0.28004650076E+04  0.27969443167E+04 0.  0.
        4    1    3    3  502    0  0.13098260510E+04 -0.48266491168E+03  0.14254782260E+02  0.13959994673E+04  0.12699999809E+01 0.  1.
       -4    1    3    3    0  502 -0.13098260510E+04  0.48266491168E+03 -0.15463550770E+03  0.14044655403E+04  0.12699999809E+01 0. -1.
</event>
<event>
 5   0  0.9426937E-06  0.2806498E+04  0.7818609E-02  0.8301254E-01
       -2   -1    0    0    0  501  0.00000000000E+00  0.00000000000E+00  0.97230567293E+03  0.97230567294E+03  0.25500000920E-02 0.  1.
        2   -1    0    0  501    0  0.00000000000E+00  0.00000000000E+00 -0.20251941201E+04  0.20251941201E+04  0.25500000920E-02 0. -1.
    10030    2    1    2    0    0  0.00000000000E+00  0.00000000000E+00 -0.10528884471E+04  0.29974997930E+04  0.28064979827E+04 0.  0.
        4    1    3    3  502    0 -0.33933561941E+03  0.57675787009E+02  0.92651805388E+03  0.98838882838E+03  0.12699999809E+01 0.  1.
       -4    1    3    3    0  502  0.33933561941E+03 -0.57675787009E+02 -0.19794065010E+04  0.20091109646E+04  0.12699999809E+01 0. -1.
</event>
<event>
 5   0  0.9426937E-06  0.2807169E+04  0.7818609E-02  0.8301046E-01
        2   -1    0    0  501    0  0.00000000000E+00  0.00000000000E+00  0.13507265831E+04  0.13507265831E+04  0.25500000920E-02 0. -1.
       -2   -1    0    0    0  501  0.00000000000E+00  0.00000000000E+00 -0.14585113564E+04  0.14585113564E+04  0.25500000920E-02 0.  1.
    10030    2    1    2    0    0  0.00000000000E+00  0.00000000000E+00 -0.10778477329E+03  0.28092379396E+04  0.28071694363E+04 0.  0.
        4    1    3    3  502    0 -0.53672398955E+02  0.10056494675E+04 -0.10322818968E+04  0.14421577948E+04  0.12699999809E+01 0.  1.
       -4    1    3    3    0  502  0.53672398955E+02 -0.10056494675E+04  0.92449712353E+03  0.13670801447E+04  0.12699999809E+01 0. -1.
</event>
<event>
 5   0  0.3600963E-06  0.2809881E+04  0.7818609E-02  0.8300207E-01
        1   -1    0    0  501    0  0.00000000000E+00  0.00000000000E+00  0.91428330408E+03  0.91428330409E+03  0.50400001928E-02 0.  1.
       -1   -1    0    0    0  501  0.00000000000E+00  0.00000000000E+00 -0.21589128045E+04  0.21589128045E+04  0.50400001928E-02 0. -1.
    10030    2    1    2    0    0  0.00000000000E+00  0.00000000000E+00 -0.12446295004E+04  0.30731961086E+04  0.28098810879E+04 0.  0.
        5    1    3    3  502    0 -0.91630282421E+03 -0.98368674064E+03 -0.17591826567E+03  0.13558096458E+04  0.46999998093E+01 0.  1.
       -5    1    3    3    0  502  0.91630282421E+03  0.98368674064E+03 -0.10687112347E+04  0.17173864628E+04  0.46999998093E+01 0. -1.
</event>
<event>
 5   0  0.9342133E-06  0.2808188E+04  0.7818609E-02  0.8300731E-01
       -2   -1    0    0    0  501  0.00000000000E+00  0.00000000000E+00  0.16715001188E+04  0.16715001188E+04  0.25500000920E-02 0.  1.
        2   -1    0    0  501    0  0.00000000000E+00  0.00000000000E+00 -0.11794670650E+04  0.11794670650E+04  0.25500000920E-02 0. -1.
    10030    2    1    2    0    0  0.00000000000E+00  0.00000000000E+00  0.49203305389E+03  0.28509671838E+04  0.28081875573E+04 0.  0.
        2    1    3    3  502    0  0.48050065431E+03 -0.26816015535E+03  0.15574726226E+04  0.16518207281E+04  0.25500000920E-02 0.  1.
       -2    1    3    3    0  502 -0.48050065431E+03  0.26816015535E+03 -0.10654395687E+04  0.11991464557E+04  0.25500000920E-02 0. -1.
</event>
<event>
 5   0  0.3006875E-06  0.2847446E+04  0.7818609E-02  0.8288688E-01
        3   -1    0    0  501    0  0.00000000000E+00  0.00000000000E+00  0.13952801978E+04  0.13952802014E+04  0.10100000352E+00 0.  1.
       -3   -1    0    0    0  501  0.00000000000E+00  0.00000000000E+00 -0.14527451362E+04  0.14527451397E+04  0.10100000352E+00 0. -1.
    10030    2    1    2    0    0  0.00000000000E+00  0.00000000000E+00 -0.57464938429E+02  0.28480253412E+04  0.28474455438E+04 0.  0.
        2    1    3    3  502    0  0.37472348046E+02  0.21132693889E+03  0.13790068793E+04  0.13956085501E+04  0.25500000920E-02 0.  1.
       -2    1    3    3    0  502 -0.37472348046E+02 -0.21132693889E+03 -0.14364718177E+04  0.14524167911E+04  0.25500000920E-02 0. -1.
</event>
<event>
 5   0  0.9260173E-06  0.2791998E+04  0.7818609E-02  0.8305757E-01
       -2   -1    0    0    0  501  0.00000000000E+00  0.00000000000E+00  0.84639842634E+03  0.84639842634E+03  0.25500000920E-02 0.  1.
        2   -1    0    0  501    0  0.00000000000E+00  0.00000000000E+00 -0.23024765456E+04  0.23024765456E+04  0.25500000920E-02 0. -1.
    10030    2    1    2    0    0  0.00000000000E+00  0.00000000000E+00 -0.14560781192E+04  0.31488749719E+04  0.27919975107E+04 0.  0.
        1    1    3    3  502    0 -0.72241391486E+03  0.10074045532E+04 -0.40630684893E+01  0.12396621745E+04  0.50400001928E-02 0.  1.
       -1    1    3    3    0  502  0.72241391486E+03 -0.10074045532E+04 -0.14520150508E+04  0.19092127974E+04  0.50400001928E-02 0. -1.
</event>
<event>
 5   0  0.9426937E-06  0.2691152E+04  0.7818609E-02  0.8337882E-01
        2   -1    0    0  501    0  0.00000000000E+00  0.00000000000E+00  0.22686696842E+04  0.22686696842E+04  0.25500000920E-02 0. -1.
       -2   -1    0    0    0  501  0.00000000000E+00  0.00000000000E+00 -0.79807775424E+03  0.79807775424E+03  0.25500000920E-02 0.  1.
    10030    2    1    2    0    0  0.00000000000E+00  0.00000000000E+00  0.14705919300E+04  0.30667474385E+04  0.26911520260E+04 0.  0.
        4    1    3    3  502    0  0.60319506027E+03  0.91963728319E+03  0.16187330679E+04  0.19570067377E+04  0.12699999809E+01 0. -1.
       -4    1    3    3    0  502 -0.60319506027E+03 -0.91963728319E+03 -0.14814113788E+03  0.11097407008E+04  0.12699999809E+01 0.  1.
</event>
<event>
 5   0  0.3600963E-06  0.2772274E+04  0.7818609E-02  0.8311928E-01
       -1   -1    0    0    0  501  0.00000000000E+00  0.00000000000E+00  0.22855665273E+04  0.22855665273E+04  0.50400001928E-02 0. -1.
        1   -1    0    0  501    0  0.00000000000E+00  0.00000000000E+00 -0.84065609440E+03  0.84065609442E+03  0.50400001928E-02 0.  1.
    10030    2    1    2    0    0  0.00000000000E+00  0.00000000000E+00  0.14449104329E+04  0.31262226217E+04  0.27722737458E+04 0.  0.
        5    1    3    3  502    0 -0.90782906079E+03  0.10460036184E+04  0.65991077004E+03  0.15342038612E+04  0.46999998093E+01 0.  1.
       -5    1    3    3    0  502  0.90782906079E+03 -0.10460036184E+04  0.78499966288E+03  0.15920187606E+04  0.46999998093E+01 0. -1.
</event>
<event>
 5   0  0.9426937E-06  0.2799522E+04  0.7818609E-02  0.8303417E-01
        2   -1    0    0  501    0  0.00000000000E+00  0.00000000000E+00  0.17802407522E+04  0.17802407522E+04  0.25500000920E-02 0.  1.
       -2   -1    0    0    0  501  0.00000000000E+00  0.00000000000E+00 -0.11005987788E+04  0.11005987788E+04  0.25500000920E-02 0. -1.
    10030    2    1    2    0    0  0.00000000000E+00  0.00000000000E+00  0.67964197340E+03  0.28808395310E+04  0.27995219577E+04 0.  0.
        4    1    3    3  502    0 -0.43555777159E+03 -0.11156245778E+04 -0.40579465919E+03  0.12645155947E+04  0.12699999809E+01 0. -1.
       -4    1    3    3    0  502  0.43555777159E+03  0.11156245778E+04  0.10854366326E+04  0.16163239363E+04  0.12699999809E+01 0.  1.
</event>
<event>
 5   0  0.9252359E-06  0.2849095E+04  0.7818609E-02  0.8288186E-01
       -2   -1    0    0    0  501  0.00000000000E+00  0.00000000000E+00  0.13957992903E+04  0.13957992903E+04  0.25500000920E-02 0. -1.
        2   -1    0    0  501    0  0.00000000000E+00  0.00000000000E+00 -0.14538879263E+04  0.14538879263E+04  0.25500000920E-02 0.  1.
    10030    2    1    2    0    0  0.00000000000E+00  0.00000000000E+00 -0.58088635996E+02  0.28496872167E+04  0.28490951095E+04 0.  0.
        5    1    3    3  502    0 -0.69090600346E+03 -0.10575341136E+04  0.62956358879E+03  0.14114184034E+04  0.46999998093E+01 0. -1.
       -5    1    3    3    0  502  0.69090600346E+03  0.10575341136E+04 -0.68765222478E+03  0.14382688133E+04  0.46999998093E+01 0.  1.
</event>
<event>
 5   0  0.9260173E-06  0.2782510E+04  0.7818609E-02  0.8308719E-01
        2   -1    0    0  501    0  0.00000000000E+00  0.00000000000E+00  0.10131772169E+04  0.10131772169E+04  0.25500000920E-02 0. -1.
       -2   -1    0    0    0  501  0.00000000000E+00  0.00000000000E+00 -0.19104168289E+04  0.19104168289E+04  0.25500000920E-02 0.  1.
    10030    2    1    2    0    0  0.00000000000E+00  0.00000000000E+00 -0.89723961197E+03  0.29235940458E+04  0.27825102378E+04 0.  0.
        1    1    3    3  502    0  0.10605492790E+03 -0.29093705610E+03 -0.18737471036E+04  0.18991630332E+04  0.50400001928E-02 0.  1.
       -1    1    3    3    0  502 -0.10605492790E+03  0.29093705610E+03  0.97650749162E+03  0.10244310126E+04  0.50400001928E-02 0. -1.
</event>
<event>
 5   0  0.3357244E-06  0.2775702E+04  0.7818609E-02  0.8310852E-01
        1   -1    0    0  501    0  0.00000000000E+00  0.00000000000E+00  0.13222684087E+04  0.13222684087E+04  0.50400001928E-02 0. -1.
       -1   -1    0    0    0  501  0.00000000000E+00  0.00000000000E+00 -0.14566868340E+04  0.14566868340E+04  0.50400001928E-02 0.  1.
    10030    2    1    2    0    0  0.00000000000E+00  0.00000000000E+00 -0.13441842533E+03  0.27789552427E+04  0.27757024207E+04 0.  0.
        4    1    3    3  502    0  0.87654547134E+03 -0.43545671505E+03  0.91790264723E+03  0.13418276330E+04  0.12699999809E+01 0. -1.
       -4    1    3    3    0  502 -0.87654547134E+03  0.43545671505E+03 -0.10523210726E+04  0.14371276097E+04  0.12699999809E+01 0.  1.
</event>
<event>
 5   0  0.9260173E-06  0.2778876E+04  0.7818609E-02  0.8309857E-01
        2   -1    0    0  501    0  0.00000000000E+00  0.00000000000E+00  0.15459446809E+04  0.15459446809E+04  0.25500000920E-02 0.  1.
       -2   -1    0    0    0  501  0.00000000000E+00  0.00000000000E+00 -0.12487755685E+04  0.12487755685E+04  0.25500000920E-02 0. -1.
    10030    2    1    2    0    0  0.00000000000E+00  0.00000000000E+00  0.29716911239E+03  0.27947202495E+04  0.27788759943E+04 0.  0.
        1    1    3    3  502    0 -0.83160951145E+03 -0.84333196782E+03 -0.58202484168E+03  0.13196727260E+04  0.50400001928E-02 0. -1.
       -1    1    3    3    0  502  0.83160951145E+03  0.84333196782E+03  0.87919395408E+03  0.14750475234E+04  0.50400001928E-02 0.  1.
</event>
<event>
 5   0  0.3357244E-06  0.2794252E+04  0.7818609E-02  0.8305055E-01
        1   -1    0    0  501    0  0.00000000000E+00  0.00000000000E+00  0.13091514732E+04  0.13091514732E+04  0.50400001928E-02 0.  1.
       -1   -1    0    0    0  501  0.00000000000E+00  0.00000000000E+00 -0.14910128389E+04  0.14910128389E+04  0.50400001928E-02 0. -1.
    10030    2    1    2    0    0  0.00000000000E+00  0.00000000000E+00 -0.18186136568E+03  0.28001643120E+04  0.27942524256E+04 0.  0.
        4    1    3    3  502    0  0.47951491520E+02 -0.65294216573E+02 -0.14886566733E+04  0.14908598137E+04  0.12699999809E+01 0. -1.
       -4    1    3    3    0  502 -0.47951491520E+02  0.65294216573E+02  0.13067953077E+04  0.13093044983E+04  0.12699999809E+01 0.  1.
</event>
<event>
 5   0  0.9065579E-06  0.2683876E+04  0.7818609E-02  0.8340256E-01
       -2   -1    0    0    0  501  0.00000000000E+00  0.00000000000E+00  0.16201432903E+04  0.16201432903E+04  0.25500000920E-02 0.  1.
        2   -1    0    0  501    0  0.00000000000E+00  0.00000000000E+00 -0.11115047630E+04  0.11115047630E+04  0.25500000920E-02 0. -1.
    10030    2    1    2    0    0  0.00000000000E+00  0.00000000000E+00  0.50863852727E+03  0.27316480534E+04  0.26838755441E+04 0.  0.
        3    1    3    3  502    0  0.12520650578E+04 -0.48266237493E+03  0.24116258152E+03  0.13633742252E+04  0.10100000352E+00 0.  1.
       -3    1    3    3    0  502 -0.12520650578E+04  0.48266237493E+03  0.26747594575E+03  0.13682738282E+04  0.10100000352E+00 0. -1.
</event>
<event>
 5   0  0.3357244E-06  0.2525182E+04  0.7818609E-02  0.8394069E-01
       -1   -1    0    0    0  501  0.00000000000E+00  0.00000000000E+00  0.11485089154E+04  0.11485089154E+04  0.50400001928E-02 0. -1.
        1   -1    0    0  501    0  0.00000000000E+00  0.00000000000E+00 -0.13880048347E+04  0.13880048347E+04  0.50400001928E-02 0.  1.
    10030    2    1    2    0    0  0.00000000000E+00  0.00000000000E+00 -0.23949591929E+03  0.25365137501E+04  0.25251819160E+04 0.  0.
        4    1    3    3  502    0  0.89953838310E+03  0.36010338415E+01  0.77020307608E+03  0.11842282979E+04  0.12699999809E+01 0. -1.
       -4    1    3    3    0  502 -0.89953838310E+03 -0.36010338415E+01 -0.10096989954E+04  0.13522854522E+04  0.12699999809E+01 0.  1.
</event>
<event>
 5   0  0.3371603E-06  0.2817945E+04  0.7818609E-02  0.8297719E-01
       -1   -1    0    0    0  501  0.00000000000E+00  0.00000000000E+00  0.14128049729E+04  0.14128049729E+04  0.50400001928E-02 0.  1.
        1   -1    0    0  501    0  0.00000000000E+00  0.00000000000E+00 -0.14051507790E+04  0.14051507790E+04  0.50400001928E-02 0. -1.
    10030    2    1    2    0    0  0.00000000000E+00  0.00000000000E+00  0.76541938357E+01  0.28179557519E+04  0.28179453566E+04 0.  0.
        1    1    3    3  502    0  0.77644827031E+03  0.59652049010E+03 -0.10093377317E+04  0.14062258952E+04  0.50400001928E-02 0. -1.
       -1    1    3    3    0  502 -0.77644827031E+03 -0.59652049010E+03  0.10169919256E+04  0.14117298567E+04  0.50400001928E-02 0.  1.
</event>
<event>
 5   0  0.9065579E-06  0.2791884E+04  0.7818609E-02  0.8305793E-01
       -2   -1    0    0    0  501  0.00000000000E+00  0.00000000000E+00  0.10512777788E+04  0.10512777788E+04  0.25500000920E-02 0.  1.
        2   -1    0    0  501    0  0.00000000000E+00  0.00000000000E+00 -0.18536051849E+04  0.18536051850E+04  0.25500000920E-02 0. -1.
    10030    2    1    2    0    0  0.00000000000E+00  0.00000000000E+00 -0.80232740620E+03  0.29048829637E+04  0.27918839099E+04 0.  0.
        3    1    3    3  502    0  0.42371190357E+03  0.30654743732E+03  0.94549716776E+03  0.10804943373E+04  0.10100000352E+00 0.  1.
       -3    1    3    3    0  502 -0.42371190357E+03 -0.30654743732E+03 -0.17478245740E+04  0.18243886264E+04  0.10100000352E+00 0. -1.
</event>
<event>
 5   0  0.9426937E-06  0.2618655E+04  0.7818609E-02  0.8361892E-01
       -2   -1    0    0    0  501  0.00000000000E+00  0.00000000000E+00  0.12925212030E+04  0.12925212030E+04  0.25500000920E-02 0.  1.
        2   -1    0    0  501    0  0.00000000000E+00  0.00000000000E+00 -0.13263525047E+04  0.13263525047E+04  0.25500000920E-02 0. -1.
    10030    2    1    2    0    0  0.00000000000E+00  0.00000000000E+00 -0.33831301664E+02  0.26188737076E+04  0.26186551777E+04 0.  0.
        4    1    3    3  502    0  0.14104187610E+03 -0.12717222386E+04 -0.29472806765E+03  0.13130257079E+04  0.12699999809E+01 0. -1.
       -4    1    3    3    0  502 -0.14104187610E+03  0.12717222386E+04  0.26089676598E+03  0.13058479997E+04  0.12699999809E+01 0.  1.
</event>
<event>
 5   0  0.3006875E-06  0.2900415E+04  0.7818609E-02  0.8272754E-01
       -3   -1    0    0    0  501  0.00000000000E+00  0.00000000000E+00  0.93780568554E+03  0.93780569098E+03  0.10100000352E+00 0.  1.
        3   -1    0    0  501    0  0.00000000000E+00  0.00000000000E+00 -0.22425777937E+04  0.22425777960E+04  0.10100000352E+00 0. -1.
    10030    2    1    2    0    0  0.00000000000E+00  0.00000000000E+00 -0.13047721082E+04  0.31803834870E+04  0.29004152927E+04 0.  0.
        2    1    3    3  502    0 -0.49462861611E+02 -0.30738871108E+03  0.90072651289E+03  0.95301765220E+03  0.25500000920E-02 0.  1.
       -2    1    3    3    0  502  0.49462861611E+02  0.30738871108E+03 -0.22054986211E+04  0.22273658348E+04  0.25500000920E-02 0. -1.
</event>
<event>
 5   0  0.9260173E-06  0.2802348E+04  0.7818609E-02  0.8302540E-01
       -2   -1    0    0    0  501  0.00000000000E+00  0.00000000000E+00  0.10182020806E+04  0.10182020806E+04  0.25500000920E-02 0. -1.
        2   -1    0    0  501    0  0.00000000000E+00  0.00000000000E+00 -0.19281909270E+04  0.19281909270E+04  0.25500000920E-02 0.  1.
    10030    2    1    2    0    0  0.00000000000E+00  0.00000000000E+00 -0.90998884644E+03  0.29463930076E+04  0.28023475971E+04 0.  0.
        1    1    3    3  502    0  0.92205542819E+03 -0.57306682805E+03 -0.13863584292E+04  0.17608468122E+04  0.50400001928E-02 0.  1.
       -1    1    3    3    0  502 -0.92205542819E+03  0.57306682805E+03  0.47636958273E+03  0.11855461954E+04  0.50400001928E-02 0. -1.
</event>
<event>
 5   0  0.9065579E-06  0.2801919E+04  0.7818609E-02  0.8302673E-01
        2   -1    0    0  501    0  0.00000000000E+00  0.00000000000E+00  0.10670603642E+04  0.10670603642E+04  0.25500000920E-02 0. -1.
       -2   -1    0    0    0  501  0.00000000000E+00  0.00000000000E+00 -0.18393406244E+04  0.18393406244E+04  0.25500000920E-02 0.  1.
    10030    2    1    2    0    0  0.00000000000E+00  0.00000000000E+00 -0.77228026022E+03  0.29064009886E+04  0.28019189685E+04 0.  0.
        3    1    3    3  502    0 -0.26947281576E+02 -0.95858934238E+03  0.67325074300E+03  0.11717022900E+04  0.10100000352E+00 0. -1.
       -3    1    3    3    0  502  0.26947281576E+02  0.95858934238E+03 -0.14455310032E+04  0.17346986986E+04  0.10100000352E+00 0.  1.
</event>
<event>
 5   0  0.3371603E-06  0.2808891E+04  0.7818609E-02  0.8300513E-01
       -1   -1    0    0    0  501  0.00000000000E+00  0.00000000000E+00  0.11295782503E+04  0.11295782503E+04  0.50400001928E-02 0.  1.
        1   -1    0    0  501    0  0.00000000000E+00  0.00000000000E+00 -0.17461984965E+04  0.17461984965E+04  0.50400001928E-02 0. -1.
    10030    2    1    2    0    0  0.00000000000E+00  0.00000000000E+00 -0.61662024622E+03  0.28757767468E+04  0.28088914841E+04 0.  0.
        1    1    3    3  502    0  0.78927940431E+03  0.11541157927E+03  0.87515011204E+03  0.11841323952E+04  0.50400001928E-02 0.  1.
       -1    1    3    3    0  502 -0.78927940431E+03 -0.11541157927E+03 -0.14917703583E+04  0.16916443517E+04  0.50400001928E-02 0. -1.
</event>
<event>
 5   0  0.3371603E-06  0.2858037E+04  0.7818609E-02  0.8285473E-01
       -1   -1    0    0    0  501  0.00000000000E+00  0.00000000000E+00  0.11988310181E+04  0.11988310182E+04  0.50400001928E-02 0. -1.
        1   -1    0    0  501    0  0.00000000000E+00  0.00000000000E+00 -0.17034036891E+04  0.17034036891E+04  0.50400001928E-02 0.  1.
    10030    2    1    2    0    0  0.00000000000E+00  0.00000000000E+00 -0.50457267099E+03  0.29022347073E+04  0.28580365141E+04 0.  0.
        1    1    3    3  502    0  0.20911253163E+03  0.29313134715E+03  0.11520093783E+04  0.12069712695E+04  0.50400001928E-02 0. -1.
       -1    1    3    3    0  502 -0.20911253163E+03 -0.29313134715E+03 -0.16565820493E+04  0.16952634378E+04  0.50400001928E-02 0.  1.
</event>
<event>
 5   0  0.3438130E-06  0.2830811E+04  0.7818609E-02  0.8293766E-01
       -1   -1    0    0    0  501  0.00000000000E+00  0.00000000000E+00  0.64467710929E+03  0.64467710931E+03  0.50400001928E-02 0.  1.
        1   -1    0    0  501    0  0.00000000000E+00  0.00000000000E+00 -0.31075605259E+04  0.31075605259E+04  0.50400001928E-02 0. -1.
    10030    2    1    2    0    0  0.00000000000E+00  0.00000000000E+00 -0.24628834166E+04  0.37522376352E+04  0.28308112878E+04 0.  0.
        3    1    3    3  502    0  0.44176521272E+03  0.31374006823E+03 -0.29646470327E+04  0.30137553604E+04  0.10100000352E+00 0. -1.
       -3    1    3    3    0  502 -0.44176521272E+03 -0.31374006823E+03  0.50176361609E+03  0.73848227482E+03  0.10100000352E+00 0.  1.
</event>
<event>
 5   0  0.3600963E-06  0.2766676E+04  0.7818609E-02  0.8313690E-01
       -1   -1    0    0    0  501  0.00000000000E+00  0.00000000000E+00  0.14256314016E+04  0.14256314016E+04  0.50400001928E-02 0.  1.
        1   -1    0    0  501    0  0.00000000000E+00  0.00000000000E+00 -0.13422988627E+04  0.13422988627E+04  0.50400001928E-02 0. -1.
    10030    2    1    2    0    0  0.00000000000E+00  0.00000000000E+00  0.83332538977E+02  0.27679302643E+04  0.27666755567E+04 0.  0.
        5    1    3    3  502    0  0.12832446943E+04 -0.45335751342E+03 -0.20613808414E+03  0.13765046241E+04  0.46999998093E+01 0. -1.
       -5    1    3    3    0  502 -0.12832446943E+04  0.45335751342E+03  0.28947062311E+03  0.13914256402E+04  0.46999998093E+01 0.  1.
</event>
<event>
 5   0  0.3600963E-06  0.2783426E+04  0.7818609E-02  0.8308433E-01
       -1   -1    0    0    0  501  0.00000000000E+00  0.00000000000E+00  0.86989538936E+03  0.86989538937E+03  0.50400001928E-02 0.  1.
        1   -1    0    0  501    0  0.00000000000E+00  0.00000000000E+00 -0.22265491644E+04  0.22265491644E+04  0.50400001928E-02 0. -1.
    10030    2    1    2    0    0  0.00000000000E+00  0.00000000000E+00 -0.13566537751E+04  0.30964445538E+04  0.27834258405E+04 0.  0.
        5    1    3    3  502    0  0.73887034748E+03  0.11792774548E+04 -0.66189951168E+03  0.15410249055E+04  0.46999998093E+01 0.  1.
       -5    1    3    3    0  502 -0.73887034748E+03 -0.11792774548E+04 -0.69475426338E+03  0.15554196483E+04  0.46999998093E+01 0. -1.
</event>
<event>
 5   0  0.9426937E-06  0.2799460E+04  0.7818609E-02  0.8303436E-01
       -2   -1    0    0    0  501  0.00000000000E+00  0.00000000000E+00  0.85387354105E+03  0.85387354106E+03  0.25500000920E-02 0. -1.
        2   -1    0    0  501    0  0.00000000000E+00  0.00000000000E+00 -0.22945367092E+04  0.22945367092E+04  0.25500000920E-02 0.  1.
    10030    2    1    2    0    0  0.00000000000E+00  0.00000000000E+00 -0.14406631681E+04  0.31484102502E+04  0.27994600800E+04 0.  0.
        4    1    3    3  502    0 -0.50845918471E+03  0.12407965105E+04 -0.11717851883E+04  0.17807832163E+04  0.12699999809E+01 0. -1.
       -4    1    3    3    0  502  0.50845918471E+03 -0.12407965105E+04 -0.26887797985E+03  0.13676270340E+04  0.12699999809E+01 0.  1.
</event>
<event>
 5   0  0.9260173E-06  0.2924381E+04  0.7818609E-02  0.8265660E-01
        2   -1    0    0  501    0  0.00000000000E+00  0.00000000000E+00  0.17047545305E+04  0.17047545305E+04  0.25500000920E-02 0.  1.
       -2   -1    0    0    0  501  0.00000000000E+00  0.00000000000E+00 -0.12541405205E+04  0.12541405205E+04  0.25500000920E-02 0. -1.
    10030    2    1    2    0    0  0.00000000000E+00  0.00000000000E+00  0.45061401001E+03  0.29588950509E+04  0.29243814622E+04 0.  0.
        1    1    3    3  502    0 -0.11309500743E+04 -0.81858095690E+03 -0.21442415264E+03  0.14124802904E+04  0.50400001928E-02 0.  1.
       -1    1    3    3    0  502  0.11309500743E+04  0.81858095690E+03  0.66503816265E+03  0.15464147605E+04  0.50400001928E-02 0. -1.
</event>
<event>
 5   0  0.3357244E-06  0.2745600E+04  0.7818609E-02  0.8320359E-01
        1   -1    0    0  501    0  0.00000000000E+00  0.00000000000E+00  0.20215569576E+04  0.20215569576E+04  0.50400001928E-02 0.  1.
       -1   -1    0    0    0  501  0.00000000000E+00  0.00000000000E+00 -0.93224177196E+03  0.93224177197E+03  0.50400001928E-02 0. -1.
    10030    2    1    2    0    0  0.00000000000E+00  0.00000000000E+00  0.10893151857E+04  0.29537987296E+04  0.27456000002E+04 0.  0.
        4    1    3    3  502    0  0.75561831601E+03  0.60674953087E+03 -0.50143101641E+03  0.10911181008E+04  0.12699999809E+01 0. -1.
       -4    1    3    3    0  502 -0.75561831601E+03 -0.60674953087E+03  0.15907462021E+04  0.18626806288E+04  0.12699999809E+01 0.  1.
</event>
<event>
 5   0  0.9252359E-06  0.2791227E+04  0.7818609E-02  0.8305997E-01
        2   -1    0    0  501    0  0.00000000000E+00  0.00000000000E+00  0.14140223906E+04  0.14140223906E+04  0.25500000920E-02 0. -1.
       -2   -1    0    0    0  501  0.00000000000E+00  0.00000000000E+00 -0.13774438368E+04  0.13774438368E+04  0.25500000920E-02 0.  1.
    10030    2    1    2    0    0  0.00000000000E+00  0.00000000000E+00  0.36578553824E+02  0.27914662274E+04  0.27912265598E+04 0.  0.
        5    1    3    3  502    0 -0.43211071529E+03 -0.10404159367E+03  0.13413427837E+04  0.14130700184E+04  0.46999998093E+01 0. -1.
       -5    1    3    3    0  502  0.43211071529E+03  0.10404159367E+03 -0.13047642299E+04  0.13783962090E+04  0.46999998093E+01 0.  1.
</event>
<event>
 5   0  0.3397882E-06  0.2813795E+04  0.7818609E-02  0.8298998E-01
       -1   -1    0    0    0  501  0.00000000000E+00  0.00000000000E+00  0.21304663379E+04  0.21304663379E+04  0.50400001928E-02 0. -1.
        1   -1    0    0  501    0  0.00000000000E+00  0.00000000000E+00 -0.92907371022E+03  0.92907371023E+03  0.50400001928E-02 0.  1.
    10030    2    1    2    0    0  0.00000000000E+00  0.00000000000E+00  0.12013926277E+04  0.30595400481E+04  0.28137947793E+04 0.  0.
        2    1    3    3  502    0  0.82018765165E+03  0.11178097735E+04  0.86064417322E+03  0.16318440080E+04  0.25500000920E-02 0.  1.
       -2    1    3    3    0  502 -0.82018765165E+03 -0.11178097735E+04  0.34074845444E+03  0.14276960401E+04  0.25500000920E-02 0. -1.
</event>
<event>
 5   0  0.9342133E-06  0.2944003E+04  0.7818609E-02  0.8259904E-01
        2   -1    0    0  501    0  0.00000000000E+00  0.00000000000E+00  0.10743303646E+04  0.10743303646E+04  0.25500000920E-02 0.  1.
       -2   -1    0    0    0  501  0.00000000000E+00  0.00000000000E+00 -0.20168730818E+04  0.20168730818E+04  0.25500000920E-02 0. -1.
    10030    2    1    2    0    0  0.00000000000E+00  0.00000000000E+00 -0.94254271714E+03  0.30912034464E+04  0.29440027129E+04 0.  0.
        2    1    3    3  502    0  0.24634817081E+03  0.14106321850E+04 -0.82922351321E+03  0.16547453633E+04  0.25500000920E-02 0. -1.
       -2    1    3    3    0  502 -0.24634817081E+03 -0.14106321850E+04 -0.11331920393E+03  0.14364580831E+04  0.25500000920E-02 0.  1.
</event>
<event>
 5   0  0.9065579E-06  0.2826080E+04  0.7818609E-02  0.8295217E-01
       -2   -1    0    0    0  501  0.00000000000E+00  0.00000000000E+00  0.12098134469E+04  0.12098134469E+04  0.25500000920E-02 0. -1.
        2   -1    0    0  501    0  0.00000000000E+00  0.00000000000E+00 -0.16504052224E+04  0.16504052224E+04  0.25500000920E-02 0.  1.
    10030    2    1    2    0    0  0.00000000000E+00  0.00000000000E+00 -0.44059177552E+03  0.28602186692E+04  0.28260802754E+04 0.  0.
        3    1    3    3  502    0 -0.28728463287E+03 -0.12751731994E+04 -0.76351340148E+03  0.15137872616E+04  0.10100000352E+00 0.  1.
       -3    1    3    3    0  502  0.28728463287E+03  0.12751731994E+04  0.32292162596E+03  0.13464314077E+04  0.10100000352E+00 0. -1.
</event>
<event>
 5   0  0.9260173E-06  0.2809239E+04  0.7818609E-02  0.8300406E-01
        2   -1    0    0  501    0  0.00000000000E+00  0.00000000000E+00  0.16163690214E+04  0.16163690214E+04  0.25500000920E-02 0. -1.
       -2   -1    0    0    0  501  0.00000000000E+00  0.00000000000E+00 -0.12206101670E+04  0.12206101670E+04  0.25500000920E-02 0.  1.
    10030    2    1    2    0    0  0.00000000000E+00  0.00000000000E+00  0.39575885444E+03  0.28369791885E+04  0.28092393712E+04 0.  0.
        1    1    3    3  502    0 -0.96431434379E+03  0.10005838945E+04  0.40456148089E+03  0.14473217595E+04  0.50400001928E-02 0. -1.
       -1    1    3    3    0  502  0.96431434379E+03 -0.10005838945E+04 -0.88026264476E+01  0.13896574290E+04  0.50400001928E-02 0.  1.
</event>
<event>
 5   0  0.9426937E-06  0.2830664E+04  0.7818609E-02  0.8293811E-01
       -2   -1    0    0    0  501  0.00000000000E+00  0.00000000000E+00  0.20661362026E+04  0.20661362026E+04  0.25500000920E-02 0.  1.
        2   -1    0    0  501    0  0.00000000000E+00  0.00000000000E+00 -0.96952216105E+03  0.96952216105E+03  0.25500000920E-02 0. -1.
    10030    2    1    2    0    0  0.00000000000E+00  0.00000000000E+00  0.10966140416E+04  0.30356583637E+04  0.28306641173E+04 0.  0.
        4    1    3    3  502    0 -0.25020715023E+03 -0.14800093813E+03 -0.93716007507E+03  0.98121277760E+03  0.12699999809E+01 0. -1.
       -4    1    3    3    0  502  0.25020715023E+03  0.14800093813E+03  0.20337741166E+04  0.20544455861E+04  0.12699999809E+01 0.  1.
</event>
<event>
 5   0  0.3600963E-06  0.2784849E+04  0.7818609E-02  0.8307988E-01
       -1   -1    0    0    0  501  0.00000000000E+00  0.00000000000E+00  0.12260228100E+04  0.12260228100E+04  0.50400001928E-02 0.  1.
        1   -1    0    0  501    0  0.00000000000E+00  0.00000000000E+00 -0.15814106393E+04  0.15814106393E+04  0.50400001928E-02 0. -1.
    10030    2    1    2    0    0  0.00000000000E+00  0.00000000000E+00 -0.35538782935E+03  0.28074334493E+04  0.27848486607E+04 0.  0.
        5    1    3    3  502    0  0.67254247674E+03  0.11914922242E+04  0.82968919317E+02  0.13707198966E+04  0.46999998093E+01 0.  1.
       -5    1    3    3    0  502 -0.67254247674E+03 -0.11914922242E+04 -0.43835674867E+03  0.14367135527E+04  0.46999998093E+01 0. -1.
</event>
<event>
 5   0  0.3357244E-06  0.2814587E+04  0.7818609E-02  0.8298754E-01
       -1   -1    0    0    0  501  0.00000000000E+00  0.00000000000E+00  0.77886746327E+03  0.77886746328E+03  0.50400001928E-02 0.  1.
        1   -1    0    0  501    0  0.00000000000E+00  0.00000000000E+00 -0.25427626282E+04  0.25427626282E+04  0.50400001928E-02 0. -1.
    10030    2    1    2    0    0  0.00000000000E+00  0.00000000000E+00 -0.17638951650E+04  0.33216300915E+04  0.28145870589E+04 0.  0.
        4    1    3    3  502    0  0.21139515395E+03  0.56354717473E+03  0.61930129743E+03  0.86360236171E+03  0.12699999809E+01 0.  1.
       -4    1    3    3    0  502 -0.21139515395E+03 -0.56354717473E+03 -0.23831964624E+04  0.24580277298E+04  0.12699999809E+01 0. -1.
</event>
<event>
 5   0  0.3006875E-06  0.2797594E+04  0.7818609E-02  0.8304016E-01
       -3   -1    0    0    0  501  0.00000000000E+00  0.00000000000E+00  0.14270709498E+04  0.14270709534E+04  0.10100000352E+00 0.  1.
        3   -1    0    0  501    0  0.00000000000E+00  0.00000000000E+00 -0.13710830891E+04  0.13710830928E+04  0.10100000352E+00 0. -1.
    10030    2    1    2    0    0  0.00000000000E+00  0.00000000000E+00  0.55987860715E+02  0.27981540462E+04  0.27975938636E+04 0.  0.
        4    1    3    3  502    0  0.23213602850E+03 -0.24773055676E+03 -0.13292500331E+04  0.13719201244E+04  0.12699999809E+01 0. -1.
       -4    1    3    3    0  502 -0.23213602850E+03  0.24773055676E+03  0.13852378938E+04  0.14262339218E+04  0.12699999809E+01 0.  1.
</event>
<event>
 5   0  0.9065579E-06  0.2731263E+04  0.7818609E-02  0.8324932E-01
       -2   -1    0    0    0  501  0.00000000000E+00  0.00000000000E+00  0.10443282181E+04  0.10443282181E+04  0.25500000920E-02 0. -1.
        2   -1    0    0  501    0  0.00000000000E+00  0.00000000000E+00 -0.17857891860E+04  0.17857891860E+04  0.25500000920E-02 0.  1.
    10030    2    1    2    0    0  0.00000000000E+00  0.00000000000E+00 -0.74146096785E+03  0.28301174041E+04  0.27312634721E+04 0.  0.
        3    1    3    3  502    0 -0.60413514068E+02  0.40079600891E+03 -0.17220248342E+04  0.17690835971E+04  0.10100000352E+00 0.  1.
       -3    1    3    3    0  502  0.60413514068E+02 -0.40079600891E+03  0.98056386638E+03  0.10610338070E+04  0.10100000352E+00 0. -1.
</event>
<event>
 5   0  0.9342133E-06  0.2786310E+04  0.7818609E-02  0.8307531E-01
       -2   -1    0    0    0  501  0.00000000000E+00  0.00000000000E+00  0.13243917404E+04  0.13243917404E+04  0.25500000920E-02 0.  1.
        2   -1    0    0  501    0  0.00000000000E+00  0.00000000000E+00 -0.14654882430E+04  0.14654882430E+04  0.25500000920E-02 0. -1.
    10030    2    1    2    0    0  0.00000000000E+00  0.00000000000E+00 -0.14109650264E+03  0.27898799835E+04  0.27863097637E+04 0.  0.
        2    1    3    3  502    0  0.78864375591E+03  0.86180570580E+03  0.68951100604E+03  0.13565004518E+04  0.25500000920E-02 0.  1.
       -2    1    3    3    0  502 -0.78864375591E+03 -0.86180570580E+03 -0.83060750868E+03  0.14333795317E+04  0.25500000920E-02 0. -1.
</event>
<event>
 5   0  0.9252359E-06  0.2785159E+04  0.7818609E-02  0.8307891E-01
       -2   -1    0    0    0  501  0.00000000000E+00  0.00000000000E+00  0.14631446646E+04  0.14631446646E+04  0.25500000920E-02 0. -1.
        2   -1    0    0  501    0  0.00000000000E+00  0.00000000000E+00 -0.13254175677E+04  0.13254175677E+04  0.25500000920E-02 0.  1.
    10030    2    1    2    0    0  0.00000000000E+00  0.00000000000E+00  0.13772709686E+03  0.27885622323E+04  0.27851589848E+04 0.  0.
        5    1    3    3  502    0  0.32315805572E+03  0.57588826146E+03  0.12964029202E+04  0.14549092894E+04  0.46999998093E+01 0. -1.
       -5    1    3    3    0  502 -0.32315805572E+03 -0.57588826146E+03 -0.11586758234E+04  0.13336529430E+04  0.46999998093E+01 0.  1.
</event>
<event>
 5   0  0.3357244E-06  0.2812092E+04  0.7818609E-02  0.8299524E-01
       -1   -1    0    0    0  501  0.00000000000E+00  0.00000000000E+00  0.12229777259E+04  0.12229777259E+04  0.50400001928E-02 0.  1.
        1   -1    0    0  501    0  0.00000000000E+00  0.00000000000E+00 -0.16165176615E+04  0.16165176615E+04  0.50400001928E-02 0. -1.
    10030    2    1    2    0    0  0.00000000000E+00  0.00000000000E+00 -0.39353993563E+03  0.28394953874E+04  0.28120918147E+04 0.  0.
        4    1    3    3  502    0 -0.97325740862E+03 -0.69149255481E+03  0.55314599380E+03  0.13158130719E+04  0.12699999809E+01 0.  1.
       -4    1    3    3    0  502  0.97325740862E+03  0.69149255481E+03 -0.94668592944E+03  0.15236823155E+04  0.12699999809E+01 0. -1.
</event>
<event>
 5   0  0.3371603E-06  0.2788669E+04  0.7818609E-02  0.8306795E-01
        1   -1    0    0  501    0  0.00000000000E+00  0.00000000000E+00  0.17819462060E+04  0.17819462060E+04  0.50400001928E-02 0.  1.
       -1   -1    0    0    0  501  0.00000000000E+00  0.00000000000E+00 -0.10910367716E+04  0.10910367716E+04  0.50400001928E-02 0. -1.
    10030    2    1    2    0    0  0.00000000000E+00  0.00000000000E+00  0.69090943441E+03  0.28729829776E+04  0.27886690989E+04 0.  0.
        1    1    3    3  502    0  0.13000073144E+03  0.48168775862E+03 -0.99592697583E+03  0.11139092549E+04  0.50400001928E-02 0. -1.
       -1    1    3    3    0  502 -0.13000073144E+03 -0.48168775862E+03  0.16868364102E+04  0.17590737227E+04  0.50400001928E-02 0.  1.
</event>
<event>
 5   0  0.9342133E-06  0.2777207E+04  0.7818609E-02  0.8310380E-01
        2   -1    0    0  501    0  0.00000000000E+00  0.00000000000E+00  0.15588623737E+04  0.15588623737E+04  0.25500000920E-02 0. -1.
       -2   -1    0    0    0  501  0.00000000000E+00  0.00000000000E+00 -0.12369404957E+04  0.12369404957E+04  0.25500000920E-02 0.  1.
    10030    2    1    2    0    0  0.00000000000E+00  0.00000000000E+00  0.32192187799E+03  0.27958028695E+04  0.27772072284E+04 0.  0.
        2    1    3    3  502    0  0.66979684520E+03 -0.49358609528E+03  0.12801445371E+04  0.15267694925E+04  0.25500000920E-02 0. -1.
       -2    1    3    3    0  502 -0.66979684520E+03  0.49358609528E+03 -0.95822265915E+03  0.12690333770E+04  0.25500000920E-02 0.  1.
</event>
<event>
 5   0  0.3357244E-06  0.2771039E+04  0.7818609E-02  0.8312316E-01
       -1   -1    0    0    0  501  0.00000000000E+00  0.00000000000E+00  0.10131445233E+04  0.10131445233E+04  0.50400001928E-02 0.  1.
        1   -1    0    0  501    0  0.00000000000E+00  0.00000000000E+00 -0.18947590686E+04  0.18947590686E+04  0.50400001928E-02 0. -1.
    10030    2    1    2    0    0  0.00000000000E+00  0.00000000000E+00 -0.88161454527E+03  0.29079035919E+04  0.27710393526E+04 0.  0.
        4    1    3    3  502    0  0.51403771487E+03 -0.57052048664E+03 -0.16509942618E+04  0.18208547618E+04  0.12699999809E+01 0. -1.
       -4    1    3    3    0  502 -0.51403771487E+03  0.57052048664E+03  0.76937971656E+03  0.10870488302E+04  0.12699999809E+01 0.  1.
</event>
<event>
 5   0  0.9426937E-06  0.2792713E+04  0.7818609E-02  0.8305534E-01
        2   -1    0    0  501    0  0.00000000000E+00  0.00000000000E+00  0.18563160309E+04  0.18563160309E+04  0.25500000920E-02 0. -1.
       -2   -1    0    0    0  501  0.00000000000E+00  0.00000000000E+00 -0.10503659577E+04  0.10503659577E+04  0.25500000920E-02 0.  1.
    10030    2    1    2    0    0  0.00000000000E+00  0.00000000000E+00  0.80595007323E+03  0.29066819886E+04  0.27927127783E+04 0.  0.
        4    1    3    3  502    0  0.92159565214E+03 -0.43070426668E+03 -0.59259874358E+03  0.11772933344E+04  0.12699999809E+01 0.  1.
       -4    1    3    3    0  502 -0.92159565214E+03  0.43070426668E+03  0.13985488168E+04  0.17293886542E+04  0.12699999809E+01 0. -1.
</event>
<event>
 5   0  0.3600963E-06  0.2489838E+04  0.7818609E-02  0.8406615E-01
       -1   -1    0    0    0  501  0.00000000000E+00  0.00000000000E+00  0.86167991461E+03  0.86167991462E+03  0.50400001928E-02 0. -1.
        1   -1    0    0  501    0  0.00000000000E+00  0.00000000000E+00 -0.17986062036E+04  0.17986062036E+04  0.50400001928E-02 0.  1.
    10030    2    1    2    0    0  0.00000000000E+00  0.00000000000E+00 -0.93692628894E+03  0.26602861182E+04  0.24898376171E+04 0.  0.
        5    1    3    3  502    0 -0.14055188114E+03  0.10969804745E+04 -0.10791498085E+04  0.15452208231E+04  0.46999998093E+01 0. -1.
       -5    1    3    3    0  502  0.14055188114E+03 -0.10969804745E+04  0.14222351959E+03  0.11150652951E+04  0.46999998093E+01 0.  1.
</event>
<event>
 5   0  0.9252359E-06  0.2778115E+04  0.7818609E-02  0.8310095E-01
        2   -1    0    0  501    0  0.00000000000E+00  0.00000000000E+00  0.25254319193E+04  0.25254319193E+04  0.25500000920E-02 0.  1.
       -2   -1    0    0    0  501  0.00000000000E+00  0.00000000000E+00 -0.76402021352E+03  0.76402021352E+03  0.25500000920E-02 0. -1.
    10030    2    1    2    0    0  0.00000000000E+00  0.00000000000E+00  0.17614117058E+04  0.32894521328E+04  0.27781152130E+04 0.  0.
        5    1    3    3  502    0 -0.86656700286E+01 -0.39377418391E+03  0.24579175711E+04  0.24892798312E+04  0.46999998093E+01 0.  1.
       -5    1    3    3    0  502  0.86656700286E+01  0.39377418391E+03 -0.69650586535E+03  0.80017230158E+03  0.46999998093E+01 0. -1.
</event>
<event>
 5   0  0.9260173E-06  0.2806782E+04  0.7818609E-02  0.8301166E-01
        2   -1    0    0  501    0  0.00000000000E+00  0.00000000000E+00  0.14513723776E+04  0.14513723776E+04  0.25500000920E-02 0. -1.
       -2   -1    0    0    0  501  0.00000000000E+00  0.00000000000E+00 -0.13569957240E+04  0.13569957240E+04  0.25500000920E-02 0.  1.
    10030    2    1    2    0    0  0.00000000000E+00  0.00000000000E+00  0.94376653507E+02  0.28083681016E+04  0.28067818657E+04 0.  0.
        1    1    3    3  502    0  0.10770768971E+04 -0.35938447631E+02 -0.85227460317E+03  0.13739571367E+04  0.50400001928E-02 0.  1.
       -1    1    3    3    0  502 -0.10770768971E+04  0.35938447631E+02  0.94665125668E+03  0.14344109649E+04  0.50400001928E-02 0. -1.
</event>
<event>
 5   0  0.3438130E-06  0.2917826E+04  0.7818609E-02  0.8267593E-01
        1   -1    0    0  501    0  0.00000000000E+00  0.00000000000E+00  0.23455691688E+04  0.23455691688E+04  0.50400001928E-02 0. -1.
       -1   -1    0    0    0  501  0.00000000000E+00  0.00000000000E+00 -0.90742446900E+03  0.90742446902E+03  0.50400001928E-02 0.  1.
    10030    2    1    2    0    0  0.00000000000E+00  0.00000000000E+00  0.14381446998E+04  0.32529936378E+04  0.29178258053E+04 0.  0.
        3    1    3    3  502    0  0.13552466082E+04  0.32035009066E+03  0.23425261053E+03  0.14121585766E+04  0.10100000352E+00 0.  1.
       -3    1    3    3    0  502 -0.13552466082E+04 -0.32035009066E+03  0.12038920892E+04  0.18408350612E+04  0.10100000352E+00 0. -1.
</event>
<event>
 5   0  0.3357244E-06  0.2801379E+04  0.7818609E-02  0.8302840E-01
        1   -1    0    0  501    0  0.00000000000E+00  0.00000000000E+00  0.68420411348E+03  0.68420411350E+03  0.50400001928E-02 0. -1.
       -1   -1    0    0    0  501  0.00000000000E+00  0.00000000000E+00 -0.28674646051E+04  0.28674646051E+04  0.50400001928E-02 0.  1.
    10030    2    1    2    0    0  0.00000000000E+00  0.00000000000E+00 -0.21832604916E+04  0.35516687186E+04  0.28013790019E+04 0.  0.
        4    1    3    3  502    0 -0.12785387544E+04 -0.47772980051E+03 -0.14906285623E+04  0.20211042112E+04  0.12699999809E+01 0. -1.
       -4    1    3    3    0  502  0.12785387544E+04  0.47772980051E+03 -0.69263192931E+03  0.15305645074E+04  0.12699999809E+01 0.  1.
</event>
<event>
 5   0  0.3357244E-06  0.2843310E+04  0.7818609E-02  0.8289947E-01
        1   -1    0    0  501    0  0.00000000000E+00  0.00000000000E+00  0.25842591344E+04  0.25842591344E+04  0.50400001928E-02 0.  1.
       -1   -1    0    0    0  501  0.00000000000E+00  0.00000000000E+00 -0.78208190938E+03  0.78208190939E+03  0.50400001928E-02 0. -1.
    10030    2    1    2    0    0  0.00000000000E+00  0.00000000000E+00  0.18021772250E+04  0.33663410438E+04  0.28433095633E+04 0.  0.
        4    1    3    3  502    0  0.11274404250E+04 -0.37638719958E+03  0.18245037060E+04  0.21775225881E+04  0.12699999809E+01 0.  1.
       -4    1    3    3    0  502 -0.11274404250E+04  0.37638719958E+03 -0.22326480954E+02  0.11888184557E+04  0.12699999809E+01 0. -1.
</event>
<event>
 5   0  0.3357244E-06  0.2633592E+04  0.7818609E-02  0.8356879E-01
        1   -1    0    0  501    0  0.00000000000E+00  0.00000000000E+00  0.13017593907E+04  0.13017593907E+04  0.50400001928E-02 0.  1.
       -1   -1    0    0    0  501  0.00000000000E+00  0.00000000000E+00 -0.13320065403E+04  0.13320065403E+04  0.50400001928E-02 0. -1.
    10030    2    1    2    0    0  0.00000000000E+00  0.00000000000E+00 -0.30247149584E+02  0.26337659311E+04  0.26335922406E+04 0.  0.
        4    1    3    3  502    0 -0.54064040219E+03 -0.11716178454E+04  0.24751512590E+03  0.13138667248E+04  0.12699999809E+01 0. -1.
       -4    1    3    3    0  502  0.54064040219E+03  0.11716178454E+04 -0.27776227549E+03  0.13198992063E+04  0.12699999809E+01 0.  1.
</event>
<event>
 5   0  0.3438130E-06  0.2775256E+04  0.7818609E-02  0.8310992E-01
        1   -1    0    0  501    0  0.00000000000E+00  0.00000000000E+00  0.26185463819E+04  0.26185463819E+04  0.50400001928E-02 0.  1.
       -1   -1    0    0    0  501  0.00000000000E+00  0.00000000000E+00 -0.73533593964E+03  0.73533593965E+03  0.50400001928E-02 0. -1.
    10030    2    1    2    0    0  0.00000000000E+00  0.00000000000E+00  0.18832104423E+04  0.33538823216E+04  0.27752558543E+04 0.  0.
        3    1    3    3  502    0  0.11636492767E+04  0.61751340208E+03  0.14685267196E+04  0.19728084492E+04  0.10100000352E+00 0. -1.
       -3    1    3    3    0  502 -0.11636492767E+04 -0.61751340208E+03  0.41468372270E+03  0.13810738724E+04  0.10100000352E+00 0.  1.
</event>
<event>
 5   0  0.9252359E-06  0.2797923E+04  0.7818609E-02  0.8303913E-01
       -2   -1    0    0    0  501  0.00000000000E+00  0.00000000000E+00  0.18323530121E+04  0.18323530121E+04  0.25500000920E-02 0.  1.
        2   -1    0    0  501    0  0.00000000000E+00  0.00000000000E+00 -0.10680769046E+04  0.10680769046E+04  0.25500000920E-02 0. -1.
    10030    2    1    2    0    0  0.00000000000E+00  0.00000000000E+00  0.76427610749E+03  0.29004299167E+04  0.27979234681E+04 0.  0.
        5    1    3    3  502    0  0.87417705689E+03 -0.60577373508E+03  0.13242374363E+04  0.16984623112E+04  0.46999998093E+01 0.  1.
       -5    1    3    3    0  502 -0.87417705689E+03  0.60577373508E+03 -0.55996132882E+03  0.12019676055E+04  0.46999998093E+01 0. -1.
</event>
<event>
 5   0  0.9342133E-06  0.2722149E+04  0.7818609E-02  0.8327854E-01
        2   -1    0    0  501    0  0.00000000000E+00  0.00000000000E+00  0.10659269634E+04  0.10659269634E+04  0.25500000920E-02 0.  1.
       -2   -1    0    0    0  501  0.00000000000E+00  0.00000000000E+00 -0.17379457539E+04  0.17379457539E+04  0.25500000920E-02 0. -1.
    10030    2    1    2    0    0  0.00000000000E+00  0.00000000000E+00 -0.67201879043E+03  0.28038727173E+04  0.27221485926E+04 0.  0.
        2    1    3    3  502    0  0.45093054688E+02 -0.13434126805E+04 -0.55628055523E+03  0.14547298958E+04  0.25500000920E-02 0. -1.
       -2    1    3    3    0  502 -0.45093054688E+02  0.13434126805E+04 -0.11573823519E+03  0.13491428215E+04  0.25500000920E-02 0.  1.
</event>
<event>
 5   0  0.3397882E-06  0.2805753E+04  0.7818609E-02  0.8301484E-01
       -1   -1    0    0    0  501  0.00000000000E+00  0.00000000000E+00  0.15184729038E+04  0.15184729038E+04  0.50400001928E-02 0.  1.
        1   -1    0    0  501    0  0.00000000000E+00  0.00000000000E+00 -0.12960802634E+04  0.12960802634E+04  0.50400001928E-02 0. -1.
    10030    2    1    2    0    0  0.00000000000E+00  0.00000000000E+00  0.22239264040E+03  0.28145531672E+04  0.28057532045E+04 0.  0.
        2    1    3    3  502    0 -0.26722645512E+03  0.52537833697E+03 -0.11658362621E+04  0.13063715266E+04  0.25500000920E-02 0. -1.
       -2    1    3    3    0  502  0.26722645512E+03 -0.52537833697E+03  0.13882289025E+04  0.15081816406E+04  0.25500000920E-02 0.  1.
</event>
<event>
 5   0  0.3371603E-06  0.2777782E+04  0.7818609E-02  0.8310199E-01
        1   -1    0    0  501    0  0.00000000000E+00  0.00000000000E+00  0.14148764776E+04  0.14148764776E+04  0.50400001928E-02 0. -1.
       -1   -1    0    0    0  501  0.00000000000E+00  0.00000000000E+00 -0.13633832563E+04  0.13633832563E+04  0.50400001928E-02 0.  1.
    10030    2    1    2    0    0  0.00000000000E+00  0.00000000000E+00  0.51493221302E+02  0.27782597339E+04  0.27777824963E+04 0.  0.
        1    1    3    3  502    0  0.12671114297E+04 -0.44530070397E+03  0.37957964359E+03  0.13956879300E+04  0.50400001928E-02 0. -1.
       -1    1    3    3    0  502 -0.12671114297E+04  0.44530070397E+03 -0.32808642229E+03  0.13825718038E+04  0.50400001928E-02 0.  1.
</event>
<event>
 5   0  0.3438130E-06  0.2619729E+04  0.7818609E-02  0.8361530E-01
        1   -1    0    0  501    0  0.00000000000E+00  0.00000000000E+00  0.17261691413E+04  0.17261691413E+04  0.50400001928E-02 0. -1.
       -1   -1    0    0    0  501  0.00000000000E+00  0.00000000000E+00 -0.99396105652E+03  0.99396105653E+03  0.50400001928E-02 0.  1.
    10030    2    1    2    0    0  0.00000000000E+00  0.00000000000E+00  0.73220808481E+03  0.27201301979E+04  0.26197289199E+04 0.  0.
        3    1    3    3  502    0 -0.49323983730E+01  0.19658974089E+03  0.17107542584E+04  0.17220197437E+04  0.10100000352E+00 0. -1.
       -3    1    3    3    0  502  0.49323983730E+01 -0.19658974089E+03 -0.97854617357E+03  0.99811045420E+03  0.10100000352E+00 0.  1.
</event>
<event>
 5   0  0.3371603E-06  0.2787525E+04  0.7818609E-02  0.8307152E-01
       -1   -1    0    0    0  501  0.00000000000E+00  0.00000000000E+00  0.12876833346E+04  0.12876833346E+04  0.50400001928E-02 0. -1.
        1   -1    0    0  501    0  0.00000000000E+00  0.00000000000E+00 -0.15085805935E+04  0.15085805936E+04  0.50400001928E-02 0.  1.
    10030    2    1    2    0    0  0.00000000000E+00  0.00000000000E+00 -0.22089725899E+03  0.27962639281E+04  0.27875251311E+04 0.  0.
        1    1    3    3  502    0 -0.10113439794E+04 -0.92174917944E+03  0.15521343275E+03  0.13771453824E+04  0.50400001928E-02 0.  1.
       -1    1    3    3    0  502  0.10113439794E+04  0.92174917944E+03 -0.37611069174E+03  0.14191185458E+04  0.50400001928E-02 0. -1.
</event>
<event>
 5   0  0.3357244E-06  0.2795125E+04  0.7818609E-02  0.8304783E-01
       -1   -1    0    0    0  501  0.00000000000E+00  0.00000000000E+00  0.15698199189E+04  0.15698199190E+04  0.50400001928E-02 0.  1.
        1   -1    0    0  501    0  0.00000000000E+00  0.00000000000E+00 -0.12442074355E+04  0.12442074356E+04  0.50400001928E-02 0. -1.
    10030    2    1    2    0    0  0.00000000000E+00  0.00000000000E+00  0.32561248341E+03  0.28140273545E+04  0.27951254824E+04 0.  0.
        4    1    3    3  502    0 -0.10640299595E+04 -0.67078384521E+03  0.77608017612E+03  0.14779759046E+04  0.12699999809E+01 0.  1.
       -4    1    3    3    0  502  0.10640299595E+04  0.67078384521E+03 -0.45046769271E+03  0.13360514499E+04  0.12699999809E+01 0. -1.
</event>
<event>
 5   0  0.3357244E-06  0.2746944E+04  0.7818609E-02  0.8319932E-01
       -1   -1    0    0    0  501  0.00000000000E+00  0.00000000000E+00  0.15357305194E+04  0.15357305194E+04  0.50400001928E-02 0.  1.
        1   -1    0    0  501    0  0.00000000000E+00  0.00000000000E+00 -0.12283567239E+04  0.12283567239E+04  0.50400001928E-02 0. -1.
    10030    2    1    2    0    0  0.00000000000E+00  0.00000000000E+00  0.30737379550E+03  0.27640872433E+04  0.27469436905E+04 0.  0.
        4    1    3    3  502    0  0.41625660387E+03  0.77929790267E+02  0.14683940145E+04  0.15282425224E+04  0.12699999809E+01 0.  1.
       -4    1    3    3    0  502 -0.41625660387E+03 -0.77929790267E+02 -0.11610202190E+04  0.12358447210E+04  0.12699999809E+01 0. -1.
</event>
<event>
 5   0  0.3438130E-06  0.2781756E+04  0.7818609E-02  0.8308955E-01
        1   -1    0    0  501    0  0.00000000000E+00  0.00000000000E+00  0.19418529750E+04  0.19418529750E+04  0.50400001928E-02 0. -1.
       -1   -1    0    0    0  501  0.00000000000E+00  0.00000000000E+00 -0.99623506554E+03  0.99623506555E+03  0.50400001928E-02 0.  1.
    10030    2    1    2    0    0  0.00000000000E+00  0.00000000000E+00  0.94561790942E+03  0.29380880405E+04  0.27817562983E+04 0.  0.
        3    1    3    3  502    0 -0.26645649907E+03  0.39862851290E+03 -0.90618334492E+03  0.10252180363E+04  0.10100000352E+00 0.  1.
       -3    1    3    3    0  502  0.26645649907E+03 -0.39862851290E+03  0.18518012543E+04  0.19128700042E+04  0.10100000352E+00 0. -1.
</event>
<event>
 5   0  0.9342133E-06  0.2782798E+04  0.7818609E-02  0.8308629E-01
       -2   -1    0    0    0  501  0.00000000000E+00  0.00000000000E+00  0.12991347640E+04  0.12991347640E+04  0.25500000920E-02 0. -1.
        2   -1    0    0  501    0  0.00000000000E+00  0.00000000000E+00 -0.14902159269E+04  0.14902159269E+04  0.25500000920E-02 0.  1.
    10030    2    1    2    0    0  0.00000000000E+00  0.00000000000E+00 -0.19108116289E+03  0.27893506909E+04  0.27827981001E+04 0.  0.
        2    1    3    3  502    0 -0.55326215114E+02 -0.21111184788E+03  0.12818720473E+04  0.13003173259E+04  0.25500000920E-02 0. -1.
       -2    1    3    3    0  502  0.55326215114E+02  0.21111184788E+03 -0.14729532102E+04  0.14890333650E+04  0.25500000920E-02 0.  1.
</event>
<event>
 5   0  0.3006875E-06  0.2792286E+04  0.7818609E-02  0.8305667E-01
       -3   -1    0    0    0  501  0.00000000000E+00  0.00000000000E+00  0.18473569705E+04  0.18473569733E+04  0.10100000352E+00 0.  1.
        3   -1    0    0  501    0  0.00000000000E+00  0.00000000000E+00 -0.10551373221E+04  0.10551373269E+04  0.10100000352E+00 0. -1.
    10030    2    1    2    0    0  0.00000000000E+00  0.00000000000E+00  0.79221964842E+03  0.29024943002E+04  0.27922860153E+04 0.  0.
        4    1    3    3  502    0 -0.57961079829E+03 -0.12672344819E+04  0.48541813719E+03  0.14756233566E+04  0.12699999809E+01 0.  1.
       -4    1    3    3    0  502  0.57961079829E+03  0.12672344819E+04  0.30680151124E+03  0.14268709436E+04  0.12699999809E+01 0. -1.
</event>
<event>
 5   0  0.9260173E-06  0.2819582E+04  0.7818609E-02  0.8297215E-01
       -2   -1    0    0    0  501  0.00000000000E+00  0.00000000000E+00  0.12132116003E+04  0.12132116003E+04  0.25500000920E-02 0.  1.
        2   -1    0    0  501    0  0.00000000000E+00  0.00000000000E+00 -0.16382222275E+04  0.16382222275E+04  0.25500000920E-02 0. -1.
    10030    2    1    2    0    0  0.00000000000E+00  0.00000000000E+00 -0.42501062717E+03  0.28514338278E+04  0.28195816783E+04 0.  0.
        1    1    3    3  502    0  0.25538654836E+03  0.86870549107E+03  0.88027498422E+03  0.12628363184E+04  0.50400001928E-02 0.  1.
       -1    1    3    3    0  502 -0.25538654836E+03 -0.86870549107E+03 -0.13052856114E+04  0.15885975093E+04  0.50400001928E-02 0. -1.
</event>
<event>
 5   0  0.3438130E-06  0.2795983E+04  0.7818609E-02  0.8304517E-01
        1   -1    0    0  501    0  0.00000000000E+00  0.00000000000E+00  0.19794097943E+04  0.19794097943E+04  0.50400001928E-02 0.  1.
       -1   -1    0    0    0  501  0.00000000000E+00  0.00000000000E+00 -0.98735505304E+03  0.98735505305E+03  0.50400001928E-02 0. -1.
    10030    2    1    2    0    0  0.00000000000E+00  0.00000000000E+00  0.99205474124E+03  0.29667648473E+04  0.27959830203E+04 0.  0.
        3    1    3    3  502    0  0.87065888121E+03 -0.66286660888E+03  0.14191930999E+04  0.17920792655E+04  0.10100000352E+00 0.  1.
       -3    1    3    3    0  502 -0.87065888121E+03  0.66286660888E+03 -0.42713835869E+03  0.11746855819E+04  0.10100000352E+00 0. -1.
</event>
<event>
 5   0  0.9260173E-06  0.2690129E+04  0.7818609E-02  0.8338215E-01
       -2   -1    0    0    0  501  0.00000000000E+00  0.00000000000E+00  0.10194766774E+04  0.10194766774E+04  0.25500000920E-02 0. -1.
        2   -1    0    0  501    0  0.00000000000E+00  0.00000000000E+00 -0.17746346748E+04  0.17746346748E+04  0.25500000920E-02 0.  1.
    10030    2    1    2    0    0  0.00000000000E+00  0.00000000000E+00 -0.75515799739E+03  0.27941113522E+04  0.26901291135E+04 0.  0.
        1    1    3    3  502    0 -0.30286575729E+03 -0.39199771576E+03 -0.16764391997E+04  0.17480956114E+04  0.50400001928E-02 0.  1.
       -1    1    3    3    0  502  0.30286575729E+03  0.39199771576E+03  0.92128120236E+03  0.10460157408E+04  0.50400001928E-02 0. -1.
</event>
<event>
 5   0  0.3371603E-06  0.2795763E+04  0.7818609E-02  0.8304585E-01
        1   -1    0    0  501    0  0.00000000000E+00  0.00000000000E+00  0.10123394067E+04  0.10123394067E+04  0.50400001928E-02 0.  1.
       -1   -1    0    0    0  501  0.00000000000E+00  0.00000000000E+00 -0.19302549602E+04  0.19302549602E+04  0.50400001928E-02 0. -1.
    10030    2    1    2    0    0  0.00000000000E+00  0.00000000000E+00 -0.91791555357E+03  0.29425943669E+04  0.27957633385E+04 0.  0.
        1    1    3    3  502    0  0.78156387850E+03  0.77290621115E+03  0.45002338537E+03  0.11877487760E+04  0.50400001928E-02 0.  1.
       -1    1    3    3    0  502 -0.78156387850E+03 -0.77290621115E+03 -0.13679389389E+04  0.17548455910E+04  0.50400001928E-02 0. -1.
</event>
<event>
 5   0  0.9252359E-06  0.2797132E+04  0.7818609E-02  0.8304159E-01
        2   -1    0    0  501    0  0.00000000000E+00  0.00000000000E+00  0.24909964939E+04  0.24909964939E+04  0.25500000920E-02 0.  1.
       -2   -1    0    0    0  501  0.00000000000E+00  0.00000000000E+00 -0.78522236506E+03  0.78522236506E+03  0.25500000920E-02 0. -1.
    10030    2    1    2    0    0  0.00000000000E+00  0.00000000000E+00  0.17057741289E+04  0.32762188590E+04  0.27971315009E+04 0.  0.
        5    1    3    3  502    0  0.21184498719E+03 -0.21550724803E+03  0.24522896690E+04  0.24708436581E+04  0.46999998093E+01 0.  1.
       -5    1    3    3    0  502 -0.21184498719E+03  0.21550724803E+03 -0.74651554009E+03  0.80537520085E+03  0.46999998093E+01 0. -1.
</event>
<event>
 5   0  0.3397882E-06  0.2780969E+04  0.7818609E-02  0.8309201E-01
        1   -1    0    0  501    0  0.00000000000E+00  0.00000000000E+00  0.14176117376E+04  0.14176117376E+04  0.50400001928E-02 0.  1.
       -1   -1    0    0    0  501  0.00000000000E+00  0.00000000000E+00 -0.13638766045E+04  0.13638766045E+04  0.50400001928E-02 0. -1.
    10030    2    1    2    0    0  0.00000000000E+00  0.00000000000E+00  0.53735133048E+02  0.27814883421E+04  0.27809692434E+04 0.  0.
        2    1    3    3  502    0 -0.42603933413E+03  0.79743160398E+01  0.13506985428E+04  0.14163190522E+04  0.25500000920E-02 0.  1.
       -2    1    3    3    0  502  0.42603933413E+03 -0.79743160398E+01 -0.12969634098E+04  0.13651692899E+04  0.25500000920E-02 0. -1.
</event>
<event>
 5   0  0.9065579E-06  0.2790331E+04  0.7818609E-02  0.8306277E-01
       -2   -1    0    0    0  501  0.00000000000E+00  0.00000000000E+00  0.18170592968E+04  0.18170592968E+04  0.25500000920E-02 0.  1.
        2   -1    0    0  501    0  0.00000000000E+00  0.00000000000E+00 -0.10712288884E+04  0.10712288884E+04  0.25500000920E-02 0. -1.
    10030    2    1    2    0    0  0.00000000000E+00  0.00000000000E+00  0.74583040833E+03  0.28882881852E+04  0.27903307407E+04 0.  0.
        3    1    3    3  502    0 -0.94799616274E+03  0.61208037104E+03 -0.47634327688E+03  0.12248436769E+04  0.10100000352E+00 0. -1.
       -3    1    3    3    0  502  0.94799616274E+03 -0.61208037104E+03  0.12221736852E+04  0.16634445083E+04  0.10100000352E+00 0.  1.
</event>
<event>
 5   0  0.9342133E-06  0.2836820E+04  0.7818609E-02  0.8291927E-01
       -2   -1    0    0    0  501  0.00000000000E+00  0.00000000000E+00  0.10516154963E+04  0.10516154963E+04  0.25500000920E-02 0.  1.
        2   -1    0    0  501    0  0.00000000000E+00  0.00000000000E+00 -0.19131399150E+04  0.19131399150E+04  0.25500000920E-02 0. -1.
    10030    2    1    2    0    0  0.00000000000E+00  0.00000000000E+00 -0.86152441867E+03  0.29647554113E+04  0.28368204604E+04 0.  0.
        2    1    3    3  502    0 -0.21885762155E+03 -0.35708628641E+03 -0.18470448144E+04  0.18939334257E+04  0.25500000920E-02 0. -1.
       -2    1    3    3    0  502  0.21885762155E+03  0.35708628641E+03  0.98552039572E+03  0.10708219856E+04  0.25500000920E-02 0.  1.
</event>
<event>
 5   0  0.3397882E-06  0.2782975E+04  0.7818609E-02  0.8308574E-01
        1   -1    0    0  501    0  0.00000000000E+00  0.00000000000E+00  0.14057103909E+04  0.14057103909E+04  0.50400001928E-02 0. -1.
       -1   -1    0    0    0  501  0.00000000000E+00  0.00000000000E+00 -0.13774081087E+04  0.13774081087E+04  0.50400001928E-02 0.  1.
    10030    2    1    2    0    0  0.00000000000E+00  0.00000000000E+00  0.28302282204E+02  0.27831184996E+04  0.27829745891E+04 0.  0.
        2    1    3    3  502    0  0.39147132829E+03 -0.37438961763E+03  0.12959426267E+04  0.14045941329E+04  0.25500000920E-02 0. -1.
       -2    1    3    3    0  502 -0.39147132829E+03  0.37438961763E+03 -0.12676403445E+04  0.13785243667E+04  0.25500000920E-02 0.  1.
</event>
<event>
 5   0  0.3006875E-06  0.2815389E+04  0.7818609E-02  0.8298507E-01
        4   -1    0    0  501    0  0.00000000000E+00  0.00000000000E+00  0.11645508087E+04  0.11645515012E+04  0.12699999809E+01 0. -1.
       -4   -1    0    0    0  501  0.00000000000E+00  0.00000000000E+00 -0.17016021261E+04  0.17016026001E+04  0.12699999809E+01 0.  1.
    10030    2    1    2    0    0  0.00000000000E+00  0.00000000000E+00 -0.53705131743E+03  0.28661541013E+04  0.28153889988E+04 0.  0.
        5    1    3    3  502    0  0.11503817584E+03  0.96276395320E+03 -0.13074332027E+04  0.16277444152E+04  0.46999998093E+01 0.  1.
       -5    1    3    3    0  502 -0.11503817584E+03 -0.96276395320E+03  0.77038188530E+03  0.12384096861E+04  0.46999998093E+01 0. -1.
</event>
<event>
 5   0  0.9252359E-06  0.2775471E+04  0.7818609E-02  0.8310924E-01
        2   -1    0    0  501    0  0.00000000000E+00  0.00000000000E+00  0.20521776104E+04  0.20521776104E+04  0.25500000920E-02 0.  1.
       -2   -1    0    0    0  501  0.00000000000E+00  0.00000000000E+00 -0.93842231996E+03  0.93842231997E+03  0.25500000920E-02 0. -1.
    10030    2    1    2    0    0  0.00000000000E+00  0.00000000000E+00  0.11137552905E+04  0.29905999304E+04  0.27754706081E+04 0.  0.
        5    1    3    3  502    0  0.77902157640E+02 -0.12534034026E+04  0.11931552411E+04  0.17322616301E+04  0.46999998093E+01 0.  1.
       -5    1    3    3    0  502 -0.77902157640E+02  0.12534034026E+04 -0.79399950675E+02  0.12583383003E+04  0.46999998093E+01 0. -1.
</event>
<event>
 5   0  0.9065579E-06  0.2736075E+04  0.7818609E-02  0.8323394E-01
        2   -1    0    0  501    0  0.00000000000E+00  0.00000000000E+00  0.12972008901E+04  0.12972008901E+04  0.25500000920E-02 0.  1.
       -2   -1    0    0    0  501  0.00000000000E+00  0.00000000000E+00 -0.14427423931E+04  0.14427423931E+04  0.25500000920E-02 0. -1.
    10030    2    1    2    0    0  0.00000000000E+00  0.00000000000E+00 -0.14554150303E+03  0.27399432832E+04  0.27360750842E+04 0.  0.
        3    1    3    3  502    0  0.36246908212E+03 -0.96270164883E+03  0.83036258185E+03  0.13219986111E+04  0.10100000352E+00 0.  1.
       -3    1    3    3    0  502 -0.36246908212E+03  0.96270164883E+03 -0.97590408488E+03  0.14179446721E+04  0.10100000352E+00 0. -1.
</event>
<event>
 5   0  0.9260173E-06  0.2814015E+04  0.7818609E-02  0.8298930E-01
        2   -1    0    0  501    0  0.00000000000E+00  0.00000000000E+00  0.22055920493E+04  0.22055920493E+04  0.25500000920E-02 0. -1.
       -2   -1    0    0    0  501  0.00000000000E+00  0.00000000000E+00 -0.89756887563E+03  0.89756887564E+03  0.25500000920E-02 0.  1.
    10030    2    1    2    0    0  0.00000000000E+00  0.00000000000E+00  0.13080231737E+04  0.31031609250E+04  0.28140154767E+04 0.  0.
        1    1    3    3  502    0  0.12745511313E+04 -0.37782952203E+03  0.14574577925E+03  0.13373397348E+04  0.50400001928E-02 0.  1.
       -1    1    3    3    0  502 -0.12745511313E+04  0.37782952203E+03  0.11622773945E+04  0.17658211902E+04  0.50400001928E-02 0. -1.
</event>
<event>
 5   0  0.3600963E-06  0.2785367E+04  0.7818609E-02  0.8307826E-01
       -1   -1    0    0    0  501  0.00000000000E+00  0.00000000000E+00  0.92895024652E+03  0.92895024654E+03  0.50400001928E-02 0.  1.
        1   -1    0    0  501    0  0.00000000000E+00  0.00000000000E+00 -0.20879136778E+04  0.20879136778E+04  0.50400001928E-02 0. -1.
    10030    2    1    2    0    0  0.00000000000E+00  0.00000000000E+00 -0.11589634312E+04  0.30168639243E+04  0.27853674269E+04 0.  0.
        5    1    3    3  502    0 -0.54729645760E+03  0.10323565465E+04 -0.14002576851E+04  0.18237426151E+04  0.46999998093E+01 0. -1.
       -5    1    3    3    0  502  0.54729645760E+03 -0.10323565465E+04  0.24129425383E+03  0.11931213092E+04  0.46999998093E+01 0.  1.
</event>
<event>
 5   0  0.3371603E-06  0.2789178E+04  0.7818609E-02  0.8306636E-01
        1   -1    0    0  501    0  0.00000000000E+00  0.00000000000E+00  0.10218123472E+04  0.10218123473E+04  0.50400001928E-02 0.  1.
       -1   -1    0    0    0  501  0.00000000000E+00  0.00000000000E+00 -0.19033618562E+04  0.19033618562E+04  0.50400001928E-02 0. -1.
    10030    2    1    2    0    0  0.00000000000E+00  0.00000000000E+00 -0.88154950897E+03  0.29251742035E+04  0.27891781198E+04 0.  0.
        1    1    3    3  502    0  0.39957620548E+03  0.80603442232E+03  0.67679342802E+03  0.11257894911E+04  0.50400001928E-02 0. -1.
       -1    1    3    3    0  502 -0.39957620548E+03 -0.80603442232E+03 -0.15583429370E+04  0.17993847124E+04  0.50400001928E-02 0.  1.
</event>
<event>
 5   0  0.9342133E-06  0.2794217E+04  0.7818609E-02  0.8305066E-01
        2   -1    0    0  501    0  0.00000000000E+00  0.00000000000E+00  0.17821338306E+04  0.17821338306E+04  0.25500000920E-02 0.  1.
       -2   -1    0    0    0  501  0.00000000000E+00  0.00000000000E+00 -0.10952667569E+04  0.10952667569E+04  0.25500000920E-02 0. -1.
    10030    2    1    2    0    0  0.00000000000E+00  0.00000000000E+00  0.68686707373E+03  0.28774005875E+04  0.27942168427E+04 0.  0.
        2    1    3    3  502    0 -0.88054793550E+03 -0.96193830823E+03  0.85957533005E+03  0.15619089998E+04  0.25500000920E-02 0.  1.
       -2    1    3    3    0  502  0.88054793550E+03  0.96193830823E+03 -0.17270825632E+03  0.13154915877E+04  0.25500000920E-02 0. -1.
</event>
<event>
 5   0  0.3397882E-06  0.2885739E+04  0.7818609E-02  0.8277133E-01
       -1   -1    0    0    0  501  0.00000000000E+00  0.00000000000E+00  0.91230970668E+03  0.91230970669E+03  0.50400001928E-02 0. -1.
        1   -1    0    0  501    0  0.00000000000E+00  0.00000000000E+00 -0.22819796996E+04  0.22819796996E+04  0.50400001928E-02 0.  1.
    10030    2    1    2    0    0  0.00000000000E+00  0.00000000000E+00 -0.13696699929E+04  0.31942894063E+04  0.28857388866E+04 0.  0.
        2    1    3    3  502    0  0.10500601586E+04 -0.70446367238E+03  0.84437803436E+02  0.12672904738E+04  0.25500000920E-02 0. -1.
       -2    1    3    3    0  502 -0.10500601586E+04  0.70446367238E+03 -0.14541077963E+04  0.19269989325E+04  0.25500000920E-02 0.  1.
</event>
<event>
 5   0  0.9065579E-06  0.2821992E+04  0.7818609E-02  0.8296473E-01
       -2   -1    0    0    0  501  0.00000000000E+00  0.00000000000E+00  0.22290036193E+04  0.22290036193E+04  0.25500000920E-02 0.  1.
        2   -1    0    0  501    0  0.00000000000E+00  0.00000000000E+00 -0.89318347425E+03  0.89318347426E+03  0.25500000920E-02 0. -1.
    10030    2    1    2    0    0  0.00000000000E+00  0.00000000000E+00  0.13358201450E+04  0.31221870935E+04  0.28219916349E+04 0.  0.
        3    1    3    3  502    0  0.94578765986E+03 -0.47767437622E+03 -0.36299485402E+03  0.11200233843E+04  0.10100000352E+00 0. -1.
       -3    1    3    3    0  502 -0.94578765986E+03  0.47767437622E+03  0.16988149990E+04  0.20021637092E+04  0.10100000352E+00 0.  1.
</event>
<event>
 5   0  0.9252359E-06  0.2858635E+04  0.7818609E-02  0.8285292E-01
        2   -1    0    0  501    0  0.00000000000E+00  0.00000000000E+00  0.14053429765E+04  0.14053429765E+04  0.25500000920E-02 0.  1.
       -2   -1    0    0    0  501  0.00000000000E+00  0.00000000000E+00 -0.14537007762E+04  0.14537007762E+04  0.25500000920E-02 0. -1.
    10030    2    1    2    0    0  0.00000000000E+00  0.00000000000E+00 -0.48357799676E+02  0.28590437528E+04  0.28586347621E+04 0.  0.
        5    1    3    3  502    0  0.11170566336E+03  0.14088745331E+04 -0.23756471696E+03  0.14331310791E+04  0.46999998093E+01 0. -1.
       -5    1    3    3    0  502 -0.11170566336E+03 -0.14088745331E+04  0.18920691728E+03  0.14259126736E+04  0.46999998093E+01 0.  1.
</event>
<event>
 5   0  0.3600963E-06  0.2793628E+04  0.7818609E-02  0.8305249E-01
        1   -1    0    0  501    0  0.00000000000E+00  0.00000000000E+00  0.32511946318E+04  0.32511946318E+04  0.50400001928E-02 0. -1.
       -1   -1    0    0    0  501  0.00000000000E+00  0.00000000000E+00 -0.60011450472E+03  0.60011450474E+03  0.50400001928E-02 0.  1.
    10030    2    1    2    0    0  0.00000000000E+00  0.00000000000E+00  0.26510801271E+04  0.38513091366E+04  0.27936277893E+04 0.  0.
        5    1    3    3  502    0  0.70167516155E+03 -0.59860455633E+03  0.27716904403E+04  0.29211240018E+04  0.46999998093E+01 0. -1.
       -5    1    3    3    0  502 -0.70167516155E+03  0.59860455633E+03 -0.12061031322E+03  0.93018513472E+03  0.46999998093E+01 0.  1.
</event>
<event>
 5   0  0.3600963E-06  0.2770086E+04  0.7818609E-02  0.8312616E-01
        1   -1    0    0  501    0  0.00000000000E+00  0.00000000000E+00  0.17301889429E+04  0.17301889429E+04  0.50400001928E-02 0. -1.
       -1   -1    0    0    0  501  0.00000000000E+00  0.00000000000E+00 -0.11087484286E+04  0.11087484286E+04  0.50400001928E-02 0.  1.
    10030    2    1    2    0    0  0.00000000000E+00  0.00000000000E+00  0.62144051428E+03  0.28389373715E+04  0.27700861153E+04 0.  0.
        5    1    3    3  502    0 -0.37767216016E+03 -0.12957389462E+04 -0.80517539060E+01  0.13496898155E+04  0.46999998093E+01 0.  1.
       -5    1    3    3    0  502  0.37767216016E+03  0.12957389462E+04  0.62949226818E+03  0.14892475560E+04  0.46999998093E+01 0. -1.
</event>
<event>
 5   0  0.9260173E-06  0.2812678E+04  0.7818609E-02  0.8299343E-01
       -2   -1    0    0    0  501  0.00000000000E+00  0.00000000000E+00  0.10135106438E+04  0.10135106438E+04  0.25500000920E-02 0. -1.
        2   -1    0    0  501    0  0.00000000000E+00  0.00000000000E+00 -0.19514239188E+04  0.19514239188E+04  0.25500000920E-02 0.  1.
    10030    2    1    2    0    0  0.00000000000E+00  0.00000000000E+00 -0.93791327507E+03  0.29649345626E+04  0.28126776653E+04 0.  0.
        1    1    3    3  502    0 -0.15377158109E+02 -0.93974103566E+03  0.63382868257E+03  0.11336174266E+04  0.50400001928E-02 0. -1.
       -1    1    3    3    0  502  0.15377158109E+02  0.93974103566E+03 -0.15717419576E+04  0.18313171360E+04  0.50400001928E-02 0.  1.
</event>
<event>
 5   0  0.9426937E-06  0.2857848E+04  0.7818609E-02  0.8285530E-01
       -2   -1    0    0    0  501  0.00000000000E+00  0.00000000000E+00  0.87354008306E+03  0.87354008307E+03  0.25500000920E-02 0. -1.
        2   -1    0    0  501    0  0.00000000000E+00  0.00000000000E+00 -0.23374132362E+04  0.23374132362E+04  0.25500000920E-02 0.  1.
    10030    2    1    2    0    0  0.00000000000E+00  0.00000000000E+00 -0.14638731532E+04  0.32109533193E+04  0.28578482483E+04 0.  0.
        4    1    3    3  502    0 -0.38895591488E+02 -0.13911510264E+04 -0.10960251453E+04  0.17714645854E+04  0.12699999809E+01 0.  1.
       -4    1    3    3    0  502  0.38895591488E+02  0.13911510264E+04 -0.36784800788E+03  0.14394887339E+04  0.12699999809E+01 0. -1.
</event>
<event>
 5   0  0.3397882E-06  0.2799109E+04  0.7818609E-02  0.8303545E-01
        1   -1    0    0  501    0  0.00000000000E+00  0.00000000000E+00  0.14860988224E+04  0.14860988224E+04  0.50400001928E-02 0.  1.
       -1   -1    0    0    0  501  0.00000000000E+00  0.00000000000E+00 -0.13180503414E+04  0.13180503414E+04  0.50400001928E-02 0. -1.
    10030    2    1    2    0    0  0.00000000000E+00  0.00000000000E+00  0.16804848096E+03  0.28041491639E+04  0.27991091871E+04 0.  0.
        2    1    3    3  502    0 -0.91373473464E+03 -0.10071225102E+04  0.41559774567E+03  0.14219452880E+04  0.25500000920E-02 0.  1.
       -2    1    3    3    0  502  0.91373473464E+03  0.10071225102E+04 -0.24754926470E+03  0.13822038758E+04  0.25500000920E-02 0. -1.
</event>
<event>
 5   0  0.3357244E-06  0.2778985E+04  0.7818609E-02  0.8309822E-01
       -1   -1    0    0    0  501  0.00000000000E+00  0.00000000000E+00  0.81876845734E+03  0.81876845735E+03  0.50400001928E-02 0.  1.
        1   -1    0    0  501    0  0.00000000000E+00  0.00000000000E+00 -0.23580410673E+04  0.23580410674E+04  0.50400001928E-02 0. -1.
    10030    2    1    2    0    0  0.00000000000E+00  0.00000000000E+00 -0.15392726100E+04  0.31768095247E+04  0.27789851724E+04 0.  0.
        4    1    3    3  502    0 -0.91723153694E+03 -0.10088857618E+04 -0.10753609316E+04  0.17365387755E+04  0.12699999809E+01 0. -1.
       -4    1    3    3    0  502  0.91723153694E+03  0.10088857618E+04 -0.46391167842E+03  0.14402707492E+04  0.12699999809E+01 0.  1.
</event>
<event>
 5   0  0.9252359E-06  0.2806799E+04  0.7818609E-02  0.8301161E-01
       -2   -1    0    0    0  501  0.00000000000E+00  0.00000000000E+00  0.99816291301E+03  0.99816291301E+03  0.25500000920E-02 0.  1.
        2   -1    0    0  501    0  0.00000000000E+00  0.00000000000E+00 -0.19731543356E+04  0.19731543356E+04  0.25500000920E-02 0. -1.
    10030    2    1    2    0    0  0.00000000000E+00  0.00000000000E+00 -0.97499142255E+03  0.29713172486E+04  0.28067985175E+04 0.  0.
        5    1    3    3  502    0 -0.31558590722E+03  0.44652855273E+03  0.88075063845E+03  0.10366899201E+04  0.46999998093E+01 0.  1.
       -5    1    3    3    0  502  0.31558590722E+03 -0.44652855273E+03 -0.18557420610E+04  0.19346273285E+04  0.46999998093E+01 0. -1.
</event>
<event>
 5   0  0.3371603E-06  0.2810659E+04  0.7818609E-02  0.8299967E-01
        1   -1    0    0  501    0  0.00000000000E+00  0.00000000000E+00  0.28252407370E+04  0.28252407371E+04  0.50400001928E-02 0.  1.
       -1   -1    0    0    0  501  0.00000000000E+00  0.00000000000E+00 -0.69903831845E+03  0.69903831847E+03  0.50400001928E-02 0. -1.
    10030    2    1    2    0    0  0.00000000000E+00  0.00000000000E+00  0.21262024186E+04  0.35242790555E+04  0.28106593775E+04 0.  0.
        1    1    3    3  502    0 -0.57390225148E+03 -0.54268170134E+03 -0.39438111826E+03  0.88283842785E+03  0.50400001928E-02 0. -1.
       -1    1    3    3    0  502  0.57390225148E+03  0.54268170134E+03  0.25205835369E+04  0.26414406277E+04  0.50400001928E-02 0.  1.
</event>
<event>
 5   0  0.9252359E-06  0.2783338E+04  0.7818609E-02  0.8308460E-01
       -2   -1    0    0    0  501  0.00000000000E+00  0.00000000000E+00  0.95529799101E+03  0.95529799102E+03  0.25500000920E-02 0. -1.
        2   -1    0    0  501    0  0.00000000000E+00  0.00000000000E+00 -0.20273708465E+04  0.20273708465E+04  0.25500000920E-02 0.  1.
    10030    2    1    2    0    0  0.00000000000E+00  0.00000000000E+00 -0.10720728555E+04  0.29826688375E+04  0.27833384966E+04 0.  0.
        5    1    3    3  502    0  0.91843372084E+03  0.53338222864E+03 -0.14997186211E+04  0.18377146497E+04  0.46999998093E+01 0.  1.
       -5    1    3    3    0  502 -0.91843372084E+03 -0.53338222864E+03  0.42764576557E+03  0.11449541878E+04  0.46999998093E+01 0. -1.
</event>
<event>
 5   0  0.3397882E-06  0.2794612E+04  0.7818609E-02  0.8304943E-01
       -1   -1    0    0    0  501  0.00000000000E+00  0.00000000000E+00  0.19418083285E+04  0.19418083285E+04  0.50400001928E-02 0.  1.
        1   -1    0    0  501    0  0.00000000000E+00  0.00000000000E+00 -0.10054872624E+04  0.10054872624E+04  0.50400001928E-02 0. -1.
    10030    2    1    2    0    0  0.00000000000E+00  0.00000000000E+00  0.93632106608E+03  0.29472955908E+04  0.27946116297E+04 0.  0.
        2    1    3    3  502    0 -0.78396439550E+03 -0.11155337757E+03 -0.74600769127E+03  0.10879208633E+04  0.25500000920E-02 0. -1.
       -2    1    3    3    0  502  0.78396439550E+03  0.11155337757E+03  0.16823287573E+04  0.18593747275E+04  0.25500000920E-02 0.  1.
</event>
<event>
 5   0  0.9260173E-06  0.2771559E+04  0.7818609E-02  0.8312153E-01
        2   -1    0    0  501    0  0.00000000000E+00  0.00000000000E+00  0.14213691468E+04  0.14213691468E+04  0.25500000920E-02 0.  1.
       -2   -1    0    0    0  501  0.00000000000E+00  0.00000000000E+00 -0.13510805733E+04  0.13510805733E+04  0.25500000920E-02 0. -1.
    10030    2    1    2    0    0  0.00000000000E+00  0.00000000000E+00  0.70288573550E+02  0.27724497201E+04  0.27715585808E+04 0.  0.
        1    1    3    3  502    0 -0.11888346959E+04 -0.13940417766E+03  0.73366873443E+03  0.14039342117E+04  0.50400001928E-02 0.  1.
       -1    1    3    3    0  502  0.11888346959E+04  0.13940417766E+03 -0.66338016088E+03  0.13685155084E+04  0.50400001928E-02 0. -1.
</event>
<event>
 5   0  0.9342133E-06  0.2795589E+04  0.7818609E-02  0.8304639E-01
       -2   -1    0    0    0  501  0.00000000000E+00  0.00000000000E+00  0.17484500887E+04  0.17484500887E+04  0.25500000920E-02 0.  1.
        2   -1    0    0  501    0  0.00000000000E+00  0.00000000000E+00 -0.11174636160E+04  0.11174636160E+04  0.25500000920E-02 0. -1.
    10030    2    1    2    0    0  0.00000000000E+00  0.00000000000E+00  0.63098647268E+03  0.28659137048E+04  0.27955889244E+04 0.  0.
        2    1    3    3  502    0  0.86215359712E+02  0.45082212482E+03 -0.10380055977E+04  0.11349578395E+04  0.25500000920E-02 0. -1.
       -2    1    3    3    0  502 -0.86215359712E+02 -0.45082212482E+03  0.16689920704E+04  0.17309558653E+04  0.25500000920E-02 0.  1.
</event>
<event>
 5   0  0.3357244E-06  0.2800910E+04  0.7818609E-02  0.8302986E-01
        1   -1    0    0  501    0  0.00000000000E+00  0.00000000000E+00  0.15320877695E+04  0.15320877695E+04  0.50400001928E-02 0. -1.
       -1   -1    0    0    0  501  0.00000000000E+00  0.00000000000E+00 -0.12801314550E+04  0.12801314551E+04  0.50400001928E-02 0.  1.
    10030    2    1    2    0    0  0.00000000000E+00  0.00000000000E+00  0.25195631447E+03  0.28122192246E+04  0.28009096706E+04 0.  0.
        4    1    3    3  502    0 -0.10825050027E+04 -0.32176762664E+03  0.95752555235E+03  0.14806107803E+04  0.12699999809E+01 0. -1.
       -4    1    3    3    0  502  0.10825050027E+04  0.32176762664E+03 -0.70556923788E+03  0.13316084443E+04  0.12699999809E+01 0.  1.
</event>
<event>
 5   0  0.9426937E-06  0.2787434E+04  0.7818609E-02  0.8307180E-01
        2   -1    0    0  501    0  0.00000000000E+00  0.00000000000E+00  0.15125137214E+04  0.15125137214E+04  0.25500000920E-02 0.  1.
       -2   -1    0    0    0  501  0.00000000000E+00  0.00000000000E+00 -0.12842504999E+04  0.12842504999E+04  0.25500000920E-02 0. -1.
    10030    2    1    2    0    0  0.00000000000E+00  0.00000000000E+00  0.22826322147E+03  0.27967642213E+04  0.27874335887E+04 0.  0.
        4    1    3    3  502    0  0.74985394350E+03  0.59319881519E+03 -0.90330376673E+03  0.13153421908E+04  0.12699999809E+01 0. -1.
       -4    1    3    3    0  502 -0.74985394350E+03 -0.59319881519E+03  0.11315669882E+04  0.14814220306E+04  0.12699999809E+01 0.  1.
</event>
<event>
 5   0  0.9252359E-06  0.2812752E+04  0.7818609E-02  0.8299320E-01
       -2   -1    0    0    0  501  0.00000000000E+00  0.00000000000E+00  0.12129011088E+04  0.12129011088E+04  0.25500000920E-02 0. -1.
        2   -1    0    0  501    0  0.00000000000E+00  0.00000000000E+00 -0.16307131488E+04  0.16307131488E+04  0.25500000920E-02 0.  1.
    10030    2    1    2    0    0  0.00000000000E+00  0.00000000000E+00 -0.41781204002E+03  0.28436142577E+04  0.28127522368E+04 0.  0.
        5    1    3    3  502    0  0.81068835539E+03 -0.34303263737E+03 -0.13177469685E+04  0.15847290503E+04  0.46999998093E+01 0.  1.
       -5    1    3    3    0  502 -0.81068835539E+03  0.34303263737E+03  0.89993492846E+03  0.12588852074E+04  0.46999998093E+01 0. -1.
</event>
<event>
 5   0  0.3371603E-06  0.2257485E+04  0.7818609E-02  0.8494875E-01
       -1   -1    0    0    0  501  0.00000000000E+00  0.00000000000E+00  0.10048316663E+04  0.10048316663E+04  0.50400001928E-02 0. -1.
        1   -1    0    0  501    0  0.00000000000E+00  0.00000000000E+00 -0.12679333268E+04  0.12679333268E+04  0.50400001928E-02 0.  1.
    10030    2    1    2    0    0  0.00000000000E+00  0.00000000000E+00 -0.26310166045E+03  0.22727649931E+04  0.22574849346E+04 0.  0.
        1    1    3    3  502    0 -0.22208979670E+03  0.41395093791E+03 -0.11648409266E+04  0.12559990609E+04  0.50400001928E-02 0.  1.
       -1    1    3    3    0  502  0.22208979670E+03 -0.41395093791E+03  0.90173926610E+03  0.10167659322E+04  0.50400001928E-02 0. -1.
</event>
<event>
 5   0  0.9426937E-06  0.2286893E+04  0.7818609E-02  0.8483107E-01
        2   -1    0    0  501    0  0.00000000000E+00  0.00000000000E+00  0.13062053250E+04  0.13062053250E+04  0.25500000920E-02 0. -1.
       -2   -1    0    0    0  501  0.00000000000E+00  0.00000000000E+00 -0.10009678158E+04  0.10009678158E+04  0.25500000920E-02 0.  1.
    10030    2    1    2    0    0  0.00000000000E+00  0.00000000000E+00  0.30523750913E+03  0.23071731408E+04  0.22868926439E+04 0.  0.
        4    1    3    3  502    0  0.93771695738E+03 -0.12075321882E+03 -0.49618108389E+03  0.10677507728E+04  0.12699999809E+01 0.  1.
       -4    1    3    3    0  502 -0.93771695738E+03  0.12075321882E+03  0.80141859302E+03  0.12394223679E+04  0.12699999809E+01 0. -1.
</event>
<event>
 5   0  0.3438130E-06  0.2801242E+04  0.7818609E-02  0.8302883E-01
        1   -1    0    0  501    0  0.00000000000E+00  0.00000000000E+00  0.11931678898E+04  0.11931678898E+04  0.50400001928E-02 0.  1.
       -1   -1    0    0    0  501  0.00000000000E+00  0.00000000000E+00 -0.16441435012E+04  0.16441435012E+04  0.50400001928E-02 0. -1.
    10030    2    1    2    0    0  0.00000000000E+00  0.00000000000E+00 -0.45097561132E+03  0.28373113910E+04  0.28012420330E+04 0.  0.
        3    1    3    3  502    0 -0.70809069304E+03  0.26965217531E+02  0.99821574676E+03  0.12241545000E+04  0.10100000352E+00 0.  1.
       -3    1    3    3    0  502  0.70809069304E+03 -0.26965217531E+02 -0.14491913581E+04  0.16131568910E+04  0.10100000352E+00 0. -1.
</event>
<event>
 5   0  0.3397882E-06  0.2825894E+04  0.7818609E-02  0.8295274E-01
        1   -1    0    0  501    0  0.00000000000E+00  0.00000000000E+00  0.11403389462E+04  0.11403389462E+04  0.50400001928E-02 0.  1.
       -1   -1    0    0    0  501  0.00000000000E+00  0.00000000000E+00 -0.17507244010E+04  0.17507244010E+04  0.50400001928E-02 0. -1.
    10030    2    1    2    0    0  0.00000000000E+00  0.00000000000E+00 -0.61038545483E+03  0.28910633473E+04  0.28258939956E+04 0.  0.
        2    1    3    3  502    0 -0.11755351575E+04 -0.48741532135E+03  0.32293922017E+03  0.13129152075E+04  0.25500000920E-02 0.  1.
       -2    1    3    3    0  502  0.11755351575E+04  0.48741532135E+03 -0.93332467500E+03  0.15781481398E+04  0.25500000920E-02 0. -1.
</event>
<event>
 5   0  0.3397882E-06  0.2797161E+04  0.7818609E-02  0.8304150E-01
       -1   -1    0    0    0  501  0.00000000000E+00  0.00000000000E+00  0.90116193611E+03  0.90116193613E+03  0.50400001928E-02 0. -1.
        1   -1    0    0  501    0  0.00000000000E+00  0.00000000000E+00 -0.21705615296E+04  0.21705615296E+04  0.50400001928E-02 0.  1.
    10030    2    1    2    0    0  0.00000000000E+00  0.00000000000E+00 -0.12693995935E+04  0.30717234657E+04  0.27971610111E+04 0.  0.
        2    1    3    3  502    0 -0.97550779552E+03  0.81020982506E+03  0.13094030999E+02  0.12681588518E+04  0.25500000920E-02 0. -1.
       -2    1    3    3    0  502  0.97550779552E+03 -0.81020982506E+03 -0.12824936245E+04  0.18035646139E+04  0.25500000920E-02 0.  1.
</event>
<event>
 5   0  0.3371603E-06  0.2799045E+04  0.7818609E-02  0.8303565E-01
       -1   -1    0    0    0  501  0.00000000000E+00  0.00000000000E+00  0.13467314513E+04  0.13467314514E+04  0.50400001928E-02 0. -1.
        1   -1    0    0  501    0  0.00000000000E+00  0.00000000000E+00 -0.14543828361E+04  0.14543828361E+04  0.50400001928E-02 0.  1.
    10030    2    1    2    0    0  0.00000000000E+00  0.00000000000E+00 -0.10765138479E+03  0.28011142875E+04  0.27990449141E+04 0.  0.
        1    1    3    3  502    0  0.13656661208E+03  0.55236876227E+03 -0.13334036399E+04  0.14497334086E+04  0.50400001928E-02 0.  1.
       -1    1    3    3    0  502 -0.13656661208E+03 -0.55236876227E+03  0.12257522551E+04  0.13513808789E+04  0.50400001928E-02 0. -1.
</event>
<event>
 5   0  0.3600963E-06  0.2794778E+04  0.7818609E-02  0.8304892E-01
        1   -1    0    0  501    0  0.00000000000E+00  0.00000000000E+00  0.20830585995E+04  0.20830585995E+04  0.50400001928E-02 0. -1.
       -1   -1    0    0    0  501  0.00000000000E+00  0.00000000000E+00 -0.93741749061E+03  0.93741749062E+03  0.50400001928E-02 0.  1.
    10030    2    1    2    0    0  0.00000000000E+00  0.00000000000E+00  0.11456411089E+04  0.30204760901E+04  0.27947776764E+04 0.  0.
        5    1    3    3  502    0  0.10230140069E+04 -0.34427198462E+03 -0.38631271338E+03  0.11464468851E+04  0.46999998093E+01 0.  1.
       -5    1    3    3    0  502 -0.10230140069E+04  0.34427198462E+03  0.15319538222E+04  0.18740292050E+04  0.46999998093E+01 0. -1.
</event>
<event>
 5   0  0.3397882E-06  0.2800726E+04  0.7818609E-02  0.8303043E-01
        1   -1    0    0  501    0  0.00000000000E+00  0.00000000000E+00  0.30592682907E+04  0.30592682907E+04  0.50400001928E-02 0. -1.
       -1   -1    0    0    0  501  0.00000000000E+00  0.00000000000E+00 -0.64100850887E+03  0.64100850889E+03  0.50400001928E-02 0.  1.
    10030    2    1    2    0    0  0.00000000000E+00  0.00000000000E+00  0.24182597818E+04  0.37002767996E+04  0.28007263382E+04 0.  0.
        2    1    3    3  502    0 -0.27780359491E+03  0.10026535269E+04 -0.29214265330E+02  0.10408373579E+04  0.25500000920E-02 0.  1.
       -2    1    3    3    0  502  0.27780359491E+03 -0.10026535269E+04  0.24474740472E+04  0.26594394417E+04  0.25500000920E-02 0. -1.
</event>
<event>
 5   0  0.9426937E-06  0.2797117E+04  0.7818609E-02  0.8304164E-01
        2   -1    0    0  501    0  0.00000000000E+00  0.00000000000E+00  0.81756311960E+03  0.81756311961E+03  0.25500000920E-02 0. -1.
       -2   -1    0    0    0  501  0.00000000000E+00  0.00000000000E+00 -0.23924346738E+04  0.23924346738E+04  0.25500000920E-02 0.  1.
    10030    2    1    2    0    0  0.00000000000E+00  0.00000000000E+00 -0.15748715542E+04  0.32099977934E+04  0.27971173414E+04 0.  0.
        4    1    3    3  502    0  0.29315559981E+03 -0.31517454006E+03  0.73965642587E+03  0.85578527543E+03  0.12699999809E+01 0. -1.
       -4    1    3    3    0  502 -0.29315559981E+03  0.31517454006E+03 -0.23145279801E+04  0.23542125180E+04  0.12699999809E+01 0.  1.
</event>
<event>
 5   0  0.9426937E-06  0.2818513E+04  0.7818609E-02  0.8297544E-01
       -2   -1    0    0    0  501  0.00000000000E+00  0.00000000000E+00  0.10427051205E+04  0.10427051205E+04  0.25500000920E-02 0.  1.
        2   -1    0    0  501    0  0.00000000000E+00  0.00000000000E+00 -0.19046655757E+04  0.19046655757E+04  0.25500000920E-02 0. -1.
    10030    2    1    2    0    0  0.00000000000E+00  0.00000000000E+00 -0.86196045524E+03  0.29473706961E+04  0.28185134724E+04 0.  0.
        4    1    3    3  502    0  0.11078970311E+04  0.85441057453E+03 -0.60767155177E+03  0.15253588394E+04  0.12699999809E+01 0. -1.
       -4    1    3    3    0  502 -0.11078970311E+04 -0.85441057453E+03 -0.25428890347E+03  0.14220118567E+04  0.12699999809E+01 0.  1.
</event>
<event>
 5   0  0.9260173E-06  0.2808033E+04  0.7818609E-02  0.8300779E-01
        2   -1    0    0  501    0  0.00000000000E+00  0.00000000000E+00  0.18874606527E+04  0.18874606527E+04  0.25500000920E-02 0.  1.
       -2   -1    0    0    0  501  0.00000000000E+00  0.00000000000E+00 -0.10443990801E+04  0.10443990801E+04  0.25500000920E-02 0. -1.
    10030    2    1    2    0    0  0.00000000000E+00  0.00000000000E+00  0.84306157259E+03  0.29318597329E+04  0.28080328841E+04 0.  0.
        1    1    3    3  502    0  0.11849355163E+04  0.19373400227E+03  0.11813992315E+04  0.16844314131E+04  0.50400001928E-02 0.  1.
       -1    1    3    3    0  502 -0.11849355163E+04 -0.19373400227E+03 -0.33833765887E+03  0.12474283197E+04  0.50400001928E-02 0. -1.
</event>
<event>
 5   0  0.3357244E-06  0.2794147E+04  0.7818609E-02  0.8305088E-01
       -1   -1    0    0    0  501  0.00000000000E+00  0.00000000000E+00  0.12029670918E+04  0.12029670919E+04  0.50400001928E-02 0. -1.
        1   -1    0    0  501    0  0.00000000000E+00  0.00000000000E+00 -0.16225001618E+04  0.16225001619E+04  0.50400001928E-02 0.  1.
    10030    2    1    2    0    0  0.00000000000E+00  0.00000000000E+00 -0.41953307001E+03  0.28254672537E+04  0.27941469548E+04 0.  0.
        4    1    3    3  502    0  0.10222456435E+04 -0.79247770679E+03 -0.74370572003E+03  0.14920143707E+04  0.12699999809E+01 0.  1.
       -4    1    3    3    0  502 -0.10222456435E+04  0.79247770679E+03  0.32417265003E+03  0.13334528830E+04  0.12699999809E+01 0. -1.
</event>
<event>
 5   0  0.3357244E-06  0.2780954E+04  0.7818609E-02  0.8309206E-01
       -1   -1    0    0    0  501  0.00000000000E+00  0.00000000000E+00  0.90514670793E+03  0.90514670794E+03  0.50400001928E-02 0. -1.
        1   -1    0    0  501    0  0.00000000000E+00  0.00000000000E+00 -0.21360367469E+04  0.21360367469E+04  0.50400001928E-02 0.  1.
    10030    2    1    2    0    0  0.00000000000E+00  0.00000000000E+00 -0.12308900390E+04  0.30411834549E+04  0.27809542460E+04 0.  0.
        4    1    3    3  502    0 -0.10338764681E+04  0.83225432493E+03 -0.16206965722E+03  0.13370923675E+04  0.12699999809E+01 0. -1.
       -4    1    3    3    0  502  0.10338764681E+04 -0.83225432493E+03 -0.10688203818E+04  0.17040910874E+04  0.12699999809E+01 0.  1.
</event>
<event>
 5   0  0.9252359E-06  0.2311103E+04  0.7818609E-02  0.8473556E-01
        2   -1    0    0  501    0  0.00000000000E+00  0.00000000000E+00  0.17147036853E+04  0.17147036853E+04  0.25500000920E-02 0. -1.
       -2   -1    0    0    0  501  0.00000000000E+00  0.00000000000E+00 -0.77873445140E+03  0.77873445140E+03  0.25500000920E-02 0.  1.
    10030    2    1    2    0    0  0.00000000000E+00  0.00000000000E+00  0.93596923387E+03  0.24934381367E+04  0.23111026231E+04 0.  0.
        5    1    3    3  502    0  0.89809245660E+03  0.70935061071E+03  0.64036629946E+03  0.13114264894E+04  0.46999998093E+01 0.  1.
       -5    1    3    3    0  502 -0.89809245660E+03 -0.70935061071E+03  0.29560293440E+03  0.11820116473E+04  0.46999998093E+01 0. -1.
</event>
<event>
 5   0  0.3600963E-06  0.2794426E+04  0.7818609E-02  0.8305001E-01
        1   -1    0    0  501    0  0.00000000000E+00  0.00000000000E+00  0.12915685751E+04  0.12915685751E+04  0.50400001928E-02 0. -1.
       -1   -1    0    0    0  501  0.00000000000E+00  0.00000000000E+00 -0.15114988078E+04  0.15114988078E+04  0.50400001928E-02 0.  1.
    10030    2    1    2    0    0  0.00000000000E+00  0.00000000000E+00 -0.21993023266E+03  0.28030673829E+04  0.27944261390E+04 0.  0.
        5    1    3    3  502    0 -0.14120558174E+03 -0.62596192757E+03 -0.13549376240E+04  0.14992149299E+04  0.46999998093E+01 0.  1.
       -5    1    3    3    0  502  0.14120558174E+03  0.62596192757E+03  0.11350073913E+04  0.13038524531E+04  0.46999998093E+01 0. -1.
</event>
<event>
 5   0  0.3006875E-06  0.2798078E+04  0.7818609E-02  0.8303865E-01
        3   -1    0    0  501    0  0.00000000000E+00  0.00000000000E+00  0.69791589621E+03  0.69791590352E+03  0.10100000352E+00 0. -1.
       -3   -1    0    0    0  501  0.00000000000E+00  0.00000000000E+00 -0.28045077332E+04  0.28045077350E+04  0.10100000352E+00 0.  1.
    10030    2    1    2    0    0  0.00000000000E+00  0.00000000000E+00 -0.21065918370E+04  0.35024236385E+04  0.27980783006E+04 0.  0.
        4    1    3    3  502    0 -0.74224417035E+03  0.11632923435E+04 -0.76476470326E+03  0.15776698479E+04  0.12699999809E+01 0.  1.
       -4    1    3    3    0  502  0.74224417035E+03 -0.11632923435E+04 -0.13418271337E+04  0.19247537906E+04  0.12699999809E+01 0. -1.
</event>
<event>
 5   0  0.9342133E-06  0.2825098E+04  0.7818609E-02  0.8295519E-01
       -2   -1    0    0    0  501  0.00000000000E+00  0.00000000000E+00  0.16505393058E+04  0.16505393058E+04  0.25500000920E-02 0.  1.
        2   -1    0    0  501    0  0.00000000000E+00  0.00000000000E+00 -0.12088740409E+04  0.12088740410E+04  0.25500000920E-02 0. -1.
    10030    2    1    2    0    0  0.00000000000E+00  0.00000000000E+00  0.44166526484E+03  0.28594133467E+04  0.28250976056E+04 0.  0.
        2    1    3    3  502    0 -0.10781997707E+04 -0.18609785242E+03 -0.68340986898E+03  0.12900372883E+04  0.25500000920E-02 0. -1.
       -2    1    3    3    0  502  0.10781997707E+04  0.18609785242E+03  0.11250751338E+04  0.15693760585E+04  0.25500000920E-02 0.  1.
</event>
<event>
 5   0  0.3438130E-06  0.2806142E+04  0.7818609E-02  0.8301364E-01
       -1   -1    0    0    0  501  0.00000000000E+00  0.00000000000E+00  0.75534107157E+03  0.75534107159E+03  0.50400001928E-02 0.  1.
        1   -1    0    0  501    0  0.00000000000E+00  0.00000000000E+00 -0.26062512324E+04  0.26062512324E+04  0.50400001928E-02 0. -1.
    10030    2    1    2    0    0  0.00000000000E+00  0.00000000000E+00 -0.18509101608E+04  0.33615923040E+04  0.28061422620E+04 0.  0.
        3    1    3    3  502    0  0.49059898206E+03 -0.97437112476E+03  0.13153482514E+03  0.10988120269E+04  0.10100000352E+00 0.  1.
       -3    1    3    3    0  502 -0.49059898206E+03  0.97437112476E+03 -0.19824449859E+04  0.22627802771E+04  0.10100000352E+00 0. -1.
</event>
<event>
 5   0  0.9065579E-06  0.2804088E+04  0.7818609E-02  0.8302000E-01
       -2   -1    0    0    0  501  0.00000000000E+00  0.00000000000E+00  0.16479194625E+04  0.16479194625E+04  0.25500000920E-02 0.  1.
        2   -1    0    0  501    0  0.00000000000E+00  0.00000000000E+00 -0.11928538590E+04  0.11928538590E+04  0.25500000920E-02 0. -1.
    10030    2    1    2    0    0  0.00000000000E+00  0.00000000000E+00  0.45506560349E+03  0.28407733215E+04  0.28040877948E+04 0.  0.
        3    1    3    3  502    0  0.78352264379E+03  0.57044945810E+03 -0.79883903346E+03  0.12559713887E+04  0.10100000352E+00 0. -1.
       -3    1    3    3    0  502 -0.78352264379E+03 -0.57044945810E+03  0.12539046369E+04  0.15848019328E+04  0.10100000352E+00 0.  1.
</event>
<event>
 5   0  0.9426937E-06  0.2778518E+04  0.7818609E-02  0.8309969E-01
        2   -1    0    0  501    0  0.00000000000E+00  0.00000000000E+00  0.89964579076E+03  0.89964579076E+03  0.25500000920E-02 0. -1.
       -2   -1    0    0    0  501  0.00000000000E+00  0.00000000000E+00 -0.21453345529E+04  0.21453345529E+04  0.25500000920E-02 0.  1.
    10030    2    1    2    0    0  0.00000000000E+00  0.00000000000E+00 -0.12456887621E+04  0.30449803436E+04  0.27785184543E+04 0.  0.
        4    1    3    3  502    0  0.17033335905E+03 -0.67948957114E+02  0.88632234066E+03  0.90509635864E+03  0.12699999809E+01 0. -1.
       -4    1    3    3    0  502 -0.17033335905E+03  0.67948957114E+02 -0.21320111028E+04  0.21398839850E+04  0.12699999809E+01 0.  1.
</event>
<event>
 5   0  0.9426937E-06  0.2805526E+04  0.7818609E-02  0.8301555E-01
       -2   -1    0    0    0  501  0.00000000000E+00  0.00000000000E+00  0.86292971854E+03  0.86292971854E+03  0.25500000920E-02 0.  1.
        2   -1    0    0  501    0  0.00000000000E+00  0.00000000000E+00 -0.22803060230E+04  0.22803060230E+04  0.25500000920E-02 0. -1.
    10030    2    1    2    0    0  0.00000000000E+00  0.00000000000E+00 -0.14173763044E+04  0.31432357415E+04  0.28055258577E+04 0.  0.
        4    1    3    3  502    0 -0.88069143329E+03  0.97535988291E+03 -0.12584682874E+04  0.18195297044E+04  0.12699999809E+01 0. -1.
       -4    1    3    3    0  502  0.88069143329E+03 -0.97535988291E+03 -0.15890801699E+03  0.13237060371E+04  0.12699999809E+01 0.  1.
</event>
<event>
 5   0  0.3357244E-06  0.2801241E+04  0.7818609E-02  0.8302883E-01
       -1   -1    0    0    0  501  0.00000000000E+00  0.00000000000E+00  0.11208275876E+04  0.11208275876E+04  0.50400001928E-02 0. -1.
        1   -1    0    0  501    0  0.00000000000E+00  0.00000000000E+00 -0.17502580129E+04  0.17502580129E+04  0.50400001928E-02 0.  1.
    10030    2    1    2    0    0  0.00000000000E+00  0.00000000000E+00 -0.62943042527E+03  0.28710856005E+04  0.28012407724E+04 0.  0.
        4    1    3    3  502    0  0.65510068946E+03  0.51474415212E+03  0.83924224367E+03  0.11825597710E+04  0.12699999809E+01 0. -1.
       -4    1    3    3    0  502 -0.65510068946E+03 -0.51474415212E+03 -0.14686726689E+04  0.16885258295E+04  0.12699999809E+01 0.  1.
</event>
<event>
 5   0  0.9260173E-06  0.2805255E+04  0.7818609E-02  0.8301639E-01
        2   -1    0    0  501    0  0.00000000000E+00  0.00000000000E+00  0.17159135678E+04  0.17159135678E+04  0.25500000920E-02 0. -1.
       -2   -1    0    0    0  501  0.00000000000E+00  0.00000000000E+00 -0.11465399804E+04  0.11465399804E+04  0.25500000920E-02 0.  1.
    10030    2    1    2    0    0  0.00000000000E+00  0.00000000000E+00  0.56937358742E+03  0.28624535482E+04  0.28052547181E+04 0.  0.
        1    1    3    3  502    0 -0.11925696420E+04  0.24758811733E+03 -0.42508315259E+03  0.12900457021E+04  0.50400001928E-02 0.  1.
       -1    1    3    3    0  502  0.11925696420E+04 -0.24758811733E+03  0.99445674002E+03  0.15724078461E+04  0.50400001928E-02 0. -1.
</event>
<event>
 5   0  0.3371603E-06  0.2784128E+04  0.7818609E-02  0.8308213E-01
       -1   -1    0    0    0  501  0.00000000000E+00  0.00000000000E+00  0.22783886017E+04  0.22783886017E+04  0.50400001928E-02 0.  1.
        1   -1    0    0  501    0  0.00000000000E+00  0.00000000000E+00 -0.85053173182E+03  0.85053173183E+03  0.50400001928E-02 0. -1.
    10030    2    1    2    0    0  0.00000000000E+00  0.00000000000E+00  0.14278568698E+04  0.31289203335E+04  0.27841277292E+04 0.  0.
        1    1    3    3  502    0  0.24246417081E+03  0.29041670662E+03  0.22195042160E+04  0.22515172002E+04  0.50400001928E-02 0.  1.
       -1    1    3    3    0  502 -0.24246417081E+03 -0.29041670662E+03 -0.79164734620E+03  0.87740313333E+03  0.50400001928E-02 0. -1.
</event>
<event>
 5   0  0.3600963E-06  0.2735082E+04  0.7818609E-02  0.8323711E-01
       -1   -1    0    0    0  501  0.00000000000E+00  0.00000000000E+00  0.16686958406E+04  0.16686958406E+04  0.50400001928E-02 0.  1.
        1   -1    0    0  501    0  0.00000000000E+00  0.00000000000E+00 -0.11207361806E+04  0.11207361806E+04  0.50400001928E-02 0. -1.
    10030    2    1    2    0    0  0.00000000000E+00  0.00000000000E+00  0.54795965992E+03  0.27894320212E+04  0.27350815732E+04 0.  0.
        5    1    3    3  502    0 -0.83247746442E+03 -0.19576896906E+03  0.13623321635E+04  0.16085133608E+04  0.46999998093E+01 0.  1.
       -5    1    3    3    0  502  0.83247746442E+03  0.19576896906E+03 -0.81437250358E+03  0.11809186605E+04  0.46999998093E+01 0. -1.
</event>
<event>
 5   0  0.9260173E-06  0.2811028E+04  0.7818609E-02  0.8299853E-01
       -2   -1    0    0    0  501  0.00000000000E+00  0.00000000000E+00  0.82311995311E+03  0.82311995311E+03  0.25500000920E-02 0. -1.
        2   -1    0    0  501    0  0.00000000000E+00  0.00000000000E+00 -0.23999770317E+04  0.23999770317E+04  0.25500000920E-02 0.  1.
    10030    2    1    2    0    0  0.00000000000E+00  0.00000000000E+00 -0.15768570786E+04  0.32230969848E+04  0.28110275572E+04 0.  0.
        1    1    3    3  502    0 -0.20564235454E+03 -0.10278774607E+04 -0.18619752016E+04  0.21367668341E+04  0.50400001928E-02 0.  1.
       -1    1    3    3    0  502  0.20564235454E+03  0.10278774607E+04  0.28511812300E+03  0.10863301507E+04  0.50400001928E-02 0. -1.
</event>
<event>
 5   0  0.3600963E-06  0.2266510E+04  0.7818609E-02  0.8491244E-01
       -1   -1    0    0    0  501  0.00000000000E+00  0.00000000000E+00  0.12466900549E+04  0.12466900549E+04  0.50400001928E-02 0.  1.
        1   -1    0    0  501    0  0.00000000000E+00  0.00000000000E+00 -0.10301417132E+04  0.10301417132E+04  0.50400001928E-02 0. -1.
    10030    2    1    2    0    0  0.00000000000E+00  0.00000000000E+00  0.21654834170E+03  0.22768317681E+04  0.22665104712E+04 0.  0.
        5    1    3    3  502    0 -0.23669205862E+03  0.25413313828E+03  0.11919072752E+04  0.12414796919E+04  0.46999998093E+01 0.  1.
       -5    1    3    3    0  502  0.23669205862E+03 -0.25413313828E+03 -0.97535893352E+03  0.10353520762E+04  0.46999998093E+01 0. -1.
</event>
<event>
 5   0  0.3438130E-06  0.2814347E+04  0.7818609E-02  0.8298828E-01
        1   -1    0    0  501    0  0.00000000000E+00  0.00000000000E+00  0.98644227969E+03  0.98644227971E+03  0.50400001928E-02 0.  1.
       -1   -1    0    0    0  501  0.00000000000E+00  0.00000000000E+00 -0.20073523424E+04  0.20073523424E+04  0.50400001928E-02 0. -1.
    10030    2    1    2    0    0  0.00000000000E+00  0.00000000000E+00 -0.10209100627E+04  0.29937946221E+04  0.28143469728E+04 0.  0.
        3    1    3    3  502    0 -0.16971802699E+03  0.70395760418E+03 -0.17939428336E+04  0.19345778396E+04  0.10100000352E+00 0. -1.
       -3    1    3    3    0  502  0.16971802699E+03 -0.70395760418E+03  0.77303277091E+03  0.10592167825E+04  0.10100000352E+00 0.  1.
</event>
<event>
 5   0  0.3357244E-06  0.2913180E+04  0.7818609E-02  0.8268967E-01
        1   -1    0    0  501    0  0.00000000000E+00  0.00000000000E+00  0.77359438414E+03  0.77359438416E+03  0.50400001928E-02 0. -1.
       -1   -1    0    0    0  501  0.00000000000E+00  0.00000000000E+00 -0.27425922835E+04  0.27425922835E+04  0.50400001928E-02 0.  1.
    10030    2    1    2    0    0  0.00000000000E+00  0.00000000000E+00 -0.19689978993E+04  0.35161866676E+04  0.29131796982E+04 0.  0.
        4    1    3    3  502    0 -0.16225342624E+02  0.14560137208E+04 -0.93912567313E+03  0.17326851588E+04  0.12699999809E+01 0. -1.
       -4    1    3    3    0  502  0.16225342624E+02 -0.14560137208E+04 -0.10298722262E+04  0.17835015088E+04  0.12699999809E+01 0.  1.
</event>
<event>
 5   0  0.9252359E-06  0.2785876E+04  0.7818609E-02  0.8307667E-01
       -2   -1    0    0    0  501  0.00000000000E+00  0.00000000000E+00  0.12911869703E+04  0.12911869703E+04  0.25500000920E-02 0.  1.
        2   -1    0    0  501    0  0.00000000000E+00  0.00000000000E+00 -0.15027075226E+04  0.15027075226E+04  0.25500000920E-02 0. -1.
    10030    2    1    2    0    0  0.00000000000E+00  0.00000000000E+00 -0.21152055232E+03  0.27938944929E+04  0.27858760728E+04 0.  0.
        5    1    3    3  502    0  0.79882673700E+03 -0.81245161963E+03  0.69782778659E+03  0.13361090898E+04  0.46999998093E+01 0.  1.
       -5    1    3    3    0  502 -0.79882673700E+03  0.81245161963E+03 -0.90934833892E+03  0.14577854031E+04  0.46999998093E+01 0. -1.
</event>
<event>
 5   0  0.9260173E-06  0.2408471E+04  0.7818609E-02  0.8436339E-01
        2   -1    0    0  501    0  0.00000000000E+00  0.00000000000E+00  0.15458555726E+04  0.15458555726E+04  0.25500000920E-02 0. -1.
       -2   -1    0    0    0  501  0.00000000000E+00  0.00000000000E+00 -0.93811056759E+03  0.93811056759E+03  0.25500000920E-02 0.  1.
    10030    2    1    2    0    0  0.00000000000E+00  0.00000000000E+00  0.60774500502E+03  0.24839661402E+04  0.24084712567E+04 0.  0.
        1    1    3    3  502    0  0.93104447699E+03 -0.59723431820E+03  0.79487401691E+03  0.13621150288E+04  0.50400001928E-02 0. -1.
       -1    1    3    3    0  502 -0.93104447699E+03  0.59723431820E+03 -0.18712901189E+03  0.11218511114E+04  0.50400001928E-02 0.  1.
</event>
<event>
 5   0  0.3397882E-06  0.2805898E+04  0.7818609E-02  0.8301440E-01
        1   -1    0    0  501    0  0.00000000000E+00  0.00000000000E+00  0.13860397577E+04  0.13860397577E+04  0.50400001928E-02 0.  1.
       -1   -1    0    0    0  501  0.00000000000E+00  0.00000000000E+00 -0.14200640693E+04  0.14200640693E+04  0.50400001928E-02 0. -1.
    10030    2    1    2    0    0  0.00000000000E+00  0.00000000000E+00 -0.34024311653E+02  0.28061038270E+04  0.28058975452E+04 0.  0.
        2    1    3    3  502    0 -0.24603683349E+03 -0.97604277511E+03 -0.99436166845E+03  0.14149023818E+04  0.25500000920E-02 0. -1.
       -2    1    3    3    0  502  0.24603683349E+03  0.97604277511E+03  0.96033735680E+03  0.13912014452E+04  0.25500000920E-02 0.  1.
</event>
<event>
 5   0  0.3600963E-06  0.2882230E+04  0.7818609E-02  0.8278184E-01
        1   -1    0    0  501    0  0.00000000000E+00  0.00000000000E+00  0.13143791916E+04  0.13143791916E+04  0.50400001928E-02 0. -1.
       -1   -1    0    0    0  501  0.00000000000E+00  0.00000000000E+00 -0.15800714509E+04  0.15800714509E+04  0.50400001928E-02 0.  1.
    10030    2    1    2    0    0  0.00000000000E+00  0.00000000000E+00 -0.26569225930E+03  0.28944506426E+04  0.28822304116E+04 0.  0.
        5    1    3    3  502    0  0.34291973867E+03  0.11177544164E+04 -0.97892762995E+03  0.15248902509E+04  0.46999998093E+01 0.  1.
       -5    1    3    3    0  502 -0.34291973867E+03 -0.11177544164E+04  0.71323537066E+03  0.13695603917E+04  0.46999998093E+01 0. -1.
</event>
<event>
 5   0  0.9065579E-06  0.2792696E+04  0.7818609E-02  0.8305539E-01
        2   -1    0    0  501    0  0.00000000000E+00  0.00000000000E+00  0.12317008969E+04  0.12317008969E+04  0.25500000920E-02 0.  1.
       -2   -1    0    0    0  501  0.00000000000E+00  0.00000000000E+00 -0.15830044790E+04  0.15830044791E+04  0.25500000920E-02 0. -1.
    10030    2    1    2    0    0  0.00000000000E+00  0.00000000000E+00 -0.35130358213E+03  0.28147053760E+04  0.27926962145E+04 0.  0.
        3    1    3    3  502    0 -0.44161825764E+03 -0.50193399623E+02 -0.15098067804E+04  0.15738686690E+04  0.10100000352E+00 0. -1.
       -3    1    3    3    0  502  0.44161825764E+03  0.50193399623E+02  0.11585031983E+04  0.12408367070E+04  0.10100000352E+00 0.  1.
</event>
<event>
 5   0  0.9065579E-06  0.2820616E+04  0.7818609E-02  0.8296896E-01
        2   -1    0    0  501    0  0.00000000000E+00  0.00000000000E+00  0.11640567985E+04  0.11640567985E+04  0.25500000920E-02 0. -1.
       -2   -1    0    0    0  501  0.00000000000E+00  0.00000000000E+00 -0.17086520586E+04  0.17086520586E+04  0.25500000920E-02 0.  1.
    10030    2    1    2    0    0  0.00000000000E+00  0.00000000000E+00 -0.54459526001E+03  0.28727088571E+04  0.28206155676E+04 0.  0.
        3    1    3    3  502    0  0.24978996141E+03 -0.13681223810E+04 -0.51074585763E+03  0.14815583740E+04  0.10100000352E+00 0.  1.
       -3    1    3    3    0  502 -0.24978996141E+03  0.13681223810E+04 -0.33849402380E+02  0.13911504831E+04  0.10100000352E+00 0. -1.
</event>
<event>
 5   0  0.3006875E-06  0.2803199E+04  0.7818609E-02  0.8302276E-01
        3   -1    0    0  501    0  0.00000000000E+00  0.00000000000E+00  0.84557630839E+03  0.84557631442E+03  0.10100000352E+00 0. -1.
       -3   -1    0    0    0  501  0.00000000000E+00  0.00000000000E+00 -0.23232453986E+04  0.23232454008E+04  0.10100000352E+00 0.  1.
    10030    2    1    2    0    0  0.00000000000E+00  0.00000000000E+00 -0.14776690902E+04  0.31688217152E+04  0.28031990872E+04 0.  0.
        3    1    3    3  502    0 -0.13410642842E+04 -0.16885087999E+03 -0.11580356615E+04  0.17798906252E+04  0.10100000352E+00 0.  1.
       -3    1    3    3    0  502  0.13410642842E+04  0.16885087999E+03 -0.31963342871E+03  0.13889310901E+04  0.10100000352E+00 0. -1.
</event>
<event>
 5   0  0.3397882E-06  0.2815880E+04  0.7818609E-02  0.8298355E-01
        1   -1    0    0  501    0  0.00000000000E+00  0.00000000000E+00  0.19054065645E+04  0.19054065645E+04  0.50400001928E-02 0.  1.
       -1   -1    0    0    0  501  0.00000000000E+00  0.00000000000E+00 -0.10403531512E+04  0.10403531512E+04  0.50400001928E-02 0. -1.
    10030    2    1    2    0    0  0.00000000000E+00  0.00000000000E+00  0.86505341337E+03  0.29457597157E+04  0.28158804830E+04 0.  0.
        2    1    3    3  502    0  0.75376166147E+03 -0.11863099212E+04  0.34621133219E+03  0.14475324377E+04  0.25500000920E-02 0. -1.
       -2    1    3    3    0  502 -0.75376166147E+03  0.11863099212E+04  0.51884208118E+03  0.14982272781E+04  0.25500000920E-02 0.  1.
</event>
<event>
 5   0  0.3600963E-06  0.2745843E+04  0.7818609E-02  0.8320282E-01
       -1   -1    0    0    0  501  0.00000000000E+00  0.00000000000E+00  0.12452183533E+04  0.12452183533E+04  0.50400001928E-02 0.  1.
        1   -1    0    0  501    0  0.00000000000E+00  0.00000000000E+00 -0.15137208363E+04  0.15137208363E+04  0.50400001928E-02 0. -1.
    10030    2    1    2    0    0  0.00000000000E+00  0.00000000000E+00 -0.26850248302E+03  0.27589391896E+04  0.27458426518E+04 0.  0.
        5    1    3    3  502    0  0.85917331675E+03 -0.80756405265E+03  0.57234713274E+03  0.13107027953E+04  0.46999998093E+01 0.  1.
       -5    1    3    3    0  502 -0.85917331675E+03  0.80756405265E+03 -0.84084961575E+03  0.14482363943E+04  0.46999998093E+01 0. -1.
</event>
<event>
 5   0  0.3397882E-06  0.2922100E+04  0.7818609E-02  0.8266332E-01
        1   -1    0    0  501    0  0.00000000000E+00  0.00000000000E+00  0.15727521997E+04  0.15727521997E+04  0.50400001928E-02 0.  1.
       -1   -1    0    0    0  501  0.00000000000E+00  0.00000000000E+00 -0.13572808241E+04  0.13572808241E+04  0.50400001928E-02 0. -1.
    10030    2    1    2    0    0  0.00000000000E+00  0.00000000000E+00  0.21547137563E+03  0.29300330238E+04  0.29220995203E+04 0.  0.
        2    1    3    3  502    0 -0.11577682100E+04 -0.19260864291E+02  0.10011475472E+04  0.15307170281E+04  0.25500000920E-02 0.  1.
       -2    1    3    3    0  502  0.11577682100E+04  0.19260864291E+02 -0.78567617155E+03  0.13993159956E+04  0.25500000920E-02 0. -1.
</event>
<event>
 5   0  0.3600963E-06  0.2799263E+04  0.7818609E-02  0.8303497E-01
       -1   -1    0    0    0  501  0.00000000000E+00  0.00000000000E+00  0.13893527950E+04  0.13893527950E+04  0.50400001928E-02 0.  1.
        1   -1    0    0  501    0  0.00000000000E+00  0.00000000000E+00 -0.14099861040E+04  0.14099861040E+04  0.50400001928E-02 0. -1.
    10030    2    1    2    0    0  0.00000000000E+00  0.00000000000E+00 -0.20633308986E+02  0.27993388990E+04  0.27992628562E+04 0.  0.
        5    1    3    3  502    0 -0.45749501943E+03 -0.48243433104E+03  0.12213423418E+04  0.13905911630E+04  0.46999998093E+01 0.  1.
       -5    1    3    3    0  502  0.45749501943E+03  0.48243433104E+03 -0.12419756508E+04  0.14087477360E+04  0.46999998093E+01 0. -1.
</event>
<event>
 5   0  0.3397882E-06  0.2816283E+04  0.7818609E-02  0.8298231E-01
        1   -1    0    0  501    0  0.00000000000E+00  0.00000000000E+00  0.16982233047E+04  0.16982233047E+04  0.50400001928E-02 0. -1.
       -1   -1    0    0    0  501  0.00000000000E+00  0.00000000000E+00 -0.11676101243E+04  0.11676101243E+04  0.50400001928E-02 0.  1.
    10030    2    1    2    0    0  0.00000000000E+00  0.00000000000E+00  0.53061318033E+03  0.28658334290E+04  0.28162831704E+04 0.  0.
        2    1    3    3  502    0  0.23912738882E+03  0.11011017372E+04 -0.59409721894E+03  0.12737968635E+04  0.25500000920E-02 0.  1.
       -2    1    3    3    0  502 -0.23912738882E+03 -0.11011017372E+04  0.11247103993E+04  0.15920365656E+04  0.25500000920E-02 0. -1.
</event>
<event>
 5   0  0.9065579E-06  0.2802299E+04  0.7818609E-02  0.8302555E-01
       -2   -1    0    0    0  501  0.00000000000E+00  0.00000000000E+00  0.13253513447E+04  0.13253513447E+04  0.25500000920E-02 0.  1.
        2   -1    0    0  501    0  0.00000000000E+00  0.00000000000E+00 -0.14812828491E+04  0.14812828491E+04  0.25500000920E-02 0. -1.
    10030    2    1    2    0    0  0.00000000000E+00  0.00000000000E+00 -0.15593150445E+03  0.28066341938E+04  0.28022992103E+04 0.  0.
        3    1    3    3  502    0  0.57068107867E+03 -0.97098741623E+03  0.75682632422E+03  0.13569375635E+04  0.10100000352E+00 0.  1.
       -3    1    3    3    0  502 -0.57068107867E+03  0.97098741623E+03 -0.91275782867E+03  0.14496966303E+04  0.10100000352E+00 0. -1.
</event>
<event>
 5   0  0.9342133E-06  0.2789314E+04  0.7818609E-02  0.8306594E-01
        2   -1    0    0  501    0  0.00000000000E+00  0.00000000000E+00  0.15596351822E+04  0.15596351822E+04  0.25500000920E-02 0.  1.
       -2   -1    0    0    0  501  0.00000000000E+00  0.00000000000E+00 -0.12471300667E+04  0.12471300667E+04  0.25500000920E-02 0. -1.
    10030    2    1    2    0    0  0.00000000000E+00  0.00000000000E+00  0.31250511553E+03  0.28067652489E+04  0.27893138430E+04 0.  0.
        2    1    3    3  502    0 -0.91508872918E+03  0.10509823778E+04  0.10007686849E+03  0.13971280257E+04  0.25500000920E-02 0. -1.
       -2    1    3    3    0  502  0.91508872918E+03 -0.10509823778E+04  0.21242824703E+03  0.14096372231E+04  0.25500000920E-02 0.  1.
</event>
<event>
 5   0  0.9260173E-06  0.2720394E+04  0.7818609E-02  0.8328418E-01
        2   -1    0    0  501    0  0.00000000000E+00  0.00000000000E+00  0.22970782444E+04  0.22970782444E+04  0.25500000920E-02 0. -1.
       -2   -1    0    0    0  501  0.00000000000E+00  0.00000000000E+00 -0.80542977441E+03  0.80542977442E+03  0.25500000920E-02 0.  1.
    10030    2    1    2    0    0  0.00000000000E+00  0.00000000000E+00  0.14916484700E+04  0.31025080188E+04  0.27203935099E+04 0.  0.
        1    1    3    3  502    0 -0.11188462311E+04 -0.49808070359E+03  0.70891806695E+02  0.12267546309E+04  0.50400001928E-02 0.  1.
       -1    1    3    3    0  502  0.11188462311E+04  0.49808070359E+03  0.14207566633E+04  0.18757533880E+04  0.50400001928E-02 0. -1.
</event>
<event>
 5   0  0.3397882E-06  0.2798091E+04  0.7818609E-02  0.8303861E-01
       -1   -1    0    0    0  501  0.00000000000E+00  0.00000000000E+00  0.10772204473E+04  0.10772204473E+04  0.50400001928E-02 0. -1.
        1   -1    0    0  501    0  0.00000000000E+00  0.00000000000E+00 -0.18170170383E+04  0.18170170383E+04  0.50400001928E-02 0.  1.
    10030    2    1    2    0    0  0.00000000000E+00  0.00000000000E+00 -0.73979659100E+03  0.28942374856E+04  0.27980907110E+04 0.  0.
        2    1    3    3  502    0  0.99639744256E+03 -0.98177910519E+03 -0.34393949244E+03  0.14404834082E+04  0.25500000920E-02 0. -1.
       -2    1    3    3    0  502 -0.99639744256E+03  0.98177910519E+03 -0.39585709855E+03  0.14537540773E+04  0.25500000920E-02 0.  1.
</event>
<event>
 5   0  0.9426937E-06  0.2801132E+04  0.7818609E-02  0.8302917E-01
        2   -1    0    0  501    0  0.00000000000E+00  0.00000000000E+00  0.21644727337E+04  0.21644727337E+04  0.25500000920E-02 0.  1.
       -2   -1    0    0    0  501  0.00000000000E+00  0.00000000000E+00 -0.90626468669E+03  0.90626468670E+03  0.25500000920E-02 0. -1.
    10030    2    1    2    0    0  0.00000000000E+00  0.00000000000E+00  0.12582080471E+04  0.30707374204E+04  0.28011320597E+04 0.  0.
        4    1    3    3  502    0  0.32757829429E+03  0.52425282490E+03  0.20068209048E+04  0.20998762630E+04  0.12699999809E+01 0.  1.
       -4    1    3    3    0  502 -0.32757829429E+03 -0.52425282490E+03 -0.74861285773E+03  0.97086115741E+03  0.12699999809E+01 0. -1.
</event>
<event>
 5   0  0.3371603E-06  0.2747892E+04  0.7818609E-02  0.8319631E-01
       -1   -1    0    0    0  501  0.00000000000E+00  0.00000000000E+00  0.78205399798E+03  0.78205399799E+03  0.50400001928E-02 0. -1.
        1   -1    0    0  501    0  0.00000000000E+00  0.00000000000E+00 -0.24138079579E+04  0.24138079579E+04  0.50400001928E-02 0.  1.
    10030    2    1    2    0    0  0.00000000000E+00  0.00000000000E+00 -0.16317539600E+04  0.31958619559E+04  0.27478924025E+04 0.  0.
        1    1    3    3  502    0 -0.19027671510E+03  0.92697017512E+03 -0.19743840108E+04  0.21894453992E+04  0.50400001928E-02 0.  1.
       -1    1    3    3    0  502  0.19027671510E+03 -0.92697017512E+03  0.34263005087E+03  0.10064165567E+04  0.50400001928E-02 0. -1.
</event>
<event>
 5   0  0.3357244E-06  0.2775123E+04  0.7818609E-02  0.8311034E-01
       -1   -1    0    0    0  501  0.00000000000E+00  0.00000000000E+00  0.11526228437E+04  0.11526228437E+04  0.50400001928E-02 0. -1.
        1   -1    0    0  501    0  0.00000000000E+00  0.00000000000E+00 -0.16703871615E+04  0.16703871615E+04  0.50400001928E-02 0.  1.
    10030    2    1    2    0    0  0.00000000000E+00  0.00000000000E+00 -0.51776431786E+03  0.28230100052E+04  0.27751226280E+04 0.  0.
        4    1    3    3  502    0  0.39102884056E+03  0.90248102671E+03 -0.12545202076E+04  0.15941135850E+04  0.12699999809E+01 0.  1.
       -4    1    3    3    0  502 -0.39102884056E+03 -0.90248102671E+03  0.73675588971E+03  0.12288964202E+04  0.12699999809E+01 0. -1.
</event>
<event>
 5   0  0.9065579E-06  0.2666042E+04  0.7818609E-02  0.8346108E-01
       -2   -1    0    0    0  501  0.00000000000E+00  0.00000000000E+00  0.82420752541E+03  0.82420752542E+03  0.25500000920E-02 0. -1.
        2   -1    0    0  501    0  0.00000000000E+00  0.00000000000E+00 -0.21559431953E+04  0.21559431953E+04  0.25500000920E-02 0.  1.
    10030    2    1    2    0    0  0.00000000000E+00  0.00000000000E+00 -0.13317356699E+04  0.29801507207E+04  0.26660417145E+04 0.  0.
        3    1    3    3  502    0 -0.87515762322E+03 -0.49597033802E+03 -0.16435962319E+04  0.19269914440E+04  0.10100000352E+00 0.  1.
       -3    1    3    3    0  502  0.87515762322E+03  0.49597033802E+03  0.31186056204E+03  0.10531592767E+04  0.10100000352E+00 0. -1.
</event>
<event>
 5   0  0.3600963E-06  0.2818488E+04  0.7818609E-02  0.8297551E-01
       -1   -1    0    0    0  501  0.00000000000E+00  0.00000000000E+00  0.10720468172E+04  0.10720468172E+04  0.50400001928E-02 0.  1.
        1   -1    0    0  501    0  0.00000000000E+00  0.00000000000E+00 -0.18525021389E+04  0.18525021389E+04  0.50400001928E-02 0. -1.
    10030    2    1    2    0    0  0.00000000000E+00  0.00000000000E+00 -0.78045532170E+03  0.29245489561E+04  0.28184882628E+04 0.  0.
        5    1    3    3  502    0  0.71483566442E+03  0.76336633405E+03  0.58989576753E+03  0.12007153258E+04  0.46999998093E+01 0.  1.
       -5    1    3    3    0  502 -0.71483566442E+03 -0.76336633405E+03 -0.13703510892E+04  0.17238336303E+04  0.46999998093E+01 0. -1.
</event>
<event>
 5   0  0.9065579E-06  0.2734735E+04  0.7818609E-02  0.8323822E-01
       -2   -1    0    0    0  501  0.00000000000E+00  0.00000000000E+00  0.97299374096E+03  0.97299374097E+03  0.25500000920E-02 0.  1.
        2   -1    0    0  501    0  0.00000000000E+00  0.00000000000E+00 -0.19215890032E+04  0.19215890032E+04  0.25500000920E-02 0. -1.
    10030    2    1    2    0    0  0.00000000000E+00  0.00000000000E+00 -0.94859526221E+03  0.28945827441E+04  0.27347351410E+04 0.  0.
        3    1    3    3  502    0  0.12185066681E+04  0.58321560948E+03 -0.69831723585E+03  0.15207057307E+04  0.10100000352E+00 0. -1.
       -3    1    3    3    0  502 -0.12185066681E+04 -0.58321560948E+03 -0.25027802636E+03  0.13738770134E+04  0.10100000352E+00 0.  1.
</event>
<event>
 5   0  0.3357244E-06  0.2767402E+04  0.7818609E-02  0.8313461E-01
       -1   -1    0    0    0  501  0.00000000000E+00  0.00000000000E+00  0.14796294572E+04  0.14796294572E+04  0.50400001928E-02 0.  1.
        1   -1    0    0  501    0  0.00000000000E+00  0.00000000000E+00 -0.12939920486E+04  0.12939920486E+04  0.50400001928E-02 0. -1.
    10030    2    1    2    0    0  0.00000000000E+00  0.00000000000E+00  0.18563740857E+03  0.27736215058E+04  0.27674022133E+04 0.  0.
        4    1    3    3  502    0  0.13238281232E+04  0.11965071540E+03  0.47811723934E+03  0.14125986340E+04  0.12699999809E+01 0.  1.
       -4    1    3    3    0  502 -0.13238281232E+04 -0.11965071540E+03 -0.29247983077E+03  0.13610228718E+04  0.12699999809E+01 0. -1.
</event>
<event>
 5   0  0.3600963E-06  0.2785129E+04  0.7818609E-02  0.8307900E-01
       -1   -1    0    0    0  501  0.00000000000E+00  0.00000000000E+00  0.95217822442E+03  0.95217822444E+03  0.50400001928E-02 0. -1.
        1   -1    0    0  501    0  0.00000000000E+00  0.00000000000E+00 -0.20366316248E+04  0.20366316248E+04  0.50400001928E-02 0.  1.
    10030    2    1    2    0    0  0.00000000000E+00  0.00000000000E+00 -0.10844534004E+04  0.29888098493E+04  0.27851292856E+04 0.  0.
        5    1    3    3  502    0  0.37692707512E+03 -0.21576324917E+02  0.89619969668E+03  0.97248935423E+03  0.46999998093E+01 0. -1.
       -5    1    3    3    0  502 -0.37692707512E+03  0.21576324917E+02 -0.19806530971E+04  0.20163204950E+04  0.46999998093E+01 0.  1.
</event>
<event>
 5   0  0.9252359E-06  0.2849830E+04  0.7818609E-02  0.8287963E-01
       -2   -1    0    0    0  501  0.00000000000E+00  0.00000000000E+00  0.17916715497E+04  0.17916715497E+04  0.25500000920E-02 0. -1.
        2   -1    0    0  501    0  0.00000000000E+00  0.00000000000E+00 -0.11332341405E+04  0.11332341405E+04  0.25500000920E-02 0.  1.
    10030    2    1    2    0    0  0.00000000000E+00  0.00000000000E+00  0.65843740911E+03  0.29249056902E+04  0.28498304291E+04 0.  0.
        5    1    3    3  502    0 -0.72975682599E+03  0.80480003726E+03 -0.61708647247E+03  0.12494262401E+04  0.46999998093E+01 0.  1.
       -5    1    3    3    0  502  0.72975682599E+03 -0.80480003726E+03  0.12755238816E+04  0.16754794500E+04  0.46999998093E+01 0. -1.
</event>
<event>
 5   0  0.3371603E-06  0.2837824E+04  0.7818609E-02  0.8291621E-01
        1   -1    0    0  501    0  0.00000000000E+00  0.00000000000E+00  0.19623991036E+04  0.19623991036E+04  0.50400001928E-02 0. -1.
       -1   -1    0    0    0  501  0.00000000000E+00  0.00000000000E+00 -0.10259435211E+04  0.10259435211E+04  0.50400001928E-02 0.  1.
    10030    2    1    2    0    0  0.00000000000E+00  0.00000000000E+00  0.93645558251E+03  0.29883426248E+04  0.28378235648E+04 0.  0.
        1    1    3    3  502    0 -0.41534595428E+03  0.11434295597E+04 -0.30082855798E+03  0.12531724706E+04  0.50400001928E-02 0.  1.
       -1    1    3    3    0  502  0.41534595428E+03 -0.11434295597E+04  0.12372841405E+04  0.17351701542E+04  0.50400001928E-02 0. -1.
</event>
<event>
 5   0  0.9252359E-06  0.2784401E+04  0.7818609E-02  0.8308127E-01
        2   -1    0    0  501    0  0.00000000000E+00  0.00000000000E+00  0.13972556068E+04  0.13972556068E+04  0.25500000920E-02 0.  1.
       -2   -1    0    0    0  501  0.00000000000E+00  0.00000000000E+00 -0.13871641476E+04  0.13871641476E+04  0.25500000920E-02 0. -1.
    10030    2    1    2    0    0  0.00000000000E+00  0.00000000000E+00  0.10091459155E+02  0.27844197544E+04  0.27844014673E+04 0.  0.
        5    1    3    3  502    0 -0.36316573047E+03  0.13098503859E+04  0.30605171212E+03  0.13933008009E+04  0.46999998093E+01 0. -1.
       -5    1    3    3    0  502  0.36316573047E+03 -0.13098503859E+04 -0.29596025296E+03  0.13911189535E+04  0.46999998093E+01 0.  1.
</event>
<event>
 5   0  0.3397882E-06  0.2796148E+04  0.7818609E-02  0.8304465E-01
       -1   -1    0    0    0  501  0.00000000000E+00  0.00000000000E+00  0.10489514933E+04  0.10489514933E+04  0.50400001928E-02 0.  1.
        1   -1    0    0  501    0  0.00000000000E+00  0.00000000000E+00 -0.18633954551E+04  0.18633954551E+04  0.50400001928E-02 0. -1.
    10030    2    1    2    0    0  0.00000000000E+00  0.00000000000E+00 -0.81444396177E+03  0.29123469484E+04  0.27961483833E+04 0.  0.
        2    1    3    3  502    0 -0.52773846194E+03 -0.96092291018E+03  0.49643314767E+03  0.12034644131E+04  0.25500000920E-02 0.  1.
       -2    1    3    3    0  502  0.52773846194E+03  0.96092291018E+03 -0.13108771094E+04  0.17088825353E+04  0.25500000920E-02 0. -1.
</event>
<event>
 5   0  0.3438130E-06  0.2707530E+04  0.7818609E-02  0.8332566E-01
        1   -1    0    0  501    0  0.00000000000E+00  0.00000000000E+00  0.20985088407E+04  0.20985088407E+04  0.50400001928E-02 0.  1.
       -1   -1    0    0    0  501  0.00000000000E+00  0.00000000000E+00 -0.87332489612E+03  0.87332489614E+03  0.50400001928E-02 0. -1.
    10030    2    1    2    0    0  0.00000000000E+00  0.00000000000E+00  0.12251839446E+04  0.29718337368E+04  0.27075302512E+04 0.  0.
        3    1    3    3  502    0  0.79081916399E+03 -0.10489334735E+03  0.18131082554E+04  0.19808480811E+04  0.10100000352E+00 0.  1.
       -3    1    3    3    0  502 -0.79081916399E+03  0.10489334735E+03 -0.58792431080E+03  0.99098565575E+03  0.10100000352E+00 0. -1.
</event>
<event>
 5   0  0.3600963E-06  0.2801978E+04  0.7818609E-02  0.8302654E-01
        1   -1    0    0  501    0  0.00000000000E+00  0.00000000000E+00  0.13785356026E+04  0.13785356026E+04  0.50400001928E-02 0. -1.
       -1   -1    0    0    0  501  0.00000000000E+00  0.00000000000E+00 -0.14238084381E+04  0.14238084381E+04  0.50400001928E-02 0.  1.
    10030    2    1    2    0    0  0.00000000000E+00  0.00000000000E+00 -0.45272835484E+02  0.28023440408E+04  0.28019783178E+04 0.  0.
        5    1    3    3  502    0 -0.12710022446E+02  0.10134542998E+04 -0.98997379162E+03  0.14167996896E+04  0.46999998093E+01 0.  1.
       -5    1    3    3    0  502  0.12710022446E+02 -0.10134542998E+04  0.94470095614E+03  0.13855443511E+04  0.46999998093E+01 0. -1.
</event>
<event>
 5   0  0.9342133E-06  0.2872278E+04  0.7818609E-02  0.8281174E-01
        2   -1    0    0  501    0  0.00000000000E+00  0.00000000000E+00  0.21278485746E+04  0.21278485746E+04  0.25500000920E-02 0. -1.
       -2   -1    0    0    0  501  0.00000000000E+00  0.00000000000E+00 -0.96928666876E+03  0.96928666876E+03  0.25500000920E-02 0.  1.
    10030    2    1    2    0    0  0.00000000000E+00  0.00000000000E+00  0.11585619059E+04  0.30971352434E+04  0.28722780203E+04 0.  0.
        2    1    3    3  502    0 -0.47480425848E+03 -0.50921800549E+03  0.19337005520E+04  0.20552225879E+04  0.25500000920E-02 0. -1.
       -2    1    3    3    0  502  0.47480425848E+03  0.50921800549E+03 -0.77513864612E+03  0.10419126555E+04  0.25500000920E-02 0.  1.
</event>
<event>
 5   0  0.9260173E-06  0.2763395E+04  0.7818609E-02  0.8314724E-01
        2   -1    0    0  501    0  0.00000000000E+00  0.00000000000E+00  0.84078510967E+03  0.84078510967E+03  0.25500000920E-02 0. -1.
       -2   -1    0    0    0  501  0.00000000000E+00  0.00000000000E+00 -0.22706017645E+04  0.22706017645E+04  0.25500000920E-02 0.  1.
    10030    2    1    2    0    0  0.00000000000E+00  0.00000000000E+00 -0.14298166548E+04  0.31113868741E+04  0.27633951245E+04 0.  0.
        1    1    3    3  502    0 -0.64832016129E+03 -0.26515005217E+03 -0.20558820722E+04  0.21719287917E+04  0.50400001928E-02 0.  1.
       -1    1    3    3    0  502  0.64832016129E+03  0.26515005217E+03  0.62606541738E+03  0.93945808239E+03  0.50400001928E-02 0. -1.
</event>
<event>
 5   0  0.3371603E-06  0.2787684E+04  0.7818609E-02  0.8307102E-01
        1   -1    0    0  501    0  0.00000000000E+00  0.00000000000E+00  0.18269940719E+04  0.18269940719E+04  0.50400001928E-02 0. -1.
       -1   -1    0    0    0  501  0.00000000000E+00  0.00000000000E+00 -0.10633832258E+04  0.10633832258E+04  0.50400001928E-02 0.  1.
    10030    2    1    2    0    0  0.00000000000E+00  0.00000000000E+00  0.76361084606E+03  0.28903772978E+04  0.27876835185E+04 0.  0.
        1    1    3    3  502    0  0.38479701056E+03  0.29288497831E+02  0.17704987449E+04  0.18120685311E+04  0.50400001928E-02 0. -1.
       -1    1    3    3    0  502 -0.38479701056E+03 -0.29288497831E+02 -0.10068878989E+04  0.10783087667E+04  0.50400001928E-02 0.  1.
</event>
<event>
 5   0  0.3438130E-06  0.2826612E+04  0.7818609E-02  0.8295054E-01
        1   -1    0    0  501    0  0.00000000000E+00  0.00000000000E+00  0.26394314377E+04  0.26394314377E+04  0.50400001928E-02 0. -1.
       -1   -1    0    0    0  501  0.00000000000E+00  0.00000000000E+00 -0.75676686622E+03  0.75676686623E+03  0.50400001928E-02 0.  1.
    10030    2    1    2    0    0  0.00000000000E+00  0.00000000000E+00  0.18826645714E+04  0.33961983039E+04  0.28266122887E+04 0.  0.
        3    1    3    3  502    0  0.37226950591E+02 -0.11910222059E+04  0.18544110596E+04  0.22042595421E+04  0.10100000352E+00 0. -1.
       -3    1    3    3    0  502 -0.37226950591E+02  0.11910222059E+04  0.28253511878E+02  0.11919387618E+04  0.10100000352E+00 0.  1.
</event>
<event>
 5   0  0.3438130E-06  0.2846405E+04  0.7818609E-02  0.8289004E-01
       -1   -1    0    0    0  501  0.00000000000E+00  0.00000000000E+00  0.13194626096E+04  0.13194626096E+04  0.50400001928E-02 0. -1.
        1   -1    0    0  501    0  0.00000000000E+00  0.00000000000E+00 -0.15350990557E+04  0.15350990557E+04  0.50400001928E-02 0.  1.
    10030    2    1    2    0    0  0.00000000000E+00  0.00000000000E+00 -0.21563644608E+03  0.28545616654E+04  0.28464053163E+04 0.  0.
        3    1    3    3  502    0  0.10503174535E+04  0.95647650560E+03 -0.19462106580E+03  0.14338380063E+04  0.10100000352E+00 0. -1.
       -3    1    3    3    0  502 -0.10503174535E+04 -0.95647650560E+03 -0.21015380277E+02  0.14207236590E+04  0.10100000352E+00 0.  1.
</event>
<event>
 5   0  0.3357244E-06  0.2798421E+04  0.7818609E-02  0.8303759E-01
        1   -1    0    0  501    0  0.00000000000E+00  0.00000000000E+00  0.11819302565E+04  0.11819302565E+04  0.50400001928E-02 0. -1.
       -1   -1    0    0    0  501  0.00000000000E+00  0.00000000000E+00 -0.16564340326E+04  0.16564340326E+04  0.50400001928E-02 0.  1.
    10030    2    1    2    0    0  0.00000000000E+00  0.00000000000E+00 -0.47450377614E+03  0.28383642891E+04  0.27984206267E+04 0.  0.
        4    1    3    3  502    0 -0.52862358187E+03 -0.12845613672E+04 -0.66784227101E+02  0.13906841997E+04  0.12699999809E+01 0.  1.
       -4    1    3    3    0  502  0.52862358187E+03  0.12845613672E+04 -0.40771954904E+03  0.14476800893E+04  0.12699999809E+01 0. -1.
</event>
<event>
 5   0  0.9260173E-06  0.2784100E+04  0.7818609E-02  0.8308222E-01
        2   -1    0    0  501    0  0.00000000000E+00  0.00000000000E+00  0.13215648890E+04  0.13215648890E+04  0.25500000920E-02 0. -1.
       -2   -1    0    0    0  501  0.00000000000E+00  0.00000000000E+00 -0.14662946519E+04  0.14662946519E+04  0.25500000920E-02 0.  1.
    10030    2    1    2    0    0  0.00000000000E+00  0.00000000000E+00 -0.14472976288E+03  0.27878595409E+04  0.27841002345E+04 0.  0.
        1    1    3    3  502    0 -0.57584141368E+03  0.68360620751E+03 -0.11409950635E+04  0.14494069531E+04  0.50400001928E-02 0.  1.
       -1    1    3    3    0  502  0.57584141368E+03 -0.68360620751E+03  0.99626530061E+03  0.13384525878E+04  0.50400001928E-02 0. -1.
</event>
<event>
 5   0  0.9065579E-06  0.2693158E+04  0.7818609E-02  0.8337229E-01
        2   -1    0    0  501    0  0.00000000000E+00  0.00000000000E+00  0.15193619440E+04  0.15193619440E+04  0.25500000920E-02 0.  1.
       -2   -1    0    0    0  501  0.00000000000E+00  0.00000000000E+00 -0.11934446268E+04  0.11934446268E+04  0.25500000920E-02 0. -1.
    10030    2    1    2    0    0  0.00000000000E+00  0.00000000000E+00  0.32591731721E+03  0.27128065708E+04  0.26931575135E+04 0.  0.
        3    1    3    3  502    0 -0.74612113866E+03 -0.84159244761E+03 -0.58291641335E+03  0.12667936519E+04  0.10100000352E+00 0. -1.
       -3    1    3    3    0  502  0.74612113866E+03  0.84159244761E+03  0.90883373055E+03  0.14460129188E+04  0.10100000352E+00 0.  1.
</event>
<event>
 5   0  0.3438130E-06  0.2810487E+04  0.7818609E-02  0.8300020E-01
        1   -1    0    0  501    0  0.00000000000E+00  0.00000000000E+00  0.18214719177E+04  0.18214719177E+04  0.50400001928E-02 0.  1.
       -1   -1    0    0    0  501  0.00000000000E+00  0.00000000000E+00 -0.10841282154E+04  0.10841282154E+04  0.50400001928E-02 0. -1.
    10030    2    1    2    0    0  0.00000000000E+00  0.00000000000E+00  0.73734370228E+03  0.29056001331E+04  0.28104868614E+04 0.  0.
        3    1    3    3  502    0  0.88191828051E+03  0.83782884990E+03 -0.35868013175E+03  0.12682225681E+04  0.10100000352E+00 0. -1.
       -3    1    3    3    0  502 -0.88191828051E+03 -0.83782884990E+03  0.10960238340E+04  0.16373775649E+04  0.10100000352E+00 0.  1.
</event>
<event>
 5   0  0.9426937E-06  0.2885843E+04  0.7818609E-02  0.8277102E-01
       -2   -1    0    0    0  501  0.00000000000E+00  0.00000000000E+00  0.11193013991E+04  0.11193013991E+04  0.25500000920E-02 0. -1.
        2   -1    0    0  501    0  0.00000000000E+00  0.00000000000E+00 -0.18601089112E+04  0.18601089112E+04  0.25500000920E-02 0.  1.
    10030    2    1    2    0    0  0.00000000000E+00  0.00000000000E+00 -0.74080751203E+03  0.29794103103E+04  0.28858430358E+04 0.  0.
        4    1    3    3  502    0  0.65677214780E+03  0.99275418307E+03  0.47158146935E+03  0.12803519896E+04  0.12699999809E+01 0.  1.
       -4    1    3    3    0  502 -0.65677214780E+03 -0.99275418307E+03 -0.12123889814E+04  0.16990583207E+04  0.12699999809E+01 0. -1.
</event>
<event>
 5   0  0.3438130E-06  0.2822088E+04  0.7818609E-02  0.8296444E-01
       -1   -1    0    0    0  501  0.00000000000E+00  0.00000000000E+00  0.12496357148E+04  0.12496357148E+04  0.50400001928E-02 0.  1.
        1   -1    0    0  501    0  0.00000000000E+00  0.00000000000E+00 -0.15933006327E+04  0.15933006327E+04  0.50400001928E-02 0. -1.
    10030    2    1    2    0    0  0.00000000000E+00  0.00000000000E+00 -0.34366491791E+03  0.28429363475E+04  0.28220881454E+04 0.  0.
        3    1    3    3  502    0  0.41282118043E+03  0.11028072217E+04 -0.95503350160E+03  0.15161444834E+04  0.10100000352E+00 0.  1.
       -3    1    3    3    0  502 -0.41282118043E+03 -0.11028072217E+04  0.61136858369E+03  0.13267918641E+04  0.10100000352E+00 0. -1.
</event>
<event>
 5   0  0.3438130E-06  0.2802749E+04  0.7818609E-02  0.8302415E-01
       -1   -1    0    0    0  501  0.00000000000E+00  0.00000000000E+00  0.13981212391E+04  0.13981212391E+04  0.50400001928E-02 0.  1.
        1   -1    0    0  501    0  0.00000000000E+00  0.00000000000E+00 -0.14046352490E+04  0.14046352490E+04  0.50400001928E-02 0. -1.
    10030    2    1    2    0    0  0.00000000000E+00  0.00000000000E+00 -0.65140099160E+01  0.28027564882E+04  0.28027489184E+04 0.  0.
        3    1    3    3  502    0 -0.91678014789E+03 -0.34536909607E+02 -0.10625859381E+04  0.14038402772E+04  0.10100000352E+00 0. -1.
       -3    1    3    3    0  502  0.91678014789E+03  0.34536909607E+02  0.10560719282E+04  0.13989162110E+04  0.10100000352E+00 0.  1.
</event>
<event>
 5   0  0.9252359E-06  0.2826013E+04  0.7818609E-02  0.8295238E-01
        2   -1    0    0  501    0  0.00000000000E+00  0.00000000000E+00  0.13453715256E+04  0.13453715256E+04  0.25500000920E-02 0.  1.
       -2   -1    0    0    0  501  0.00000000000E+00  0.00000000000E+00 -0.14840418464E+04  0.14840418465E+04  0.25500000920E-02 0. -1.
    10030    2    1    2    0    0  0.00000000000E+00  0.00000000000E+00 -0.13867032086E+03  0.28294133720E+04  0.28260131939E+04 0.  0.
        5    1    3    3  502    0 -0.88454757273E+03 -0.63999353886E+03 -0.96738115097E+03  0.14587201649E+04  0.46999998093E+01 0. -1.
       -5    1    3    3    0  502  0.88454757273E+03  0.63999353886E+03  0.82871083011E+03  0.13706932072E+04  0.46999998093E+01 0.  1.
</event>
<event>
 5   0  0.3357244E-06  0.2778165E+04  0.7818609E-02  0.8310079E-01
        1   -1    0    0  501    0  0.00000000000E+00  0.00000000000E+00  0.33145711977E+04  0.33145711977E+04  0.50400001928E-02 0. -1.
       -1   -1    0    0    0  501  0.00000000000E+00  0.00000000000E+00 -0.58214177380E+03  0.58214177382E+03  0.50400001928E-02 0.  1.
    10030    2    1    2    0    0  0.00000000000E+00  0.00000000000E+00  0.27324294239E+04  0.38967129715E+04  0.27781651185E+04 0.  0.
        4    1    3    3  502    0 -0.33638084796E+03  0.63383209601E+03  0.30344811346E+04  0.31181681433E+04  0.12699999809E+01 0. -1.
       -4    1    3    3    0  502  0.33638084796E+03 -0.63383209601E+03 -0.30205171065E+03  0.77854482827E+03  0.12699999809E+01 0.  1.
</event>
<event>
 5   0  0.3438130E-06  0.2807127E+04  0.7818609E-02  0.8301059E-01
       -1   -1    0    0    0  501  0.00000000000E+00  0.00000000000E+00  0.13131764021E+04  0.13131764021E+04  0.50400001928E-02 0.  1.
        1   -1    0    0  501    0  0.00000000000E+00  0.00000000000E+00 -0.15001717152E+04  0.15001717152E+04  0.50400001928E-02 0. -1.
    10030    2    1    2    0    0  0.00000000000E+00  0.00000000000E+00 -0.18699531312E+03  0.28133481172E+04  0.28071267128E+04 0.  0.
        3    1    3    3  502    0 -0.11350366815E+04  0.22055151998E+03 -0.89089840114E+03  0.14596750367E+04  0.10100000352E+00 0. -1.
       -3    1    3    3    0  502  0.11350366815E+04 -0.22055151998E+03  0.70390308803E+03  0.13536730805E+04  0.10100000352E+00 0.  1.
</event>
<event>
 5   0  0.9342133E-06  0.2789062E+04  0.7818609E-02  0.8306672E-01
       -2   -1    0    0    0  501  0.00000000000E+00  0.00000000000E+00  0.12095915779E+04  0.12095915779E+04  0.25500000920E-02 0.  1.
        2   -1    0    0  501    0  0.00000000000E+00  0.00000000000E+00 -0.16077468285E+04  0.16077468285E+04  0.25500000920E-02 0. -1.
    10030    2    1    2    0    0  0.00000000000E+00  0.00000000000E+00 -0.39815525062E+03  0.28173384064E+04  0.27890622246E+04 0.  0.
        2    1    3    3  502    0  0.59251819526E+03  0.12070825703E+04  0.17425132014E+03  0.13559091657E+04  0.25500000920E-02 0.  1.
       -2    1    3    3    0  502 -0.59251819526E+03 -0.12070825703E+04 -0.57240657076E+03  0.14614292406E+04  0.25500000920E-02 0. -1.
</event>
<event>
 5   0  0.3371603E-06  0.2832327E+04  0.7818609E-02  0.8293302E-01
       -1   -1    0    0    0  501  0.00000000000E+00  0.00000000000E+00  0.89597669734E+03  0.89597669735E+03  0.50400001928E-02 0.  1.
        1   -1    0    0  501    0  0.00000000000E+00  0.00000000000E+00 -0.22383599902E+04  0.22383599903E+04  0.50400001928E-02 0. -1.
    10030    2    1    2    0    0  0.00000000000E+00  0.00000000000E+00 -0.13423832929E+04  0.31343366876E+04  0.28323265289E+04 0.  0.
        1    1    3    3  502    0  0.10150146275E+04 -0.74247904695E+03  0.49383695579E+02  0.12585581347E+04  0.50400001928E-02 0.  1.
       -1    1    3    3    0  502 -0.10150146275E+04  0.74247904695E+03 -0.13917669885E+04  0.18757785529E+04  0.50400001928E-02 0. -1.
</event>
<event>
 5   0  0.9260173E-06  0.2796161E+04  0.7818609E-02  0.8304461E-01
        2   -1    0    0  501    0  0.00000000000E+00  0.00000000000E+00  0.14796156597E+04  0.14796156597E+04  0.25500000920E-02 0. -1.
       -2   -1    0    0    0  501  0.00000000000E+00  0.00000000000E+00 -0.13210384663E+04  0.13210384663E+04  0.25500000920E-02 0.  1.
    10030    2    1    2    0    0  0.00000000000E+00  0.00000000000E+00  0.15857719342E+03  0.28006541261E+04  0.27961610840E+04 0.  0.
        1    1    3    3  502    0  0.56153111625E+03 -0.12049938420E+04  0.51276785537E+03  0.14248713020E+04  0.50400001928E-02 0.  1.
       -1    1    3    3    0  502 -0.56153111625E+03  0.12049938420E+04 -0.35419066195E+03  0.13757828240E+04  0.50400001928E-02 0. -1.
</event>
<event>
 5   0  0.3397882E-06  0.3081178E+04  0.7818609E-02  0.8220922E-01
       -1   -1    0    0    0  501  0.00000000000E+00  0.00000000000E+00  0.13675791648E+04  0.13675791648E+04  0.50400001928E-02 0.  1.
        1   -1    0    0  501    0  0.00000000000E+00  0.00000000000E+00 -0.17354861441E+04  0.17354861441E+04  0.50400001928E-02 0. -1.
    10030    2    1    2    0    0  0.00000000000E+00  0.00000000000E+00 -0.36790697926E+03  0.31030653089E+04  0.30811781458E+04 0.  0.
        2    1    3    3  502    0  0.12780819794E+04  0.59282090078E+03  0.44375928802E+03  0.14771094990E+04  0.25500000920E-02 0.  1.
       -2    1    3    3    0  502 -0.12780819794E+04 -0.59282090078E+03 -0.81166626728E+03  0.16259558099E+04  0.25500000920E-02 0. -1.
</event>
<event>
 5   0  0.3357244E-06  0.2799699E+04  0.7818609E-02  0.8303362E-01
        1   -1    0    0  501    0  0.00000000000E+00  0.00000000000E+00  0.16382126062E+04  0.16382126062E+04  0.50400001928E-02 0.  1.
       -1   -1    0    0    0  501  0.00000000000E+00  0.00000000000E+00 -0.11961683853E+04  0.11961683853E+04  0.50400001928E-02 0. -1.
    10030    2    1    2    0    0  0.00000000000E+00  0.00000000000E+00  0.44204422095E+03  0.28343809916E+04  0.27996986466E+04 0.  0.
        4    1    3    3  502    0 -0.13809352912E+04 -0.21826570500E+03  0.14976324498E+03  0.14060771099E+04  0.12699999809E+01 0.  1.
       -4    1    3    3    0  502  0.13809352912E+04  0.21826570500E+03  0.29228097597E+03  0.14283038817E+04  0.12699999809E+01 0. -1.
</event>
<event>
 5   0  0.9065579E-06  0.2704442E+04  0.7818609E-02  0.8333565E-01
       -2   -1    0    0    0  501  0.00000000000E+00  0.00000000000E+00  0.86975121606E+03  0.86975121606E+03  0.25500000920E-02 0.  1.
        2   -1    0    0  501    0  0.00000000000E+00  0.00000000000E+00 -0.21023268912E+04  0.21023268912E+04  0.25500000920E-02 0. -1.
    10030    2    1    2    0    0  0.00000000000E+00  0.00000000000E+00 -0.12325756751E+04  0.29720781072E+04  0.27044418057E+04 0.  0.
        3    1    3    3  502    0 -0.75249036407E+03 -0.99211561122E+03 -0.11956879740E+04  0.17263269897E+04  0.10100000352E+00 0. -1.
       -3    1    3    3    0  502  0.75249036407E+03  0.99211561122E+03 -0.36887701077E+02  0.12457511175E+04  0.10100000352E+00 0.  1.
</event>
<event>
 5   0  0.3438130E-06  0.2833589E+04  0.7818609E-02  0.8292915E-01
        1   -1    0    0  501    0  0.00000000000E+00  0.00000000000E+00  0.21004727275E+04  0.21004727275E+04  0.50400001928E-02 0. -1.
       -1   -1    0    0    0  501  0.00000000000E+00  0.00000000000E+00 -0.95564540409E+03  0.95564540411E+03  0.50400001928E-02 0.  1.
    10030    2    1    2    0    0  0.00000000000E+00  0.00000000000E+00  0.11448273234E+04  0.30561181316E+04  0.28335893199E+04 0.  0.
        3    1    3    3  502    0  0.67570699632E+03  0.73903286137E+03  0.16534011038E+04  0.19329988969E+04  0.10100000352E+00 0. -1.
       -3    1    3    3    0  502 -0.67570699632E+03 -0.73903286137E+03 -0.50857378042E+03  0.11231192347E+04  0.10100000352E+00 0.  1.
</event>
<event>
 5   0  0.9342133E-06  0.2821555E+04  0.7818609E-02  0.8296607E-01
       -2   -1    0    0    0  501  0.00000000000E+00  0.00000000000E+00  0.77861108440E+03  0.77861108441E+03  0.25500000920E-02 0.  1.
        2   -1    0    0  501    0  0.00000000000E+00  0.00000000000E+00 -0.25562100493E+04  0.25562100493E+04  0.25500000920E-02 0. -1.
    10030    2    1    2    0    0  0.00000000000E+00  0.00000000000E+00 -0.17775989649E+04  0.33348211337E+04  0.28215552296E+04 0.  0.
        2    1    3    3  502    0 -0.65178588911E+03  0.31096572303E+03 -0.23211876712E+04  0.24309333046E+04  0.25500000920E-02 0. -1.
       -2    1    3    3    0  502  0.65178588911E+03 -0.31096572303E+03  0.54358870629E+03  0.90388782919E+03  0.25500000920E-02 0.  1.
</event>
<event>
 5   0  0.9065579E-06  0.2769783E+04  0.7818609E-02  0.8312711E-01
        2   -1    0    0  501    0  0.00000000000E+00  0.00000000000E+00  0.24050214079E+04  0.24050214079E+04  0.25500000920E-02 0. -1.
       -2   -1    0    0    0  501  0.00000000000E+00  0.00000000000E+00 -0.79746675773E+03  0.79746675774E+03  0.25500000920E-02 0.  1.
    10030    2    1    2    0    0  0.00000000000E+00  0.00000000000E+00  0.16075546502E+04  0.32024881656E+04  0.27697831139E+04 0.  0.
        3    1    3    3  502    0 -0.15154911113E+03 -0.10147754291E+04  0.18792443320E+04  0.21410968156E+04  0.10100000352E+00 0. -1.
       -3    1    3    3    0  502  0.15154911113E+03  0.10147754291E+04 -0.27168968178E+03  0.10613913500E+04  0.10100000352E+00 0.  1.
</event>
<event>
 5   0  0.9342133E-06  0.2805650E+04  0.7818609E-02  0.8301516E-01
        2   -1    0    0  501    0  0.00000000000E+00  0.00000000000E+00  0.11407178010E+04  0.11407178010E+04  0.25500000920E-02 0. -1.
       -2   -1    0    0    0  501  0.00000000000E+00  0.00000000000E+00 -0.17251578786E+04  0.17251578786E+04  0.25500000920E-02 0.  1.
    10030    2    1    2    0    0  0.00000000000E+00  0.00000000000E+00 -0.58444007762E+03  0.28658756797E+04  0.28056502289E+04 0.  0.
        2    1    3    3  502    0 -0.64705155973E+03  0.15477714816E+03  0.96931567141E+03  0.11756719599E+04  0.25500000920E-02 0. -1.
       -2    1    3    3    0  502  0.64705155973E+03 -0.15477714816E+03 -0.15537557490E+04  0.16902037197E+04  0.25500000920E-02 0.  1.
</event>
<event>
 5   0  0.9426937E-06  0.2833083E+04  0.7818609E-02  0.8293071E-01
        2   -1    0    0  501    0  0.00000000000E+00  0.00000000000E+00  0.24861680765E+04  0.24861680765E+04  0.25500000920E-02 0.  1.
       -2   -1    0    0    0  501  0.00000000000E+00  0.00000000000E+00 -0.80710123941E+03  0.80710123941E+03  0.25500000920E-02 0. -1.
    10030    2    1    2    0    0  0.00000000000E+00  0.00000000000E+00  0.16790668371E+04  0.32932693159E+04  0.28330826574E+04 0.  0.
        4    1    3    3  502    0 -0.20043116113E+03  0.13071301664E+04  0.24928995018E+03  0.13457001948E+04  0.12699999809E+01 0. -1.
       -4    1    3    3    0  502  0.20043116113E+03 -0.13071301664E+04  0.14297768869E+04  0.19475691211E+04  0.12699999809E+01 0.  1.
</event>
<event>
 5   0  0.3600963E-06  0.2793184E+04  0.7818609E-02  0.8305388E-01
        1   -1    0    0  501    0  0.00000000000E+00  0.00000000000E+00  0.17876616145E+04  0.17876616145E+04  0.50400001928E-02 0.  1.
       -1   -1    0    0    0  501  0.00000000000E+00  0.00000000000E+00 -0.10910727434E+04  0.10910727434E+04  0.50400001928E-02 0. -1.
    10030    2    1    2    0    0  0.00000000000E+00  0.00000000000E+00  0.69658887116E+03  0.28787343579E+04  0.27931837476E+04 0.  0.
        5    1    3    3  502    0 -0.13002321344E+04 -0.44154551225E+03  0.85775916118E+02  0.13758436105E+04  0.46999998093E+01 0. -1.
       -5    1    3    3    0  502  0.13002321344E+04  0.44154551225E+03  0.61081295505E+03  0.15028907474E+04  0.46999998093E+01 0.  1.
</event>
<event>
 5   0  0.3371603E-06  0.2774549E+04  0.7818609E-02  0.8311214E-01
       -1   -1    0    0    0  501  0.00000000000E+00  0.00000000000E+00  0.17200365857E+04  0.17200365857E+04  0.50400001928E-02 0. -1.
        1   -1    0    0  501    0  0.00000000000E+00  0.00000000000E+00 -0.11188896157E+04  0.11188896157E+04  0.50400001928E-02 0.  1.
    10030    2    1    2    0    0  0.00000000000E+00  0.00000000000E+00  0.60114697004E+03  0.28389262014E+04  0.27745493864E+04 0.  0.
        1    1    3    3  502    0  0.68662952353E+03 -0.55025083583E+03  0.13979767742E+04  0.16518399275E+04  0.50400001928E-02 0. -1.
       -1    1    3    3    0  502 -0.68662952353E+03  0.55025083583E+03 -0.79682980413E+03  0.11870862739E+04  0.50400001928E-02 0.  1.
</event>
<event>
 5   0  0.9342133E-06  0.2808402E+04  0.7818609E-02  0.8300665E-01
       -2   -1    0    0    0  501  0.00000000000E+00  0.00000000000E+00  0.11597600525E+04  0.11597600525E+04  0.25500000920E-02 0.  1.
        2   -1    0    0  501    0  0.00000000000E+00  0.00000000000E+00 -0.17001625746E+04  0.17001625746E+04  0.25500000920E-02 0. -1.
    10030    2    1    2    0    0  0.00000000000E+00  0.00000000000E+00 -0.54040252208E+03  0.28599226271E+04  0.28084021341E+04 0.  0.
        2    1    3    3  502    0  0.32959739722E+03 -0.13406584251E+04 -0.90177121585E+01  0.13806088425E+04  0.25500000920E-02 0. -1.
       -2    1    3    3    0  502 -0.32959739722E+03  0.13406584251E+04 -0.53138480992E+03  0.14793137846E+04  0.25500000920E-02 0.  1.
</event>
<event>
 5   0  0.9342133E-06  0.2780246E+04  0.7818609E-02  0.8309428E-01
       -2   -1    0    0    0  501  0.00000000000E+00  0.00000000000E+00  0.17100343476E+04  0.17100343476E+04  0.25500000920E-02 0. -1.
        2   -1    0    0  501    0  0.00000000000E+00  0.00000000000E+00 -0.11300600797E+04  0.11300600797E+04  0.25500000920E-02 0.  1.
    10030    2    1    2    0    0  0.00000000000E+00  0.00000000000E+00  0.57997426785E+03  0.28400944273E+04  0.27802457094E+04 0.  0.
        2    1    3    3  502    0 -0.79989747962E+03 -0.96364502694E+03 -0.32631917673E+03  0.12941916091E+04  0.25500000920E-02 0.  1.
       -2    1    3    3    0  502  0.79989747962E+03  0.96364502694E+03  0.90629344458E+03  0.15459028183E+04  0.25500000920E-02 0. -1.
</event>
<event>
 5   0  0.9065579E-06  0.2804975E+04  0.7818609E-02  0.8301725E-01
       -2   -1    0    0    0  501  0.00000000000E+00  0.00000000000E+00  0.10529609886E+04  0.10529609886E+04  0.25500000920E-02 0. -1.
        2   -1    0    0  501    0  0.00000000000E+00  0.00000000000E+00 -0.18680385080E+04  0.18680385080E+04  0.25500000920E-02 0.  1.
    10030    2    1    2    0    0  0.00000000000E+00  0.00000000000E+00 -0.81507751944E+03  0.29209994966E+04  0.28049753469E+04 0.  0.
        3    1    3    3  502    0 -0.91565123985E+03 -0.93294403168E+03  0.12158253564E+03  0.13128534124E+04  0.10100000352E+00 0. -1.
       -3    1    3    3    0  502  0.91565123985E+03  0.93294403168E+03 -0.93666005508E+03  0.16081460842E+04  0.10100000352E+00 0.  1.
</event>
<event>
 5   0  0.3397882E-06  0.2755270E+04  0.7818609E-02  0.8317291E-01
       -1   -1    0    0    0  501  0.00000000000E+00  0.00000000000E+00  0.19747726097E+04  0.19747726097E+04  0.50400001928E-02 0. -1.
        1   -1    0    0  501    0  0.00000000000E+00  0.00000000000E+00 -0.96106142090E+03  0.96106142091E+03  0.50400001928E-02 0.  1.
    10030    2    1    2    0    0  0.00000000000E+00  0.00000000000E+00  0.10137111888E+04  0.29358340306E+04  0.27552696930E+04 0.  0.
        2    1    3    3  502    0 -0.63826814542E+03  0.12191073196E+04  0.43723707670E+03  0.14438785071E+04  0.25500000920E-02 0.  1.
       -2    1    3    3    0  502  0.63826814542E+03 -0.12191073196E+04  0.57647411214E+03  0.14919555235E+04  0.25500000920E-02 0. -1.
</event>
<event>
 5   0  0.3371603E-06  0.2754056E+04  0.7818609E-02  0.8317676E-01
        1   -1    0    0  501    0  0.00000000000E+00  0.00000000000E+00  0.14352885103E+04  0.14352885104E+04  0.50400001928E-02 0. -1.
       -1   -1    0    0    0  501  0.00000000000E+00  0.00000000000E+00 -0.13211321981E+04  0.13211321981E+04  0.50400001928E-02 0.  1.
    10030    2    1    2    0    0  0.00000000000E+00  0.00000000000E+00  0.11415631223E+03  0.27564207085E+04  0.27540558198E+04 0.  0.
        1    1    3    3  502    0 -0.14662491139E+03  0.52026841191E+03 -0.12105115635E+04  0.13257135175E+04  0.50400001928E-02 0.  1.
       -1    1    3    3    0  502  0.14662491139E+03 -0.52026841191E+03  0.13246678758E+04  0.14307071909E+04  0.50400001928E-02 0. -1.
</event>
<event>
 5   0  0.9342133E-06  0.2822139E+04  0.7818609E-02  0.8296428E-01
       -2   -1    0    0    0  501  0.00000000000E+00  0.00000000000E+00  0.75025517207E+03  0.75025517207E+03  0.25500000920E-02 0.  1.
        2   -1    0    0  501    0  0.00000000000E+00  0.00000000000E+00 -0.26539193920E+04  0.26539193920E+04  0.25500000920E-02 0. -1.
    10030    2    1    2    0    0  0.00000000000E+00  0.00000000000E+00 -0.19036642199E+04  0.34041745640E+04  0.28221387280E+04 0.  0.
        2    1    3    3  502    0 -0.85271206111E+03  0.43525736665E+03 -0.22022257642E+04  0.24013257070E+04  0.25500000920E-02 0. -1.
       -2    1    3    3    0  502  0.85271206111E+03 -0.43525736665E+03  0.29856154431E+03  0.10028488571E+04  0.25500000920E-02 0.  1.
</event>
<event>
 5   0  0.9252359E-06  0.2763274E+04  0.7818609E-02  0.8314762E-01
        2   -1    0    0  501    0  0.00000000000E+00  0.00000000000E+00  0.20812729273E+04  0.20812729273E+04  0.25500000920E-02 0.  1.
       -2   -1    0    0    0  501  0.00000000000E+00  0.00000000000E+00 -0.91718934299E+03  0.91718934300E+03  0.25500000920E-02 0. -1.
    10030    2    1    2    0    0  0.00000000000E+00  0.00000000000E+00  0.11640835843E+04  0.29984622703E+04  0.27632743973E+04 0.  0.
        5    1    3    3  502    0 -0.11593202985E+04 -0.44373826183E+03  0.12402783469E+04  0.17547762442E+04  0.46999998093E+01 0.  1.
       -5    1    3    3    0  502  0.11593202985E+04  0.44373826183E+03 -0.76194762607E+02  0.12436860260E+04  0.46999998093E+01 0. -1.
</event>
<event>
 5   0  0.3397882E-06  0.2797170E+04  0.7818609E-02  0.8304148E-01
        1   -1    0    0  501    0  0.00000000000E+00  0.00000000000E+00  0.17326838753E+04  0.17326838753E+04  0.50400001928E-02 0. -1.
       -1   -1    0    0    0  501  0.00000000000E+00  0.00000000000E+00 -0.11289072878E+04  0.11289072878E+04  0.50400001928E-02 0.  1.
    10030    2    1    2    0    0  0.00000000000E+00  0.00000000000E+00  0.60377658746E+03  0.28615911631E+04  0.27971696083E+04 0.  0.
        2    1    3    3  502    0 -0.12778556642E+04  0.53099431337E+03  0.50946376283E+03  0.14745926166E+04  0.25500000920E-02 0.  1.
       -2    1    3    3    0  502  0.12778556642E+04 -0.53099431337E+03  0.94312824628E+02  0.13869985465E+04  0.25500000920E-02 0. -1.
</event>
<event>
 5   0  0.3600963E-06  0.2796241E+04  0.7818609E-02  0.8304436E-01
        1   -1    0    0  501    0  0.00000000000E+00  0.00000000000E+00  0.19186514802E+04  0.19186514802E+04  0.50400001928E-02 0. -1.
       -1   -1    0    0    0  501  0.00000000000E+00  0.00000000000E+00 -0.10188100231E+04  0.10188100231E+04  0.50400001928E-02 0.  1.
    10030    2    1    2    0    0  0.00000000000E+00  0.00000000000E+00  0.89984145708E+03  0.29374615033E+04  0.27962413049E+04 0.  0.
        5    1    3    3  502    0  0.12353812122E+04 -0.94158561146E+01 -0.23770899393E+03  0.12580870613E+04  0.46999998093E+01 0.  1.
       -5    1    3    3    0  502 -0.12353812122E+04  0.94158561146E+01  0.11375504510E+04  0.16793744420E+04  0.46999998093E+01 0. -1.
</event>
<event>
 5   0  0.9426937E-06  0.2874530E+04  0.7818609E-02  0.8280496E-01
        2   -1    0    0  501    0  0.00000000000E+00  0.00000000000E+00  0.14636096798E+04  0.14636096798E+04  0.25500000920E-02 0. -1.
       -2   -1    0    0    0  501  0.00000000000E+00  0.00000000000E+00 -0.14113944881E+04  0.14113944881E+04  0.25500000920E-02 0.  1.
    10030    2    1    2    0    0  0.00000000000E+00  0.00000000000E+00  0.52215191736E+02  0.28750041679E+04  0.28745299684E+04 0.  0.
        4    1    3    3  502    0 -0.48156161956E+03 -0.20580185632E+03 -0.13125724022E+04  0.14131892730E+04  0.12699999809E+01 0.  1.
       -4    1    3    3    0  502  0.48156161956E+03  0.20580185632E+03  0.13647875939E+04  0.14618148949E+04  0.12699999809E+01 0. -1.
</event>
<event>
 5   0  0.3438130E-06  0.2559116E+04  0.7818609E-02  0.8382223E-01
        1   -1    0    0  501    0  0.00000000000E+00  0.00000000000E+00  0.17501396977E+04  0.17501396977E+04  0.50400001928E-02 0.  1.
       -1   -1    0    0    0  501  0.00000000000E+00  0.00000000000E+00 -0.93550773661E+03  0.93550773663E+03  0.50400001928E-02 0. -1.
    10030    2    1    2    0    0  0.00000000000E+00  0.00000000000E+00  0.81463196106E+03  0.26856474343E+04  0.25591164314E+04 0.  0.
        3    1    3    3  502    0  0.12577960833E+04 -0.16762316782E+03  0.58014211998E+03  0.13952467177E+04  0.10100000352E+00 0.  1.
       -3    1    3    3    0  502 -0.12577960833E+04  0.16762316782E+03  0.23448984108E+03  0.12904007166E+04  0.10100000352E+00 0. -1.
</event>
<event>
 5   0  0.3397882E-06  0.2780655E+04  0.7818609E-02  0.8309299E-01
        1   -1    0    0  501    0  0.00000000000E+00  0.00000000000E+00  0.15065939280E+04  0.15065939280E+04  0.50400001928E-02 0. -1.
       -1   -1    0    0    0  501  0.00000000000E+00  0.00000000000E+00 -0.12830335188E+04  0.12830335188E+04  0.50400001928E-02 0.  1.
    10030    2    1    2    0    0  0.00000000000E+00  0.00000000000E+00  0.22356040920E+03  0.27896274469E+04  0.27806549653E+04 0.  0.
        2    1    3    3  502    0 -0.76897730755E+03 -0.10085434500E+04 -0.45972851590E+03  0.13490130831E+04  0.25500000920E-02 0.  1.
       -2    1    3    3    0  502  0.76897730755E+03  0.10085434500E+04  0.68328892510E+03  0.14406143638E+04  0.25500000920E-02 0. -1.
</event>
<event>
 5   0  0.9342133E-06  0.2705465E+04  0.7818609E-02  0.8333234E-01
       -2   -1    0    0    0  501  0.00000000000E+00  0.00000000000E+00  0.68012093914E+03  0.68012093914E+03  0.25500000920E-02 0. -1.
        2   -1    0    0  501    0  0.00000000000E+00  0.00000000000E+00 -0.26905298861E+04  0.26905298861E+04  0.25500000920E-02 0.  1.
    10030    2    1    2    0    0  0.00000000000E+00  0.00000000000E+00 -0.20104089469E+04  0.33706508252E+04  0.27054653669E+04 0.  0.
        2    1    3    3  502    0  0.11383621821E+04 -0.72928408030E+03 -0.94727518925E+03  0.16507737615E+04  0.25500000920E-02 0. -1.
       -2    1    3    3    0  502 -0.11383621821E+04  0.72928408030E+03 -0.10631337577E+04  0.17198770637E+04  0.25500000920E-02 0.  1.
</event>
<event>
 5   0  0.9252359E-06  0.2776897E+04  0.7818609E-02  0.8310477E-01
       -2   -1    0    0    0  501  0.00000000000E+00  0.00000000000E+00  0.95318769486E+03  0.95318769486E+03  0.25500000920E-02 0.  1.
        2   -1    0    0  501    0  0.00000000000E+00  0.00000000000E+00 -0.20224657322E+04  0.20224657322E+04  0.25500000920E-02 0. -1.
    10030    2    1    2    0    0  0.00000000000E+00  0.00000000000E+00 -0.10692780374E+04  0.29756534271E+04  0.27768971527E+04 0.  0.
        5    1    3    3  502    0  0.56807906937E+03 -0.69805797398E+03  0.59827905256E+03  0.10807213697E+04  0.46999998093E+01 0.  1.
       -5    1    3    3    0  502 -0.56807906937E+03  0.69805797398E+03 -0.16675570899E+04  0.18949320574E+04  0.46999998093E+01 0. -1.
</event>
<event>
 5   0  0.3357244E-06  0.2812397E+04  0.7818609E-02  0.8299430E-01
        1   -1    0    0  501    0  0.00000000000E+00  0.00000000000E+00  0.17769707253E+04  0.17769707253E+04  0.50400001928E-02 0.  1.
       -1   -1    0    0    0  501  0.00000000000E+00  0.00000000000E+00 -0.11127897611E+04  0.11127897611E+04  0.50400001928E-02 0. -1.
    10030    2    1    2    0    0  0.00000000000E+00  0.00000000000E+00  0.66418096427E+03  0.28897604864E+04  0.28123974320E+04 0.  0.
        4    1    3    3  502    0  0.56864063698E+02 -0.13775024110E+04  0.47623297299E+02  0.13794984615E+04  0.12699999809E+01 0.  1.
       -4    1    3    3    0  502 -0.56864063698E+02  0.13775024110E+04  0.61655766697E+03  0.15102620248E+04  0.12699999809E+01 0. -1.
</event>
<event>
 5   0  0.9252359E-06  0.2822173E+04  0.7818609E-02  0.8296417E-01
       -2   -1    0    0    0  501  0.00000000000E+00  0.00000000000E+00  0.11901123929E+04  0.11901123929E+04  0.25500000920E-02 0.  1.
        2   -1    0    0  501    0  0.00000000000E+00  0.00000000000E+00 -0.16730904377E+04  0.16730904377E+04  0.25500000920E-02 0. -1.
    10030    2    1    2    0    0  0.00000000000E+00  0.00000000000E+00 -0.48297804478E+03  0.28632028306E+04  0.28221733925E+04 0.  0.
        5    1    3    3  502    0  0.10653326059E+04 -0.47222706565E+03  0.56582567098E+03  0.12954199098E+04  0.46999998093E+01 0.  1.
       -5    1    3    3    0  502 -0.10653326059E+04  0.47222706565E+03 -0.10488037158E+04  0.15677829208E+04  0.46999998093E+01 0. -1.
</event>
<event>
 5   0  0.3438130E-06  0.2703477E+04  0.7818609E-02  0.8333878E-01
       -1   -1    0    0    0  501  0.00000000000E+00  0.00000000000E+00  0.87341501829E+03  0.87341501830E+03  0.50400001928E-02 0. -1.
        1   -1    0    0  501    0  0.00000000000E+00  0.00000000000E+00 -0.20920151777E+04  0.20920151777E+04  0.50400001928E-02 0.  1.
    10030    2    1    2    0    0  0.00000000000E+00  0.00000000000E+00 -0.12186001594E+04  0.29654301960E+04  0.27034773716E+04 0.  0.
        3    1    3    3  502    0 -0.72258135361E+03 -0.10230318920E+04 -0.51629241315E+02  0.12535484248E+04  0.10100000352E+00 0.  1.
       -3    1    3    3    0  502  0.72258135361E+03  0.10230318920E+04 -0.11669709181E+04  0.17118817712E+04  0.10100000352E+00 0. -1.
</event>
<event>
 5   0  0.9342133E-06  0.2828739E+04  0.7818609E-02  0.8294401E-01
       -2   -1    0    0    0  501  0.00000000000E+00  0.00000000000E+00  0.13623311149E+04  0.13623311149E+04  0.25500000920E-02 0. -1.
        2   -1    0    0  501    0  0.00000000000E+00  0.00000000000E+00 -0.14683953999E+04  0.14683953999E+04  0.25500000920E-02 0.  1.
    10030    2    1    2    0    0  0.00000000000E+00  0.00000000000E+00 -0.10606428499E+03  0.28307265149E+04  0.28287387595E+04 0.  0.
        2    1    3    3  502    0 -0.50048356347E+03 -0.11035327795E+03  0.12661426878E+04  0.13659351921E+04  0.25500000920E-02 0. -1.
       -2    1    3    3    0  502  0.50048356347E+03  0.11035327795E+03 -0.13722069727E+04  0.14647913228E+04  0.25500000920E-02 0.  1.
</event>
<event>
 5   0  0.9065579E-06  0.2792612E+04  0.7818609E-02  0.8305566E-01
       -2   -1    0    0    0  501  0.00000000000E+00  0.00000000000E+00  0.78518867638E+03  0.78518867638E+03  0.25500000920E-02 0.  1.
        2   -1    0    0  501    0  0.00000000000E+00  0.00000000000E+00 -0.24830594531E+04  0.24830594531E+04  0.25500000920E-02 0. -1.
    10030    2    1    2    0    0  0.00000000000E+00  0.00000000000E+00 -0.16978707767E+04  0.32682481295E+04  0.27926117993E+04 0.  0.
        3    1    3    3  502    0  0.10000598730E+04 -0.19858631328E+02 -0.19891149732E+04  0.22264528967E+04  0.10100000352E+00 0. -1.
       -3    1    3    3    0  502 -0.10000598730E+04  0.19858631328E+02  0.29124419647E+03  0.10417952327E+04  0.10100000352E+00 0.  1.
</event>
<event>
 5   0  0.9260173E-06  0.2703234E+04  0.7818609E-02  0.8333956E-01
        2   -1    0    0  501    0  0.00000000000E+00  0.00000000000E+00  0.20703808136E+04  0.20703808136E+04  0.25500000920E-02 0. -1.
       -2   -1    0    0    0  501  0.00000000000E+00  0.00000000000E+00 -0.88238279053E+03  0.88238279053E+03  0.25500000920E-02 0.  1.
    10030    2    1    2    0    0  0.00000000000E+00  0.00000000000E+00  0.11879980230E+04  0.29527636041E+04  0.27032339150E+04 0.  0.
        1    1    3    3  502    0  0.56127040443E+03 -0.10567480094E+04  0.12806147001E+04  0.17526308318E+04  0.50400001928E-02 0. -1.
       -1    1    3    3    0  502 -0.56127040443E+03  0.10567480094E+04 -0.92616677056E+02  0.12001327723E+04  0.50400001928E-02 0.  1.
</event>
<event>
 5   0  0.3371603E-06  0.2808114E+04  0.7818609E-02  0.8300754E-01
        1   -1    0    0  501    0  0.00000000000E+00  0.00000000000E+00  0.13613710060E+04  0.13613710060E+04  0.50400001928E-02 0. -1.
       -1   -1    0    0    0  501  0.00000000000E+00  0.00000000000E+00 -0.14480813676E+04  0.14480813676E+04  0.50400001928E-02 0.  1.
    10030    2    1    2    0    0  0.00000000000E+00  0.00000000000E+00 -0.86710361619E+02  0.28094523736E+04  0.28081139494E+04 0.  0.
        1    1    3    3  502    0  0.41750033465E+02 -0.11475645482E+04  0.76494605971E+03  0.13797789432E+04  0.50400001928E-02 0. -1.
       -1    1    3    3    0  502 -0.41750033465E+02  0.11475645482E+04 -0.85165642133E+03  0.14296734304E+04  0.50400001928E-02 0.  1.
</event>
<event>
 5   0  0.9065579E-06  0.2801404E+04  0.7818609E-02  0.8302833E-01
       -2   -1    0    0    0  501  0.00000000000E+00  0.00000000000E+00  0.15157165919E+04  0.15157165919E+04  0.25500000920E-02 0. -1.
        2   -1    0    0  501    0  0.00000000000E+00  0.00000000000E+00 -0.12944146742E+04  0.12944146742E+04  0.25500000920E-02 0.  1.
    10030    2    1    2    0    0  0.00000000000E+00  0.00000000000E+00  0.22130191764E+03  0.28101312661E+04  0.28014037899E+04 0.  0.
        3    1    3    3  502    0  0.94852792251E+03 -0.20405828748E+03  0.11240560906E+04  0.14848727587E+04  0.10100000352E+00 0. -1.
       -3    1    3    3    0  502 -0.94852792251E+03  0.20405828748E+03 -0.90275417295E+03  0.13252585074E+04  0.10100000352E+00 0.  1.
</event>
<event>
 5   0  0.3357244E-06  0.2792797E+04  0.7818609E-02  0.8305508E-01
       -1   -1    0    0    0  501  0.00000000000E+00  0.00000000000E+00  0.13483658868E+04  0.13483658868E+04  0.50400001928E-02 0.  1.
        1   -1    0    0  501    0  0.00000000000E+00  0.00000000000E+00 -0.14461419919E+04  0.14461419919E+04  0.50400001928E-02 0. -1.
    10030    2    1    2    0    0  0.00000000000E+00  0.00000000000E+00 -0.97776105080E+02  0.27945078787E+04  0.27927968271E+04 0.  0.
        4    1    3    3  502    0  0.11998173591E+04  0.70482315512E+03  0.67757556111E+02  0.13931726650E+04  0.12699999809E+01 0. -1.
       -4    1    3    3    0  502 -0.11998173591E+04 -0.70482315512E+03 -0.16553366119E+03  0.14013352137E+04  0.12699999809E+01 0.  1.
</event>
<event>
 5   0  0.9252359E-06  0.2811384E+04  0.7818609E-02  0.8299743E-01
        2   -1    0    0  501    0  0.00000000000E+00  0.00000000000E+00  0.19673951896E+04  0.19673951896E+04  0.25500000920E-02 0. -1.
       -2   -1    0    0    0  501  0.00000000000E+00  0.00000000000E+00 -0.10043581335E+04  0.10043581335E+04  0.25500000920E-02 0.  1.
    10030    2    1    2    0    0  0.00000000000E+00  0.00000000000E+00  0.96303705611E+03  0.29717533232E+04  0.28113835459E+04 0.  0.
        5    1    3    3  502    0 -0.67178579824E+03  0.66394156230E+03 -0.61894026764E+03  0.11292580315E+04  0.46999998093E+01 0.  1.
       -5    1    3    3    0  502  0.67178579824E+03 -0.66394156230E+03  0.15819773238E+04  0.18424952916E+04  0.46999998093E+01 0. -1.
</event>
<event>
 5   0  0.3357244E-06  0.2798881E+04  0.7818609E-02  0.8303616E-01
       -1   -1    0    0    0  501  0.00000000000E+00  0.00000000000E+00  0.68284633477E+03  0.68284633479E+03  0.50400001928E-02 0.  1.
        1   -1    0    0  501    0  0.00000000000E+00  0.00000000000E+00 -0.28680437403E+04  0.28680437403E+04  0.50400001928E-02 0. -1.
    10030    2    1    2    0    0  0.00000000000E+00  0.00000000000E+00 -0.21851974055E+04  0.35508900751E+04  0.27988806020E+04 0.  0.
        4    1    3    3  502    0  0.55384539142E+03  0.37871988622E+03  0.46548464203E+03  0.81660947501E+03  0.12699999809E+01 0.  1.
       -4    1    3    3    0  502 -0.55384539142E+03 -0.37871988622E+03 -0.26506820475E+04  0.27342806000E+04  0.12699999809E+01 0. -1.
</event>
<event>
 5   0  0.3600963E-06  0.2805624E+04  0.7818609E-02  0.8301524E-01
        1   -1    0    0  501    0  0.00000000000E+00  0.00000000000E+00  0.21804258503E+04  0.21804258503E+04  0.50400001928E-02 0.  1.
       -1   -1    0    0    0  501  0.00000000000E+00  0.00000000000E+00 -0.90252194577E+03  0.90252194578E+03  0.50400001928E-02 0. -1.
    10030    2    1    2    0    0  0.00000000000E+00  0.00000000000E+00  0.12779039045E+04  0.30829477961E+04  0.28056244802E+04 0.  0.
        5    1    3    3  502    0  0.11055476107E+04 -0.20700843618E+03  0.15601306320E+04  0.19233090472E+04  0.46999998093E+01 0.  1.
       -5    1    3    3    0  502 -0.11055476107E+04  0.20700843618E+03 -0.28222672746E+03  0.11596387489E+04  0.46999998093E+01 0. -1.
</event>
<event>
 5   0  0.9260173E-06  0.2756591E+04  0.7818609E-02  0.8316873E-01
       -2   -1    0    0    0  501  0.00000000000E+00  0.00000000000E+00  0.98451969480E+03  0.98451969480E+03  0.25500000920E-02 0.  1.
        2   -1    0    0  501    0  0.00000000000E+00  0.00000000000E+00 -0.19295686390E+04  0.19295686390E+04  0.25500000920E-02 0. -1.
    10030    2    1    2    0    0  0.00000000000E+00  0.00000000000E+00 -0.94504894419E+03  0.29140883338E+04  0.27565908855E+04 0.  0.
        1    1    3    3  502    0  0.78190400013E+03 -0.76073410100E+03 -0.13630362654E+04  0.17458402272E+04  0.50400001928E-02 0. -1.
       -1    1    3    3    0  502 -0.78190400013E+03  0.76073410100E+03  0.41798732126E+03  0.11682481066E+04  0.50400001928E-02 0.  1.
</event>
<event>
 5   0  0.9426937E-06  0.2867928E+04  0.7818609E-02  0.8282484E-01
        2   -1    0    0  501    0  0.00000000000E+00  0.00000000000E+00  0.11827282823E+04  0.11827282823E+04  0.25500000920E-02 0. -1.
       -2   -1    0    0    0  501  0.00000000000E+00  0.00000000000E+00 -0.17385670410E+04  0.17385670410E+04  0.25500000920E-02 0.  1.
    10030    2    1    2    0    0  0.00000000000E+00  0.00000000000E+00 -0.55583875875E+03  0.29212953233E+04  0.28679277607E+04 0.  0.
        4    1    3    3  502    0  0.11183052409E+04  0.35620690909E+03  0.56128093818E+03  0.13009718976E+04  0.12699999809E+01 0. -1.
       -4    1    3    3    0  502 -0.11183052409E+04 -0.35620690909E+03 -0.11171196969E+04  0.16203234257E+04  0.12699999809E+01 0.  1.
</event>
<event>
 5   0  0.9065579E-06  0.2808673E+04  0.7818609E-02  0.8300581E-01
        2   -1    0    0  501    0  0.00000000000E+00  0.00000000000E+00  0.18402204754E+04  0.18402204754E+04  0.25500000920E-02 0.  1.
       -2   -1    0    0    0  501  0.00000000000E+00  0.00000000000E+00 -0.10716978689E+04  0.10716978689E+04  0.25500000920E-02 0. -1.
    10030    2    1    2    0    0  0.00000000000E+00  0.00000000000E+00  0.76852260656E+03  0.29119183443E+04  0.28086725418E+04 0.  0.
        3    1    3    3  502    0  0.15492390583E+02 -0.13960759012E+04  0.54112552362E+03  0.14973592683E+04  0.10100000352E+00 0. -1.
       -3    1    3    3    0  502 -0.15492390583E+02  0.13960759012E+04  0.22739708294E+03  0.14145590760E+04  0.10100000352E+00 0.  1.
</event>
<event>
 5   0  0.3357244E-06  0.2788137E+04  0.7818609E-02  0.8306961E-01
        1   -1    0    0  501    0  0.00000000000E+00  0.00000000000E+00  0.10523160799E+04  0.10523160799E+04  0.50400001928E-02 0. -1.
       -1   -1    0    0    0  501  0.00000000000E+00  0.00000000000E+00 -0.18468095961E+04  0.18468095962E+04  0.50400001928E-02 0.  1.
    10030    2    1    2    0    0  0.00000000000E+00  0.00000000000E+00 -0.79449351621E+03  0.28991256761E+04  0.27881373242E+04 0.  0.
        4    1    3    3  502    0  0.24714666308E+03  0.61615500451E+03 -0.16718899879E+04  0.17988735940E+04  0.12699999809E+01 0.  1.
       -4    1    3    3    0  502 -0.24714666308E+03 -0.61615500451E+03  0.87739647171E+03  0.11002520821E+04  0.12699999809E+01 0. -1.
</event>
<event>
 5   0  0.3397882E-06  0.2812170E+04  0.7818609E-02  0.8299500E-01
        1   -1    0    0  501    0  0.00000000000E+00  0.00000000000E+00  0.24118584700E+04  0.24118584700E+04  0.50400001928E-02 0.  1.
       -1   -1    0    0    0  501  0.00000000000E+00  0.00000000000E+00 -0.81973086691E+03  0.81973086692E+03  0.50400001928E-02 0. -1.
    10030    2    1    2    0    0  0.00000000000E+00  0.00000000000E+00  0.15921276031E+04  0.32315893370E+04  0.28121698630E+04 0.  0.
        2    1    3    3  502    0 -0.13752201413E+04  0.10655938696E+03  0.11096970746E+04  0.17703143612E+04  0.25500000920E-02 0.  1.
       -2    1    3    3    0  502  0.13752201413E+04 -0.10655938696E+03  0.48243052852E+03  0.14612749758E+04  0.25500000920E-02 0. -1.
</event>
<event>
 5   0  0.9252359E-06  0.2804828E+04  0.7818609E-02  0.8301771E-01
       -2   -1    0    0    0  501  0.00000000000E+00  0.00000000000E+00  0.12145681804E+04  0.12145681804E+04  0.25500000920E-02 0.  1.
        2   -1    0    0  501    0  0.00000000000E+00  0.00000000000E+00 -0.16193117142E+04  0.16193117142E+04  0.25500000920E-02 0. -1.
    10030    2    1    2    0    0  0.00000000000E+00  0.00000000000E+00 -0.40474353386E+03  0.28338798946E+04  0.28048276113E+04 0.  0.
        5    1    3    3  502    0 -0.35467652801E+03 -0.12507857884E+04  0.32889003456E+03  0.13410634857E+04  0.46999998093E+01 0.  1.
       -5    1    3    3    0  502  0.35467652801E+03  0.12507857884E+04 -0.73363356842E+03  0.14928164089E+04  0.46999998093E+01 0. -1.
</event>
<event>
 5   0  0.3371603E-06  0.2792332E+04  0.7818609E-02  0.8305653E-01
       -1   -1    0    0    0  501  0.00000000000E+00  0.00000000000E+00  0.88684799438E+03  0.88684799439E+03  0.50400001928E-02 0.  1.
        1   -1    0    0  501    0  0.00000000000E+00  0.00000000000E+00 -0.21979854495E+04  0.21979854495E+04  0.50400001928E-02 0. -1.
    10030    2    1    2    0    0  0.00000000000E+00  0.00000000000E+00 -0.13111374552E+04  0.30848334439E+04  0.27923316333E+04 0.  0.
        1    1    3    3  502    0  0.20141605267E+03  0.13713222626E+04 -0.84104143426E+03  0.16212476271E+04  0.50400001928E-02 0. -1.
       -1    1    3    3    0  502 -0.20141605267E+03 -0.13713222626E+04 -0.47009602089E+03  0.14635858168E+04  0.50400001928E-02 0.  1.
</event>
<event>
 5   0  0.9065579E-06  0.2790282E+04  0.7818609E-02  0.8306292E-01
        2   -1    0    0  501    0  0.00000000000E+00  0.00000000000E+00  0.19958878961E+04  0.19958878961E+04  0.25500000920E-02 0. -1.
       -2   -1    0    0    0  501  0.00000000000E+00  0.00000000000E+00 -0.97521456557E+03  0.97521456557E+03  0.25500000920E-02 0.  1.
    10030    2    1    2    0    0  0.00000000000E+00  0.00000000000E+00  0.10206733305E+04  0.29711024617E+04  0.27902823854E+04 0.  0.
        3    1    3    3  502    0 -0.21246496976E+02  0.13904186596E+04  0.39032299020E+03  0.14443225088E+04  0.10100000352E+00 0. -1.
       -3    1    3    3    0  502  0.21246496976E+02 -0.13904186596E+04  0.63035034032E+03  0.15267799528E+04  0.10100000352E+00 0.  1.
</event>
<event>
 5   0  0.3397882E-06  0.2804890E+04  0.7818609E-02  0.8301752E-01
       -1   -1    0    0    0  501  0.00000000000E+00  0.00000000000E+00  0.13597958996E+04  0.13597958996E+04  0.50400001928E-02 0. -1.
        1   -1    0    0  501    0  0.00000000000E+00  0.00000000000E+00 -0.14464317080E+04  0.14464317080E+04  0.50400001928E-02 0.  1.
    10030    2    1    2    0    0  0.00000000000E+00  0.00000000000E+00 -0.86635808436E+02  0.28062276076E+04  0.28048899483E+04 0.  0.
        2    1    3    3  502    0  0.61754257990E+03  0.44546412130E+03 -0.12216124683E+04  0.14394909322E+04  0.25500000920E-02 0.  1.
       -2    1    3    3    0  502 -0.61754257990E+03 -0.44546412130E+03  0.11349766598E+04  0.13667366753E+04  0.25500000920E-02 0. -1.
</event>
<event>
 5   0  0.3357244E-06  0.2507990E+04  0.7818609E-02  0.8400145E-01
        1   -1    0    0  501    0  0.00000000000E+00  0.00000000000E+00  0.20414851781E+04  0.20414851781E+04  0.50400001928E-02 0. -1.
       -1   -1    0    0    0  501  0.00000000000E+00  0.00000000000E+00 -0.77027433507E+03  0.77027433509E+03  0.50400001928E-02 0.  1.
    10030    2    1    2    0    0  0.00000000000E+00  0.00000000000E+00  0.12712108430E+04  0.28117595132E+04  0.25079901420E+04 0.  0.
        4    1    3    3  502    0  0.15557385680E+01  0.53487267241E+03  0.19071810391E+04  0.19807655906E+04  0.12699999809E+01 0. -1.
       -4    1    3    3    0  502 -0.15557385680E+01 -0.53487267241E+03 -0.63597019615E+03  0.83099392254E+03  0.12699999809E+01 0.  1.
</event>
<event>
 5   0  0.3006875E-06  0.2802821E+04  0.7818609E-02  0.8302393E-01
       -3   -1    0    0    0  501  0.00000000000E+00  0.00000000000E+00  0.16770394525E+04  0.16770394555E+04  0.10100000352E+00 0.  1.
        3   -1    0    0  501    0  0.00000000000E+00  0.00000000000E+00 -0.11710820665E+04  0.11710820708E+04  0.10100000352E+00 0. -1.
    10030    2    1    2    0    0  0.00000000000E+00  0.00000000000E+00  0.50595738600E+03  0.28481215264E+04  0.28028206065E+04 0.  0.
        5    1    3    3  502    0 -0.73956650045E+03 -0.11401792437E+04  0.60050249291E+03  0.14857969748E+04  0.46999998093E+01 0.  1.
       -5    1    3    3    0  502  0.73956650045E+03  0.11401792437E+04 -0.94545106913E+02  0.13623245515E+04  0.46999998093E+01 0. -1.
</event>
<event>
 5   0  0.9426937E-06  0.2776434E+04  0.7818609E-02  0.8310622E-01
       -2   -1    0    0    0  501  0.00000000000E+00  0.00000000000E+00  0.95900500315E+03  0.95900500316E+03  0.25500000920E-02 0. -1.
        2   -1    0    0  501    0  0.00000000000E+00  0.00000000000E+00 -0.20095271726E+04  0.20095271726E+04  0.25500000920E-02 0.  1.
    10030    2    1    2    0    0  0.00000000000E+00  0.00000000000E+00 -0.10505221695E+04  0.29685321758E+04  0.27764341249E+04 0.  0.
        4    1    3    3  502    0  0.20195429851E+03  0.67496849883E+03  0.75365002482E+03  0.10316772683E+04  0.12699999809E+01 0. -1.
       -4    1    3    3    0  502 -0.20195429851E+03 -0.67496849883E+03 -0.18041721943E+04  0.19368549075E+04  0.12699999809E+01 0.  1.
</event>
<event>
 5   0  0.3600963E-06  0.2730903E+04  0.7818609E-02  0.8325047E-01
        1   -1    0    0  501    0  0.00000000000E+00  0.00000000000E+00  0.12352135920E+04  0.12352135920E+04  0.50400001928E-02 0. -1.
       -1   -1    0    0    0  501  0.00000000000E+00  0.00000000000E+00 -0.15094209460E+04  0.15094209460E+04  0.50400001928E-02 0.  1.
    10030    2    1    2    0    0  0.00000000000E+00  0.00000000000E+00 -0.27420735403E+03  0.27446345380E+04  0.27309026116E+04 0.  0.
        5    1    3    3  502    0 -0.71273257570E+03 -0.15710368736E+03  0.10227207583E+04  0.12564430478E+04  0.46999998093E+01 0. -1.
       -5    1    3    3    0  502  0.71273257570E+03  0.15710368736E+03 -0.12969281123E+04  0.14881914902E+04  0.46999998093E+01 0.  1.
</event>
<event>
 5   0  0.9342133E-06  0.2947849E+04  0.7818609E-02  0.8258782E-01
       -2   -1    0    0    0  501  0.00000000000E+00  0.00000000000E+00  0.11475388528E+04  0.11475388528E+04  0.25500000920E-02 0. -1.
        2   -1    0    0  501    0  0.00000000000E+00  0.00000000000E+00 -0.18931414218E+04  0.18931414218E+04  0.25500000920E-02 0.  1.
    10030    2    1    2    0    0  0.00000000000E+00  0.00000000000E+00 -0.74560256908E+03  0.30406802746E+04  0.29478489346E+04 0.  0.
        2    1    3    3  502    0  0.30250655469E+03 -0.62302311154E+03 -0.17148444207E+04  0.18494213691E+04  0.25500000920E-02 0.  1.
       -2    1    3    3    0  502 -0.30250655469E+03  0.62302311154E+03  0.96924185162E+03  0.11912589056E+04  0.25500000920E-02 0. -1.
</event>
<event>
 5   0  0.3357244E-06  0.2780709E+04  0.7818609E-02  0.8309283E-01
       -1   -1    0    0    0  501  0.00000000000E+00  0.00000000000E+00  0.10457633283E+04  0.10457633283E+04  0.50400001928E-02 0. -1.
        1   -1    0    0  501    0  0.00000000000E+00  0.00000000000E+00 -0.18484921118E+04  0.18484921118E+04  0.50400001928E-02 0.  1.
    10030    2    1    2    0    0  0.00000000000E+00  0.00000000000E+00 -0.80272878344E+03  0.28942554401E+04  0.27807087321E+04 0.  0.
        4    1    3    3  502    0  0.10375113569E+04  0.43802362342E+03 -0.12500040353E+04  0.16824999886E+04  0.12699999809E+01 0.  1.
       -4    1    3    3    0  502 -0.10375113569E+04 -0.43802362342E+03  0.44727525186E+03  0.12117554515E+04  0.12699999809E+01 0. -1.
</event>
<event>
 5   0  0.3371603E-06  0.2817796E+04  0.7818609E-02  0.8297765E-01
       -1   -1    0    0    0  501  0.00000000000E+00  0.00000000000E+00  0.80741502621E+03  0.80741502623E+03  0.50400001928E-02 0.  1.
        1   -1    0    0  501    0  0.00000000000E+00  0.00000000000E+00 -0.24584542095E+04  0.24584542095E+04  0.50400001928E-02 0. -1.
    10030    2    1    2    0    0  0.00000000000E+00  0.00000000000E+00 -0.16510391833E+04  0.32658692357E+04  0.28177955001E+04 0.  0.
        1    1    3    3  502    0  0.12084713947E+04 -0.60692085432E+03 -0.12836414741E+04  0.18645351885E+04  0.50400001928E-02 0. -1.
       -1    1    3    3    0  502 -0.12084713947E+04  0.60692085432E+03 -0.36739770917E+03  0.14013340472E+04  0.50400001928E-02 0.  1.
</event>
<event>
 5   0  0.9342133E-06  0.2783203E+04  0.7818609E-02  0.8308502E-01
       -2   -1    0    0    0  501  0.00000000000E+00  0.00000000000E+00  0.11928210868E+04  0.11928210868E+04  0.25500000920E-02 0. -1.
        2   -1    0    0  501    0  0.00000000000E+00  0.00000000000E+00 -0.16235085229E+04  0.16235085229E+04  0.25500000920E-02 0.  1.
    10030    2    1    2    0    0  0.00000000000E+00  0.00000000000E+00 -0.43068743604E+03  0.28163296097E+04  0.27832033348E+04 0.  0.
        2    1    3    3  502    0  0.98764360996E+03  0.38839486668E+03  0.69551708178E+03  0.12688713425E+04  0.25500000920E-02 0. -1.
       -2    1    3    3    0  502 -0.98764360996E+03 -0.38839486668E+03 -0.11262045178E+04  0.15474582672E+04  0.25500000920E-02 0.  1.
</event>
<event>
 5   0  0.9260173E-06  0.2458799E+04  0.7818609E-02  0.8417812E-01
       -2   -1    0    0    0  501  0.00000000000E+00  0.00000000000E+00  0.77508620595E+03  0.77508620595E+03  0.25500000920E-02 0. -1.
        2   -1    0    0  501    0  0.00000000000E+00  0.00000000000E+00 -0.19500065422E+04  0.19500065422E+04  0.25500000920E-02 0.  1.
    10030    2    1    2    0    0  0.00000000000E+00  0.00000000000E+00 -0.11749203363E+04  0.27250927482E+04  0.24587990340E+04 0.  0.
        1    1    3    3  502    0 -0.57239409554E+02  0.63668849376E+02  0.77177816403E+03  0.77651246409E+03  0.50400001928E-02 0. -1.
       -1    1    3    3    0  502  0.57239409554E+02 -0.63668849376E+02 -0.19466985003E+04  0.19485802841E+04  0.50400001928E-02 0.  1.
</event>
<event>
 5   0  0.3397882E-06  0.2706180E+04  0.7818609E-02  0.8333003E-01
       -1   -1    0    0    0  501  0.00000000000E+00  0.00000000000E+00  0.12643996866E+04  0.12643996866E+04  0.50400001928E-02 0. -1.
        1   -1    0    0  501    0  0.00000000000E+00  0.00000000000E+00 -0.14480011804E+04  0.14480011805E+04  0.50400001928E-02 0.  1.
    10030    2    1    2    0    0  0.00000000000E+00  0.00000000000E+00 -0.18360149383E+03  0.27124008671E+04  0.27061797714E+04 0.  0.
        2    1    3    3  502    0  0.10991248755E+04 -0.70429396861E+03 -0.44863427329E+03  0.13803543738E+04  0.25500000920E-02 0.  1.
       -2    1    3    3    0  502 -0.10991248755E+04  0.70429396861E+03  0.26503277945E+03  0.13320464933E+04  0.25500000920E-02 0. -1.
</event>
<event>
 5   0  0.3371603E-06  0.2801445E+04  0.7818609E-02  0.8302820E-01
       -1   -1    0    0    0  501  0.00000000000E+00  0.00000000000E+00  0.66628539484E+03  0.66628539486E+03  0.50400001928E-02 0. -1.
        1   -1    0    0  501    0  0.00000000000E+00  0.00000000000E+00 -0.29447186869E+04  0.29447186869E+04  0.50400001928E-02 0.  1.
    10030    2    1    2    0    0  0.00000000000E+00  0.00000000000E+00 -0.22784332920E+04  0.36110040817E+04  0.28014446652E+04 0.  0.
        1    1    3    3  502    0 -0.10940662444E+03 -0.15419907223E+03  0.64976207602E+03  0.67671110439E+03  0.50400001928E-02 0. -1.
       -1    1    3    3    0  502  0.10940662444E+03  0.15419907223E+03 -0.29281953680E+04  0.29342929773E+04  0.50400001928E-02 0.  1.
</event>
<event>
 5   0  0.3371603E-06  0.2715750E+04  0.7818609E-02  0.8329913E-01
        1   -1    0    0  501    0  0.00000000000E+00  0.00000000000E+00  0.12837423290E+04  0.12837423290E+04  0.50400001928E-02 0. -1.
       -1   -1    0    0    0  501  0.00000000000E+00  0.00000000000E+00 -0.14362882489E+04  0.14362882490E+04  0.50400001928E-02 0.  1.
    10030    2    1    2    0    0  0.00000000000E+00  0.00000000000E+00 -0.15254591994E+03  0.27200305780E+04  0.27157496364E+04 0.  0.
        1    1    3    3  502    0  0.62583333455E+03 -0.35857969496E+02 -0.12826927039E+04  0.14276742378E+04  0.50400001928E-02 0.  1.
       -1    1    3    3    0  502 -0.62583333455E+03  0.35857969496E+02  0.11301467840E+04  0.12923563402E+04  0.50400001928E-02 0. -1.
</event>
<event>
 5   0  0.9426937E-06  0.2821043E+04  0.7818609E-02  0.8296765E-01
       -2   -1    0    0    0  501  0.00000000000E+00  0.00000000000E+00  0.12898402891E+04  0.12898402891E+04  0.25500000920E-02 0.  1.
        2   -1    0    0  501    0  0.00000000000E+00  0.00000000000E+00 -0.15424943003E+04  0.15424943003E+04  0.25500000920E-02 0. -1.
    10030    2    1    2    0    0  0.00000000000E+00  0.00000000000E+00 -0.25265401118E+03  0.28323345895E+04  0.28210432782E+04 0.  0.
        4    1    3    3  502    0 -0.15679345475E+03  0.10900591651E+04 -0.10111924967E+04  0.14951003475E+04  0.12699999809E+01 0. -1.
       -4    1    3    3    0  502  0.15679345475E+03 -0.10900591651E+04  0.75853848549E+03  0.13372342419E+04  0.12699999809E+01 0.  1.
</event>
<event>
 5   0  0.3438130E-06  0.2807981E+04  0.7818609E-02  0.8300795E-01
       -1   -1    0    0    0  501  0.00000000000E+00  0.00000000000E+00  0.11386642758E+04  0.11386642758E+04  0.50400001928E-02 0. -1.
        1   -1    0    0  501    0  0.00000000000E+00  0.00000000000E+00 -0.17311420246E+04  0.17311420246E+04  0.50400001928E-02 0.  1.
    10030    2    1    2    0    0  0.00000000000E+00  0.00000000000E+00 -0.59247774888E+03  0.28698063004E+04  0.28079811821E+04 0.  0.
        3    1    3    3  502    0 -0.83051942415E+03 -0.21109532903E+03 -0.14328703685E+04  0.16695631929E+04  0.10100000352E+00 0.  1.
       -3    1    3    3    0  502  0.83051942415E+03  0.21109532903E+03  0.84039261964E+03  0.12002431075E+04  0.10100000352E+00 0. -1.
</event>
<event>
 5   0  0.3371603E-06  0.2940464E+04  0.7818609E-02  0.8260939E-01
       -1   -1    0    0    0  501  0.00000000000E+00  0.00000000000E+00  0.99118176360E+03  0.99118176361E+03  0.50400001928E-02 0.  1.
        1   -1    0    0  501    0  0.00000000000E+00  0.00000000000E+00 -0.21808136122E+04  0.21808136122E+04  0.50400001928E-02 0. -1.
    10030    2    1    2    0    0  0.00000000000E+00  0.00000000000E+00 -0.11896318486E+04  0.31719953758E+04  0.29404643730E+04 0.  0.
        1    1    3    3  502    0 -0.11300974726E+04  0.82831482934E+03 -0.10752571990E+04  0.17661833988E+04  0.50400001928E-02 0. -1.
       -1    1    3    3    0  502  0.11300974726E+04 -0.82831482934E+03 -0.11437464954E+03  0.14058119770E+04  0.50400001928E-02 0.  1.
</event>
<event>
 5   0  0.3371603E-06  0.2784517E+04  0.7818609E-02  0.8308091E-01
       -1   -1    0    0    0  501  0.00000000000E+00  0.00000000000E+00  0.13131560776E+04  0.13131560776E+04  0.50400001928E-02 0.  1.
        1   -1    0    0  501    0  0.00000000000E+00  0.00000000000E+00 -0.14761257255E+04  0.14761257255E+04  0.50400001928E-02 0. -1.
    10030    2    1    2    0    0  0.00000000000E+00  0.00000000000E+00 -0.16296964792E+03  0.27892818032E+04  0.27845168111E+04 0.  0.
        1    1    3    3  502    0  0.34782614909E+03 -0.10354953414E+04 -0.94618262467E+03  0.14451626868E+04  0.50400001928E-02 0.  1.
       -1    1    3    3    0  502 -0.34782614909E+03  0.10354953414E+04  0.78321297675E+03  0.13441191164E+04  0.50400001928E-02 0. -1.
</event>
<event>
 5   0  0.9426937E-06  0.2807063E+04  0.7818609E-02  0.8301079E-01
       -2   -1    0    0    0  501  0.00000000000E+00  0.00000000000E+00  0.93356679607E+03  0.93356679607E+03  0.25500000920E-02 0. -1.
        2   -1    0    0  501    0  0.00000000000E+00  0.00000000000E+00 -0.21100797789E+04  0.21100797789E+04  0.25500000920E-02 0.  1.
    10030    2    1    2    0    0  0.00000000000E+00  0.00000000000E+00 -0.11765129829E+04  0.30436465750E+04  0.28070628199E+04 0.  0.
        4    1    3    3  502    0  0.12759939715E+04 -0.27405039437E+03 -0.28369574911E+02  0.13054005820E+04  0.12699999809E+01 0. -1.
       -4    1    3    3    0  502 -0.12759939715E+04  0.27405039437E+03 -0.11481434080E+04  0.17382459930E+04  0.12699999809E+01 0.  1.
</event>
<event>
 5   0  0.9065579E-06  0.2614980E+04  0.7818609E-02  0.8363130E-01
       -2   -1    0    0    0  501  0.00000000000E+00  0.00000000000E+00  0.74256722766E+03  0.74256722766E+03  0.25500000920E-02 0.  1.
        2   -1    0    0  501    0  0.00000000000E+00  0.00000000000E+00 -0.23021897949E+04  0.23021897949E+04  0.25500000920E-02 0. -1.
    10030    2    1    2    0    0  0.00000000000E+00  0.00000000000E+00 -0.15596225673E+04  0.30447570226E+04  0.26149804539E+04 0.  0.
        3    1    3    3  502    0  0.42436604062E+02  0.12032199873E+04 -0.13735067766E+04  0.18264884557E+04  0.10100000352E+00 0. -1.
       -3    1    3    3    0  502 -0.42436604062E+02 -0.12032199873E+04 -0.18611579064E+03  0.12182685669E+04  0.10100000352E+00 0.  1.
</event>
<event>
 5   0  0.9252359E-06  0.2814994E+04  0.7818609E-02  0.8298628E-01
        2   -1    0    0  501    0  0.00000000000E+00  0.00000000000E+00  0.20755100381E+04  0.20755100381E+04  0.25500000920E-02 0.  1.
       -2   -1    0    0    0  501  0.00000000000E+00  0.00000000000E+00 -0.95448728079E+03  0.95448728079E+03  0.25500000920E-02 0. -1.
    10030    2    1    2    0    0  0.00000000000E+00  0.00000000000E+00  0.11210227573E+04  0.30299973189E+04  0.28149940906E+04 0.  0.
        5    1    3    3  502    0 -0.24944457517E+03 -0.14289597762E+03 -0.92254201694E+03  0.96630622450E+03  0.46999998093E+01 0. -1.
       -5    1    3    3    0  502  0.24944457517E+03  0.14289597762E+03  0.20435647742E+04  0.20636910944E+04  0.46999998093E+01 0.  1.
</event>
<event>
 5   0  0.9065579E-06  0.2801368E+04  0.7818609E-02  0.8302844E-01
        2   -1    0    0  501    0  0.00000000000E+00  0.00000000000E+00  0.16870519968E+04  0.16870519968E+04  0.25500000920E-02 0. -1.
       -2   -1    0    0    0  501  0.00000000000E+00  0.00000000000E+00 -0.11629253311E+04  0.11629253311E+04  0.25500000920E-02 0.  1.
    10030    2    1    2    0    0  0.00000000000E+00  0.00000000000E+00  0.52412666571E+03  0.28499773278E+04  0.28013678815E+04 0.  0.
        3    1    3    3  502    0  0.13903643283E+04 -0.16764521034E+03  0.28893394309E+03  0.14299303184E+04  0.10100000352E+00 0. -1.
       -3    1    3    3    0  502 -0.13903643283E+04  0.16764521034E+03  0.23519272263E+03  0.14200470094E+04  0.10100000352E+00 0.  1.
</event>
<event>
 5   0  0.3600963E-06  0.2816059E+04  0.7818609E-02  0.8298300E-01
        1   -1    0    0  501    0  0.00000000000E+00  0.00000000000E+00  0.80736428544E+03  0.80736428546E+03  0.50400001928E-02 0. -1.
       -1   -1    0    0    0  501  0.00000000000E+00  0.00000000000E+00 -0.24555795209E+04  0.24555795209E+04  0.50400001928E-02 0.  1.
    10030    2    1    2    0    0  0.00000000000E+00  0.00000000000E+00 -0.16482152355E+04  0.32629438064E+04  0.28160590941E+04 0.  0.
        5    1    3    3  502    0 -0.12419270374E+04 -0.50042304543E+03 -0.31941914374E+03  0.13765379290E+04  0.46999998093E+01 0. -1.
       -5    1    3    3    0  502  0.12419270374E+04  0.50042304543E+03 -0.13287960917E+04  0.18864058774E+04  0.46999998093E+01 0.  1.
</event>
<event>
 5   0  0.9252359E-06  0.2824296E+04  0.7818609E-02  0.8295765E-01
        2   -1    0    0  501    0  0.00000000000E+00  0.00000000000E+00  0.14740440790E+04  0.14740440790E+04  0.25500000920E-02 0.  1.
       -2   -1    0    0    0  501  0.00000000000E+00  0.00000000000E+00 -0.13528508283E+04  0.13528508283E+04  0.25500000920E-02 0. -1.
    10030    2    1    2    0    0  0.00000000000E+00  0.00000000000E+00  0.12119325067E+03  0.28268949073E+04  0.28242958437E+04 0.  0.
        5    1    3    3  502    0 -0.50311156677E+03 -0.13192204528E+04  0.34576328930E+02  0.14123319243E+04  0.46999998093E+01 0. -1.
       -5    1    3    3    0  502  0.50311156677E+03  0.13192204528E+04  0.86616921738E+02  0.14145629830E+04  0.46999998093E+01 0.  1.
</event>
<event>
 5   0  0.9342133E-06  0.2809181E+04  0.7818609E-02  0.8300424E-01
       -2   -1    0    0    0  501  0.00000000000E+00  0.00000000000E+00  0.89707545735E+03  0.89707545735E+03  0.25500000920E-02 0.  1.
        2   -1    0    0  501    0  0.00000000000E+00  0.00000000000E+00 -0.21992289438E+04  0.21992289438E+04  0.25500000920E-02 0. -1.
    10030    2    1    2    0    0  0.00000000000E+00  0.00000000000E+00 -0.13021534864E+04  0.30963044011E+04  0.28091808846E+04 0.  0.
        2    1    3    3  502    0 -0.13120385951E+04 -0.50135848390E+03 -0.66021286472E+03  0.15519944043E+04  0.25500000920E-02 0.  1.
       -2    1    3    3    0  502  0.13120385951E+04  0.50135848390E+03 -0.64194062171E+03  0.15443099968E+04  0.25500000920E-02 0. -1.
</event>
<event>
 5   0  0.9252359E-06  0.2800352E+04  0.7818609E-02  0.8303159E-01
       -2   -1    0    0    0  501  0.00000000000E+00  0.00000000000E+00  0.12725141654E+04  0.12725141654E+04  0.25500000920E-02 0.  1.
        2   -1    0    0  501    0  0.00000000000E+00  0.00000000000E+00 -0.15406452901E+04  0.15406452901E+04  0.25500000920E-02 0. -1.
    10030    2    1    2    0    0  0.00000000000E+00  0.00000000000E+00 -0.26813112474E+03  0.28131594555E+04  0.28003520890E+04 0.  0.
        5    1    3    3  502    0 -0.11349221199E+03  0.54909771730E+02  0.12667923691E+04  0.12730595279E+04  0.46999998093E+01 0.  1.
       -5    1    3    3    0  502  0.11349221199E+03 -0.54909771730E+02 -0.15349234938E+04  0.15400999276E+04  0.46999998093E+01 0. -1.
</event>
<event>
 5   0  0.3371603E-06  0.2780319E+04  0.7818609E-02  0.8309405E-01
       -1   -1    0    0    0  501  0.00000000000E+00  0.00000000000E+00  0.15553001222E+04  0.15553001222E+04  0.50400001928E-02 0.  1.
        1   -1    0    0  501    0  0.00000000000E+00  0.00000000000E+00 -0.12425533571E+04  0.12425533572E+04  0.50400001928E-02 0. -1.
    10030    2    1    2    0    0  0.00000000000E+00  0.00000000000E+00  0.31274676502E+03  0.27978534793E+04  0.27803189660E+04 0.  0.
        1    1    3    3  502    0 -0.90964279910E+03 -0.93157532154E+03  0.64653954547E+03  0.14537179869E+04  0.50400001928E-02 0.  1.
       -1    1    3    3    0  502  0.90964279910E+03  0.93157532154E+03 -0.33379278045E+03  0.13441354924E+04  0.50400001928E-02 0. -1.
</event>
<event>
 5   0  0.9342133E-06  0.2786553E+04  0.7818609E-02  0.8307455E-01
        2   -1    0    0  501    0  0.00000000000E+00  0.00000000000E+00  0.79484825745E+03  0.79484825746E+03  0.25500000920E-02 0.  1.
       -2   -1    0    0    0  501  0.00000000000E+00  0.00000000000E+00 -0.24422510802E+04  0.24422510802E+04  0.25500000920E-02 0. -1.
    10030    2    1    2    0    0  0.00000000000E+00  0.00000000000E+00 -0.16474028227E+04  0.32370993376E+04  0.27865527200E+04 0.  0.
        2    1    3    3  502    0  0.13233682855E+04 -0.40968707715E+03 -0.65111421453E+03  0.15307177534E+04  0.25500000920E-02 0. -1.
       -2    1    3    3    0  502 -0.13233682855E+04  0.40968707715E+03 -0.99628860818E+03  0.17063815842E+04  0.25500000920E-02 0.  1.
</event>
<event>
 5   0  0.3600963E-06  0.2867435E+04  0.7818609E-02  0.8282633E-01
       -1   -1    0    0    0  501  0.00000000000E+00  0.00000000000E+00  0.27261976971E+04  0.27261976971E+04  0.50400001928E-02 0.  1.
        1   -1    0    0  501    0  0.00000000000E+00  0.00000000000E+00 -0.75399713111E+03  0.75399713112E+03  0.50400001928E-02 0. -1.
    10030    2    1    2    0    0  0.00000000000E+00  0.00000000000E+00  0.19722005660E+04  0.34801948282E+04  0.28674345624E+04 0.  0.
        5    1    3    3  502    0 -0.66505696154E+03 -0.63514127722E+03 -0.34886525087E+03  0.98358235923E+03  0.46999998093E+01 0. -1.
       -5    1    3    3    0  502  0.66505696154E+03  0.63514127722E+03  0.23210658168E+04  0.24966124690E+04  0.46999998093E+01 0.  1.
</event>
<event>
 5   0  0.3438130E-06  0.2740832E+04  0.7818609E-02  0.8321877E-01
       -1   -1    0    0    0  501  0.00000000000E+00  0.00000000000E+00  0.90254502667E+03  0.90254502669E+03  0.50400001928E-02 0.  1.
        1   -1    0    0  501    0  0.00000000000E+00  0.00000000000E+00 -0.20808268776E+04  0.20808268776E+04  0.50400001928E-02 0. -1.
    10030    2    1    2    0    0  0.00000000000E+00  0.00000000000E+00 -0.11782818509E+04  0.29833719043E+04  0.27408319538E+04 0.  0.
        3    1    3    3  502    0 -0.31658534342E+03 -0.13171889526E+04 -0.81440058499E+03  0.15806521880E+04  0.10100000352E+00 0. -1.
       -3    1    3    3    0  502  0.31658534342E+03  0.13171889526E+04 -0.36388126591E+03  0.14027197163E+04  0.10100000352E+00 0.  1.
</event>
<event>
 5   0  0.9426937E-06  0.2810387E+04  0.7818609E-02  0.8300051E-01
       -2   -1    0    0    0  501  0.00000000000E+00  0.00000000000E+00  0.13130929498E+04  0.13130929498E+04  0.25500000920E-02 0. -1.
        2   -1    0    0  501    0  0.00000000000E+00  0.00000000000E+00 -0.15037535933E+04  0.15037535933E+04  0.25500000920E-02 0.  1.
    10030    2    1    2    0    0  0.00000000000E+00  0.00000000000E+00 -0.19066064354E+03  0.28168465431E+04  0.28103866222E+04 0.  0.
        4    1    3    3  502    0  0.75051783627E+03  0.11583208382E+04  0.16906085122E+03  0.13905277311E+04  0.12699999809E+01 0. -1.
       -4    1    3    3    0  502 -0.75051783627E+03 -0.11583208382E+04 -0.35972149476E+03  0.14263188120E+04  0.12699999809E+01 0.  1.
</event>
<event>
 5   0  0.3600963E-06  0.2784053E+04  0.7818609E-02  0.8308236E-01
       -1   -1    0    0    0  501  0.00000000000E+00  0.00000000000E+00  0.10649065175E+04  0.10649065175E+04  0.50400001928E-02 0.  1.
        1   -1    0    0  501    0  0.00000000000E+00  0.00000000000E+00 -0.18196315162E+04  0.18196315162E+04  0.50400001928E-02 0. -1.
    10030    2    1    2    0    0  0.00000000000E+00  0.00000000000E+00 -0.75472499865E+03  0.28845380337E+04  0.27840527733E+04 0.  0.
        5    1    3    3  502    0 -0.13797164598E+04  0.17044158321E+03 -0.45097273265E+03  0.14615287675E+04  0.46999998093E+01 0. -1.
       -5    1    3    3    0  502  0.13797164598E+04 -0.17044158321E+03 -0.30375226600E+03  0.14230092662E+04  0.46999998093E+01 0.  1.
</event>
<event>
 5   0  0.3371603E-06  0.2784956E+04  0.7818609E-02  0.8307954E-01
        1   -1    0    0  501    0  0.00000000000E+00  0.00000000000E+00  0.26364241855E+04  0.26364241855E+04  0.50400001928E-02 0.  1.
       -1   -1    0    0    0  501  0.00000000000E+00  0.00000000000E+00 -0.73546405915E+03  0.73546405917E+03  0.50400001928E-02 0. -1.
    10030    2    1    2    0    0  0.00000000000E+00  0.00000000000E+00  0.19009601264E+04  0.33718882447E+04  0.27849561814E+04 0.  0.
        1    1    3    3  502    0 -0.55214250977E+03 -0.85851199940E+03  0.20972414541E+04  0.23324506256E+04  0.50400001928E-02 0.  1.
       -1    1    3    3    0  502  0.55214250977E+03  0.85851199940E+03 -0.19628132775E+03  0.10394376190E+04  0.50400001928E-02 0. -1.
</event>
<event>
 5   0  0.3600963E-06  0.2824852E+04  0.7818609E-02  0.8295594E-01
       -1   -1    0    0    0  501  0.00000000000E+00  0.00000000000E+00  0.12414805799E+04  0.12414805799E+04  0.50400001928E-02 0.  1.
        1   -1    0    0  501    0  0.00000000000E+00  0.00000000000E+00 -0.16069101748E+04  0.16069101748E+04  0.50400001928E-02 0. -1.
    10030    2    1    2    0    0  0.00000000000E+00  0.00000000000E+00 -0.36542959496E+03  0.28483907547E+04  0.28248524037E+04 0.  0.
        5    1    3    3  502    0 -0.10504642148E+04 -0.87978879648E+03  0.16280989110E+03  0.13798668572E+04  0.46999998093E+01 0.  1.
       -5    1    3    3    0  502  0.10504642148E+04  0.87978879648E+03 -0.52823948606E+03  0.14685238975E+04  0.46999998093E+01 0. -1.
</event>
<event>
 5   0  0.9252359E-06  0.2789204E+04  0.7818609E-02  0.8306628E-01
        2   -1    0    0  501    0  0.00000000000E+00  0.00000000000E+00  0.15214894659E+04  0.15214894659E+04  0.25500000920E-02 0.  1.
       -2   -1    0    0    0  501  0.00000000000E+00  0.00000000000E+00 -0.12782966433E+04  0.12782966433E+04  0.25500000920E-02 0. -1.
    10030    2    1    2    0    0  0.00000000000E+00  0.00000000000E+00  0.24319282256E+03  0.27997861092E+04  0.27892040995E+04 0.  0.
        5    1    3    3  502    0 -0.49450173166E+03 -0.59329767521E+03 -0.10439975249E+04  0.12986481494E+04  0.46999998093E+01 0. -1.
       -5    1    3    3    0  502  0.49450173166E+03  0.59329767521E+03  0.12871903474E+04  0.15011379598E+04  0.46999998093E+01 0.  1.
</event>
<event>
 5   0  0.3371603E-06  0.2520610E+04  0.7818609E-02  0.8395680E-01
        1   -1    0    0  501    0  0.00000000000E+00  0.00000000000E+00  0.18992418411E+04  0.18992418411E+04  0.50400001928E-02 0.  1.
       -1   -1    0    0    0  501  0.00000000000E+00  0.00000000000E+00 -0.83631715277E+03  0.83631715279E+03  0.50400001928E-02 0. -1.
    10030    2    1    2    0    0  0.00000000000E+00  0.00000000000E+00  0.10629246883E+04  0.27355589939E+04  0.25206098698E+04 0.  0.
        1    1    3    3  502    0  0.15980971581E+03 -0.61360087162E+02 -0.82364116312E+03  0.84124251626E+03  0.50400001928E-02 0. -1.
       -1    1    3    3    0  502 -0.15980971581E+03  0.61360087162E+02  0.18865658514E+04  0.18943164776E+04  0.50400001928E-02 0.  1.
</event>
<event>
 5   0  0.3006875E-06  0.2814452E+04  0.7818609E-02  0.8298796E-01
       -3   -1    0    0    0  501  0.00000000000E+00  0.00000000000E+00  0.95341250930E+03  0.95341251465E+03  0.10100000352E+00 0. -1.
        3   -1    0    0  501    0  0.00000000000E+00  0.00000000000E+00 -0.20770492960E+04  0.20770492985E+04  0.10100000352E+00 0.  1.
    10030    2    1    2    0    0  0.00000000000E+00  0.00000000000E+00 -0.11236367867E+04  0.30304618131E+04  0.28144518423E+04 0.  0.
        1    1    3    3  502    0  0.52953409469E+03  0.11965553882E+04 -0.11193771549E+04  0.17219629408E+04  0.50400001928E-02 0.  1.
       -1    1    3    3    0  502 -0.52953409469E+03 -0.11965553882E+04 -0.42596318229E+01  0.13084988724E+04  0.50400001928E-02 0. -1.
</event>
<event>
 5   0  0.9252359E-06  0.2815084E+04  0.7818609E-02  0.8298601E-01
        2   -1    0    0  501    0  0.00000000000E+00  0.00000000000E+00  0.17819724448E+04  0.17819724448E+04  0.25500000920E-02 0. -1.
       -2   -1    0    0    0  501  0.00000000000E+00  0.00000000000E+00 -0.11117877249E+04  0.11117877249E+04  0.25500000920E-02 0.  1.
    10030    2    1    2    0    0  0.00000000000E+00  0.00000000000E+00  0.67018471998E+03  0.28937601697E+04  0.28150844323E+04 0.  0.
        5    1    3    3  502    0 -0.82574547908E+03  0.77280354849E+03 -0.52622254069E+03  0.12474025706E+04  0.46999998093E+01 0.  1.
       -5    1    3    3    0  502  0.82574547908E+03 -0.77280354849E+03  0.11964072607E+04  0.16463575991E+04  0.46999998093E+01 0. -1.
</event>
<event>
 5   0  0.3600963E-06  0.2792570E+04  0.7818609E-02  0.8305579E-01
       -1   -1    0    0    0  501  0.00000000000E+00  0.00000000000E+00  0.26509193150E+04  0.26509193150E+04  0.50400001928E-02 0.  1.
        1   -1    0    0  501    0  0.00000000000E+00  0.00000000000E+00 -0.73544735518E+03  0.73544735519E+03  0.50400001928E-02 0. -1.
    10030    2    1    2    0    0  0.00000000000E+00  0.00000000000E+00  0.19154719598E+04  0.33863666702E+04  0.27925698552E+04 0.  0.
        5    1    3    3  502    0  0.10092374034E+04  0.19259531241E+03  0.21042602449E+04  0.23417058652E+04  0.46999998093E+01 0.  1.
       -5    1    3    3    0  502 -0.10092374034E+04 -0.19259531241E+03 -0.18878828511E+03  0.10446608050E+04  0.46999998093E+01 0. -1.
</event>
<event>
 5   0  0.9426937E-06  0.2812001E+04  0.7818609E-02  0.8299552E-01
        2   -1    0    0  501    0  0.00000000000E+00  0.00000000000E+00  0.14443420560E+04  0.14443420560E+04  0.25500000920E-02 0. -1.
       -2   -1    0    0    0  501  0.00000000000E+00  0.00000000000E+00 -0.13686769047E+04  0.13686769047E+04  0.25500000920E-02 0.  1.
    10030    2    1    2    0    0  0.00000000000E+00  0.00000000000E+00  0.75665151313E+02  0.28130189606E+04  0.28120011483E+04 0.  0.
        4    1    3    3  502    0 -0.41691619274E+03  0.77361882085E+03 -0.10600758608E+04  0.13769777178E+04  0.12699999809E+01 0.  1.
       -4    1    3    3    0  502  0.41691619274E+03 -0.77361882085E+03  0.11357410121E+04  0.14360412429E+04  0.12699999809E+01 0. -1.
</event>
<event>
 5   0  0.3357244E-06  0.2681909E+04  0.7818609E-02  0.8340899E-01
        1   -1    0    0  501    0  0.00000000000E+00  0.00000000000E+00  0.13641100313E+04  0.13641100313E+04  0.50400001928E-02 0. -1.
       -1   -1    0    0    0  501  0.00000000000E+00  0.00000000000E+00 -0.13181917941E+04  0.13181917941E+04  0.50400001928E-02 0.  1.
    10030    2    1    2    0    0  0.00000000000E+00  0.00000000000E+00  0.45918237207E+02  0.26823018254E+04  0.26819087602E+04 0.  0.
        4    1    3    3  502    0 -0.23879939359E+03 -0.29002357330E+03 -0.12644817381E+04  0.13191112548E+04  0.12699999809E+01 0.  1.
       -4    1    3    3    0  502  0.23879939359E+03  0.29002357330E+03  0.13103999754E+04  0.13631905706E+04  0.12699999809E+01 0. -1.
</event>
<event>
 5   0  0.3397882E-06  0.2798697E+04  0.7818609E-02  0.8303673E-01
       -1   -1    0    0    0  501  0.00000000000E+00  0.00000000000E+00  0.86182816351E+03  0.86182816353E+03  0.50400001928E-02 0.  1.
        1   -1    0    0  501    0  0.00000000000E+00  0.00000000000E+00 -0.22721189967E+04  0.22721189967E+04  0.50400001928E-02 0. -1.
    10030    2    1    2    0    0  0.00000000000E+00  0.00000000000E+00 -0.14102908332E+04  0.31339471602E+04  0.27986969413E+04 0.  0.
        2    1    3    3  502    0 -0.11449582384E+03  0.72432418968E+03 -0.20397247254E+04  0.21675404911E+04  0.25500000920E-02 0. -1.
       -2    1    3    3    0  502  0.11449582384E+03 -0.72432418968E+03  0.62943389218E+03  0.96640666909E+03  0.25500000920E-02 0.  1.
</event>
<event>
 5   0  0.3438130E-06  0.2787904E+04  0.7818609E-02  0.8307034E-01
        1   -1    0    0  501    0  0.00000000000E+00  0.00000000000E+00  0.10299562832E+04  0.10299562832E+04  0.50400001928E-02 0.  1.
       -1   -1    0    0    0  501  0.00000000000E+00  0.00000000000E+00 -0.18865865348E+04  0.18865865348E+04  0.50400001928E-02 0. -1.
    10030    2    1    2    0    0  0.00000000000E+00  0.00000000000E+00 -0.85663025162E+03  0.29165428180E+04  0.27879036249E+04 0.  0.
        3    1    3    3  502    0  0.11609246386E+04 -0.65183724867E+03 -0.86023851383E+03  0.15851334727E+04  0.10100000352E+00 0. -1.
       -3    1    3    3    0  502 -0.11609246386E+04  0.65183724867E+03  0.36082622079E+01  0.13314093454E+04  0.10100000352E+00 0.  1.
</event>
<event>
 5   0  0.9065579E-06  0.2825411E+04  0.7818609E-02  0.8295422E-01
        2   -1    0    0  501    0  0.00000000000E+00  0.00000000000E+00  0.15174712004E+04  0.15174712004E+04  0.25500000920E-02 0. -1.
       -2   -1    0    0    0  501  0.00000000000E+00  0.00000000000E+00 -0.13151727314E+04  0.13151727314E+04  0.25500000920E-02 0.  1.
    10030    2    1    2    0    0  0.00000000000E+00  0.00000000000E+00  0.20229846899E+03  0.28326439318E+04  0.28254109390E+04 0.  0.
        3    1    3    3  502    0  0.41747566518E+02  0.13715682671E+04  0.43785772018E+03  0.14403686208E+04  0.10100000352E+00 0. -1.
       -3    1    3    3    0  502 -0.41747566518E+02 -0.13715682671E+04 -0.23555925119E+03  0.13922753110E+04  0.10100000352E+00 0.  1.
</event>
<event>
 5   0  0.3397882E-06  0.2901229E+04  0.7818609E-02  0.8272512E-01
       -1   -1    0    0    0  501  0.00000000000E+00  0.00000000000E+00  0.18324119854E+04  0.18324119854E+04  0.50400001928E-02 0.  1.
        1   -1    0    0  501    0  0.00000000000E+00  0.00000000000E+00 -0.11483678105E+04  0.11483678105E+04  0.50400001928E-02 0. -1.
    10030    2    1    2    0    0  0.00000000000E+00  0.00000000000E+00  0.68404417488E+03  0.29807797959E+04  0.29012293529E+04 0.  0.
        2    1    3    3  502    0 -0.91095501892E+03 -0.57316215188E+03  0.13412788833E+04  0.17197043181E+04  0.25500000920E-02 0.  1.
       -2    1    3    3    0  502  0.91095501892E+03  0.57316215188E+03 -0.65723470839E+03  0.12610754778E+04  0.25500000920E-02 0. -1.
</event>
<event>
 5   0  0.3357244E-06  0.2809183E+04  0.7818609E-02  0.8300423E-01
       -1   -1    0    0    0  501  0.00000000000E+00  0.00000000000E+00  0.12253217707E+04  0.12253217708E+04  0.50400001928E-02 0. -1.
        1   -1    0    0  501    0  0.00000000000E+00  0.00000000000E+00 -0.16100893877E+04  0.16100893877E+04  0.50400001928E-02 0.  1.
    10030    2    1    2    0    0  0.00000000000E+00  0.00000000000E+00 -0.38476761699E+03  0.28354111585E+04  0.28091832120E+04 0.  0.
        4    1    3    3  502    0  0.89109585686E+03  0.25884906184E+03 -0.12566578647E+04  0.15621284405E+04  0.12699999809E+01 0.  1.
       -4    1    3    3    0  502 -0.89109585686E+03 -0.25884906184E+03  0.87189024770E+03  0.12732827180E+04  0.12699999809E+01 0. -1.
</event>
<event>
 5   0  0.9252359E-06  0.2800519E+04  0.7818609E-02  0.8303107E-01
        2   -1    0    0  501    0  0.00000000000E+00  0.00000000000E+00  0.20768114313E+04  0.20768114313E+04  0.25500000920E-02 0.  1.
       -2   -1    0    0    0  501  0.00000000000E+00  0.00000000000E+00 -0.94410400038E+03  0.94410400038E+03  0.25500000920E-02 0. -1.
    10030    2    1    2    0    0  0.00000000000E+00  0.00000000000E+00  0.11327074310E+04  0.30209154317E+04  0.28005185094E+04 0.  0.
        5    1    3    3  502    0  0.47516370465E+02  0.95401937451E+03 -0.53808465784E+03  0.10963429944E+04  0.46999998093E+01 0. -1.
       -5    1    3    3    0  502 -0.47516370465E+02 -0.95401937451E+03  0.16707920888E+04  0.19245724373E+04  0.46999998093E+01 0.  1.
</event>
<event>
 5   0  0.9426937E-06  0.2808020E+04  0.7818609E-02  0.8300783E-01
        2   -1    0    0  501    0  0.00000000000E+00  0.00000000000E+00  0.99801208846E+03  0.99801208846E+03  0.25500000920E-02 0.  1.
       -2   -1    0    0    0  501  0.00000000000E+00  0.00000000000E+00 -0.19751703356E+04  0.19751703356E+04  0.25500000920E-02 0. -1.
    10030    2    1    2    0    0  0.00000000000E+00  0.00000000000E+00 -0.97715824718E+03  0.29731824241E+04  0.28080198516E+04 0.  0.
        4    1    3    3  502    0  0.40269416080E+02 -0.38554822876E+03  0.94022652900E+03  0.10170037371E+04  0.12699999809E+01 0.  1.
       -4    1    3    3    0  502 -0.40269416080E+02  0.38554822876E+03 -0.19173847762E+04  0.19561786870E+04  0.12699999809E+01 0. -1.
</event>
<event>
 5   0  0.3397882E-06  0.2826046E+04  0.7818609E-02  0.8295227E-01
       -1   -1    0    0    0  501  0.00000000000E+00  0.00000000000E+00  0.22919591057E+04  0.22919591057E+04  0.50400001928E-02 0.  1.
        1   -1    0    0  501    0  0.00000000000E+00  0.00000000000E+00 -0.87114724508E+03  0.87114724509E+03  0.50400001928E-02 0. -1.
    10030    2    1    2    0    0  0.00000000000E+00  0.00000000000E+00  0.14208118606E+04  0.31631063508E+04  0.28260459025E+04 0.  0.
        2    1    3    3  502    0  0.85571013468E+03  0.11072729253E+04  0.49124427410E+03  0.14831096057E+04  0.25500000920E-02 0. -1.
       -2    1    3    3    0  502 -0.85571013468E+03 -0.11072729253E+04  0.92956758651E+03  0.16799967451E+04  0.25500000920E-02 0.  1.
</event>
<event>
 5   0  0.3438130E-06  0.2816496E+04  0.7818609E-02  0.8298165E-01
        1   -1    0    0  501    0  0.00000000000E+00  0.00000000000E+00  0.25762324954E+04  0.25762324954E+04  0.50400001928E-02 0.  1.
       -1   -1    0    0    0  501  0.00000000000E+00  0.00000000000E+00 -0.76979173280E+03  0.76979173281E+03  0.50400001928E-02 0. -1.
    10030    2    1    2    0    0  0.00000000000E+00  0.00000000000E+00  0.18064407626E+04  0.33460242283E+04  0.28164960336E+04 0.  0.
        3    1    3    3  502    0  0.12293019697E+03  0.10973473318E+04 -0.13510233467E+03  0.11124457969E+04  0.10100000352E+00 0.  1.
       -3    1    3    3    0  502 -0.12293019697E+03 -0.10973473318E+04  0.19415430973E+04  0.22335784313E+04  0.10100000352E+00 0. -1.
</event>
<event>
 5   0  0.3438130E-06  0.2795829E+04  0.7818609E-02  0.8304565E-01
       -1   -1    0    0    0  501  0.00000000000E+00  0.00000000000E+00  0.14681038196E+04  0.14681038196E+04  0.50400001928E-02 0.  1.
        1   -1    0    0  501    0  0.00000000000E+00  0.00000000000E+00 -0.13310806788E+04  0.13310806788E+04  0.50400001928E-02 0. -1.
    10030    2    1    2    0    0  0.00000000000E+00  0.00000000000E+00  0.13702314083E+03  0.27991844984E+04  0.27958287707E+04 0.  0.
        3    1    3    3  502    0 -0.10803794438E+04  0.80515518861E+03  0.44134273713E+03  0.14178427424E+04  0.10100000352E+00 0.  1.
       -3    1    3    3    0  502  0.10803794438E+04 -0.80515518861E+03 -0.30431959630E+03  0.13813417561E+04  0.10100000352E+00 0. -1.
</event>
<event>
 5   0  0.9342133E-06  0.2806911E+04  0.7818609E-02  0.8301126E-01
        2   -1    0    0  501    0  0.00000000000E+00  0.00000000000E+00  0.12747227644E+04  0.12747227644E+04  0.25500000920E-02 0. -1.
       -2   -1    0    0    0  501  0.00000000000E+00  0.00000000000E+00 -0.15451883373E+04  0.15451883373E+04  0.25500000920E-02 0.  1.
    10030    2    1    2    0    0  0.00000000000E+00  0.00000000000E+00 -0.27046557294E+03  0.28199111017E+04  0.28069105785E+04 0.  0.
        2    1    3    3  502    0  0.96620549981E+03  0.10053164372E+04  0.25107621554E+02  0.13945768532E+04  0.25500000920E-02 0.  1.
       -2    1    3    3    0  502 -0.96620549981E+03 -0.10053164372E+04 -0.29557319449E+03  0.14253342486E+04  0.25500000920E-02 0. -1.
</event>
<event>
 5   0  0.3371603E-06  0.2800010E+04  0.7818609E-02  0.8303265E-01
        1   -1    0    0  501    0  0.00000000000E+00  0.00000000000E+00  0.96033107661E+03  0.96033107662E+03  0.50400001928E-02 0.  1.
       -1   -1    0    0    0  501  0.00000000000E+00  0.00000000000E+00 -0.20409780944E+04  0.20409780944E+04  0.50400001928E-02 0. -1.
    10030    2    1    2    0    0  0.00000000000E+00  0.00000000000E+00 -0.10806470178E+04  0.30013091710E+04  0.28000104934E+04 0.  0.
        1    1    3    3  502    0  0.12463455035E+04 -0.62831568909E+03 -0.65704154338E+03  0.15426799114E+04  0.50400001928E-02 0. -1.
       -1    1    3    3    0  502 -0.12463455035E+04  0.62831568909E+03 -0.42360547441E+03  0.14586292597E+04  0.50400001928E-02 0.  1.
</event>
<event>
 5   0  0.9252359E-06  0.2818742E+04  0.7818609E-02  0.8297473E-01
        2   -1    0    0  501    0  0.00000000000E+00  0.00000000000E+00  0.12964417062E+04  0.12964417062E+04  0.25500000920E-02 0.  1.
       -2   -1    0    0    0  501  0.00000000000E+00  0.00000000000E+00 -0.15321372978E+04  0.15321372978E+04  0.25500000920E-02 0. -1.
    10030    2    1    2    0    0  0.00000000000E+00  0.00000000000E+00 -0.23569559166E+03  0.28285790040E+04  0.28187420545E+04 0.  0.
        5    1    3    3  502    0 -0.60545970456E+03  0.12562078681E+04  0.86984467282E+02  0.13972215462E+04  0.46999998093E+01 0. -1.
       -5    1    3    3    0  502  0.60545970456E+03 -0.12562078681E+04 -0.32268005894E+03  0.14313574578E+04  0.46999998093E+01 0.  1.
</event>
<event>
 5   0  0.3438130E-06  0.2791438E+04  0.7818609E-02  0.8305931E-01
        1   -1    0    0  501    0  0.00000000000E+00  0.00000000000E+00  0.21690876500E+04  0.21690876500E+04  0.50400001928E-02 0. -1.
       -1   -1    0    0    0  501  0.00000000000E+00  0.00000000000E+00 -0.89808815987E+03  0.89808815989E+03  0.50400001928E-02 0.  1.
    10030    2    1    2    0    0  0.00000000000E+00  0.00000000000E+00  0.12709994901E+04  0.30671758099E+04  0.27914382932E+04 0.  0.
        3    1    3    3  502    0  0.31865588492E+03 -0.13013949934E+04  0.20590437790E+03  0.13555689303E+04  0.10100000352E+00 0.  1.
       -3    1    3    3    0  502 -0.31865588492E+03  0.13013949934E+04  0.10650951122E+04  0.17116068796E+04  0.10100000352E+00 0. -1.
</event>
<event>
 5   0  0.9342133E-06  0.2750616E+04  0.7818609E-02  0.8318766E-01
       -2   -1    0    0    0  501  0.00000000000E+00  0.00000000000E+00  0.63748660508E+03  0.63748660509E+03  0.25500000920E-02 0. -1.
        2   -1    0    0  501    0  0.00000000000E+00  0.00000000000E+00 -0.29670781557E+04  0.29670781557E+04  0.25500000920E-02 0.  1.
    10030    2    1    2    0    0  0.00000000000E+00  0.00000000000E+00 -0.23295915506E+04  0.36045647608E+04  0.27506163531E+04 0.  0.
        2    1    3    3  502    0 -0.50385755163E+03  0.57619657174E+02  0.51047904608E+03  0.71957022848E+03  0.25500000920E-02 0. -1.
       -2    1    3    3    0  502  0.50385755163E+03 -0.57619657174E+02 -0.28400705967E+04  0.28849945323E+04  0.25500000920E-02 0.  1.
</event>
<event>
 5   0  0.9252359E-06  0.2877296E+04  0.7818609E-02  0.8279665E-01
       -2   -1    0    0    0  501  0.00000000000E+00  0.00000000000E+00  0.11560704800E+04  0.11560704800E+04  0.25500000920E-02 0. -1.
        2   -1    0    0  501    0  0.00000000000E+00  0.00000000000E+00 -0.17902957664E+04  0.17902957664E+04  0.25500000920E-02 0.  1.
    10030    2    1    2    0    0  0.00000000000E+00  0.00000000000E+00 -0.63422528632E+03  0.29463662464E+04  0.28772960126E+04 0.  0.
        5    1    3    3  502    0 -0.10014249585E+04 -0.47121988351E+03 -0.12582987490E+04  0.16757798059E+04  0.46999998093E+01 0.  1.
       -5    1    3    3    0  502  0.10014249585E+04  0.47121988351E+03  0.62407346266E+03  0.12705864405E+04  0.46999998093E+01 0. -1.
</event>
<event>
 5   0  0.3371603E-06  0.2788186E+04  0.7818609E-02  0.8306945E-01
       -1   -1    0    0    0  501  0.00000000000E+00  0.00000000000E+00  0.12236397576E+04  0.12236397576E+04  0.50400001928E-02 0. -1.
        1   -1    0    0  501    0  0.00000000000E+00  0.00000000000E+00 -0.15882906812E+04  0.15882906812E+04  0.50400001928E-02 0.  1.
    10030    2    1    2    0    0  0.00000000000E+00  0.00000000000E+00 -0.36465092362E+03  0.28119304388E+04  0.27881862378E+04 0.  0.
        1    1    3    3  502    0  0.89066413297E+02 -0.11581030227E+04  0.59518752015E+03  0.13051373955E+04  0.50400001928E-02 0. -1.
       -1    1    3    3    0  502 -0.89066413297E+02  0.11581030227E+04 -0.95983844378E+03  0.15067930433E+04  0.50400001928E-02 0.  1.
</event>
<event>
 5   0  0.3357244E-06  0.2760859E+04  0.7818609E-02  0.8315524E-01
        1   -1    0    0  501    0  0.00000000000E+00  0.00000000000E+00  0.19227590485E+04  0.19227590485E+04  0.50400001928E-02 0. -1.
       -1   -1    0    0    0  501  0.00000000000E+00  0.00000000000E+00 -0.99106863916E+03  0.99106863917E+03  0.50400001928E-02 0.  1.
    10030    2    1    2    0    0  0.00000000000E+00  0.00000000000E+00  0.93169040931E+03  0.29138276876E+04  0.27608594268E+04 0.  0.
        4    1    3    3  502    0 -0.47414053882E+02  0.32022823069E+03 -0.95044141065E+03  0.10040591119E+04  0.12699999809E+01 0.  1.
       -4    1    3    3    0  502  0.47414053882E+02 -0.32022823069E+03  0.18821318200E+04  0.19097685757E+04  0.12699999809E+01 0. -1.
</event>
<event>
 5   0  0.9065579E-06  0.2816694E+04  0.7818609E-02  0.8298104E-01
       -2   -1    0    0    0  501  0.00000000000E+00  0.00000000000E+00  0.15163992021E+04  0.15163992021E+04  0.25500000920E-02 0. -1.
        2   -1    0    0  501    0  0.00000000000E+00  0.00000000000E+00 -0.13079940371E+04  0.13079940371E+04  0.25500000920E-02 0.  1.
    10030    2    1    2    0    0  0.00000000000E+00  0.00000000000E+00  0.20840516499E+03  0.28243932392E+04  0.28166938876E+04 0.  0.
        3    1    3    3  502    0  0.66319972172E+03  0.24676166672E+03 -0.11167941063E+04  0.13221022188E+04  0.10100000352E+00 0.  1.
       -3    1    3    3    0  502 -0.66319972172E+03 -0.24676166672E+03  0.13251992713E+04  0.15022910203E+04  0.10100000352E+00 0. -1.
</event>
<event>
 5   0  0.3600963E-06  0.2805104E+04  0.7818609E-02  0.8301686E-01
        1   -1    0    0  501    0  0.00000000000E+00  0.00000000000E+00  0.28005534934E+04  0.28005534934E+04  0.50400001928E-02 0. -1.
       -1   -1    0    0    0  501  0.00000000000E+00  0.00000000000E+00 -0.70241527312E+03  0.70241527314E+03  0.50400001928E-02 0.  1.
    10030    2    1    2    0    0  0.00000000000E+00  0.00000000000E+00  0.20981382202E+04  0.35029687665E+04  0.28051035966E+04 0.  0.
        5    1    3    3  502    0 -0.10895356667E+04  0.63624708836E+03  0.18140257012E+04  0.22096627935E+04  0.46999998093E+01 0. -1.
       -5    1    3    3    0  502  0.10895356667E+04 -0.63624708836E+03  0.28411251906E+03  0.12933059730E+04  0.46999998093E+01 0.  1.
</event>
<event>
 5   0  0.9260173E-06  0.2788591E+04  0.7818609E-02  0.8306819E-01
        2   -1    0    0  501    0  0.00000000000E+00  0.00000000000E+00  0.73044943017E+03  0.73044943017E+03  0.25500000920E-02 0. -1.
       -2   -1    0    0    0  501  0.00000000000E+00  0.00000000000E+00 -0.26614582130E+04  0.26614582130E+04  0.25500000920E-02 0.  1.
    10030    2    1    2    0    0  0.00000000000E+00  0.00000000000E+00 -0.19310087828E+04  0.33919076431E+04  0.27885914976E+04 0.  0.
        1    1    3    3  502    0  0.61633764247E+03 -0.10553431033E+04 -0.14915261194E+03  0.12312057736E+04  0.50400001928E-02 0. -1.
       -1    1    3    3    0  502 -0.61633764247E+03  0.10553431033E+04 -0.17818561709E+04  0.21607018695E+04  0.50400001928E-02 0.  1.
</event>
<event>
 5   0  0.3371603E-06  0.2803590E+04  0.7818609E-02  0.8302155E-01
       -1   -1    0    0    0  501  0.00000000000E+00  0.00000000000E+00  0.22285940931E+04  0.22285940931E+04  0.50400001928E-02 0.  1.
        1   -1    0    0  501    0  0.00000000000E+00  0.00000000000E+00 -0.88173497202E+03  0.88173497204E+03  0.50400001928E-02 0. -1.
    10030    2    1    2    0    0  0.00000000000E+00  0.00000000000E+00  0.13468591211E+04  0.31103290651E+04  0.28035900916E+04 0.  0.
        1    1    3    3  502    0  0.10194364473E+04 -0.79800441390E+03  0.77058686877E+02  0.12969193328E+04  0.50400001928E-02 0. -1.
       -1    1    3    3    0  502 -0.10194364473E+04  0.79800441390E+03  0.12698004342E+04  0.18134097323E+04  0.50400001928E-02 0.  1.
</event>
<event>
 5   0  0.9342133E-06  0.2818253E+04  0.7818609E-02  0.8297624E-01
       -2   -1    0    0    0  501  0.00000000000E+00  0.00000000000E+00  0.93779768341E+03  0.93779768342E+03  0.25500000920E-02 0. -1.
        2   -1    0    0  501    0  0.00000000000E+00  0.00000000000E+00 -0.21173406249E+04  0.21173406249E+04  0.25500000920E-02 0.  1.
    10030    2    1    2    0    0  0.00000000000E+00  0.00000000000E+00 -0.11795429415E+04  0.30551383083E+04  0.28182527446E+04 0.  0.
        2    1    3    3  502    0  0.18332037647E+03 -0.45423633164E+03  0.84253435730E+03  0.97457742055E+03  0.25500000920E-02 0. -1.
       -2    1    3    3    0  502 -0.18332037647E+03  0.45423633164E+03 -0.20220772988E+04  0.20805608878E+04  0.25500000920E-02 0.  1.
</event>
<event>
 5   0  0.3438130E-06  0.2744661E+04  0.7818609E-02  0.8320658E-01
        1   -1    0    0  501    0  0.00000000000E+00  0.00000000000E+00  0.21857323298E+04  0.21857323298E+04  0.50400001928E-02 0. -1.
       -1   -1    0    0    0  501  0.00000000000E+00  0.00000000000E+00 -0.86162959231E+03  0.86162959232E+03  0.50400001928E-02 0.  1.
    10030    2    1    2    0    0  0.00000000000E+00  0.00000000000E+00  0.13241027375E+04  0.30473619221E+04  0.27446614773E+04 0.  0.
        3    1    3    3  502    0  0.68729984876E+03 -0.10670109744E+03 -0.65143523683E+03  0.95296069398E+03  0.10100000352E+00 0.  1.
       -3    1    3    3    0  502 -0.68729984876E+03  0.10670109744E+03  0.19755379743E+04  0.20944012281E+04  0.10100000352E+00 0. -1.
</event>
<event>
 5   0  0.9426937E-06  0.2877649E+04  0.7818609E-02  0.8279559E-01
        2   -1    0    0  501    0  0.00000000000E+00  0.00000000000E+00  0.19231927957E+04  0.19231927957E+04  0.25500000920E-02 0.  1.
       -2   -1    0    0    0  501  0.00000000000E+00  0.00000000000E+00 -0.10764475928E+04  0.10764475928E+04  0.25500000920E-02 0. -1.
    10030    2    1    2    0    0  0.00000000000E+00  0.00000000000E+00  0.84674520291E+03  0.29996403885E+04  0.28776492179E+04 0.  0.
        4    1    3    3  502    0  0.11557064850E+04 -0.23517330941E+03  0.12824778649E+04  0.17423303509E+04  0.12699999809E+01 0.  1.
       -4    1    3    3    0  502 -0.11557064850E+04  0.23517330941E+03 -0.43573266197E+03  0.12573100375E+04  0.12699999809E+01 0. -1.
</event>
<event>
 5   0  0.9260173E-06  0.2776948E+04  0.7818609E-02  0.8310461E-01
       -2   -1    0    0    0  501  0.00000000000E+00  0.00000000000E+00  0.14613674563E+04  0.14613674563E+04  0.25500000920E-02 0. -1.
        2   -1    0    0  501    0  0.00000000000E+00  0.00000000000E+00 -0.13192163014E+04  0.13192163014E+04  0.25500000920E-02 0.  1.
    10030    2    1    2    0    0  0.00000000000E+00  0.00000000000E+00  0.14215115492E+03  0.27805837576E+04  0.27769477997E+04 0.  0.
        1    1    3    3  502    0 -0.42930970825E+03  0.10096116700E+04  0.92321113133E+03  0.14338554121E+04  0.50400001928E-02 0. -1.
       -1    1    3    3    0  502  0.42930970825E+03 -0.10096116700E+04 -0.78105997641E+03  0.13467283455E+04  0.50400001928E-02 0.  1.
</event>
<event>
 5   0  0.3438130E-06  0.2443931E+04  0.7818609E-02  0.8423237E-01
       -1   -1    0    0    0  501  0.00000000000E+00  0.00000000000E+00  0.11653819493E+04  0.11653819493E+04  0.50400001928E-02 0. -1.
        1   -1    0    0  501    0  0.00000000000E+00  0.00000000000E+00 -0.12812968771E+04  0.12812968771E+04  0.50400001928E-02 0.  1.
    10030    2    1    2    0    0  0.00000000000E+00  0.00000000000E+00 -0.11591492780E+03  0.24466788265E+04  0.24439314658E+04 0.  0.
        3    1    3    3  502    0 -0.21562669177E+03  0.47684718088E+03  0.10475130676E+04  0.11709661571E+04  0.10100000352E+00 0. -1.
       -3    1    3    3    0  502  0.21562669177E+03 -0.47684718088E+03 -0.11634279954E+04  0.12757126694E+04  0.10100000352E+00 0.  1.
</event>
<event>
 5   0  0.3600963E-06  0.2518865E+04  0.7818609E-02  0.8396296E-01
        1   -1    0    0  501    0  0.00000000000E+00  0.00000000000E+00  0.23243158978E+04  0.23243158978E+04  0.50400001928E-02 0.  1.
       -1   -1    0    0    0  501  0.00000000000E+00  0.00000000000E+00 -0.68242435968E+03  0.68242435970E+03  0.50400001928E-02 0. -1.
    10030    2    1    2    0    0  0.00000000000E+00  0.00000000000E+00  0.16418915381E+04  0.30067402575E+04  0.25188646556E+04 0.  0.
        5    1    3    3  502    0 -0.12262677727E+04  0.24281449190E+03  0.63812748277E+03  0.14035384933E+04  0.46999998093E+01 0.  1.
       -5    1    3    3    0  502  0.12262677727E+04 -0.24281449190E+03  0.10037640553E+04  0.16032017642E+04  0.46999998093E+01 0. -1.
</event>
<event>
 5   0  0.3438130E-06  0.2766443E+04  0.7818609E-02  0.8313763E-01
       -1   -1    0    0    0  501  0.00000000000E+00  0.00000000000E+00  0.74617338930E+03  0.74617338932E+03  0.50400001928E-02 0. -1.
        1   -1    0    0  501    0  0.00000000000E+00  0.00000000000E+00 -0.25641521621E+04  0.25641521621E+04  0.50400001928E-02 0.  1.
    10030    2    1    2    0    0  0.00000000000E+00  0.00000000000E+00 -0.18179787728E+04  0.33103255514E+04  0.27664432830E+04 0.  0.
        3    1    3    3  502    0  0.27193150806E+03  0.71074900878E+03  0.47316950351E+03  0.89610283328E+03  0.10100000352E+00 0. -1.
       -3    1    3    3    0  502 -0.27193150806E+03 -0.71074900878E+03 -0.22911482763E+04  0.24142227181E+04  0.10100000352E+00 0.  1.
</event>
<event>
 5   0  0.3006875E-06  0.2801035E+04  0.7818609E-02  0.8302947E-01
        3   -1    0    0  501    0  0.00000000000E+00  0.00000000000E+00  0.30181051128E+04  0.30181051145E+04  0.10100000352E+00 0.  1.
       -3   -1    0    0    0  501  0.00000000000E+00  0.00000000000E+00 -0.64989412404E+03  0.64989413189E+03  0.10100000352E+00 0. -1.
    10030    2    1    2    0    0  0.00000000000E+00  0.00000000000E+00  0.23682109888E+04  0.36679992464E+04  0.28010346632E+04 0.  0.
        4    1    3    3  502    0  0.12874297959E+04  0.51262937573E+03  0.91835821249E+03  0.16624222616E+04  0.12699999809E+01 0.  1.
       -4    1    3    3    0  502 -0.12874297959E+04 -0.51262937573E+03  0.14498527763E+04  0.20055769849E+04  0.12699999809E+01 0. -1.
</event>
<event>
 5   0  0.9342133E-06  0.2697640E+04  0.7818609E-02  0.8335771E-01
       -2   -1    0    0    0  501  0.00000000000E+00  0.00000000000E+00  0.13441590272E+04  0.13441590272E+04  0.25500000920E-02 0. -1.
        2   -1    0    0  501    0  0.00000000000E+00  0.00000000000E+00 -0.13534972182E+04  0.13534972182E+04  0.25500000920E-02 0.  1.
    10030    2    1    2    0    0  0.00000000000E+00  0.00000000000E+00 -0.93381910294E+01  0.26976562454E+04  0.26976400829E+04 0.  0.
        2    1    3    3  502    0 -0.17913204305E+03 -0.62825804648E+03 -0.11847266062E+04  0.13529130029E+04  0.25500000920E-02 0.  1.
       -2    1    3    3    0  502  0.17913204305E+03  0.62825804648E+03  0.11753884152E+04  0.13447432426E+04  0.25500000920E-02 0. -1.
</event>
<event>
 5   0  0.3438130E-06  0.2769188E+04  0.7818609E-02  0.8312899E-01
        1   -1    0    0  501    0  0.00000000000E+00  0.00000000000E+00  0.72339598997E+03  0.72339598999E+03  0.50400001928E-02 0. -1.
       -1   -1    0    0    0  501  0.00000000000E+00  0.00000000000E+00 -0.26501391718E+04  0.26501391718E+04  0.50400001928E-02 0.  1.
    10030    2    1    2    0    0  0.00000000000E+00  0.00000000000E+00 -0.19267431819E+04  0.33735351618E+04  0.27691876425E+04 0.  0.
        3    1    3    3  502    0  0.62654306306E+03 -0.92339414906E+02 -0.24633497293E+04  0.25434572291E+04  0.10100000352E+00 0.  1.
       -3    1    3    3    0  502 -0.62654306306E+03  0.92339414906E+02  0.53660654743E+03  0.83007793270E+03  0.10100000352E+00 0. -1.
</event>
<event>
 5   0  0.9260173E-06  0.2798248E+04  0.7818609E-02  0.8303813E-01
        2   -1    0    0  501    0  0.00000000000E+00  0.00000000000E+00  0.19064364497E+04  0.19064364497E+04  0.25500000920E-02 0. -1.
       -2   -1    0    0    0  501  0.00000000000E+00  0.00000000000E+00 -0.10268098561E+04  0.10268098561E+04  0.25500000920E-02 0.  1.
    10030    2    1    2    0    0  0.00000000000E+00  0.00000000000E+00  0.87962659363E+03  0.29332463058E+04  0.27982478350E+04 0.  0.
        1    1    3    3  502    0 -0.11207912912E+04  0.61064125384E+03 -0.16097943956E+03  0.12864564662E+04  0.50400001928E-02 0.  1.
       -1    1    3    3    0  502  0.11207912912E+04 -0.61064125384E+03  0.10406060332E+04  0.16467898396E+04  0.50400001928E-02 0. -1.
</event>
<event>
 5   0  0.9426937E-06  0.2661919E+04  0.7818609E-02  0.8347468E-01
        2   -1    0    0  501    0  0.00000000000E+00  0.00000000000E+00  0.21184096916E+04  0.21184096916E+04  0.25500000920E-02 0.  1.
       -2   -1    0    0    0  501  0.00000000000E+00  0.00000000000E+00 -0.83621864606E+03  0.83621864606E+03  0.25500000920E-02 0. -1.
    10030    2    1    2    0    0  0.00000000000E+00  0.00000000000E+00  0.12821910456E+04  0.29546283377E+04  0.26619193708E+04 0.  0.
        4    1    3    3  502    0  0.10448797870E+04 -0.52713366512E+03  0.13446819753E+04  0.17826426725E+04  0.12699999809E+01 0.  1.
       -4    1    3    3    0  502 -0.10448797870E+04  0.52713366512E+03 -0.62490929727E+02  0.11719856652E+04  0.12699999809E+01 0. -1.
</event>
<event>
 5   0  0.3600963E-06  0.2917608E+04  0.7818609E-02  0.8267658E-01
        1   -1    0    0  501    0  0.00000000000E+00  0.00000000000E+00  0.22503572604E+04  0.22503572604E+04  0.50400001928E-02 0.  1.
       -1   -1    0    0    0  501  0.00000000000E+00  0.00000000000E+00 -0.94567634695E+03  0.94567634696E+03  0.50400001928E-02 0. -1.
    10030    2    1    2    0    0  0.00000000000E+00  0.00000000000E+00  0.13046809135E+04  0.31960336074E+04  0.29176083585E+04 0.  0.
        5    1    3    3  502    0 -0.26223611331E+03  0.95582285694E+03  0.18248706929E+04  0.20766656564E+04  0.46999998093E+01 0.  1.
       -5    1    3    3    0  502  0.26223611331E+03 -0.95582285694E+03 -0.52018977940E+03  0.11193679509E+04  0.46999998093E+01 0. -1.
</event>
<event>
 5   0  0.9065579E-06  0.2798064E+04  0.7818609E-02  0.8303870E-01
       -2   -1    0    0    0  501  0.00000000000E+00  0.00000000000E+00  0.16773537182E+04  0.16773537182E+04  0.25500000920E-02 0.  1.
        2   -1    0    0  501    0  0.00000000000E+00  0.00000000000E+00 -0.11668920752E+04  0.11668920752E+04  0.25500000920E-02 0. -1.
    10030    2    1    2    0    0  0.00000000000E+00  0.00000000000E+00  0.51046164301E+03  0.28442457934E+04  0.27980641601E+04 0.  0.
        3    1    3    3  502    0  0.11291831899E+04  0.32599345968E+03 -0.51621823647E+03  0.12836696187E+04  0.10100000352E+00 0. -1.
       -3    1    3    3    0  502 -0.11291831899E+04 -0.32599345968E+03  0.10266798795E+04  0.15605761747E+04  0.10100000352E+00 0.  1.
</event>
<event>
 5   0  0.9065579E-06  0.2747571E+04  0.7818609E-02  0.8319733E-01
        2   -1    0    0  501    0  0.00000000000E+00  0.00000000000E+00  0.23757034755E+04  0.23757034755E+04  0.25500000920E-02 0.  1.
       -2   -1    0    0    0  501  0.00000000000E+00  0.00000000000E+00 -0.79441178032E+03  0.79441178033E+03  0.25500000920E-02 0. -1.
    10030    2    1    2    0    0  0.00000000000E+00  0.00000000000E+00  0.15812916952E+04  0.31701152558E+04  0.27475711656E+04 0.  0.
        3    1    3    3  502    0  0.64212460894E+03 -0.11662151381E+04  0.39953877411E+03  0.13899687061E+04  0.10100000352E+00 0.  1.
       -3    1    3    3    0  502 -0.64212460894E+03  0.11662151381E+04  0.11817529211E+04  0.17801465497E+04  0.10100000352E+00 0. -1.
</event>
<event>
 5   0  0.3397882E-06  0.2765111E+04  0.7818609E-02  0.8314183E-01
        1   -1    0    0  501    0  0.00000000000E+00  0.00000000000E+00  0.13765540652E+04  0.13765540652E+04  0.50400001928E-02 0.  1.
       -1   -1    0    0    0  501  0.00000000000E+00  0.00000000000E+00 -0.13885828639E+04  0.13885828639E+04  0.50400001928E-02 0. -1.
    10030    2    1    2    0    0  0.00000000000E+00  0.00000000000E+00 -0.12028798672E+02  0.27651369291E+04  0.27651107654E+04 0.  0.
        2    1    3    3  502    0 -0.87010117445E+03  0.24345731441E+03  0.10404714308E+04  0.13780160798E+04  0.25500000920E-02 0.  1.
       -2    1    3    3    0  502  0.87010117445E+03 -0.24345731441E+03 -0.10525002295E+04  0.13871208494E+04  0.25500000920E-02 0. -1.
</event>
<event>
 5   0  0.3600963E-06  0.2802091E+04  0.7818609E-02  0.8302619E-01
        1   -1    0    0  501    0  0.00000000000E+00  0.00000000000E+00  0.17741965883E+04  0.17741965883E+04  0.50400001928E-02 0. -1.
       -1   -1    0    0    0  501  0.00000000000E+00  0.00000000000E+00 -0.11063761580E+04  0.11063761580E+04  0.50400001928E-02 0.  1.
    10030    2    1    2    0    0  0.00000000000E+00  0.00000000000E+00  0.66782043028E+03  0.28805727462E+04  0.28020912225E+04 0.  0.
        5    1    3    3  502    0 -0.56576591639E+03 -0.53502295717E+01  0.16515212058E+04  0.17457560197E+04  0.46999998093E+01 0. -1.
       -5    1    3    3    0  502  0.56576591639E+03  0.53502295717E+01 -0.98370077552E+03  0.11348167266E+04  0.46999998093E+01 0.  1.
</event>
<event>
 5   0  0.3371603E-06  0.2835458E+04  0.7818609E-02  0.8292344E-01
       -1   -1    0    0    0  501  0.00000000000E+00  0.00000000000E+00  0.18188284600E+04  0.18188284600E+04  0.50400001928E-02 0.  1.
        1   -1    0    0  501    0  0.00000000000E+00  0.00000000000E+00 -0.11050821951E+04  0.11050821951E+04  0.50400001928E-02 0. -1.
    10030    2    1    2    0    0  0.00000000000E+00  0.00000000000E+00  0.71374626490E+03  0.29239106551E+04  0.28354575977E+04 0.  0.
        1    1    3    3  502    0  0.93215627149E+03  0.41349515448E+03 -0.65876862994E+03  0.12140303394E+04  0.50400001928E-02 0. -1.
       -1    1    3    3    0  502 -0.93215627149E+03 -0.41349515448E+03  0.13725148948E+04  0.17098803157E+04  0.50400001928E-02 0.  1.
</event>
<event>
 5   0  0.9252359E-06  0.3075430E+04  0.7818609E-02  0.8222513E-01
        2   -1    0    0  501    0  0.00000000000E+00  0.00000000000E+00  0.96341040211E+03  0.96341040211E+03  0.25500000920E-02 0.  1.
       -2   -1    0    0    0  501  0.00000000000E+00  0.00000000000E+00 -0.24543719113E+04  0.24543719113E+04  0.25500000920E-02 0. -1.
    10030    2    1    2    0    0  0.00000000000E+00  0.00000000000E+00 -0.14909615092E+04  0.34177823134E+04  0.30754300057E+04 0.  0.
        5    1    3    3  502    0  0.11421634210E+04 -0.92506424783E+03 -0.24321371839E+03  0.14897839259E+04  0.46999998093E+01 0.  1.
       -5    1    3    3    0  502 -0.11421634210E+04  0.92506424783E+03 -0.12477477908E+04  0.19279983875E+04  0.46999998093E+01 0. -1.
</event>
<event>
 5   0  0.9065579E-06  0.2810784E+04  0.7818609E-02  0.8299928E-01
       -2   -1    0    0    0  501  0.00000000000E+00  0.00000000000E+00  0.14510842052E+04  0.14510842052E+04  0.25500000920E-02 0.  1.
        2   -1    0    0  501    0  0.00000000000E+00  0.00000000000E+00 -0.13611388062E+04  0.13611388062E+04  0.25500000920E-02 0. -1.
    10030    2    1    2    0    0  0.00000000000E+00  0.00000000000E+00  0.89945398974E+02  0.28122230114E+04  0.28107842484E+04 0.  0.
        3    1    3    3  502    0  0.93147199928E+02  0.77847063520E+03  0.12119462106E+04  0.14434356786E+04  0.10100000352E+00 0.  1.
       -3    1    3    3    0  502 -0.93147199928E+02 -0.77847063520E+03 -0.11220008116E+04  0.13687873327E+04  0.10100000352E+00 0. -1.
</event>
<event>
 5   0  0.9426937E-06  0.2313198E+04  0.7818609E-02  0.8472735E-01
        2   -1    0    0  501    0  0.00000000000E+00  0.00000000000E+00  0.58612939655E+03  0.58612939656E+03  0.25500000920E-02 0.  1.
       -2   -1    0    0    0  501  0.00000000000E+00  0.00000000000E+00 -0.22822977709E+04  0.22822977709E+04  0.25500000920E-02 0. -1.
    10030    2    1    2    0    0  0.00000000000E+00  0.00000000000E+00 -0.16961683744E+04  0.28684271675E+04  0.23131984915E+04 0.  0.
        4    1    3    3  502    0  0.16124372048E+03  0.38672857627E+03  0.48870893098E+03  0.64373640663E+03  0.12699999809E+01 0.  1.
       -4    1    3    3    0  502 -0.16124372048E+03 -0.38672857627E+03 -0.21848773054E+04  0.22246907609E+04  0.12699999809E+01 0. -1.
</event>
<event>
 5   0  0.9065579E-06  0.2781997E+04  0.7818609E-02  0.8308880E-01
       -2   -1    0    0    0  501  0.00000000000E+00  0.00000000000E+00  0.11559363120E+04  0.11559363120E+04  0.25500000920E-02 0.  1.
        2   -1    0    0  501    0  0.00000000000E+00  0.00000000000E+00 -0.16738605114E+04  0.16738605114E+04  0.25500000920E-02 0. -1.
    10030    2    1    2    0    0  0.00000000000E+00  0.00000000000E+00 -0.51792419945E+03  0.28297968234E+04  0.27819965107E+04 0.  0.
        3    1    3    3  502    0  0.11212418095E+04  0.79199089838E+03 -0.30507099875E+02  0.13730853840E+04  0.10100000352E+00 0.  1.
       -3    1    3    3    0  502 -0.11212418095E+04 -0.79199089838E+03 -0.48741709958E+03  0.14567114394E+04  0.10100000352E+00 0. -1.
</event>
<event>
 5   0  0.3600963E-06  0.2804207E+04  0.7818609E-02  0.8301963E-01
       -1   -1    0    0    0  501  0.00000000000E+00  0.00000000000E+00  0.12258257904E+04  0.12258257904E+04  0.50400001928E-02 0. -1.
        1   -1    0    0  501    0  0.00000000000E+00  0.00000000000E+00 -0.16037309134E+04  0.16037309134E+04  0.50400001928E-02 0.  1.
    10030    2    1    2    0    0  0.00000000000E+00  0.00000000000E+00 -0.37790512298E+03  0.28295567038E+04  0.28042073494E+04 0.  0.
        5    1    3    3  502    0  0.23577272474E+03 -0.73111400254E+03  0.99457673232E+03  0.12567105589E+04  0.46999998093E+01 0. -1.
       -5    1    3    3    0  502 -0.23577272474E+03  0.73111400254E+03 -0.13724818553E+04  0.15728461449E+04  0.46999998093E+01 0.  1.
</event>
<event>
 5   0  0.3357244E-06  0.2779946E+04  0.7818609E-02  0.8309522E-01
       -1   -1    0    0    0  501  0.00000000000E+00  0.00000000000E+00  0.89727528373E+03  0.89727528375E+03  0.50400001928E-02 0. -1.
        1   -1    0    0  501    0  0.00000000000E+00  0.00000000000E+00 -0.21532129724E+04  0.21532129724E+04  0.50400001928E-02 0.  1.
    10030    2    1    2    0    0  0.00000000000E+00  0.00000000000E+00 -0.12559376887E+04  0.30504882561E+04  0.27799458849E+04 0.  0.
        4    1    3    3  502    0 -0.56987103446E+03 -0.71653371731E+03 -0.17756250844E+04  0.19977536428E+04  0.12699999809E+01 0.  1.
       -4    1    3    3    0  502  0.56987103446E+03  0.71653371731E+03  0.51968739575E+03  0.10527346134E+04  0.12699999809E+01 0. -1.
</event>
<event>
 5   0  0.3600963E-06  0.2503331E+04  0.7818609E-02  0.8401800E-01
        1   -1    0    0  501    0  0.00000000000E+00  0.00000000000E+00  0.15637112684E+04  0.15637112684E+04  0.50400001928E-02 0.  1.
       -1   -1    0    0    0  501  0.00000000000E+00  0.00000000000E+00 -0.10018896969E+04  0.10018896969E+04  0.50400001928E-02 0. -1.
    10030    2    1    2    0    0  0.00000000000E+00  0.00000000000E+00  0.56182157153E+03  0.25656009654E+04  0.25033307483E+04 0.  0.
        5    1    3    3  502    0 -0.10808309708E+03 -0.36607538201E+03  0.15025991122E+04  0.15503287791E+04  0.46999998093E+01 0.  1.
       -5    1    3    3    0  502  0.10808309708E+03  0.36607538201E+03 -0.94077754069E+03  0.10152721863E+04  0.46999998093E+01 0. -1.
</event>
<event>
 5   0  0.3357244E-06  0.2727116E+04  0.7818609E-02  0.8326260E-01
       -1   -1    0    0    0  501  0.00000000000E+00  0.00000000000E+00  0.11153873701E+04  0.11153873701E+04  0.50400001928E-02 0.  1.
        1   -1    0    0  501    0  0.00000000000E+00  0.00000000000E+00 -0.16669461000E+04  0.16669461000E+04  0.50400001928E-02 0. -1.
    10030    2    1    2    0    0  0.00000000000E+00  0.00000000000E+00 -0.55155872995E+03  0.27823334701E+04  0.27271161520E+04 0.  0.
        4    1    3    3  502    0  0.11665520919E+04  0.49882819644E+03  0.23395211951E+03  0.12901195913E+04  0.12699999809E+01 0.  1.
       -4    1    3    3    0  502 -0.11665520919E+04 -0.49882819644E+03 -0.78551084946E+03  0.14922138789E+04  0.12699999809E+01 0. -1.
</event>
<event>
 5   0  0.9065579E-06  0.2742978E+04  0.7818609E-02  0.8321193E-01
       -2   -1    0    0    0  501  0.00000000000E+00  0.00000000000E+00  0.85124458730E+03  0.85124458731E+03  0.25500000920E-02 0.  1.
        2   -1    0    0  501    0  0.00000000000E+00  0.00000000000E+00 -0.22096839773E+04  0.22096839773E+04  0.25500000920E-02 0. -1.
    10030    2    1    2    0    0  0.00000000000E+00  0.00000000000E+00 -0.13584393900E+04  0.30609285646E+04  0.27429775977E+04 0.  0.
        3    1    3    3  502    0 -0.77384411146E+02  0.27767064200E+03 -0.21754992975E+04  0.21945128243E+04  0.10100000352E+00 0. -1.
       -3    1    3    3    0  502  0.77384411146E+02 -0.27767064200E+03  0.81705990745E+03  0.86641574033E+03  0.10100000352E+00 0.  1.
</event>
<event>
 5   0  0.3438130E-06  0.2638246E+04  0.7818609E-02  0.8355325E-01
       -1   -1    0    0    0  501  0.00000000000E+00  0.00000000000E+00  0.67138244433E+03  0.67138244435E+03  0.50400001928E-02 0.  1.
        1   -1    0    0  501    0  0.00000000000E+00  0.00000000000E+00 -0.25917949587E+04  0.25917949587E+04  0.50400001928E-02 0. -1.
    10030    2    1    2    0    0  0.00000000000E+00  0.00000000000E+00 -0.19204125143E+04  0.32631774030E+04  0.26382461103E+04 0.  0.
        3    1    3    3  502    0 -0.30612365590E+02 -0.10046821900E+04 -0.20168195300E+04  0.22534161725E+04  0.10100000352E+00 0. -1.
       -3    1    3    3    0  502  0.30612365590E+02  0.10046821900E+04  0.96407015668E+02  0.10097612305E+04  0.10100000352E+00 0.  1.
</event>
<event>
 5   0  0.3397882E-06  0.2789131E+04  0.7818609E-02  0.8306651E-01
        1   -1    0    0  501    0  0.00000000000E+00  0.00000000000E+00  0.17969499140E+04  0.17969499140E+04  0.50400001928E-02 0. -1.
       -1   -1    0    0    0  501  0.00000000000E+00  0.00000000000E+00 -0.10822852942E+04  0.10822852942E+04  0.50400001928E-02 0.  1.
    10030    2    1    2    0    0  0.00000000000E+00  0.00000000000E+00  0.71466461985E+03  0.28792352082E+04  0.27891306648E+04 0.  0.
        2    1    3    3  502    0 -0.10623191639E+04 -0.53707678342E+03  0.11073284307E+04  0.16257766546E+04  0.25500000920E-02 0. -1.
       -2    1    3    3    0  502  0.10623191639E+04  0.53707678342E+03 -0.39266381085E+03  0.12534585536E+04  0.25500000920E-02 0.  1.
</event>
<event>
 5   0  0.9065579E-06  0.2771422E+04  0.7818609E-02  0.8312196E-01
        2   -1    0    0  501    0  0.00000000000E+00  0.00000000000E+00  0.19125514972E+04  0.19125514972E+04  0.25500000920E-02 0.  1.
       -2   -1    0    0    0  501  0.00000000000E+00  0.00000000000E+00 -0.10039963667E+04  0.10039963667E+04  0.25500000920E-02 0. -1.
    10030    2    1    2    0    0  0.00000000000E+00  0.00000000000E+00  0.90855513057E+03  0.29165478639E+04  0.27714218403E+04 0.  0.
        3    1    3    3  502    0  0.92852671634E+03 -0.99160307760E+03  0.16654426120E+03  0.13686400285E+04  0.10100000352E+00 0.  1.
       -3    1    3    3    0  502 -0.92852671634E+03  0.99160307760E+03  0.74201086937E+03  0.15479078354E+04  0.10100000352E+00 0. -1.
</event>
<event>
 5   0  0.3438130E-06  0.2813614E+04  0.7818609E-02  0.8299054E-01
        1   -1    0    0  501    0  0.00000000000E+00  0.00000000000E+00  0.16997430322E+04  0.16997430322E+04  0.50400001928E-02 0. -1.
       -1   -1    0    0    0  501  0.00000000000E+00  0.00000000000E+00 -0.11643561159E+04  0.11643561160E+04  0.50400001928E-02 0.  1.
    10030    2    1    2    0    0  0.00000000000E+00  0.00000000000E+00  0.53538691621E+03  0.28640991481E+04  0.28136141847E+04 0.  0.
        3    1    3    3  502    0 -0.78640928329E+03  0.79382850013E+03  0.11377239756E+04  0.15946846407E+04  0.10100000352E+00 0.  1.
       -3    1    3    3    0  502  0.78640928329E+03 -0.79382850013E+03 -0.60233705934E+03  0.12694145074E+04  0.10100000352E+00 0. -1.
</event>
<event>
 5   0  0.9426937E-06  0.2569276E+04  0.7818609E-02  0.8378713E-01
       -2   -1    0    0    0  501  0.00000000000E+00  0.00000000000E+00  0.14455385999E+04  0.14455385999E+04  0.25500000920E-02 0.  1.
        2   -1    0    0  501    0  0.00000000000E+00  0.00000000000E+00 -0.11416473345E+04  0.11416473345E+04  0.25500000920E-02 0. -1.
    10030    2    1    2    0    0  0.00000000000E+00  0.00000000000E+00  0.30389126540E+03  0.25871859344E+04  0.25692763880E+04 0.  0.
        4    1    3    3  502    0 -0.62206772247E+02  0.10740534182E+04 -0.55496874650E+03  0.12105586934E+04  0.12699999809E+01 0. -1.
       -4    1    3    3    0  502  0.62206772247E+02 -0.10740534182E+04  0.85886001190E+03  0.13766272410E+04  0.12699999809E+01 0.  1.
</event>
<event>
 5   0  0.3397882E-06  0.2777981E+04  0.7818609E-02  0.8310137E-01
       -1   -1    0    0    0  501  0.00000000000E+00  0.00000000000E+00  0.13034437226E+04  0.13034437226E+04  0.50400001928E-02 0. -1.
        1   -1    0    0  501    0  0.00000000000E+00  0.00000000000E+00 -0.14801516550E+04  0.14801516550E+04  0.50400001928E-02 0.  1.
    10030    2    1    2    0    0  0.00000000000E+00  0.00000000000E+00 -0.17670793236E+03  0.27835953776E+04  0.27779808374E+04 0.  0.
        2    1    3    3  502    0 -0.11102487791E+03  0.83820780001E+03 -0.11925682664E+04  0.14618953141E+04  0.25500000920E-02 0.  1.
       -2    1    3    3    0  502  0.11102487791E+03 -0.83820780001E+03  0.10158603340E+04  0.13217000635E+04  0.25500000920E-02 0. -1.
</event>
<event>
 5   0  0.3397882E-06  0.2801555E+04  0.7818609E-02  0.8302786E-01
       -1   -1    0    0    0  501  0.00000000000E+00  0.00000000000E+00  0.11054610345E+04  0.11054610345E+04  0.50400001928E-02 0. -1.
        1   -1    0    0  501    0  0.00000000000E+00  0.00000000000E+00 -0.17749851398E+04  0.17749851398E+04  0.50400001928E-02 0.  1.
    10030    2    1    2    0    0  0.00000000000E+00  0.00000000000E+00 -0.66952410525E+03  0.28804461743E+04  0.28015545034E+04 0.  0.
        2    1    3    3  502    0  0.87027254888E+03  0.49538981938E+03 -0.13418296609E+04  0.16743035033E+04  0.25500000920E-02 0.  1.
       -2    1    3    3    0  502 -0.87027254888E+03 -0.49538981938E+03  0.67230555563E+03  0.12061426709E+04  0.25500000920E-02 0. -1.
</event>
<event>
 5   0  0.3357244E-06  0.2800414E+04  0.7818609E-02  0.8303140E-01
        1   -1    0    0  501    0  0.00000000000E+00  0.00000000000E+00  0.19946426688E+04  0.19946426688E+04  0.50400001928E-02 0. -1.
       -1   -1    0    0    0  501  0.00000000000E+00  0.00000000000E+00 -0.98292290761E+03  0.98292290762E+03  0.50400001928E-02 0.  1.
    10030    2    1    2    0    0  0.00000000000E+00  0.00000000000E+00  0.10117197612E+04  0.29775655764E+04  0.28004142348E+04 0.  0.
        4    1    3    3  502    0  0.69890721808E+03  0.79389268845E+03 -0.46970063218E+03  0.11573060084E+04  0.12699999809E+01 0.  1.
       -4    1    3    3    0  502 -0.69890721808E+03 -0.79389268845E+03  0.14814203934E+04  0.18202595680E+04  0.12699999809E+01 0. -1.
</event>
<event>
 5   0  0.3438130E-06  0.2796017E+04  0.7818609E-02  0.8304506E-01
        1   -1    0    0  501    0  0.00000000000E+00  0.00000000000E+00  0.22761441751E+04  0.22761441751E+04  0.50400001928E-02 0. -1.
       -1   -1    0    0    0  501  0.00000000000E+00  0.00000000000E+00 -0.85865735190E+03  0.85865735191E+03  0.50400001928E-02 0.  1.
    10030    2    1    2    0    0  0.00000000000E+00  0.00000000000E+00  0.14174868232E+04  0.31348015270E+04  0.27960171172E+04 0.  0.
        3    1    3    3  502    0  0.90987383856E+03  0.60650059371E+03  0.16853270175E+04  0.20089899299E+04  0.10100000352E+00 0. -1.
       -3    1    3    3    0  502 -0.90987383856E+03 -0.60650059371E+03 -0.26784019433E+03  0.11258115971E+04  0.10100000352E+00 0.  1.
</event>
<event>
 5   0  0.3600963E-06  0.2773197E+04  0.7818609E-02  0.8311638E-01
        1   -1    0    0  501    0  0.00000000000E+00  0.00000000000E+00  0.15737892869E+04  0.15737892869E+04  0.50400001928E-02 0. -1.
       -1   -1    0    0    0  501  0.00000000000E+00  0.00000000000E+00 -0.12216727990E+04  0.12216727990E+04  0.50400001928E-02 0.  1.
    10030    2    1    2    0    0  0.00000000000E+00  0.00000000000E+00  0.35211648789E+03  0.27954620859E+04  0.27731971176E+04 0.  0.
        5    1    3    3  502    0 -0.70111291416E+03  0.67757947228E+03  0.11698539368E+04  0.15229095781E+04  0.46999998093E+01 0. -1.
       -5    1    3    3    0  502  0.70111291416E+03 -0.67757947228E+03 -0.81773744896E+03  0.12725525078E+04  0.46999998093E+01 0.  1.
</event>
<event>
 5   0  0.9065579E-06  0.2796950E+04  0.7818609E-02  0.8304216E-01
        2   -1    0    0  501    0  0.00000000000E+00  0.00000000000E+00  0.17923619668E+04  0.17923619668E+04  0.25500000920E-02 0. -1.
       -2   -1    0    0    0  501  0.00000000000E+00  0.00000000000E+00 -0.10911484655E+04  0.10911484655E+04  0.25500000920E-02 0.  1.
    10030    2    1    2    0    0  0.00000000000E+00  0.00000000000E+00  0.70121350130E+03  0.28835104323E+04  0.27969504891E+04 0.  0.
        3    1    3    3  502    0  0.75496288332E+03 -0.74243341440E+03  0.12924197151E+04  0.16707857613E+04  0.10100000352E+00 0. -1.
       -3    1    3    3    0  502 -0.75496288332E+03  0.74243341440E+03 -0.59120621382E+03  0.12127246709E+04  0.10100000352E+00 0.  1.
</event>
<event>
 5   0  0.3371603E-06  0.2773611E+04  0.7818609E-02  0.8311508E-01
        1   -1    0    0  501    0  0.00000000000E+00  0.00000000000E+00  0.20444826690E+04  0.20444826690E+04  0.50400001928E-02 0. -1.
       -1   -1    0    0    0  501  0.00000000000E+00  0.00000000000E+00 -0.94069239743E+03  0.94069239744E+03  0.50400001928E-02 0.  1.
    10030    2    1    2    0    0  0.00000000000E+00  0.00000000000E+00  0.11037902716E+04  0.29851750665E+04  0.27736108620E+04 0.  0.
        1    1    3    3  502    0  0.24208285021E+03  0.10914968612E+04  0.14350067932E+04  0.18191245150E+04  0.50400001928E-02 0. -1.
       -1    1    3    3    0  502 -0.24208285021E+03 -0.10914968612E+04 -0.33121652163E+03  0.11660505515E+04  0.50400001928E-02 0.  1.
</event>
<event>
 5   0  0.9260173E-06  0.2753530E+04  0.7818609E-02  0.8317843E-01
        2   -1    0    0  501    0  0.00000000000E+00  0.00000000000E+00  0.12413575491E+04  0.12413575491E+04  0.25500000920E-02 0.  1.
       -2   -1    0    0    0  501  0.00000000000E+00  0.00000000000E+00 -0.15269422291E+04  0.15269422291E+04  0.25500000920E-02 0. -1.
    10030    2    1    2    0    0  0.00000000000E+00  0.00000000000E+00 -0.28558468000E+03  0.27682997782E+04  0.27535295627E+04 0.  0.
        1    1    3    3  502    0 -0.64138328160E+03  0.37636547753E+02 -0.13669824923E+04  0.15104403854E+04  0.50400001928E-02 0. -1.
       -1    1    3    3    0  502  0.64138328160E+03 -0.37636547753E+02  0.10813978123E+04  0.12578593928E+04  0.50400001928E-02 0.  1.
</event>
<event>
 5   0  0.3438130E-06  0.2844339E+04  0.7818609E-02  0.8289633E-01
       -1   -1    0    0    0  501  0.00000000000E+00  0.00000000000E+00  0.15411185803E+04  0.15411185803E+04  0.50400001928E-02 0.  1.
        1   -1    0    0  501    0  0.00000000000E+00  0.00000000000E+00 -0.13124016994E+04  0.13124016994E+04  0.50400001928E-02 0. -1.
    10030    2    1    2    0    0  0.00000000000E+00  0.00000000000E+00  0.22871688083E+03  0.28535202797E+04  0.28443393917E+04 0.  0.
        3    1    3    3  502    0  0.14089753334E+04 -0.15764065721E+03  0.21736780880E+01  0.14177682469E+04  0.10100000352E+00 0. -1.
       -3    1    3    3    0  502 -0.14089753334E+04  0.15764065721E+03  0.22654320274E+03  0.14357520328E+04  0.10100000352E+00 0.  1.
</event>
<event>
 5   0  0.3397882E-06  0.2800333E+04  0.7818609E-02  0.8303165E-01
        1   -1    0    0  501    0  0.00000000000E+00  0.00000000000E+00  0.23475509950E+04  0.23475509950E+04  0.50400001928E-02 0.  1.
       -1   -1    0    0    0  501  0.00000000000E+00  0.00000000000E+00 -0.83511149089E+03  0.83511149091E+03  0.50400001928E-02 0. -1.
    10030    2    1    2    0    0  0.00000000000E+00  0.00000000000E+00  0.15124395041E+04  0.31826624860E+04  0.28003334169E+04 0.  0.
        2    1    3    3  502    0 -0.72948816786E+03 -0.60422025693E+03  0.19281312131E+04  0.21482376686E+04  0.25500000920E-02 0.  1.
       -2    1    3    3    0  502  0.72948816786E+03  0.60422025693E+03 -0.41569170890E+03  0.10344248174E+04  0.25500000920E-02 0. -1.
</event>
<event>
 5   0  0.3600963E-06  0.2803472E+04  0.7818609E-02  0.8302191E-01
        1   -1    0    0  501    0  0.00000000000E+00  0.00000000000E+00  0.20659382266E+04  0.20659382266E+04  0.50400001928E-02 0.  1.
       -1   -1    0    0    0  501  0.00000000000E+00  0.00000000000E+00 -0.95107607501E+03  0.95107607503E+03  0.50400001928E-02 0. -1.
    10030    2    1    2    0    0  0.00000000000E+00  0.00000000000E+00  0.11148621516E+04  0.30170143016E+04  0.28034724324E+04 0.  0.
        5    1    3    3  502    0  0.10707140329E+03 -0.71648419377E+03 -0.73398626692E+03  0.10312961822E+04  0.46999998093E+01 0. -1.
       -5    1    3    3    0  502 -0.10707140329E+03  0.71648419377E+03  0.18488484185E+04  0.19857181194E+04  0.46999998093E+01 0.  1.
</event>
<event>
 5   0  0.9252359E-06  0.2975568E+04  0.7818609E-02  0.8250742E-01
        2   -1    0    0  501    0  0.00000000000E+00  0.00000000000E+00  0.16109768225E+04  0.16109768225E+04  0.25500000920E-02 0. -1.
       -2   -1    0    0    0  501  0.00000000000E+00  0.00000000000E+00 -0.13740119109E+04  0.13740119109E+04  0.25500000920E-02 0.  1.
    10030    2    1    2    0    0  0.00000000000E+00  0.00000000000E+00  0.23696491165E+03  0.29849887334E+04  0.29755680751E+04 0.  0.
        5    1    3    3  502    0 -0.81566882553E+03  0.23462765759E+03 -0.11073164072E+04  0.13951836747E+04  0.46999998093E+01 0.  1.
       -5    1    3    3    0  502  0.81566882553E+03 -0.23462765759E+03  0.13442813188E+04  0.15898050587E+04  0.46999998093E+01 0. -1.
</event>
<event>
 5   0  0.9252359E-06  0.2790542E+04  0.7818609E-02  0.8306211E-01
        2   -1    0    0  501    0  0.00000000000E+00  0.00000000000E+00  0.11544134693E+04  0.11544134693E+04  0.25500000920E-02 0. -1.
       -2   -1    0    0    0  501  0.00000000000E+00  0.00000000000E+00 -0.16863814187E+04  0.16863814187E+04  0.25500000920E-02 0.  1.
    10030    2    1    2    0    0  0.00000000000E+00  0.00000000000E+00 -0.53196794940E+03  0.28407948881E+04  0.27905421869E+04 0.  0.
        5    1    3    3  502    0 -0.12851653047E+03  0.64462752520E+03 -0.15188780007E+04  0.16550146875E+04  0.46999998093E+01 0.  1.
       -5    1    3    3    0  502  0.12851653047E+03 -0.64462752520E+03  0.98691005128E+03  0.11857802006E+04  0.46999998093E+01 0. -1.
</event>
<event>
 5   0  0.9252359E-06  0.2774011E+04  0.7818609E-02  0.8311383E-01
        2   -1    0    0  501    0  0.00000000000E+00  0.00000000000E+00  0.17481452465E+04  0.17481452465E+04  0.25500000920E-02 0.  1.
       -2   -1    0    0    0  501  0.00000000000E+00  0.00000000000E+00 -0.11004715115E+04  0.11004715115E+04  0.25500000920E-02 0. -1.
    10030    2    1    2    0    0  0.00000000000E+00  0.00000000000E+00  0.64767373502E+03  0.28486167580E+04  0.27740108448E+04 0.  0.
        5    1    3    3  502    0  0.87014641673E+03 -0.18440066781E+03 -0.76902388917E+03  0.11758308658E+04  0.46999998093E+01 0. -1.
       -5    1    3    3    0  502 -0.87014641673E+03  0.18440066781E+03  0.14166976242E+04  0.16727858922E+04  0.46999998093E+01 0.  1.
</event>
<event>
 5   0  0.3357244E-06  0.2795971E+04  0.7818609E-02  0.8304520E-01
        1   -1    0    0  501    0  0.00000000000E+00  0.00000000000E+00  0.19549165422E+04  0.19549165423E+04  0.50400001928E-02 0.  1.
       -1   -1    0    0    0  501  0.00000000000E+00  0.00000000000E+00 -0.99971728488E+03  0.99971728489E+03  0.50400001928E-02 0. -1.
    10030    2    1    2    0    0  0.00000000000E+00  0.00000000000E+00  0.95519925737E+03  0.29546338271E+04  0.27959712858E+04 0.  0.
        4    1    3    3  502    0 -0.81997431942E+03  0.10899401950E+04  0.15354733194E+03  0.13725545195E+04  0.12699999809E+01 0. -1.
       -4    1    3    3    0  502  0.81997431942E+03 -0.10899401950E+04  0.80165192543E+03  0.15820793076E+04  0.12699999809E+01 0.  1.
</event>
<event>
 5   0  0.9342133E-06  0.2332203E+04  0.7818609E-02  0.8465331E-01
       -2   -1    0    0    0  501  0.00000000000E+00  0.00000000000E+00  0.53480509663E+03  0.53480509663E+03  0.25500000920E-02 0.  1.
        2   -1    0    0  501    0  0.00000000000E+00  0.00000000000E+00 -0.25425938949E+04  0.25425938949E+04  0.25500000920E-02 0. -1.
    10030    2    1    2    0    0  0.00000000000E+00  0.00000000000E+00 -0.20077887982E+04  0.30773989915E+04  0.23322025415E+04 0.  0.
        2    1    3    3  502    0 -0.51592190488E+03  0.47423046996E+03 -0.22337610026E+04  0.23411019130E+04  0.25500000920E-02 0. -1.
       -2    1    3    3    0  502  0.51592190488E+03 -0.47423046996E+03  0.22597220437E+03  0.73629707844E+03  0.25500000920E-02 0.  1.
</event>
<event>
 5   0  0.9065579E-06  0.2789824E+04  0.7818609E-02  0.8306435E-01
       -2   -1    0    0    0  501  0.00000000000E+00  0.00000000000E+00  0.14578765195E+04  0.14578765195E+04  0.25500000920E-02 0. -1.
        2   -1    0    0  501    0  0.00000000000E+00  0.00000000000E+00 -0.13346666921E+04  0.13346666921E+04  0.25500000920E-02 0.  1.
    10030    2    1    2    0    0  0.00000000000E+00  0.00000000000E+00  0.12320982744E+03  0.27925432116E+04  0.27898238165E+04 0.  0.
        3    1    3    3  502    0 -0.85233049989E+03 -0.10700795409E+04 -0.21113401302E+03  0.13842380889E+04  0.10100000352E+00 0.  1.
       -3    1    3    3    0  502  0.85233049989E+03  0.10700795409E+04  0.33434384045E+03  0.14083051228E+04  0.10100000352E+00 0. -1.
</event>
<event>
 5   0  0.3438130E-06  0.2800761E+04  0.7818609E-02  0.8303032E-01
       -1   -1    0    0    0  501  0.00000000000E+00  0.00000000000E+00  0.97438461350E+03  0.97438461351E+03  0.50400001928E-02 0. -1.
        1   -1    0    0  501    0  0.00000000000E+00  0.00000000000E+00 -0.20126195289E+04  0.20126195289E+04  0.50400001928E-02 0.  1.
    10030    2    1    2    0    0  0.00000000000E+00  0.00000000000E+00 -0.10382349154E+04  0.29870041424E+04  0.28007609693E+04 0.  0.
        3    1    3    3  502    0  0.25724872872E+03  0.13609323020E+04 -0.73963200664E+03  0.15701494052E+04  0.10100000352E+00 0.  1.
       -3    1    3    3    0  502 -0.25724872872E+03 -0.13609323020E+04 -0.29860290874E+03  0.14168547372E+04  0.10100000352E+00 0. -1.
</event>
<event>
 5   0  0.9065579E-06  0.2796755E+04  0.7818609E-02  0.8304276E-01
        2   -1    0    0  501    0  0.00000000000E+00  0.00000000000E+00  0.18628099611E+04  0.18628099611E+04  0.25500000920E-02 0.  1.
       -2   -1    0    0    0  501  0.00000000000E+00  0.00000000000E+00 -0.10497367860E+04  0.10497367860E+04  0.25500000920E-02 0. -1.
    10030    2    1    2    0    0  0.00000000000E+00  0.00000000000E+00  0.81307317514E+03  0.29125467471E+04  0.27967553640E+04 0.  0.
        3    1    3    3  502    0 -0.16783997568E+03 -0.12744072539E+04  0.97994736610E+03  0.16163480309E+04  0.10100000352E+00 0.  1.
       -3    1    3    3    0  502  0.16783997568E+03  0.12744072539E+04 -0.16687419096E+03  0.12961987163E+04  0.10100000352E+00 0. -1.
</event>
<event>
 5   0  0.3371603E-06  0.2838775E+04  0.7818609E-02  0.8291330E-01
        1   -1    0    0  501    0  0.00000000000E+00  0.00000000000E+00  0.14484632641E+04  0.14484632642E+04  0.50400001928E-02 0. -1.
       -1   -1    0    0    0  501  0.00000000000E+00  0.00000000000E+00 -0.13908951590E+04  0.13908951591E+04  0.50400001928E-02 0.  1.
    10030    2    1    2    0    0  0.00000000000E+00  0.00000000000E+00  0.57568105099E+02  0.28393584232E+04  0.28387747654E+04 0.  0.
        1    1    3    3  502    0 -0.11769142428E+04  0.78846971235E+03  0.11739639777E+03  0.14214758304E+04  0.50400001928E-02 0.  1.
       -1    1    3    3    0  502  0.11769142428E+04 -0.78846971235E+03 -0.59828292670E+02  0.14178825928E+04  0.50400001928E-02 0. -1.
</event>
<event>
 5   0  0.9252359E-06  0.2816118E+04  0.7818609E-02  0.8298282E-01
       -2   -1    0    0    0  501  0.00000000000E+00  0.00000000000E+00  0.17713510199E+04  0.17713510199E+04  0.25500000920E-02 0. -1.
        2   -1    0    0  501    0  0.00000000000E+00  0.00000000000E+00 -0.11192754808E+04  0.11192754808E+04  0.25500000920E-02 0.  1.
    10030    2    1    2    0    0  0.00000000000E+00  0.00000000000E+00  0.65207553905E+03  0.28906265007E+04  0.28161177280E+04 0.  0.
        5    1    3    3  502    0  0.74297179358E+03  0.11835822361E+04  0.14904093616E+03  0.14053858140E+04  0.46999998093E+01 0.  1.
       -5    1    3    3    0  502 -0.74297179358E+03 -0.11835822361E+04  0.50303460290E+03  0.14852406867E+04  0.46999998093E+01 0. -1.
</event>
<event>
 5   0  0.3438130E-06  0.2832670E+04  0.7818609E-02  0.8293197E-01
       -1   -1    0    0    0  501  0.00000000000E+00  0.00000000000E+00  0.11790864873E+04  0.11790864873E+04  0.50400001928E-02 0.  1.
        1   -1    0    0  501    0  0.00000000000E+00  0.00000000000E+00 -0.17013212113E+04  0.17013212113E+04  0.50400001928E-02 0. -1.
    10030    2    1    2    0    0  0.00000000000E+00  0.00000000000E+00 -0.52223472392E+03  0.28804076986E+04  0.28326700131E+04 0.  0.
        3    1    3    3  502    0 -0.41111607861E+03  0.10048701478E+04  0.66372911176E+03  0.12725237868E+04  0.10100000352E+00 0.  1.
       -3    1    3    3    0  502  0.41111607861E+03 -0.10048701478E+04 -0.11859638357E+04  0.16078839118E+04  0.10100000352E+00 0. -1.
</event>
<event>
 5   0  0.9342133E-06  0.2836401E+04  0.7818609E-02  0.8292056E-01
       -2   -1    0    0    0  501  0.00000000000E+00  0.00000000000E+00  0.10966938334E+04  0.10966938334E+04  0.25500000920E-02 0. -1.
        2   -1    0    0  501    0  0.00000000000E+00  0.00000000000E+00 -0.18339601804E+04  0.18339601804E+04  0.25500000920E-02 0.  1.
    10030    2    1    2    0    0  0.00000000000E+00  0.00000000000E+00 -0.73726634698E+03  0.29306540137E+04  0.28364011144E+04 0.  0.
        2    1    3    3  502    0 -0.21953499886E+03  0.98644245067E+03  0.65943224285E+03  0.12066959879E+04  0.25500000920E-02 0. -1.
       -2    1    3    3    0  502  0.21953499886E+03 -0.98644245067E+03 -0.13966985898E+04  0.17239580259E+04  0.25500000920E-02 0.  1.
</event>
<event>
 5   0  0.3600963E-06  0.2816726E+04  0.7818609E-02  0.8298094E-01
       -1   -1    0    0    0  501  0.00000000000E+00  0.00000000000E+00  0.89580163010E+03  0.89580163012E+03  0.50400001928E-02 0. -1.
        1   -1    0    0  501    0  0.00000000000E+00  0.00000000000E+00 -0.22142034212E+04  0.22142034212E+04  0.50400001928E-02 0.  1.
    10030    2    1    2    0    0  0.00000000000E+00  0.00000000000E+00 -0.13184017910E+04  0.31100050513E+04  0.28167264930E+04 0.  0.
        5    1    3    3  502    0 -0.12708950150E+04 -0.59893975647E+03 -0.55123410877E+03  0.15092329521E+04  0.46999998093E+01 0.  1.
       -5    1    3    3    0  502  0.12708950150E+04  0.59893975647E+03 -0.76716768228E+03  0.16007720992E+04  0.46999998093E+01 0. -1.
</event>
<event>
 5   0  0.3397882E-06  0.2707994E+04  0.7818609E-02  0.8332416E-01
       -1   -1    0    0    0  501  0.00000000000E+00  0.00000000000E+00  0.25324767738E+04  0.25324767738E+04  0.50400001928E-02 0. -1.
        1   -1    0    0  501    0  0.00000000000E+00  0.00000000000E+00 -0.72391879308E+03  0.72391879310E+03  0.50400001928E-02 0.  1.
    10030    2    1    2    0    0  0.00000000000E+00  0.00000000000E+00  0.18085579807E+04  0.32563955669E+04  0.27079937442E+04 0.  0.
        2    1    3    3  502    0  0.49910056455E+03 -0.11619176372E+02 -0.60920154674E+03  0.78763119755E+03  0.25500000920E-02 0.  1.
       -2    1    3    3    0  502 -0.49910056455E+03  0.11619176372E+02  0.24177595274E+04  0.24687643693E+04  0.25500000920E-02 0. -1.
</event>
<event>
 5   0  0.3600963E-06  0.2799618E+04  0.7818609E-02  0.8303387E-01
       -1   -1    0    0    0  501  0.00000000000E+00  0.00000000000E+00  0.13197946521E+04  0.13197946522E+04  0.50400001928E-02 0.  1.
        1   -1    0    0  501    0  0.00000000000E+00  0.00000000000E+00 -0.14846748391E+04  0.14846748391E+04  0.50400001928E-02 0. -1.
    10030    2    1    2    0    0  0.00000000000E+00  0.00000000000E+00 -0.16488018698E+03  0.28044694913E+04  0.27996184832E+04 0.  0.
        5    1    3    3  502    0 -0.84272017835E+03 -0.11769426593E+03 -0.11958580720E+04  0.14676947426E+04  0.46999998093E+01 0. -1.
       -5    1    3    3    0  502  0.84272017835E+03  0.11769426593E+03  0.10309778850E+04  0.13367747486E+04  0.46999998093E+01 0.  1.
</event>
<event>
 5   0  0.9252359E-06  0.2814700E+04  0.7818609E-02  0.8298719E-01
       -2   -1    0    0    0  501  0.00000000000E+00  0.00000000000E+00  0.11529231283E+04  0.11529231283E+04  0.25500000920E-02 0.  1.
        2   -1    0    0  501    0  0.00000000000E+00  0.00000000000E+00 -0.17179234226E+04  0.17179234226E+04  0.25500000920E-02 0. -1.
    10030    2    1    2    0    0  0.00000000000E+00  0.00000000000E+00 -0.56500029433E+03  0.28708465509E+04  0.28146997328E+04 0.  0.
        5    1    3    3  502    0  0.12122587561E+04  0.52689123983E+03 -0.77527940142E+03  0.15324052697E+04  0.46999998093E+01 0.  1.
       -5    1    3    3    0  502 -0.12122587561E+04 -0.52689123983E+03  0.21027910709E+03  0.13384412812E+04  0.46999998093E+01 0. -1.
</event>
<event>
 5   0  0.3600963E-06  0.2802182E+04  0.7818609E-02  0.8302591E-01
        1   -1    0    0  501    0  0.00000000000E+00  0.00000000000E+00  0.13835281373E+04  0.13835281373E+04  0.50400001928E-02 0.  1.
       -1   -1    0    0    0  501  0.00000000000E+00  0.00000000000E+00 -0.14188765910E+04  0.14188765910E+04  0.50400001928E-02 0. -1.
    10030    2    1    2    0    0  0.00000000000E+00  0.00000000000E+00 -0.35348453686E+02  0.28024047284E+04  0.28021817836E+04 0.  0.
        5    1    3    3  502    0  0.70948266469E+03  0.15643306764E+03  0.11804180158E+04  0.13860900902E+04  0.46999998093E+01 0.  1.
       -5    1    3    3    0  502 -0.70948266469E+03 -0.15643306764E+03 -0.12157664694E+04  0.14163146382E+04  0.46999998093E+01 0. -1.
</event>
<event>
 5   0  0.9260173E-06  0.2816911E+04  0.7818609E-02  0.8298037E-01
        2   -1    0    0  501    0  0.00000000000E+00  0.00000000000E+00  0.12958500902E+04  0.12958500902E+04  0.25500000920E-02 0. -1.
       -2   -1    0    0    0  501  0.00000000000E+00  0.00000000000E+00 -0.15308463400E+04  0.15308463400E+04  0.25500000920E-02 0.  1.
    10030    2    1    2    0    0  0.00000000000E+00  0.00000000000E+00 -0.23499624984E+03  0.28266964302E+04  0.28169113353E+04 0.  0.
        1    1    3    3  502    0  0.16501994189E+03  0.13790468683E+04  0.11729225109E+03  0.13938290133E+04  0.50400001928E-02 0.  1.
       -1    1    3    3    0  502 -0.16501994189E+03 -0.13790468683E+04 -0.35228850093E+03  0.14328674168E+04  0.50400001928E-02 0. -1.
</event>
<event>
 5   0  0.9252359E-06  0.2841845E+04  0.7818609E-02  0.8290394E-01
        2   -1    0    0  501    0  0.00000000000E+00  0.00000000000E+00  0.12168538152E+04  0.12168538152E+04  0.25500000920E-02 0. -1.
       -2   -1    0    0    0  501  0.00000000000E+00  0.00000000000E+00 -0.16592141735E+04  0.16592141735E+04  0.25500000920E-02 0.  1.
    10030    2    1    2    0    0  0.00000000000E+00  0.00000000000E+00 -0.44236035834E+03  0.28760679888E+04  0.28418452437E+04 0.  0.
        5    1    3    3  502    0  0.11905662537E+04 -0.36371254879E+03  0.47209783668E+03  0.13314027490E+04  0.46999998093E+01 0. -1.
       -5    1    3    3    0  502 -0.11905662537E+04  0.36371254879E+03 -0.91445819501E+03  0.15446652398E+04  0.46999998093E+01 0.  1.
</event>
<event>
 5   0  0.9252359E-06  0.2802133E+04  0.7818609E-02  0.8302606E-01
        2   -1    0    0  501    0  0.00000000000E+00  0.00000000000E+00  0.17912727208E+04  0.17912727208E+04  0.25500000920E-02 0.  1.
       -2   -1    0    0    0  501  0.00000000000E+00  0.00000000000E+00 -0.10958618797E+04  0.10958618797E+04  0.25500000920E-02 0. -1.
    10030    2    1    2    0    0  0.00000000000E+00  0.00000000000E+00  0.69541084117E+03  0.28871346005E+04  0.28021331095E+04 0.  0.
        5    1    3    3  502    0 -0.10467673586E+04 -0.10444174329E+03 -0.60574963028E+03  0.12139129645E+04  0.46999998093E+01 0.  1.
       -5    1    3    3    0  502  0.10467673586E+04  0.10444174329E+03  0.13011604715E+04  0.16732216360E+04  0.46999998093E+01 0. -1.
</event>
<event>
 5   0  0.3600963E-06  0.2798200E+04  0.7818609E-02  0.8303827E-01
        1   -1    0    0  501    0  0.00000000000E+00  0.00000000000E+00  0.87411854451E+03  0.87411854452E+03  0.50400001928E-02 0.  1.
       -1   -1    0    0    0  501  0.00000000000E+00  0.00000000000E+00 -0.22393768923E+04  0.22393768923E+04  0.50400001928E-02 0. -1.
    10030    2    1    2    0    0  0.00000000000E+00  0.00000000000E+00 -0.13652583478E+04  0.31134954369E+04  0.27982000427E+04 0.  0.
        5    1    3    3  502    0  0.11416536061E+04 -0.35834228112E+03 -0.14893602950E+04  0.19104968791E+04  0.46999998093E+01 0. -1.
       -5    1    3    3    0  502 -0.11416536061E+04  0.35834228112E+03  0.12410194717E+03  0.12029985578E+04  0.46999998093E+01 0.  1.
</event>
<event>
 5   0  0.3600963E-06  0.2768905E+04  0.7818609E-02  0.8312988E-01
        1   -1    0    0  501    0  0.00000000000E+00  0.00000000000E+00  0.10889280731E+04  0.10889280731E+04  0.50400001928E-02 0. -1.
       -1   -1    0    0    0  501  0.00000000000E+00  0.00000000000E+00 -0.17601795343E+04  0.17601795343E+04  0.50400001928E-02 0.  1.
    10030    2    1    2    0    0  0.00000000000E+00  0.00000000000E+00 -0.67125146121E+03  0.28491076073E+04  0.27689051327E+04 0.  0.
        5    1    3    3  502    0 -0.35081101551E+03 -0.54513955116E+03 -0.15943500458E+04  0.17211100073E+04  0.46999998093E+01 0.  1.
       -5    1    3    3    0  502  0.35081101551E+03  0.54513955116E+03  0.92309858455E+03  0.11279976000E+04  0.46999998093E+01 0. -1.
</event>
<event>
 5   0  0.9252359E-06  0.2790290E+04  0.7818609E-02  0.8306289E-01
       -2   -1    0    0    0  501  0.00000000000E+00  0.00000000000E+00  0.84273170332E+03  0.84273170333E+03  0.25500000920E-02 0.  1.
        2   -1    0    0  501    0  0.00000000000E+00  0.00000000000E+00 -0.23096664905E+04  0.23096664905E+04  0.25500000920E-02 0. -1.
    10030    2    1    2    0    0  0.00000000000E+00  0.00000000000E+00 -0.14669347872E+04  0.31523981939E+04  0.27902897166E+04 0.  0.
        5    1    3    3  502    0  0.94948157231E+03  0.59723463571E+03 -0.16707054875E+04  0.20123328209E+04  0.46999998093E+01 0. -1.
       -5    1    3    3    0  502 -0.94948157231E+03 -0.59723463571E+03  0.20377070029E+03  0.11400653729E+04  0.46999998093E+01 0.  1.
</event>
<event>
 5   0  0.3357244E-06  0.2818927E+04  0.7818609E-02  0.8297416E-01
       -1   -1    0    0    0  501  0.00000000000E+00  0.00000000000E+00  0.99648739422E+03  0.99648739423E+03  0.50400001928E-02 0.  1.
        1   -1    0    0  501    0  0.00000000000E+00  0.00000000000E+00 -0.19935901678E+04  0.19935901678E+04  0.50400001928E-02 0. -1.
    10030    2    1    2    0    0  0.00000000000E+00  0.00000000000E+00 -0.99710277361E+03  0.29900775621E+04  0.28189270807E+04 0.  0.
        4    1    3    3  502    0  0.90267019478E+03 -0.59845788649E+03 -0.14553258233E+04  0.18140948672E+04  0.12699999809E+01 0. -1.
       -4    1    3    3    0  502 -0.90267019478E+03  0.59845788649E+03  0.45822304968E+03  0.11759826949E+04  0.12699999809E+01 0.  1.
</event>
<event>
 5   0  0.9260173E-06  0.2917752E+04  0.7818609E-02  0.8267615E-01
       -2   -1    0    0    0  501  0.00000000000E+00  0.00000000000E+00  0.18087580169E+04  0.18087580169E+04  0.25500000920E-02 0.  1.
        2   -1    0    0  501    0  0.00000000000E+00  0.00000000000E+00 -0.11766739782E+04  0.11766739782E+04  0.25500000920E-02 0. -1.
    10030    2    1    2    0    0  0.00000000000E+00  0.00000000000E+00  0.63208403873E+03  0.29854319951E+04  0.29177515256E+04 0.  0.
        1    1    3    3  502    0  0.29881371863E+03  0.91745056309E+03 -0.80355770929E+03  0.12556712015E+04  0.50400001928E-02 0. -1.
       -1    1    3    3    0  502 -0.29881371863E+03 -0.91745056309E+03  0.14356417480E+04  0.17297607935E+04  0.50400001928E-02 0.  1.
</event>
<event>
 5   0  0.3600963E-06  0.2799421E+04  0.7818609E-02  0.8303448E-01
       -1   -1    0    0    0  501  0.00000000000E+00  0.00000000000E+00  0.16191319433E+04  0.16191319433E+04  0.50400001928E-02 0.  1.
        1   -1    0    0  501    0  0.00000000000E+00  0.00000000000E+00 -0.12100243447E+04  0.12100243447E+04  0.50400001928E-02 0. -1.
    10030    2    1    2    0    0  0.00000000000E+00  0.00000000000E+00  0.40910759859E+03  0.28291562879E+04  0.27994207033E+04 0.  0.
        5    1    3    3  502    0 -0.90565298667E+03 -0.62908785613E+03 -0.66669860766E+03  0.12885914738E+04  0.46999998093E+01 0. -1.
       -5    1    3    3    0  502  0.90565298667E+03  0.62908785613E+03  0.10758062063E+04  0.15405648141E+04  0.46999998093E+01 0.  1.
</event>
<event>
 5   0  0.3371603E-06  0.2793127E+04  0.7818609E-02  0.8305405E-01
       -1   -1    0    0    0  501  0.00000000000E+00  0.00000000000E+00  0.11356543610E+04  0.11356543610E+04  0.50400001928E-02 0. -1.
        1   -1    0    0  501    0  0.00000000000E+00  0.00000000000E+00 -0.17174153923E+04  0.17174153923E+04  0.50400001928E-02 0.  1.
    10030    2    1    2    0    0  0.00000000000E+00  0.00000000000E+00 -0.58176103128E+03  0.28530697533E+04  0.27931274801E+04 0.  0.
        1    1    3    3  502    0  0.11034142202E+04  0.85422792661E+03 -0.34831883808E+03  0.14382469554E+04  0.50400001928E-02 0. -1.
       -1    1    3    3    0  502 -0.11034142202E+04 -0.85422792661E+03 -0.23344219320E+03  0.14148227979E+04  0.50400001928E-02 0.  1.
</event>
<event>
 5   0  0.3371603E-06  0.2789980E+04  0.7818609E-02  0.8306386E-01
       -1   -1    0    0    0  501  0.00000000000E+00  0.00000000000E+00  0.11869188125E+04  0.11869188125E+04  0.50400001928E-02 0. -1.
        1   -1    0    0  501    0  0.00000000000E+00  0.00000000000E+00 -0.16395373330E+04  0.16395373330E+04  0.50400001928E-02 0.  1.
    10030    2    1    2    0    0  0.00000000000E+00  0.00000000000E+00 -0.45261852047E+03  0.28264561454E+04  0.27899804331E+04 0.  0.
        1    1    3    3  502    0 -0.23784002208E+03 -0.48301832682E+02  0.11653668708E+04  0.11903700629E+04  0.50400001928E-02 0. -1.
       -1    1    3    3    0  502  0.23784002208E+03  0.48301832682E+02 -0.16179853912E+04  0.16360860825E+04  0.50400001928E-02 0.  1.
</event>
<event>
 5   0  0.3357244E-06  0.2803363E+04  0.7818609E-02  0.8302225E-01
        1   -1    0    0  501    0  0.00000000000E+00  0.00000000000E+00  0.21644812621E+04  0.21644812621E+04  0.50400001928E-02 0.  1.
       -1   -1    0    0    0  501  0.00000000000E+00  0.00000000000E+00 -0.90770551148E+03  0.90770551150E+03  0.50400001928E-02 0. -1.
    10030    2    1    2    0    0  0.00000000000E+00  0.00000000000E+00  0.12567757506E+04  0.30721867736E+04  0.28033633879E+04 0.  0.
        4    1    3    3  502    0  0.77859611081E+03  0.10378610195E+03  0.19006280390E+04  0.20565437059E+04  0.12699999809E+01 0.  1.
       -4    1    3    3    0  502 -0.77859611081E+03 -0.10378610195E+03 -0.64385228841E+03  0.10156430677E+04  0.12699999809E+01 0. -1.
</event>
<event>
 5   0  0.9426937E-06  0.2740178E+04  0.7818609E-02  0.8322085E-01
       -2   -1    0    0    0  501  0.00000000000E+00  0.00000000000E+00  0.11301410028E+04  0.11301410028E+04  0.25500000920E-02 0.  1.
        2   -1    0    0  501    0  0.00000000000E+00  0.00000000000E+00 -0.16609815988E+04  0.16609815988E+04  0.25500000920E-02 0. -1.
    10030    2    1    2    0    0  0.00000000000E+00  0.00000000000E+00 -0.53084059605E+03  0.27911226016E+04  0.27401776656E+04 0.  0.
        4    1    3    3  502    0 -0.75946393312E+03 -0.11402188715E+04 -0.24908289479E+03  0.13924541077E+04  0.12699999809E+01 0. -1.
       -4    1    3    3    0  502  0.75946393312E+03  0.11402188715E+04 -0.28175770125E+03  0.13986684939E+04  0.12699999809E+01 0.  1.
</event>
<event>
 5   0  0.9065579E-06  0.2822313E+04  0.7818609E-02  0.8296374E-01
        2   -1    0    0  501    0  0.00000000000E+00  0.00000000000E+00  0.14129491452E+04  0.14129491452E+04  0.25500000920E-02 0.  1.
       -2   -1    0    0    0  501  0.00000000000E+00  0.00000000000E+00 -0.14093659426E+04  0.14093659426E+04  0.25500000920E-02 0. -1.
    10030    2    1    2    0    0  0.00000000000E+00  0.00000000000E+00  0.35832026482E+01  0.28223150878E+04  0.28223128132E+04 0.  0.
        3    1    3    3  502    0 -0.25100485887E+03  0.13233914057E+04 -0.41891545472E+03  0.14106234155E+04  0.10100000352E+00 0. -1.
       -3    1    3    3    0  502  0.25100485887E+03 -0.13233914057E+04  0.42249865737E+03  0.14116916723E+04  0.10100000352E+00 0.  1.
</event>
<event>
 5   0  0.3371603E-06  0.2800319E+04  0.7818609E-02  0.8303169E-01
       -1   -1    0    0    0  501  0.00000000000E+00  0.00000000000E+00  0.11296693445E+04  0.11296693445E+04  0.50400001928E-02 0.  1.
        1   -1    0    0  501    0  0.00000000000E+00  0.00000000000E+00 -0.17354160866E+04  0.17354160867E+04  0.50400001928E-02 0. -1.
    10030    2    1    2    0    0  0.00000000000E+00  0.00000000000E+00 -0.60574674214E+03  0.28650854312E+04  0.28003188055E+04 0.  0.
        1    1    3    3  502    0 -0.10058599269E+04  0.93374249507E+03 -0.19304149264E+02  0.13725894833E+04  0.50400001928E-02 0.  1.
       -1    1    3    3    0  502  0.10058599269E+04 -0.93374249507E+03 -0.58644259288E+03  0.14924959478E+04  0.50400001928E-02 0. -1.
</event>
<event>
 5   0  0.9252359E-06  0.2775692E+04  0.7818609E-02  0.8310855E-01
        2   -1    0    0  501    0  0.00000000000E+00  0.00000000000E+00  0.18943217834E+04  0.18943217834E+04  0.25500000920E-02 0.  1.
       -2   -1    0    0    0  501  0.00000000000E+00  0.00000000000E+00 -0.10167841945E+04  0.10167841945E+04  0.25500000920E-02 0. -1.
    10030    2    1    2    0    0  0.00000000000E+00  0.00000000000E+00  0.87753758897E+03  0.29111059779E+04  0.27756919488E+04 0.  0.
        5    1    3    3  502    0 -0.10603342587E+04 -0.59844784731E+03  0.11373307567E+04  0.16661308191E+04  0.46999998093E+01 0.  1.
       -5    1    3    3    0  502  0.10603342587E+04  0.59844784731E+03 -0.25979316776E+03  0.12449751588E+04  0.46999998093E+01 0. -1.
</event>
<event>
 5   0  0.9065579E-06  0.2729964E+04  0.7818609E-02  0.8325348E-01
        2   -1    0    0  501    0  0.00000000000E+00  0.00000000000E+00  0.20313378095E+04  0.20313378095E+04  0.25500000920E-02 0. -1.
       -2   -1    0    0    0  501  0.00000000000E+00  0.00000000000E+00 -0.91721592408E+03  0.91721592408E+03  0.25500000920E-02 0.  1.
    10030    2    1    2    0    0  0.00000000000E+00  0.00000000000E+00  0.11141218854E+04  0.29485537336E+04  0.27299636526E+04 0.  0.
        3    1    3    3  502    0  0.11780324328E+04 -0.68894399708E+03  0.58705371294E+03  0.14856097455E+04  0.10100000352E+00 0.  1.
       -3    1    3    3    0  502 -0.11780324328E+04  0.68894399708E+03  0.52706817249E+03  0.14629439881E+04  0.10100000352E+00 0. -1.
</event>
<event>
 5   0  0.9426937E-06  0.2768957E+04  0.7818609E-02  0.8312971E-01
       -2   -1    0    0    0  501  0.00000000000E+00  0.00000000000E+00  0.11069195042E+04  0.11069195042E+04  0.25500000920E-02 0.  1.
        2   -1    0    0  501    0  0.00000000000E+00  0.00000000000E+00 -0.17316348727E+04  0.17316348727E+04  0.25500000920E-02 0. -1.
    10030    2    1    2    0    0  0.00000000000E+00  0.00000000000E+00 -0.62471536858E+03  0.28385543769E+04  0.27689567817E+04 0.  0.
        4    1    3    3  502    0  0.13141654149E+04 -0.37944405318E+03 -0.93040430001E+02  0.13710093587E+04  0.12699999809E+01 0.  1.
       -4    1    3    3    0  502 -0.13141654149E+04  0.37944405318E+03 -0.53167493858E+03  0.14675450182E+04  0.12699999809E+01 0. -1.
</event>
<event>
 5   0  0.9342133E-06  0.2810378E+04  0.7818609E-02  0.8300054E-01
        2   -1    0    0  501    0  0.00000000000E+00  0.00000000000E+00  0.17672326512E+04  0.17672326512E+04  0.25500000920E-02 0.  1.
       -2   -1    0    0    0  501  0.00000000000E+00  0.00000000000E+00 -0.11173149626E+04  0.11173149626E+04  0.25500000920E-02 0. -1.
    10030    2    1    2    0    0  0.00000000000E+00  0.00000000000E+00  0.64991768861E+03  0.28845476139E+04  0.28103775431E+04 0.  0.
        2    1    3    3  502    0 -0.73296656795E+03 -0.99378802431E+02 -0.90132745903E+03  0.11659791270E+04  0.25500000920E-02 0. -1.
       -2    1    3    3    0  502  0.73296656795E+03  0.99378802431E+02  0.15512451476E+04  0.17185684869E+04  0.25500000920E-02 0.  1.
</event>
<event>
 5   0  0.9342133E-06  0.2795934E+04  0.7818609E-02  0.8304532E-01
        2   -1    0    0  501    0  0.00000000000E+00  0.00000000000E+00  0.19984583238E+04  0.19984583238E+04  0.25500000920E-02 0.  1.
       -2   -1    0    0    0  501  0.00000000000E+00  0.00000000000E+00 -0.97790975412E+03  0.97790975412E+03  0.25500000920E-02 0. -1.
    10030    2    1    2    0    0  0.00000000000E+00  0.00000000000E+00  0.10205485697E+04  0.29763680779E+04  0.27959341109E+04 0.  0.
        2    1    3    3  502    0 -0.71218574232E+03 -0.10274864401E+04  0.11762466835E+04  0.17165352244E+04  0.25500000920E-02 0.  1.
       -2    1    3    3    0  502  0.71218574232E+03  0.10274864401E+04 -0.15569811375E+03  0.12598328535E+04  0.25500000920E-02 0. -1.
</event>
<event>
 5   0  0.9342133E-06  0.2785534E+04  0.7818609E-02  0.8307773E-01
       -2   -1    0    0    0  501  0.00000000000E+00  0.00000000000E+00  0.15772652316E+04  0.15772652316E+04  0.25500000920E-02 0.  1.
        2   -1    0    0  501    0  0.00000000000E+00  0.00000000000E+00 -0.12298504631E+04  0.12298504631E+04  0.25500000920E-02 0. -1.
    10030    2    1    2    0    0  0.00000000000E+00  0.00000000000E+00  0.34741476848E+03  0.28071156948E+04  0.27855343298E+04 0.  0.
        2    1    3    3  502    0  0.65077232239E+03  0.12274564127E+04  0.74729761820E+02  0.13913081607E+04  0.25500000920E-02 0. -1.
       -2    1    3    3    0  502 -0.65077232239E+03 -0.12274564127E+04  0.27268500666E+03  0.14158075341E+04  0.25500000920E-02 0.  1.
</event>
<event>
 5   0  0.9065579E-06  0.2704949E+04  0.7818609E-02  0.8333401E-01
        2   -1    0    0  501    0  0.00000000000E+00  0.00000000000E+00  0.11544620523E+04  0.11544620524E+04  0.25500000920E-02 0. -1.
       -2   -1    0    0    0  501  0.00000000000E+00  0.00000000000E+00 -0.15844501627E+04  0.15844501627E+04  0.25500000920E-02 0.  1.
    10030    2    1    2    0    0  0.00000000000E+00  0.00000000000E+00 -0.42998811035E+03  0.27389122151E+04  0.27049492318E+04 0.  0.
        3    1    3    3  502    0  0.12229473524E+04 -0.34676945516E+03  0.25269090501E+03  0.12960331730E+04  0.10100000352E+00 0. -1.
       -3    1    3    3    0  502 -0.12229473524E+04  0.34676945516E+03 -0.68267901537E+03  0.14428790421E+04  0.10100000352E+00 0.  1.
</event>
<event>
 5   0  0.9426937E-06  0.2788550E+04  0.7818609E-02  0.8306832E-01
       -2   -1    0    0    0  501  0.00000000000E+00  0.00000000000E+00  0.10735334625E+04  0.10735334625E+04  0.25500000920E-02 0.  1.
        2   -1    0    0  501    0  0.00000000000E+00  0.00000000000E+00 -0.18108453425E+04  0.18108453425E+04  0.25500000920E-02 0. -1.
    10030    2    1    2    0    0  0.00000000000E+00  0.00000000000E+00 -0.73731187995E+03  0.28843788050E+04  0.27885502116E+04 0.  0.
        4    1    3    3  502    0 -0.71977724738E+03  0.32216349067E+03  0.82069871261E+03  0.11381636922E+04  0.12699999809E+01 0.  1.
       -4    1    3    3    0  502  0.71977724738E+03 -0.32216349067E+03 -0.15580105926E+04  0.17462151128E+04  0.12699999809E+01 0. -1.
</event>
<event>
 5   0  0.9260173E-06  0.2795797E+04  0.7818609E-02  0.8304574E-01
       -2   -1    0    0    0  501  0.00000000000E+00  0.00000000000E+00  0.13351552955E+04  0.13351552955E+04  0.25500000920E-02 0.  1.
        2   -1    0    0  501    0  0.00000000000E+00  0.00000000000E+00 -0.14635902539E+04  0.14635902539E+04  0.25500000920E-02 0. -1.
    10030    2    1    2    0    0  0.00000000000E+00  0.00000000000E+00 -0.12843495835E+03  0.27987455494E+04  0.27957970441E+04 0.  0.
        1    1    3    3  502    0  0.78552151876E+03  0.41025545212E+02 -0.12210283011E+04  0.14524590404E+04  0.50400001928E-02 0. -1.
       -1    1    3    3    0  502 -0.78552151876E+03 -0.41025545212E+02  0.10925933428E+04  0.13462865091E+04  0.50400001928E-02 0.  1.
</event>
<event>
 5   0  0.3371603E-06  0.2776080E+04  0.7818609E-02  0.8310733E-01
        1   -1    0    0  501    0  0.00000000000E+00  0.00000000000E+00  0.10794702530E+04  0.10794702530E+04  0.50400001928E-02 0.  1.
       -1   -1    0    0    0  501  0.00000000000E+00  0.00000000000E+00 -0.17848148374E+04  0.17848148374E+04  0.50400001928E-02 0. -1.
    10030    2    1    2    0    0  0.00000000000E+00  0.00000000000E+00 -0.70534458446E+03  0.28642850904E+04  0.27760796272E+04 0.  0.
        1    1    3    3  502    0 -0.34055417644E+03  0.49876027470E+03 -0.16421478067E+04  0.17496823648E+04  0.50400001928E-02 0. -1.
       -1    1    3    3    0  502  0.34055417644E+03 -0.49876027470E+03  0.93680322223E+03  0.11146027256E+04  0.50400001928E-02 0.  1.
</event>
<event>
 5   0  0.3438130E-06  0.2759260E+04  0.7818609E-02  0.8316029E-01
       -1   -1    0    0    0  501  0.00000000000E+00  0.00000000000E+00  0.12897211415E+04  0.12897211415E+04  0.50400001928E-02 0. -1.
        1   -1    0    0  501    0  0.00000000000E+00  0.00000000000E+00 -0.14758064107E+04  0.14758064107E+04  0.50400001928E-02 0.  1.
    10030    2    1    2    0    0  0.00000000000E+00  0.00000000000E+00 -0.18608526920E+03  0.27655275523E+04  0.27592598491E+04 0.  0.
        3    1    3    3  502    0 -0.12879951561E+04 -0.35412380988E+03 -0.43885321346E+03  0.14060324847E+04  0.10100000352E+00 0.  1.
       -3    1    3    3    0  502  0.12879951561E+04  0.35412380988E+03  0.25276794426E+03  0.13594950676E+04  0.10100000352E+00 0. -1.
</event>
<event>
 5   0  0.3371603E-06  0.2799109E+04  0.7818609E-02  0.8303545E-01
        1   -1    0    0  501    0  0.00000000000E+00  0.00000000000E+00  0.19514927177E+04  0.19514927177E+04  0.50400001928E-02 0. -1.
       -1   -1    0    0    0  501  0.00000000000E+00  0.00000000000E+00 -0.10037202780E+04  0.10037202780E+04  0.50400001928E-02 0.  1.
    10030    2    1    2    0    0  0.00000000000E+00  0.00000000000E+00  0.94777243967E+03  0.29552129957E+04  0.27991090104E+04 0.  0.
        1    1    3    3  502    0  0.75407420620E+03 -0.20985722985E+02 -0.77070600369E+03  0.10784507653E+04  0.50400001928E-02 0.  1.
       -1    1    3    3    0  502 -0.75407420620E+03  0.20985722985E+02  0.17184784434E+04  0.18767622304E+04  0.50400001928E-02 0. -1.
</event>
<event>
 5   0  0.9426937E-06  0.2752189E+04  0.7818609E-02  0.8318268E-01
        2   -1    0    0  501    0  0.00000000000E+00  0.00000000000E+00  0.17873633977E+04  0.17873633977E+04  0.25500000920E-02 0.  1.
       -2   -1    0    0    0  501  0.00000000000E+00  0.00000000000E+00 -0.10594574263E+04  0.10594574263E+04  0.25500000920E-02 0. -1.
    10030    2    1    2    0    0  0.00000000000E+00  0.00000000000E+00  0.72790597140E+03  0.28468208239E+04  0.27521885292E+04 0.  0.
        4    1    3    3  502    0 -0.71059895196E+03 -0.40303623231E+03  0.15093882031E+04  0.17162876902E+04  0.12699999809E+01 0.  1.
       -4    1    3    3    0  502  0.71059895196E+03  0.40303623231E+03 -0.78148223167E+03  0.11305331337E+04  0.12699999809E+01 0. -1.
</event>
<event>
 5   0  0.9342133E-06  0.2787126E+04  0.7818609E-02  0.8307276E-01
       -2   -1    0    0    0  501  0.00000000000E+00  0.00000000000E+00  0.11310499448E+04  0.11310499448E+04  0.25500000920E-02 0. -1.
        2   -1    0    0  501    0  0.00000000000E+00  0.00000000000E+00 -0.17170041435E+04  0.17170041435E+04  0.25500000920E-02 0.  1.
    10030    2    1    2    0    0  0.00000000000E+00  0.00000000000E+00 -0.58595419867E+03  0.28480540883E+04  0.27871257178E+04 0.  0.
        2    1    3    3  502    0  0.10968148892E+02 -0.25996243735E+03 -0.16919624226E+04  0.17118520989E+04  0.25500000920E-02 0.  1.
       -2    1    3    3    0  502 -0.10968148892E+02  0.25996243735E+03  0.11060082239E+04  0.11362019893E+04  0.25500000920E-02 0. -1.
</event>
<event>
 5   0  0.9342133E-06  0.2800820E+04  0.7818609E-02  0.8303014E-01
       -2   -1    0    0    0  501  0.00000000000E+00  0.00000000000E+00  0.11170306205E+04  0.11170306205E+04  0.25500000920E-02 0.  1.
        2   -1    0    0  501    0  0.00000000000E+00  0.00000000000E+00 -0.17556803964E+04  0.17556803964E+04  0.25500000920E-02 0. -1.
    10030    2    1    2    0    0  0.00000000000E+00  0.00000000000E+00 -0.63864977590E+03  0.28727110169E+04  0.28008204245E+04 0.  0.
        2    1    3    3  502    0  0.92970552922E+03  0.10090616782E+04 -0.60686131013E+03  0.15002794711E+04  0.25500000920E-02 0. -1.
       -2    1    3    3    0  502 -0.92970552922E+03 -0.10090616782E+04 -0.31788465772E+02  0.13724315459E+04  0.25500000920E-02 0.  1.
</event>
<event>
 5   0  0.9260173E-06  0.2799080E+04  0.7818609E-02  0.8303554E-01
       -2   -1    0    0    0  501  0.00000000000E+00  0.00000000000E+00  0.11219889744E+04  0.11219889744E+04  0.25500000920E-02 0. -1.
        2   -1    0    0  501    0  0.00000000000E+00  0.00000000000E+00 -0.17457500088E+04  0.17457500088E+04  0.25500000920E-02 0.  1.
    10030    2    1    2    0    0  0.00000000000E+00  0.00000000000E+00 -0.62376103438E+03  0.28677389832E+04  0.27990800360E+04 0.  0.
        1    1    3    3  502    0 -0.19815373802E+02  0.37669791804E+03  0.10689241192E+04  0.11335310950E+04  0.50400001928E-02 0. -1.
       -1    1    3    3    0  502  0.19815373802E+02 -0.37669791804E+03 -0.16926851536E+04  0.17342078883E+04  0.50400001928E-02 0.  1.
</event>
<event>
 5   0  0.9252359E-06  0.2776012E+04  0.7818609E-02  0.8310755E-01
       -2   -1    0    0    0  501  0.00000000000E+00  0.00000000000E+00  0.13269087786E+04  0.13269087786E+04  0.25500000920E-02 0. -1.
        2   -1    0    0  501    0  0.00000000000E+00  0.00000000000E+00 -0.14519161543E+04  0.14519161543E+04  0.25500000920E-02 0.  1.
    10030    2    1    2    0    0  0.00000000000E+00  0.00000000000E+00 -0.12500737576E+03  0.27788249329E+04  0.27760117370E+04 0.  0.
        5    1    3    3  502    0  0.45227977957E+03  0.70595722684E+02 -0.13741740740E+04  0.14484188727E+04  0.46999998093E+01 0.  1.
       -5    1    3    3    0  502 -0.45227977957E+03 -0.70595722684E+02  0.12491666982E+04  0.13304060602E+04  0.46999998093E+01 0. -1.
</event>
<event>
 5   0  0.3397882E-06  0.2779600E+04  0.7818609E-02  0.8309630E-01
       -1   -1    0    0    0  501  0.00000000000E+00  0.00000000000E+00  0.17153032557E+04  0.17153032557E+04  0.50400001928E-02 0.  1.
        1   -1    0    0  501    0  0.00000000000E+00  0.00000000000E+00 -0.11260654367E+04  0.11260654367E+04  0.50400001928E-02 0. -1.
    10030    2    1    2    0    0  0.00000000000E+00  0.00000000000E+00  0.58923781897E+03  0.28413686924E+04  0.27795997624E+04 0.  0.
        2    1    3    3  502    0 -0.94650260351E+03  0.96239540486E+03 -0.43598601850E+02  0.13505454201E+04  0.25500000920E-02 0.  1.
       -2    1    3    3    0  502  0.94650260351E+03 -0.96239540486E+03  0.63283642082E+03  0.14908232723E+04  0.25500000920E-02 0. -1.
</event>
<event>
 5   0  0.3438130E-06  0.2754939E+04  0.7818609E-02  0.8317396E-01
       -1   -1    0    0    0  501  0.00000000000E+00  0.00000000000E+00  0.80378115396E+03  0.80378115398E+03  0.50400001928E-02 0. -1.
        1   -1    0    0  501    0  0.00000000000E+00  0.00000000000E+00 -0.23606201429E+04  0.23606201429E+04  0.50400001928E-02 0.  1.
    10030    2    1    2    0    0  0.00000000000E+00  0.00000000000E+00 -0.15568389890E+04  0.31644012969E+04  0.27549388252E+04 0.  0.
        3    1    3    3  502    0  0.40917486538E+03 -0.12709768450E+04 -0.38955188859E+03  0.13908834944E+04  0.10100000352E+00 0. -1.
       -3    1    3    3    0  502 -0.40917486538E+03  0.12709768450E+04 -0.11672871004E+04  0.17735178025E+04  0.10100000352E+00 0.  1.
</event>
<event>
 5   0  0.3371603E-06  0.2821986E+04  0.7818609E-02  0.8296475E-01
       -1   -1    0    0    0  501  0.00000000000E+00  0.00000000000E+00  0.19367642444E+04  0.19367642444E+04  0.50400001928E-02 0.  1.
        1   -1    0    0  501    0  0.00000000000E+00  0.00000000000E+00 -0.10279524496E+04  0.10279524496E+04  0.50400001928E-02 0. -1.
    10030    2    1    2    0    0  0.00000000000E+00  0.00000000000E+00  0.90881179482E+03  0.29647166940E+04  0.28219862150E+04 0.  0.
        1    1    3    3  502    0 -0.11493432224E+04 -0.69866531897E+03  0.90232495715E+03  0.16196645947E+04  0.50400001928E-02 0.  1.
       -1    1    3    3    0  502  0.11493432224E+04  0.69866531897E+03  0.64868376699E+01  0.13450520994E+04  0.50400001928E-02 0. -1.
</event>
<event>
 5   0  0.3397882E-06  0.2784875E+04  0.7818609E-02  0.8307980E-01
        1   -1    0    0  501    0  0.00000000000E+00  0.00000000000E+00  0.25053417264E+04  0.25053417264E+04  0.50400001928E-02 0.  1.
       -1   -1    0    0    0  501  0.00000000000E+00  0.00000000000E+00 -0.77389917910E+03  0.77389917911E+03  0.50400001928E-02 0. -1.
    10030    2    1    2    0    0  0.00000000000E+00  0.00000000000E+00  0.17314425473E+04  0.32792409055E+04  0.27848747946E+04 0.  0.
        2    1    3    3  502    0  0.11376517624E+04 -0.34922237687E+03  0.17170222671E+04  0.20891082468E+04  0.25500000920E-02 0.  1.
       -2    1    3    3    0  502 -0.11376517624E+04  0.34922237687E+03  0.14420280192E+02  0.11901326588E+04  0.25500000920E-02 0. -1.
</event>
<event>
 5   0  0.9065579E-06  0.2796623E+04  0.7818609E-02  0.8304318E-01
        2   -1    0    0  501    0  0.00000000000E+00  0.00000000000E+00  0.16877577477E+04  0.16877577477E+04  0.25500000920E-02 0.  1.
       -2   -1    0    0    0  501  0.00000000000E+00  0.00000000000E+00 -0.11585046154E+04  0.11585046154E+04  0.25500000920E-02 0. -1.
    10030    2    1    2    0    0  0.00000000000E+00  0.00000000000E+00  0.52925313229E+03  0.28462623631E+04  0.27966230640E+04 0.  0.
        3    1    3    3  502    0  0.60771071505E+03  0.11644061151E+04 -0.22359765951E+03  0.13323474913E+04  0.10100000352E+00 0. -1.
       -3    1    3    3    0  502 -0.60771071505E+03 -0.11644061151E+04  0.75285079181E+03  0.15139148718E+04  0.10100000352E+00 0.  1.
</event>
<event>
 5   0  0.3397882E-06  0.2777210E+04  0.7818609E-02  0.8310379E-01
        1   -1    0    0  501    0  0.00000000000E+00  0.00000000000E+00  0.17583589969E+04  0.17583589969E+04  0.50400001928E-02 0.  1.
       -1   -1    0    0    0  501  0.00000000000E+00  0.00000000000E+00 -0.10966039174E+04  0.10966039174E+04  0.50400001928E-02 0. -1.
    10030    2    1    2    0    0  0.00000000000E+00  0.00000000000E+00  0.66175507953E+03  0.28549629143E+04  0.27772096530E+04 0.  0.
        2    1    3    3  502    0 -0.12554743990E+04  0.76569013231E+02  0.93568978476E+03  0.15676715707E+04  0.25500000920E-02 0.  1.
       -2    1    3    3    0  502  0.12554743990E+04 -0.76569013231E+02 -0.27393470523E+03  0.12872913435E+04  0.25500000920E-02 0. -1.
</event>
<event>
 5   0  0.9252359E-06  0.2744048E+04  0.7818609E-02  0.8320853E-01
       -2   -1    0    0    0  501  0.00000000000E+00  0.00000000000E+00  0.89815274049E+03  0.89815274049E+03  0.25500000920E-02 0. -1.
        2   -1    0    0  501    0  0.00000000000E+00  0.00000000000E+00 -0.20959125285E+04  0.20959125285E+04  0.25500000920E-02 0.  1.
    10030    2    1    2    0    0  0.00000000000E+00  0.00000000000E+00 -0.11977597880E+04  0.29940652690E+04  0.27440477994E+04 0.  0.
        5    1    3    3  502    0 -0.10349947712E+04  0.45908805518E+03 -0.14443700361E+04  0.18352664412E+04  0.46999998093E+01 0.  1.
       -5    1    3    3    0  502  0.10349947712E+04 -0.45908805518E+03  0.24661024812E+03  0.11587988278E+04  0.46999998093E+01 0. -1.
</event>
<event>
 5   0  0.9260173E-06  0.2742990E+04  0.7818609E-02  0.8321190E-01
        2   -1    0    0  501    0  0.00000000000E+00  0.00000000000E+00  0.20043474793E+04  0.20043474793E+04  0.25500000920E-02 0.  1.
       -2   -1    0    0    0  501  0.00000000000E+00  0.00000000000E+00 -0.93845902410E+03  0.93845902410E+03  0.25500000920E-02 0. -1.
    10030    2    1    2    0    0  0.00000000000E+00  0.00000000000E+00  0.10658884552E+04  0.29428065034E+04  0.27429895949E+04 0.  0.
        1    1    3    3  502    0  0.12736193035E+04  0.13285570081E+03  0.60016424253E+01  0.12805439419E+04  0.50400001928E-02 0. -1.
       -1    1    3    3    0  502 -0.12736193035E+04 -0.13285570081E+03  0.10598868128E+04  0.16622625615E+04  0.50400001928E-02 0.  1.
</event>
<event>
 5   0  0.3600963E-06  0.2780308E+04  0.7818609E-02  0.8309408E-01
        1   -1    0    0  501    0  0.00000000000E+00  0.00000000000E+00  0.19836552576E+04  0.19836552576E+04  0.50400001928E-02 0.  1.
       -1   -1    0    0    0  501  0.00000000000E+00  0.00000000000E+00 -0.97422552127E+03  0.97422552129E+03  0.50400001928E-02 0. -1.
    10030    2    1    2    0    0  0.00000000000E+00  0.00000000000E+00  0.10094297364E+04  0.29578807789E+04  0.27803075926E+04 0.  0.
        5    1    3    3  502    0  0.93502972310E+02  0.43262754707E+03 -0.89725031576E+03  0.10004946874E+04  0.46999998093E+01 0. -1.
       -5    1    3    3    0  502 -0.93502972310E+02 -0.43262754707E+03  0.19066800521E+04  0.19573860916E+04  0.46999998093E+01 0.  1.
</event>
<event>
 5   0  0.3438130E-06  0.2827813E+04  0.7818609E-02  0.8294685E-01
        1   -1    0    0  501    0  0.00000000000E+00  0.00000000000E+00  0.14731144159E+04  0.14731144159E+04  0.50400001928E-02 0.  1.
       -1   -1    0    0    0  501  0.00000000000E+00  0.00000000000E+00 -0.13570780030E+04  0.13570780030E+04  0.50400001928E-02 0. -1.
    10030    2    1    2    0    0  0.00000000000E+00  0.00000000000E+00  0.11603641288E+03  0.28301924190E+04  0.28278127023E+04 0.  0.
        3    1    3    3  502    0  0.43450809707E+03 -0.74185686984E+03  0.11814521388E+04  0.14611564147E+04  0.10100000352E+00 0.  1.
       -3    1    3    3    0  502 -0.43450809707E+03  0.74185686984E+03 -0.10654157259E+04  0.13690360043E+04  0.10100000352E+00 0. -1.
</event>
<event>
 5   0  0.3371603E-06  0.2795203E+04  0.7818609E-02  0.8304759E-01
       -1   -1    0    0    0  501  0.00000000000E+00  0.00000000000E+00  0.12851796847E+04  0.12851796847E+04  0.50400001928E-02 0.  1.
        1   -1    0    0  501    0  0.00000000000E+00  0.00000000000E+00 -0.15198575907E+04  0.15198575907E+04  0.50400001928E-02 0. -1.
    10030    2    1    2    0    0  0.00000000000E+00  0.00000000000E+00 -0.23467790597E+03  0.28050372754E+04  0.27952031047E+04 0.  0.
        1    1    3    3  502    0 -0.10615338972E+04  0.45535695967E+03 -0.90692730224E+03  0.14685779881E+04  0.50400001928E-02 0.  1.
       -1    1    3    3    0  502  0.10615338972E+04 -0.45535695967E+03  0.67224939627E+03  0.13364592872E+04  0.50400001928E-02 0. -1.
</event>
<event>
 5   0  0.3600963E-06  0.2732313E+04  0.7818609E-02  0.8324596E-01
       -1   -1    0    0    0  501  0.00000000000E+00  0.00000000000E+00  0.14410761283E+04  0.14410761284E+04  0.50400001928E-02 0.  1.
        1   -1    0    0  501    0  0.00000000000E+00  0.00000000000E+00 -0.12951317591E+04  0.12951317591E+04  0.50400001928E-02 0. -1.
    10030    2    1    2    0    0  0.00000000000E+00  0.00000000000E+00  0.14594436927E+03  0.27362078874E+04  0.27323129111E+04 0.  0.
        5    1    3    3  502    0 -0.15294379254E+03 -0.28799914088E+03  0.14015231080E+04  0.14389664419E+04  0.46999998093E+01 0.  1.
       -5    1    3    3    0  502  0.15294379254E+03  0.28799914088E+03 -0.12555787387E+04  0.12972414455E+04  0.46999998093E+01 0. -1.
</event>
<event>
 5   0  0.9342133E-06  0.2774091E+04  0.7818609E-02  0.8311358E-01
        2   -1    0    0  501    0  0.00000000000E+00  0.00000000000E+00  0.17805552543E+04  0.17805552543E+04  0.25500000920E-02 0. -1.
       -2   -1    0    0    0  501  0.00000000000E+00  0.00000000000E+00 -0.10805027690E+04  0.10805027690E+04  0.25500000920E-02 0.  1.
    10030    2    1    2    0    0  0.00000000000E+00  0.00000000000E+00  0.70005248534E+03  0.28610580233E+04  0.27740907574E+04 0.  0.
        2    1    3    3  502    0  0.11614800641E+04 -0.47351782787E+03  0.96073846444E+03  0.15799599582E+04  0.25500000920E-02 0. -1.
       -2    1    3    3    0  502 -0.11614800641E+04  0.47351782787E+03 -0.26068597910E+03  0.12810980650E+04  0.25500000920E-02 0.  1.
</event>
<event>
 5   0  0.3397882E-06  0.2818173E+04  0.7818609E-02  0.8297648E-01
        1   -1    0    0  501    0  0.00000000000E+00  0.00000000000E+00  0.16201449023E+04  0.16201449023E+04  0.50400001928E-02 0. -1.
       -1   -1    0    0    0  501  0.00000000000E+00  0.00000000000E+00 -0.12255232959E+04  0.12255232960E+04  0.50400001928E-02 0.  1.
    10030    2    1    2    0    0  0.00000000000E+00  0.00000000000E+00  0.39462160640E+03  0.28456681983E+04  0.28181733947E+04 0.  0.
        2    1    3    3  502    0  0.20298413422E+03  0.67321102913E+03  0.14303342739E+04  0.15938230089E+04  0.25500000920E-02 0. -1.
       -2    1    3    3    0  502 -0.20298413422E+03 -0.67321102913E+03 -0.10357126675E+04  0.12518451894E+04  0.25500000920E-02 0.  1.
</event>
<event>
 5   0  0.9252359E-06  0.2802413E+04  0.7818609E-02  0.8302520E-01
        2   -1    0    0  501    0  0.00000000000E+00  0.00000000000E+00  0.23943486565E+04  0.23943486565E+04  0.25500000920E-02 0. -1.
       -2   -1    0    0    0  501  0.00000000000E+00  0.00000000000E+00 -0.82000573202E+03  0.82000573203E+03  0.25500000920E-02 0.  1.
    10030    2    1    2    0    0  0.00000000000E+00  0.00000000000E+00  0.15743429245E+04  0.32143543886E+04  0.28024129766E+04 0.  0.
        5    1    3    3  502    0 -0.85700321512E+02 -0.49581123901E+02  0.23903223858E+04  0.23923766491E+04  0.46999998093E+01 0. -1.
       -5    1    3    3    0  502  0.85700321512E+02  0.49581123901E+02 -0.81597946130E+03  0.82197773949E+03  0.46999998093E+01 0.  1.
</event>
<event>
 5   0  0.3371603E-06  0.2748072E+04  0.7818609E-02  0.8319574E-01
        1   -1    0    0  501    0  0.00000000000E+00  0.00000000000E+00  0.12695480375E+04  0.12695480375E+04  0.50400001928E-02 0. -1.
       -1   -1    0    0    0  501  0.00000000000E+00  0.00000000000E+00 -0.14871235142E+04  0.14871235142E+04  0.50400001928E-02 0.  1.
    10030    2    1    2    0    0  0.00000000000E+00  0.00000000000E+00 -0.21757547671E+03  0.27566715517E+04  0.27480718615E+04 0.  0.
        1    1    3    3  502    0 -0.40535611674E+03  0.12634344522E+04 -0.46682840019E+03  0.14065948072E+04  0.50400001928E-02 0.  1.
       -1    1    3    3    0  502  0.40535611674E+03 -0.12634344522E+04  0.24925292348E+03  0.13500767446E+04  0.50400001928E-02 0. -1.
</event>
<event>
 5   0  0.9252359E-06  0.2818418E+04  0.7818609E-02  0.8297573E-01
       -2   -1    0    0    0  501  0.00000000000E+00  0.00000000000E+00  0.77176351736E+03  0.77176351736E+03  0.25500000920E-02 0.  1.
        2   -1    0    0  501    0  0.00000000000E+00  0.00000000000E+00 -0.25731586779E+04  0.25731586779E+04  0.25500000920E-02 0. -1.
    10030    2    1    2    0    0  0.00000000000E+00  0.00000000000E+00 -0.18013951605E+04  0.33449221952E+04  0.28184179903E+04 0.  0.
        5    1    3    3  502    0  0.87960204860E+03  0.70371136440E+03 -0.19055945934E+04  0.22136445723E+04  0.46999998093E+01 0. -1.
       -5    1    3    3    0  502 -0.87960204860E+03 -0.70371136440E+03  0.10419943287E+03  0.11312776229E+04  0.46999998093E+01 0.  1.
</event>
<event>
 5   0  0.9252359E-06  0.2608322E+04  0.7818609E-02  0.8365380E-01
        2   -1    0    0  501    0  0.00000000000E+00  0.00000000000E+00  0.16208628447E+04  0.16208628447E+04  0.25500000920E-02 0.  1.
       -2   -1    0    0    0  501  0.00000000000E+00  0.00000000000E+00 -0.10493402026E+04  0.10493402026E+04  0.25500000920E-02 0. -1.
    10030    2    1    2    0    0  0.00000000000E+00  0.00000000000E+00  0.57152264214E+03  0.26702030473E+04  0.26083224846E+04 0.  0.
        5    1    3    3  502    0  0.64807641209E+03  0.10881328116E+03  0.14389725593E+04  0.15819315670E+04  0.46999998093E+01 0.  1.
       -5    1    3    3    0  502 -0.64807641209E+03 -0.10881328116E+03 -0.86744991720E+03  0.10882714803E+04  0.46999998093E+01 0. -1.
</event>
<event>
 5   0  0.3006875E-06  0.2784888E+04  0.7818609E-02  0.8307975E-01
        4   -1    0    0  501    0  0.00000000000E+00  0.00000000000E+00  0.14548638018E+04  0.14548643561E+04  0.12699999809E+01 0.  1.
       -4   -1    0    0    0  501  0.00000000000E+00  0.00000000000E+00 -0.13327012298E+04  0.13327018349E+04  0.12699999809E+01 0. -1.
    10030    2    1    2    0    0  0.00000000000E+00  0.00000000000E+00  0.12216257201E+03  0.27875661911E+04  0.27848880724E+04 0.  0.
        2    1    3    3  502    0 -0.12698969531E+04  0.63991407696E+02  0.62922488705E+03  0.14186814760E+04  0.25500000920E-02 0.  1.
       -2    1    3    3    0  502  0.12698969531E+04 -0.63991407696E+02 -0.50706231504E+03  0.13688847151E+04  0.25500000920E-02 0. -1.
</event>
<event>
 5   0  0.9065579E-06  0.2825468E+04  0.7818609E-02  0.8295405E-01
        2   -1    0    0  501    0  0.00000000000E+00  0.00000000000E+00  0.19726657091E+04  0.19726657091E+04  0.25500000920E-02 0.  1.
       -2   -1    0    0    0  501  0.00000000000E+00  0.00000000000E+00 -0.10117364643E+04  0.10117364643E+04  0.25500000920E-02 0. -1.
    10030    2    1    2    0    0  0.00000000000E+00  0.00000000000E+00  0.96092924479E+03  0.29844021735E+04  0.28254683363E+04 0.  0.
        3    1    3    3  502    0  0.11020917277E+04 -0.76530751912E+03  0.13420292181E+02  0.13418203641E+04  0.10100000352E+00 0.  1.
       -3    1    3    3    0  502 -0.11020917277E+04  0.76530751912E+03  0.94750895261E+03  0.16425818094E+04  0.10100000352E+00 0. -1.
</event>
<event>
 5   0  0.3371603E-06  0.2803363E+04  0.7818609E-02  0.8302225E-01
        1   -1    0    0  501    0  0.00000000000E+00  0.00000000000E+00  0.14079423895E+04  0.14079423895E+04  0.50400001928E-02 0. -1.
       -1   -1    0    0    0  501  0.00000000000E+00  0.00000000000E+00 -0.13954487329E+04  0.13954487329E+04  0.50400001928E-02 0.  1.
    10030    2    1    2    0    0  0.00000000000E+00  0.00000000000E+00  0.12493656653E+02  0.28033911224E+04  0.28033632825E+04 0.  0.
        1    1    3    3  502    0 -0.40780438845E+03 -0.42070159676E+03 -0.12671146188E+04  0.13960206696E+04  0.50400001928E-02 0.  1.
       -1    1    3    3    0  502  0.40780438845E+03  0.42070159676E+03  0.12796082755E+04  0.14073704528E+04  0.50400001928E-02 0. -1.
</event>
<event>
 5   0  0.3357244E-06  0.2772012E+04  0.7818609E-02  0.8312011E-01
       -1   -1    0    0    0  501  0.00000000000E+00  0.00000000000E+00  0.30083328576E+04  0.30083328576E+04  0.50400001928E-02 0.  1.
        1   -1    0    0  501    0  0.00000000000E+00  0.00000000000E+00 -0.63856373970E+03  0.63856373972E+03  0.50400001928E-02 0. -1.
    10030    2    1    2    0    0  0.00000000000E+00  0.00000000000E+00  0.23697691179E+04  0.36468965973E+04  0.27720117459E+04 0.  0.
        4    1    3    3  502    0  0.82945883815E+02  0.58825629854E+03  0.28323382204E+04  0.28939707843E+04  0.12699999809E+01 0.  1.
       -4    1    3    3    0  502 -0.82945883815E+02 -0.58825629854E+03 -0.46256910255E+03  0.75292581304E+03  0.12699999809E+01 0. -1.
</event>
<event>
 5   0  0.3600963E-06  0.2804115E+04  0.7818609E-02  0.8301992E-01
       -1   -1    0    0    0  501  0.00000000000E+00  0.00000000000E+00  0.13588243459E+04  0.13588243459E+04  0.50400001928E-02 0.  1.
        1   -1    0    0  501    0  0.00000000000E+00  0.00000000000E+00 -0.14466658439E+04  0.14466658440E+04  0.50400001928E-02 0. -1.
    10030    2    1    2    0    0  0.00000000000E+00  0.00000000000E+00 -0.87841498060E+02  0.28054901898E+04  0.28041146689E+04 0.  0.
        5    1    3    3  502    0 -0.40032756041E+03  0.29581210212E+03 -0.13552794327E+04  0.14438044833E+04  0.46999998093E+01 0. -1.
       -5    1    3    3    0  502  0.40032756041E+03 -0.29581210212E+03  0.12674379346E+04  0.13616857066E+04  0.46999998093E+01 0.  1.
</event>
<event>
 5   0  0.9342133E-06  0.2795141E+04  0.7818609E-02  0.8304779E-01
        2   -1    0    0  501    0  0.00000000000E+00  0.00000000000E+00  0.21099176988E+04  0.21099176988E+04  0.25500000920E-02 0. -1.
       -2   -1    0    0    0  501  0.00000000000E+00  0.00000000000E+00 -0.92572475419E+03  0.92572475420E+03  0.25500000920E-02 0.  1.
    10030    2    1    2    0    0  0.00000000000E+00  0.00000000000E+00  0.11841929446E+04  0.30356424530E+04  0.27951408144E+04 0.  0.
        2    1    3    3  502    0 -0.34126468772E+03  0.71381049527E+03 -0.65907759877E+03  0.10297428278E+04  0.25500000920E-02 0. -1.
       -2    1    3    3    0  502  0.34126468772E+03 -0.71381049527E+03  0.18432705434E+04  0.20058996252E+04  0.25500000920E-02 0.  1.
</event>
<event>
 5   0  0.3438130E-06  0.2859997E+04  0.7818609E-02  0.8284880E-01
       -1   -1    0    0    0  501  0.00000000000E+00  0.00000000000E+00  0.11555821121E+04  0.11555821121E+04  0.50400001928E-02 0.  1.
        1   -1    0    0  501    0  0.00000000000E+00  0.00000000000E+00 -0.17695811337E+04  0.17695811337E+04  0.50400001928E-02 0. -1.
    10030    2    1    2    0    0  0.00000000000E+00  0.00000000000E+00 -0.61399902161E+03  0.29251632459E+04  0.28599974154E+04 0.  0.
        3    1    3    3  502    0 -0.11741608037E+04 -0.81376841224E+03 -0.37187725759E+03  0.14761996229E+04  0.10100000352E+00 0.  1.
       -3    1    3    3    0  502  0.11741608037E+04  0.81376841224E+03 -0.24212176402E+03  0.14489636229E+04  0.10100000352E+00 0. -1.
</event>
<event>
 5   0  0.3357244E-06  0.2812698E+04  0.7818609E-02  0.8299337E-01
        1   -1    0    0  501    0  0.00000000000E+00  0.00000000000E+00  0.14211074975E+04  0.14211074975E+04  0.50400001928E-02 0.  1.
       -1   -1    0    0    0  501  0.00000000000E+00  0.00000000000E+00 -0.13917435738E+04  0.13917435738E+04  0.50400001928E-02 0. -1.
    10030    2    1    2    0    0  0.00000000000E+00  0.00000000000E+00  0.29363923717E+02  0.28128510713E+04  0.28126977992E+04 0.  0.
        4    1    3    3  502    0 -0.70694355336E+03 -0.93018242871E+03  0.79754457129E+03  0.14145979975E+04  0.12699999809E+01 0.  1.
       -4    1    3    3    0  502  0.70694355336E+03  0.93018242871E+03 -0.76818064757E+03  0.13982530739E+04  0.12699999809E+01 0. -1.
</event>
<event>
 5   0  0.9426937E-06  0.2827223E+04  0.7818609E-02  0.8294866E-01
        2   -1    0    0  501    0  0.00000000000E+00  0.00000000000E+00  0.12720617150E+04  0.12720617150E+04  0.25500000920E-02 0. -1.
       -2   -1    0    0    0  501  0.00000000000E+00  0.00000000000E+00 -0.15709125530E+04  0.15709125530E+04  0.25500000920E-02 0.  1.
    10030    2    1    2    0    0  0.00000000000E+00  0.00000000000E+00 -0.29885083798E+03  0.28429742680E+04  0.28272231722E+04 0.  0.
        4    1    3    3  502    0 -0.11379552207E+03  0.86771782767E+03 -0.12657509988E+04  0.15388342513E+04  0.12699999809E+01 0.  1.
       -4    1    3    3    0  502  0.11379552207E+03 -0.86771782767E+03  0.96690016078E+03  0.13041400167E+04  0.12699999809E+01 0. -1.
</event>
<event>
 5   0  0.3357244E-06  0.2812059E+04  0.7818609E-02  0.8299534E-01
        1   -1    0    0  501    0  0.00000000000E+00  0.00000000000E+00  0.20013306536E+04  0.20013306537E+04  0.50400001928E-02 0.  1.
       -1   -1    0    0    0  501  0.00000000000E+00  0.00000000000E+00 -0.98780226014E+03  0.98780226015E+03  0.50400001928E-02 0. -1.
    10030    2    1    2    0    0  0.00000000000E+00  0.00000000000E+00  0.10135283935E+04  0.29891329138E+04  0.28120589915E+04 0.  0.
        4    1    3    3  502    0  0.49341690213E+03  0.11350170036E+04 -0.20247904020E+03  0.12540826178E+04  0.12699999809E+01 0. -1.
       -4    1    3    3    0  502 -0.49341690213E+03 -0.11350170036E+04  0.12160074337E+04  0.17350502960E+04  0.12699999809E+01 0.  1.
</event>
<event>
 5   0  0.3357244E-06  0.2517333E+04  0.7818609E-02  0.8396837E-01
       -1   -1    0    0    0  501  0.00000000000E+00  0.00000000000E+00  0.10557559736E+04  0.10557559736E+04  0.50400001928E-02 0. -1.
        1   -1    0    0  501    0  0.00000000000E+00  0.00000000000E+00 -0.15005748109E+04  0.15005748109E+04  0.50400001928E-02 0.  1.
    10030    2    1    2    0    0  0.00000000000E+00  0.00000000000E+00 -0.44481883734E+03  0.25563307845E+04  0.25173325728E+04 0.  0.
        4    1    3    3  502    0 -0.17405119822E+03  0.11097284320E+04  0.35423279189E+03  0.11778257495E+04  0.12699999809E+01 0. -1.
       -4    1    3    3    0  502  0.17405119822E+03 -0.11097284320E+04 -0.79905162922E+03  0.13785050350E+04  0.12699999809E+01 0.  1.
</event>
<event>
 5   0  0.3371603E-06  0.2779724E+04  0.7818609E-02  0.8309591E-01
        1   -1    0    0  501    0  0.00000000000E+00  0.00000000000E+00  0.12738052344E+04  0.12738052344E+04  0.50400001928E-02 0. -1.
       -1   -1    0    0    0  501  0.00000000000E+00  0.00000000000E+00 -0.15164924375E+04  0.15164924376E+04  0.50400001928E-02 0.  1.
    10030    2    1    2    0    0  0.00000000000E+00  0.00000000000E+00 -0.24268720311E+03  0.27902976720E+04  0.27797237308E+04 0.  0.
        1    1    3    3  502    0 -0.96441182658E+01 -0.11408624361E+04 -0.91812363518E+03  0.14644490830E+04  0.50400001928E-02 0.  1.
       -1    1    3    3    0  502  0.96441182658E+01  0.11408624361E+04  0.67543643208E+03  0.13258485890E+04  0.50400001928E-02 0. -1.
</event>
<event>
 5   0  0.9260173E-06  0.2686639E+04  0.7818609E-02  0.8339353E-01
        2   -1    0    0  501    0  0.00000000000E+00  0.00000000000E+00  0.96225026467E+03  0.96225026467E+03  0.25500000920E-02 0. -1.
       -2   -1    0    0    0  501  0.00000000000E+00  0.00000000000E+00 -0.18752992416E+04  0.18752992416E+04  0.25500000920E-02 0.  1.
    10030    2    1    2    0    0  0.00000000000E+00  0.00000000000E+00 -0.91304897692E+03  0.28375495063E+04  0.26866389348E+04 0.  0.
        1    1    3    3  502    0  0.18059400610E+03  0.11551392268E+04 -0.11551528018E+04  0.16435750131E+04  0.50400001928E-02 0.  1.
       -1    1    3    3    0  502 -0.18059400610E+03 -0.11551392268E+04  0.24210382487E+03  0.11939744931E+04  0.50400001928E-02 0. -1.
</event>
<event>
 5   0  0.3438130E-06  0.2796190E+04  0.7818609E-02  0.8304452E-01
       -1   -1    0    0    0  501  0.00000000000E+00  0.00000000000E+00  0.12124226251E+04  0.12124226251E+04  0.50400001928E-02 0. -1.
        1   -1    0    0  501    0  0.00000000000E+00  0.00000000000E+00 -0.16122013389E+04  0.16122013389E+04  0.50400001928E-02 0.  1.
    10030    2    1    2    0    0  0.00000000000E+00  0.00000000000E+00 -0.39977871379E+03  0.28246239640E+04  0.27961898215E+04 0.  0.
        3    1    3    3  502    0 -0.58145741522E+03  0.77415489799E+03  0.81896041253E+03  0.12681106810E+04  0.10100000352E+00 0. -1.
       -3    1    3    3    0  502  0.58145741522E+03 -0.77415489799E+03 -0.12187391263E+04  0.15565132830E+04  0.10100000352E+00 0.  1.
</event>
<event>
 5   0  0.9342133E-06  0.2733135E+04  0.7818609E-02  0.8324333E-01
        2   -1    0    0  501    0  0.00000000000E+00  0.00000000000E+00  0.13262543525E+04  0.13262543525E+04  0.25500000920E-02 0.  1.
       -2   -1    0    0    0  501  0.00000000000E+00  0.00000000000E+00 -0.14081055236E+04  0.14081055236E+04  0.25500000920E-02 0. -1.
    10030    2    1    2    0    0  0.00000000000E+00  0.00000000000E+00 -0.81851171136E+02  0.27343598761E+04  0.27331345224E+04 0.  0.
        2    1    3    3  502    0 -0.77924177035E+03  0.91280252421E+03  0.61288090584E+03  0.13476086931E+04  0.25500000920E-02 0.  1.
       -2    1    3    3    0  502  0.77924177035E+03 -0.91280252421E+03 -0.69473207697E+03  0.13867511830E+04  0.25500000920E-02 0. -1.
</event>
<event>
 5   0  0.9252359E-06  0.2771040E+04  0.7818609E-02  0.8312316E-01
        2   -1    0    0  501    0  0.00000000000E+00  0.00000000000E+00  0.22987952220E+04  0.22987952220E+04  0.25500000920E-02 0. -1.
       -2   -1    0    0    0  501  0.00000000000E+00  0.00000000000E+00 -0.83507491667E+03  0.83507491667E+03  0.25500000920E-02 0.  1.
    10030    2    1    2    0    0  0.00000000000E+00  0.00000000000E+00  0.14637203053E+04  0.31338701387E+04  0.27710404028E+04 0.  0.
        5    1    3    3  502    0  0.12501578496E+04 -0.45201294954E+03  0.29031130863E+03  0.13607031643E+04  0.46999998093E+01 0.  1.
       -5    1    3    3    0  502 -0.12501578496E+04  0.45201294954E+03  0.11734089967E+04  0.17731669744E+04  0.46999998093E+01 0. -1.
</event>
<event>
 5   0  0.3600963E-06  0.2799563E+04  0.7818609E-02  0.8303404E-01
       -1   -1    0    0    0  501  0.00000000000E+00  0.00000000000E+00  0.99531987405E+03  0.99531987407E+03  0.50400001928E-02 0.  1.
        1   -1    0    0  501    0  0.00000000000E+00  0.00000000000E+00 -0.19686014673E+04  0.19686014673E+04  0.50400001928E-02 0. -1.
    10030    2    1    2    0    0  0.00000000000E+00  0.00000000000E+00 -0.97328159326E+03  0.29639213414E+04  0.27995629406E+04 0.  0.
        5    1    3    3  502    0 -0.27199368015E+02 -0.12193044355E+04  0.24065653246E+03  0.12431334477E+04  0.46999998093E+01 0.  1.
       -5    1    3    3    0  502  0.27199368015E+02  0.12193044355E+04 -0.12139381257E+04  0.17207878937E+04  0.46999998093E+01 0. -1.
</event>
<event>
 5   0  0.9426937E-06  0.2783857E+04  0.7818609E-02  0.8308298E-01
       -2   -1    0    0    0  501  0.00000000000E+00  0.00000000000E+00  0.88141440061E+03  0.88141440061E+03  0.25500000920E-02 0. -1.
        2   -1    0    0  501    0  0.00000000000E+00  0.00000000000E+00 -0.21981313135E+04  0.21981313135E+04  0.25500000920E-02 0.  1.
    10030    2    1    2    0    0  0.00000000000E+00  0.00000000000E+00 -0.13167169129E+04  0.30795457141E+04  0.27838567450E+04 0.  0.
        4    1    3    3  502    0 -0.21177634183E+03 -0.10872284622E+04 -0.15908319451E+04  0.19384691997E+04  0.12699999809E+01 0.  1.
       -4    1    3    3    0  502  0.21177634183E+03  0.10872284622E+04  0.27411503214E+03  0.11410765144E+04  0.12699999809E+01 0. -1.
</event>
<event>
 5   0  0.9426937E-06  0.2800113E+04  0.7818609E-02  0.8303233E-01
       -2   -1    0    0    0  501  0.00000000000E+00  0.00000000000E+00  0.11126753307E+04  0.11126753307E+04  0.25500000920E-02 0.  1.
        2   -1    0    0  501    0  0.00000000000E+00  0.00000000000E+00 -0.17616620603E+04  0.17616620603E+04  0.25500000920E-02 0. -1.
    10030    2    1    2    0    0  0.00000000000E+00  0.00000000000E+00 -0.64898672955E+03  0.28743373910E+04  0.28001127945E+04 0.  0.
        4    1    3    3  502    0  0.12324996049E+04  0.37625905654E+03 -0.88629434124E+03  0.15640158010E+04  0.12699999809E+01 0. -1.
       -4    1    3    3    0  502 -0.12324996049E+04 -0.37625905654E+03  0.23730761168E+03  0.13103215899E+04  0.12699999809E+01 0.  1.
</event>
<event>
 5   0  0.9342133E-06  0.2790124E+04  0.7818609E-02  0.8306341E-01
       -2   -1    0    0    0  501  0.00000000000E+00  0.00000000000E+00  0.11491029559E+04  0.11491029559E+04  0.25500000920E-02 0. -1.
        2   -1    0    0  501    0  0.00000000000E+00  0.00000000000E+00 -0.16936665927E+04  0.16936665927E+04  0.25500000920E-02 0.  1.
    10030    2    1    2    0    0  0.00000000000E+00  0.00000000000E+00 -0.54456363684E+03  0.28427695486E+04  0.27901235012E+04 0.  0.
        2    1    3    3  502    0  0.25706553034E+02 -0.40594428805E+03  0.10873432994E+04  0.11609336944E+04  0.25500000920E-02 0. -1.
       -2    1    3    3    0  502 -0.25706553034E+02  0.40594428805E+03 -0.16319069363E+04  0.16818358542E+04  0.25500000920E-02 0.  1.
</event>
<event>
 5   0  0.3600963E-06  0.2832371E+04  0.7818609E-02  0.8293288E-01
       -1   -1    0    0    0  501  0.00000000000E+00  0.00000000000E+00  0.10496439520E+04  0.10496439521E+04  0.50400001928E-02 0. -1.
        1   -1    0    0  501    0  0.00000000000E+00  0.00000000000E+00 -0.19107251719E+04  0.19107251719E+04  0.50400001928E-02 0.  1.
    10030    2    1    2    0    0  0.00000000000E+00  0.00000000000E+00 -0.86108121981E+03  0.29603691239E+04  0.28323708237E+04 0.  0.
        5    1    3    3  502    0  0.98622541320E+03  0.10762126841E+03 -0.14868231499E+04  0.17874249837E+04  0.46999998093E+01 0.  1.
       -5    1    3    3    0  502 -0.98622541320E+03 -0.10762126841E+03  0.62574193013E+03  0.11729441403E+04  0.46999998093E+01 0. -1.
</event>
<event>
 5   0  0.9065579E-06  0.2748732E+04  0.7818609E-02  0.8319364E-01
       -2   -1    0    0    0  501  0.00000000000E+00  0.00000000000E+00  0.15786817356E+04  0.15786817356E+04  0.25500000920E-02 0. -1.
        2   -1    0    0  501    0  0.00000000000E+00  0.00000000000E+00 -0.11964933815E+04  0.11964933815E+04  0.25500000920E-02 0.  1.
    10030    2    1    2    0    0  0.00000000000E+00  0.00000000000E+00  0.38218835410E+03  0.27751751170E+04  0.27487322518E+04 0.  0.
        3    1    3    3  502    0 -0.93335787904E+03 -0.96076796252E+03  0.50170657813E+03  0.14303641176E+04  0.10100000352E+00 0.  1.
       -3    1    3    3    0  502  0.93335787904E+03  0.96076796252E+03 -0.11951822403E+03  0.13448109995E+04  0.10100000352E+00 0. -1.
</event>
<event>
 5   0  0.3006875E-06  0.2840180E+04  0.7818609E-02  0.8290902E-01
       -3   -1    0    0    0  501  0.00000000000E+00  0.00000000000E+00  0.15141416351E+04  0.15141416385E+04  0.10100000352E+00 0.  1.
        3   -1    0    0  501    0  0.00000000000E+00  0.00000000000E+00 -0.13318800849E+04  0.13318800887E+04  0.10100000352E+00 0. -1.
    10030    2    1    2    0    0  0.00000000000E+00  0.00000000000E+00  0.18226155026E+03  0.28460217272E+04  0.28401796420E+04 0.  0.
        5    1    3    3  502    0 -0.23054903690E+03 -0.13983901537E+03  0.14882458417E+04  0.15124832508E+04  0.46999998093E+01 0.  1.
       -5    1    3    3    0  502  0.23054903690E+03  0.13983901537E+03 -0.13059842914E+04  0.13335384764E+04  0.46999998093E+01 0. -1.
</event>
<event>
 5   0  0.3438130E-06  0.2784506E+04  0.7818609E-02  0.8308095E-01
        1   -1    0    0  501    0  0.00000000000E+00  0.00000000000E+00  0.18355858880E+04  0.18355858880E+04  0.50400001928E-02 0. -1.
       -1   -1    0    0    0  501  0.00000000000E+00  0.00000000000E+00 -0.10559944163E+04  0.10559944163E+04  0.50400001928E-02 0.  1.
    10030    2    1    2    0    0  0.00000000000E+00  0.00000000000E+00  0.77959147168E+03  0.28915803044E+04  0.27845060233E+04 0.  0.
        3    1    3    3  502    0 -0.30894043639E+03  0.10605615317E+04 -0.49021847272E+03  0.12085318022E+04  0.10100000352E+00 0.  1.
       -3    1    3    3    0  502  0.30894043639E+03 -0.10605615317E+04  0.12698099444E+04  0.16830485022E+04  0.10100000352E+00 0. -1.
</event>
<event>
 5   0  0.9426937E-06  0.2374718E+04  0.7818609E-02  0.8449030E-01
       -2   -1    0    0    0  501  0.00000000000E+00  0.00000000000E+00  0.69773669415E+03  0.69773669416E+03  0.25500000920E-02 0. -1.
        2   -1    0    0  501    0  0.00000000000E+00  0.00000000000E+00 -0.20205628620E+04  0.20205628620E+04  0.25500000920E-02 0.  1.
    10030    2    1    2    0    0  0.00000000000E+00  0.00000000000E+00 -0.13228261679E+04  0.27182995562E+04  0.23747175425E+04 0.  0.
        4    1    3    3  502    0  0.41159930886E+03  0.10910954574E+04 -0.40566933508E+03  0.12346953108E+04  0.12699999809E+01 0. -1.
       -4    1    3    3    0  502 -0.41159930886E+03 -0.10910954574E+04 -0.91715683281E+03  0.14836042454E+04  0.12699999809E+01 0.  1.
</event>
<event>
 5   0  0.3357244E-06  0.2815152E+04  0.7818609E-02  0.8298580E-01
        1   -1    0    0  501    0  0.00000000000E+00  0.00000000000E+00  0.11030803718E+04  0.11030803718E+04  0.50400001928E-02 0. -1.
       -1   -1    0    0    0  501  0.00000000000E+00  0.00000000000E+00 -0.17961254009E+04  0.17961254009E+04  0.50400001928E-02 0.  1.
    10030    2    1    2    0    0  0.00000000000E+00  0.00000000000E+00 -0.69304502908E+03  0.28992057728E+04  0.28151523405E+04 0.  0.
        4    1    3    3  502    0 -0.10577026864E+04  0.91745180297E+03 -0.19793624317E+03  0.14140838564E+04  0.12699999809E+01 0.  1.
       -4    1    3    3    0  502  0.10577026864E+04 -0.91745180297E+03 -0.49510878591E+03  0.14851219164E+04  0.12699999809E+01 0. -1.
</event>
<event>
 5   0  0.3438130E-06  0.2783676E+04  0.7818609E-02  0.8308354E-01
        1   -1    0    0  501    0  0.00000000000E+00  0.00000000000E+00  0.10751584567E+04  0.10751584567E+04  0.50400001928E-02 0.  1.
       -1   -1    0    0    0  501  0.00000000000E+00  0.00000000000E+00 -0.18017924997E+04  0.18017924997E+04  0.50400001928E-02 0. -1.
    10030    2    1    2    0    0  0.00000000000E+00  0.00000000000E+00 -0.72663404307E+03  0.28769509564E+04  0.27836755869E+04 0.  0.
        3    1    3    3  502    0 -0.94725667736E+03 -0.80615890847E+03 -0.10087632684E+04  0.16014964066E+04  0.10100000352E+00 0. -1.
       -3    1    3    3    0  502  0.94725667736E+03  0.80615890847E+03  0.28212922537E+03  0.12754545498E+04  0.10100000352E+00 0.  1.
</event>
<event>
 5   0  0.9342133E-06  0.2815563E+04  0.7818609E-02  0.8298453E-01
       -2   -1    0    0    0  501  0.00000000000E+00  0.00000000000E+00  0.10740664109E+04  0.10740664110E+04  0.25500000920E-02 0.  1.
        2   -1    0    0  501    0  0.00000000000E+00  0.00000000000E+00 -0.18451827991E+04  0.18451827991E+04  0.25500000920E-02 0. -1.
    10030    2    1    2    0    0  0.00000000000E+00  0.00000000000E+00 -0.77111638815E+03  0.29192492101E+04  0.28155630816E+04 0.  0.
        2    1    3    3  502    0  0.77065817870E+03  0.11717942197E+03 -0.16009924862E+04  0.17806802032E+04  0.25500000920E-02 0. -1.
       -2    1    3    3    0  502 -0.77065817870E+03 -0.11717942197E+03  0.82987609800E+03  0.11385690069E+04  0.25500000920E-02 0.  1.
</event>
<event>
 5   0  0.3438130E-06  0.2837693E+04  0.7818609E-02  0.8291661E-01
       -1   -1    0    0    0  501  0.00000000000E+00  0.00000000000E+00  0.18633617571E+04  0.18633617571E+04  0.50400001928E-02 0.  1.
        1   -1    0    0  501    0  0.00000000000E+00  0.00000000000E+00 -0.10803728155E+04  0.10803728155E+04  0.50400001928E-02 0. -1.
    10030    2    1    2    0    0  0.00000000000E+00  0.00000000000E+00  0.78298894152E+03  0.29437345726E+04  0.28376929981E+04 0.  0.
        3    1    3    3  502    0 -0.11444699907E+04  0.75212140281E+03  0.77633907193E+03  0.15742301385E+04  0.10100000352E+00 0.  1.
       -3    1    3    3    0  502  0.11444699907E+04 -0.75212140281E+03  0.66498695860E+01  0.13695044341E+04  0.10100000352E+00 0. -1.
</event>
<event>
 5   0  0.9260173E-06  0.2771953E+04  0.7818609E-02  0.8312029E-01
        2   -1    0    0  501    0  0.00000000000E+00  0.00000000000E+00  0.18393319120E+04  0.18393319120E+04  0.25500000920E-02 0. -1.
       -2   -1    0    0    0  501  0.00000000000E+00  0.00000000000E+00 -0.10443636901E+04  0.10443636901E+04  0.25500000920E-02 0.  1.
    10030    2    1    2    0    0  0.00000000000E+00  0.00000000000E+00  0.79496822190E+03  0.28836956021E+04  0.27719534360E+04 0.  0.
        1    1    3    3  502    0 -0.31165011217E+03  0.39565107797E+03 -0.94579393765E+03  0.10715370924E+04  0.50400001928E-02 0.  1.
       -1    1    3    3    0  502  0.31165011217E+03 -0.39565107797E+03  0.17407621596E+04  0.18121585096E+04  0.50400001928E-02 0. -1.
</event>
<event>
 5   0  0.9260173E-06  0.2781827E+04  0.7818609E-02  0.8308933E-01
       -2   -1    0    0    0  501  0.00000000000E+00  0.00000000000E+00  0.53347660380E+03  0.53347660380E+03  0.25500000920E-02 0.  1.
        2   -1    0    0  501    0  0.00000000000E+00  0.00000000000E+00 -0.36264769689E+04  0.36264769689E+04  0.25500000920E-02 0. -1.
    10030    2    1    2    0    0  0.00000000000E+00  0.00000000000E+00 -0.30930003651E+04  0.41599535727E+04  0.27818271816E+04 0.  0.
        1    1    3    3  502    0 -0.53899582483E+03 -0.11950399504E+03 -0.34556113213E+04  0.34994352841E+04  0.50400001928E-02 0. -1.
       -1    1    3    3    0  502  0.53899582483E+03  0.11950399504E+03  0.36261095616E+03  0.66051828859E+03  0.50400001928E-02 0.  1.
</event>
<event>
 5   0  0.9065579E-06  0.2801509E+04  0.7818609E-02  0.8302800E-01
        2   -1    0    0  501    0  0.00000000000E+00  0.00000000000E+00  0.16298424223E+04  0.16298424223E+04  0.25500000920E-02 0.  1.
       -2   -1    0    0    0  501  0.00000000000E+00  0.00000000000E+00 -0.12038670257E+04  0.12038670257E+04  0.25500000920E-02 0. -1.
    10030    2    1    2    0    0  0.00000000000E+00  0.00000000000E+00  0.42597539660E+03  0.28337094480E+04  0.28015092713E+04 0.  0.
        3    1    3    3  502    0  0.12249482033E+04  0.47458288105E+03 -0.27879655019E+03  0.13429275998E+04  0.10100000352E+00 0. -1.
       -3    1    3    3    0  502 -0.12249482033E+04 -0.47458288105E+03  0.70477194679E+03  0.14907818482E+04  0.10100000352E+00 0.  1.
</event>
<event>
 5   0  0.9065579E-06  0.2875286E+04  0.7818609E-02  0.8280269E-01
        2   -1    0    0  501    0  0.00000000000E+00  0.00000000000E+00  0.27446916164E+04  0.27446916164E+04  0.25500000920E-02 0. -1.
       -2   -1    0    0    0  501  0.00000000000E+00  0.00000000000E+00 -0.75302367276E+03  0.75302367276E+03  0.25500000920E-02 0.  1.
    10030    2    1    2    0    0  0.00000000000E+00  0.00000000000E+00  0.19916679436E+04  0.34977152891E+04  0.28752862546E+04 0.  0.
        3    1    3    3  502    0  0.43966720792E+03  0.13366798857E+04  0.13542246273E+04  0.19529323393E+04  0.10100000352E+00 0.  1.
       -3    1    3    3    0  502 -0.43966720792E+03 -0.13366798857E+04  0.63744331634E+03  0.15447829499E+04  0.10100000352E+00 0. -1.
</event>
<event>
 5   0  0.9252359E-06  0.2839125E+04  0.7818609E-02  0.8291224E-01
        2   -1    0    0  501    0  0.00000000000E+00  0.00000000000E+00  0.19798911788E+04  0.19798911788E+04  0.25500000920E-02 0.  1.
       -2   -1    0    0    0  501  0.00000000000E+00  0.00000000000E+00 -0.10178121689E+04  0.10178121689E+04  0.25500000920E-02 0. -1.
    10030    2    1    2    0    0  0.00000000000E+00  0.00000000000E+00  0.96207900987E+03  0.29977033477E+04  0.28391247488E+04 0.  0.
        5    1    3    3  502    0  0.13468986583E+04 -0.69707553072E+02  0.94865337082E+03  0.16489270592E+04  0.46999998093E+01 0.  1.
       -5    1    3    3    0  502 -0.13468986583E+04  0.69707553072E+02  0.13425639045E+02  0.13487762885E+04  0.46999998093E+01 0. -1.
</event>
<event>
 5   0  0.3438130E-06  0.2813656E+04  0.7818609E-02  0.8299041E-01
       -1   -1    0    0    0  501  0.00000000000E+00  0.00000000000E+00  0.95599268066E+03  0.95599268068E+03  0.50400001928E-02 0.  1.
        1   -1    0    0  501    0  0.00000000000E+00  0.00000000000E+00 -0.20702722030E+04  0.20702722030E+04  0.50400001928E-02 0. -1.
    10030    2    1    2    0    0  0.00000000000E+00  0.00000000000E+00 -0.11142795223E+04  0.30262648837E+04  0.28136560366E+04 0.  0.
        3    1    3    3  502    0  0.13302838877E+03 -0.11582935093E+04 -0.14039193051E+04  0.18249191300E+04  0.10100000352E+00 0. -1.
       -3    1    3    3    0  502 -0.13302838877E+03  0.11582935093E+04  0.28963978275E+03  0.12013457536E+04  0.10100000352E+00 0.  1.
</event>
<event>
 5   0  0.3357244E-06  0.2810175E+04  0.7818609E-02  0.8300116E-01
        1   -1    0    0  501    0  0.00000000000E+00  0.00000000000E+00  0.16624131511E+04  0.16624131512E+04  0.50400001928E-02 0.  1.
       -1   -1    0    0    0  501  0.00000000000E+00  0.00000000000E+00 -0.11875935915E+04  0.11875935915E+04  0.50400001928E-02 0. -1.
    10030    2    1    2    0    0  0.00000000000E+00  0.00000000000E+00  0.47481955968E+03  0.28500067426E+04  0.28101752292E+04 0.  0.
        4    1    3    3  502    0  0.93181599228E+03  0.89077268550E+03  0.80436170213E+03  0.15194592398E+04  0.12699999809E+01 0.  1.
       -4    1    3    3    0  502 -0.93181599228E+03 -0.89077268550E+03 -0.32954214245E+03  0.13305475028E+04  0.12699999809E+01 0. -1.
</event>
<event>
 5   0  0.9426937E-06  0.2747319E+04  0.7818609E-02  0.8319813E-01
       -2   -1    0    0    0  501  0.00000000000E+00  0.00000000000E+00  0.95319914060E+03  0.95319914061E+03  0.25500000920E-02 0.  1.
        2   -1    0    0  501    0  0.00000000000E+00  0.00000000000E+00 -0.19795863233E+04  0.19795863233E+04  0.25500000920E-02 0. -1.
    10030    2    1    2    0    0  0.00000000000E+00  0.00000000000E+00 -0.10263871827E+04  0.29327854639E+04  0.27473186798E+04 0.  0.
        4    1    3    3  502    0 -0.35689110660E+03  0.13178359386E+04 -0.35173654892E+03  0.14098875969E+04  0.12699999809E+01 0. -1.
       -4    1    3    3    0  502  0.35689110660E+03 -0.13178359386E+04 -0.67465063381E+03  0.15228978671E+04  0.12699999809E+01 0.  1.
</event>
<event>
 5   0  0.3438130E-06  0.2823778E+04  0.7818609E-02  0.8295924E-01
        1   -1    0    0  501    0  0.00000000000E+00  0.00000000000E+00  0.21892349846E+04  0.21892349846E+04  0.50400001928E-02 0. -1.
       -1   -1    0    0    0  501  0.00000000000E+00  0.00000000000E+00 -0.91056030724E+03  0.91056030726E+03  0.50400001928E-02 0.  1.
    10030    2    1    2    0    0  0.00000000000E+00  0.00000000000E+00  0.12786746773E+04  0.30997952918E+04  0.28237779518E+04 0.  0.
        3    1    3    3  502    0  0.97824599554E+02 -0.11392143931E+04 -0.26990739417E+03  0.11748315187E+04  0.10100000352E+00 0.  1.
       -3    1    3    3    0  502 -0.97824599554E+02  0.11392143931E+04  0.15485820715E+04  0.19249637732E+04  0.10100000352E+00 0. -1.
</event>
<event>
 5   0  0.3357244E-06  0.2794650E+04  0.7818609E-02  0.8304931E-01
        1   -1    0    0  501    0  0.00000000000E+00  0.00000000000E+00  0.18385687383E+04  0.18385687383E+04  0.50400001928E-02 0. -1.
       -1   -1    0    0    0  501  0.00000000000E+00  0.00000000000E+00 -0.10619767980E+04  0.10619767980E+04  0.50400001928E-02 0.  1.
    10030    2    1    2    0    0  0.00000000000E+00  0.00000000000E+00  0.77659194030E+03  0.29005455363E+04  0.27946501331E+04 0.  0.
        4    1    3    3  502    0  0.38135987410E+03  0.12336737510E+04  0.94250459669E+03  0.15986565626E+04  0.12699999809E+01 0.  1.
       -4    1    3    3    0  502 -0.38135987410E+03 -0.12336737510E+04 -0.16591265639E+03  0.13018889737E+04  0.12699999809E+01 0. -1.
</event>
<event>
 5   0  0.3600963E-06  0.2779781E+04  0.7818609E-02  0.8309573E-01
       -1   -1    0    0    0  501  0.00000000000E+00  0.00000000000E+00  0.30090948790E+04  0.30090948790E+04  0.50400001928E-02 0.  1.
        1   -1    0    0  501    0  0.00000000000E+00  0.00000000000E+00 -0.64198547790E+03  0.64198547792E+03  0.50400001928E-02 0. -1.
    10030    2    1    2    0    0  0.00000000000E+00  0.00000000000E+00  0.23671094011E+04  0.36510803569E+04  0.27797807208E+04 0.  0.
        5    1    3    3  502    0 -0.46562462226E+02  0.33352776691E+02 -0.64042435591E+03  0.64299760205E+03  0.46999998093E+01 0. -1.
       -5    1    3    3    0  502  0.46562462226E+02 -0.33352776691E+02  0.30075337570E+04  0.30080827549E+04  0.46999998093E+01 0.  1.
</event>
<event>
 5   0  0.3438130E-06  0.2779781E+04  0.7818609E-02  0.8309573E-01
       -1   -1    0    0    0  501  0.00000000000E+00  0.00000000000E+00  0.18208720752E+04  0.18208720752E+04  0.50400001928E-02 0. -1.
        1   -1    0    0  501    0  0.00000000000E+00  0.00000000000E+00 -0.10609174863E+04  0.10609174863E+04  0.50400001928E-02 0.  1.
    10030    2    1    2    0    0  0.00000000000E+00  0.00000000000E+00  0.75995458896E+03  0.28817895615E+04  0.27797805848E+04 0.  0.
        3    1    3    3  502    0  0.28100728687E+03 -0.31511662969E+03  0.17527812560E+04  0.18029158958E+04  0.10100000352E+00 0. -1.
       -3    1    3    3    0  502 -0.28100728687E+03  0.31511662969E+03 -0.99282666705E+03  0.10788736657E+04  0.10100000352E+00 0.  1.
</event>
<event>
 5   0  0.3600963E-06  0.2844537E+04  0.7818609E-02  0.8289573E-01
       -1   -1    0    0    0  501  0.00000000000E+00  0.00000000000E+00  0.11919303601E+04  0.11919303601E+04  0.50400001928E-02 0.  1.
        1   -1    0    0  501    0  0.00000000000E+00  0.00000000000E+00 -0.16971192858E+04  0.16971192858E+04  0.50400001928E-02 0. -1.
    10030    2    1    2    0    0  0.00000000000E+00  0.00000000000E+00 -0.50518892571E+03  0.28890496459E+04  0.28445372217E+04 0.  0.
        5    1    3    3  502    0  0.13900898940E+04  0.15260160614E+03  0.10669647469E+02  0.13984895763E+04  0.46999998093E+01 0. -1.
       -5    1    3    3    0  502 -0.13900898940E+04 -0.15260160614E+03 -0.51585857318E+03  0.14905600696E+04  0.46999998093E+01 0.  1.
</event>
<event>
 5   0  0.3397882E-06  0.2804229E+04  0.7818609E-02  0.8301957E-01
       -1   -1    0    0    0  501  0.00000000000E+00  0.00000000000E+00  0.13489065876E+04  0.13489065876E+04  0.50400001928E-02 0.  1.
        1   -1    0    0  501    0  0.00000000000E+00  0.00000000000E+00 -0.14574211666E+04  0.14574211666E+04  0.50400001928E-02 0. -1.
    10030    2    1    2    0    0  0.00000000000E+00  0.00000000000E+00 -0.10851457899E+03  0.28063277542E+04  0.28042289583E+04 0.  0.
        2    1    3    3  502    0  0.50206509823E+03 -0.31885462248E+02 -0.13639915524E+04  0.14538084470E+04  0.25500000920E-02 0. -1.
       -2    1    3    3    0  502 -0.50206509823E+03  0.31885462248E+02  0.12554769734E+04  0.13525193072E+04  0.25500000920E-02 0.  1.
</event>
<event>
 5   0  0.3397882E-06  0.2777385E+04  0.7818609E-02  0.8310324E-01
        1   -1    0    0  501    0  0.00000000000E+00  0.00000000000E+00  0.12487464324E+04  0.12487464324E+04  0.50400001928E-02 0.  1.
       -1   -1    0    0    0  501  0.00000000000E+00  0.00000000000E+00 -0.15443218491E+04  0.15443218491E+04  0.50400001928E-02 0. -1.
    10030    2    1    2    0    0  0.00000000000E+00  0.00000000000E+00 -0.29557541663E+03  0.27930682815E+04  0.27773846688E+04 0.  0.
        2    1    3    3  502    0  0.34808736925E+03 -0.87087183728E+03  0.88214586034E+03  0.12875418022E+04  0.25500000920E-02 0.  1.
       -2    1    3    3    0  502 -0.34808736925E+03  0.87087183728E+03 -0.11777212770E+04  0.15055264793E+04  0.25500000920E-02 0. -1.
</event>
<event>
 5   0  0.9252359E-06  0.2783251E+04  0.7818609E-02  0.8308487E-01
        2   -1    0    0  501    0  0.00000000000E+00  0.00000000000E+00  0.15043432474E+04  0.15043432474E+04  0.25500000920E-02 0. -1.
       -2   -1    0    0    0  501  0.00000000000E+00  0.00000000000E+00 -0.12873532347E+04  0.12873532347E+04  0.25500000920E-02 0.  1.
    10030    2    1    2    0    0  0.00000000000E+00  0.00000000000E+00  0.21699001275E+03  0.27916964821E+04  0.27832507222E+04 0.  0.
        5    1    3    3  502    0 -0.13485927434E+04  0.19163680300E+02 -0.23537093918E+03  0.13691205948E+04  0.46999998093E+01 0.  1.
       -5    1    3    3    0  502  0.13485927434E+04 -0.19163680300E+02  0.45236095192E+03  0.14225758873E+04  0.46999998093E+01 0. -1.
</event>
<event>
 5   0  0.3438130E-06  0.2767612E+04  0.7818609E-02  0.8313395E-01
        1   -1    0    0  501    0  0.00000000000E+00  0.00000000000E+00  0.17673591727E+04  0.17673591727E+04  0.50400001928E-02 0. -1.
       -1   -1    0    0    0  501  0.00000000000E+00  0.00000000000E+00 -0.10834920442E+04  0.10834920442E+04  0.50400001928E-02 0.  1.
    10030    2    1    2    0    0  0.00000000000E+00  0.00000000000E+00  0.68386712854E+03  0.28508512169E+04  0.27676124027E+04 0.  0.
        3    1    3    3  502    0  0.12856121156E+04  0.39951601546E+03  0.67173173096E+03  0.15045381640E+04  0.10100000352E+00 0. -1.
       -3    1    3    3    0  502 -0.12856121156E+04 -0.39951601546E+03  0.12135397580E+02  0.13463130529E+04  0.10100000352E+00 0.  1.
</event>
<event>
 5   0  0.9252359E-06  0.2811738E+04  0.7818609E-02  0.8299633E-01
       -2   -1    0    0    0  501  0.00000000000E+00  0.00000000000E+00  0.11287407323E+04  0.11287407323E+04  0.25500000920E-02 0.  1.
        2   -1    0    0  501    0  0.00000000000E+00  0.00000000000E+00 -0.17510374915E+04  0.17510374915E+04  0.25500000920E-02 0. -1.
    10030    2    1    2    0    0  0.00000000000E+00  0.00000000000E+00 -0.62229675915E+03  0.28797782238E+04  0.28117377832E+04 0.  0.
        5    1    3    3  502    0  0.29284674286E+03 -0.35101426367E+03 -0.16727838903E+04  0.17341275218E+04  0.46999998093E+01 0. -1.
       -5    1    3    3    0  502 -0.29284674286E+03  0.35101426367E+03  0.10504871312E+04  0.11456507020E+04  0.46999998093E+01 0.  1.
</event>
<event>
 5   0  0.3438130E-06  0.2834623E+04  0.7818609E-02  0.8292599E-01
        1   -1    0    0  501    0  0.00000000000E+00  0.00000000000E+00  0.20225835653E+04  0.20225835653E+04  0.50400001928E-02 0.  1.
       -1   -1    0    0    0  501  0.00000000000E+00  0.00000000000E+00 -0.99317108217E+03  0.99317108218E+03  0.50400001928E-02 0. -1.
    10030    2    1    2    0    0  0.00000000000E+00  0.00000000000E+00  0.10294124832E+04  0.30157546475E+04  0.28346227321E+04 0.  0.
        3    1    3    3  502    0  0.12953958958E+03  0.97748171259E+02  0.20126667347E+04  0.20191985057E+04  0.10100000352E+00 0.  1.
       -3    1    3    3    0  502 -0.12953958958E+03 -0.97748171259E+02 -0.98325425158E+03  0.99655614178E+03  0.10100000352E+00 0. -1.
</event>
<event>
 5   0  0.9426937E-06  0.2768701E+04  0.7818609E-02  0.8313052E-01
        2   -1    0    0  501    0  0.00000000000E+00  0.00000000000E+00  0.20143369117E+04  0.20143369117E+04  0.25500000920E-02 0. -1.
       -2   -1    0    0    0  501  0.00000000000E+00  0.00000000000E+00 -0.95139298473E+03  0.95139298473E+03  0.25500000920E-02 0.  1.
    10030    2    1    2    0    0  0.00000000000E+00  0.00000000000E+00  0.10629439270E+04  0.29657298964E+04  0.27687007832E+04 0.  0.
        4    1    3    3  502    0 -0.88702604359E+03 -0.70603698240E+03 -0.31949338782E+03  0.11778714108E+04  0.12699999809E+01 0.  1.
       -4    1    3    3    0  502  0.88702604359E+03  0.70603698240E+03  0.13824373148E+04  0.17878584857E+04  0.12699999809E+01 0. -1.
</event>
<event>
 5   0  0.3357244E-06  0.2751902E+04  0.7818609E-02  0.8318358E-01
        1   -1    0    0  501    0  0.00000000000E+00  0.00000000000E+00  0.15563535547E+04  0.15563535547E+04  0.50400001928E-02 0.  1.
       -1   -1    0    0    0  501  0.00000000000E+00  0.00000000000E+00 -0.12164598219E+04  0.12164598219E+04  0.50400001928E-02 0. -1.
    10030    2    1    2    0    0  0.00000000000E+00  0.00000000000E+00  0.33989373286E+03  0.27728133766E+04  0.27519023005E+04 0.  0.
        4    1    3    3  502    0 -0.27626472741E+03 -0.12721791611E+04  0.61884081248E+03  0.14414324756E+04  0.12699999809E+01 0.  1.
       -4    1    3    3    0  502  0.27626472741E+03  0.12721791611E+04 -0.27894707962E+03  0.13313809010E+04  0.12699999809E+01 0. -1.
</event>
<event>
 5   0  0.9426937E-06  0.2811059E+04  0.7818609E-02  0.8299843E-01
       -2   -1    0    0    0  501  0.00000000000E+00  0.00000000000E+00  0.20959745724E+04  0.20959745724E+04  0.25500000920E-02 0. -1.
        2   -1    0    0  501    0  0.00000000000E+00  0.00000000000E+00 -0.94252707630E+03  0.94252707630E+03  0.25500000920E-02 0.  1.
    10030    2    1    2    0    0  0.00000000000E+00  0.00000000000E+00  0.11534474961E+04  0.30385016487E+04  0.28110587228E+04 0.  0.
        4    1    3    3  502    0  0.11578879787E+04  0.11889301463E+03  0.14282936509E+04  0.18425158035E+04  0.12699999809E+01 0. -1.
       -4    1    3    3    0  502 -0.11578879787E+04 -0.11889301463E+03 -0.27484615484E+03  0.11959858452E+04  0.12699999809E+01 0.  1.
</event>
<event>
 5   0  0.9342133E-06  0.2806134E+04  0.7818609E-02  0.8301367E-01
       -2   -1    0    0    0  501  0.00000000000E+00  0.00000000000E+00  0.10688889961E+04  0.10688889961E+04  0.25500000920E-02 0.  1.
        2   -1    0    0  501    0  0.00000000000E+00  0.00000000000E+00 -0.18417222850E+04  0.18417222850E+04  0.25500000920E-02 0. -1.
    10030    2    1    2    0    0  0.00000000000E+00  0.00000000000E+00 -0.77283328886E+03  0.29106112811E+04  0.28061337704E+04 0.  0.
        2    1    3    3  502    0  0.13383356620E+02 -0.80068207709E+02 -0.18392843680E+04  0.18410749627E+04  0.25500000920E-02 0. -1.
       -2    1    3    3    0  502 -0.13383356620E+02  0.80068207709E+02  0.10664510791E+04  0.10695363184E+04  0.25500000920E-02 0.  1.
</event>
<event>
 5   0  0.3371603E-06  0.2822904E+04  0.7818609E-02  0.8296193E-01
        1   -1    0    0  501    0  0.00000000000E+00  0.00000000000E+00  0.15871109494E+04  0.15871109494E+04  0.50400001928E-02 0. -1.
       -1   -1    0    0    0  501  0.00000000000E+00  0.00000000000E+00 -0.12552349574E+04  0.12552349574E+04  0.50400001928E-02 0.  1.
    10030    2    1    2    0    0  0.00000000000E+00  0.00000000000E+00  0.33187599200E+03  0.28423459068E+04  0.28229042810E+04 0.  0.
        1    1    3    3  502    0  0.14157918584E+02 -0.31753967641E+03 -0.12187295615E+04  0.12594973747E+04  0.50400001928E-02 0.  1.
       -1    1    3    3    0  502 -0.14157918584E+02  0.31753967641E+03  0.15506055535E+04  0.15828485320E+04  0.50400001928E-02 0. -1.
</event>
<event>
 5   0  0.3371603E-06  0.2794280E+04  0.7818609E-02  0.8305047E-01
        1   -1    0    0  501    0  0.00000000000E+00  0.00000000000E+00  0.13205110819E+04  0.13205110819E+04  0.50400001928E-02 0.  1.
       -1   -1    0    0    0  501  0.00000000000E+00  0.00000000000E+00 -0.14782152134E+04  0.14782152134E+04  0.50400001928E-02 0. -1.
    10030    2    1    2    0    0  0.00000000000E+00  0.00000000000E+00 -0.15770413152E+03  0.27987262953E+04  0.27942795642E+04 0.  0.
        1    1    3    3  502    0  0.32274100116E+03 -0.96999465724E+03  0.87500172690E+03  0.13456148821E+04  0.50400001928E-02 0.  1.
       -1    1    3    3    0  502 -0.32274100116E+03  0.96999465724E+03 -0.10327058584E+04  0.14531114131E+04  0.50400001928E-02 0. -1.
</event>
<event>
 5   0  0.9252359E-06  0.2821594E+04  0.7818609E-02  0.8296595E-01
        2   -1    0    0  501    0  0.00000000000E+00  0.00000000000E+00  0.14884157016E+04  0.14884157016E+04  0.25500000920E-02 0.  1.
       -2   -1    0    0    0  501  0.00000000000E+00  0.00000000000E+00 -0.13372262005E+04  0.13372262005E+04  0.25500000920E-02 0. -1.
    10030    2    1    2    0    0  0.00000000000E+00  0.00000000000E+00  0.15118950107E+03  0.28256419021E+04  0.28215942114E+04 0.  0.
        5    1    3    3  502    0  0.64754886467E+03 -0.67367175050E+03 -0.98288566170E+03  0.13561856339E+04  0.46999998093E+01 0. -1.
       -5    1    3    3    0  502 -0.64754886467E+03  0.67367175050E+03  0.11340751628E+04  0.14694562683E+04  0.46999998093E+01 0.  1.
</event>
<event>
 5   0  0.9065579E-06  0.2789328E+04  0.7818609E-02  0.8306589E-01
        2   -1    0    0  501    0  0.00000000000E+00  0.00000000000E+00  0.11044202131E+04  0.11044202131E+04  0.25500000920E-02 0. -1.
       -2   -1    0    0    0  501  0.00000000000E+00  0.00000000000E+00 -0.17611843841E+04  0.17611843841E+04  0.25500000920E-02 0.  1.
    10030    2    1    2    0    0  0.00000000000E+00  0.00000000000E+00 -0.65676417101E+03  0.28656045973E+04  0.27893279713E+04 0.  0.
        3    1    3    3  502    0 -0.39864345585E+03 -0.74872769794E+03  0.80894959158E+03  0.11721387386E+04  0.10100000352E+00 0. -1.
       -3    1    3    3    0  502  0.39864345585E+03  0.74872769794E+03 -0.14657137626E+04  0.16934658587E+04  0.10100000352E+00 0.  1.
</event>
<event>
 5   0  0.9252359E-06  0.3002616E+04  0.7818609E-02  0.8242984E-01
       -2   -1    0    0    0  501  0.00000000000E+00  0.00000000000E+00  0.11412126744E+04  0.11412126744E+04  0.25500000920E-02 0. -1.
        2   -1    0    0  501    0  0.00000000000E+00  0.00000000000E+00 -0.19750272966E+04  0.19750272966E+04  0.25500000920E-02 0.  1.
    10030    2    1    2    0    0  0.00000000000E+00  0.00000000000E+00 -0.83381462218E+03  0.31162399709E+04  0.30026163145E+04 0.  0.
        5    1    3    3  502    0 -0.11467808916E+04 -0.78570950802E+03  0.17152070364E+03  0.14006738686E+04  0.46999998093E+01 0.  1.
       -5    1    3    3    0  502  0.11467808916E+04  0.78570950802E+03 -0.10053353258E+04  0.17155661024E+04  0.46999998093E+01 0. -1.
</event>
<event>
 5   0  0.3397882E-06  0.2821008E+04  0.7818609E-02  0.8296776E-01
       -1   -1    0    0    0  501  0.00000000000E+00  0.00000000000E+00  0.10842402203E+04  0.10842402203E+04  0.50400001928E-02 0.  1.
        1   -1    0    0  501    0  0.00000000000E+00  0.00000000000E+00 -0.18349448361E+04  0.18349448361E+04  0.50400001928E-02 0. -1.
    10030    2    1    2    0    0  0.00000000000E+00  0.00000000000E+00 -0.75070461585E+03  0.29191850564E+04  0.28210076167E+04 0.  0.
        2    1    3    3  502    0  0.56434071160E+03  0.76097580487E+03  0.70598207727E+03  0.11815139897E+04  0.25500000920E-02 0.  1.
       -2    1    3    3    0  502 -0.56434071160E+03 -0.76097580487E+03 -0.14566866931E+04  0.17376710668E+04  0.25500000920E-02 0. -1.
</event>
<event>
 5   0  0.9426937E-06  0.2825726E+04  0.7818609E-02  0.8295326E-01
       -2   -1    0    0    0  501  0.00000000000E+00  0.00000000000E+00  0.16764332802E+04  0.16764332802E+04  0.25500000920E-02 0. -1.
        2   -1    0    0  501    0  0.00000000000E+00  0.00000000000E+00 -0.11907317185E+04  0.11907317185E+04  0.25500000920E-02 0.  1.
    10030    2    1    2    0    0  0.00000000000E+00  0.00000000000E+00  0.48570156173E+03  0.28671649986E+04  0.28257263000E+04 0.  0.
        4    1    3    3  502    0  0.53001449273E+03 -0.12677333236E+04  0.57648504123E+03  0.14901005865E+04  0.12699999809E+01 0. -1.
       -4    1    3    3    0  502 -0.53001449273E+03  0.12677333236E+04 -0.90783479499E+02  0.13770644122E+04  0.12699999809E+01 0.  1.
</event>
<event>
 5   0  0.3438130E-06  0.2798995E+04  0.7818609E-02  0.8303581E-01
       -1   -1    0    0    0  501  0.00000000000E+00  0.00000000000E+00  0.15041052662E+04  0.15041052662E+04  0.50400001928E-02 0.  1.
        1   -1    0    0  501    0  0.00000000000E+00  0.00000000000E+00 -0.13021647397E+04  0.13021647397E+04  0.50400001928E-02 0. -1.
    10030    2    1    2    0    0  0.00000000000E+00  0.00000000000E+00  0.20194052655E+03  0.28062700059E+04  0.27989947070E+04 0.  0.
        3    1    3    3  502    0 -0.12319045322E+04  0.30971880188E+03 -0.48799029870E+03  0.13607531203E+04  0.10100000352E+00 0. -1.
       -3    1    3    3    0  502  0.12319045322E+04 -0.30971880188E+03  0.68993082524E+03  0.14455168856E+04  0.10100000352E+00 0.  1.
</event>
<event>
 5   0  0.9065579E-06  0.2734480E+04  0.7818609E-02  0.8323903E-01
       -2   -1    0    0    0  501  0.00000000000E+00  0.00000000000E+00  0.83723235190E+03  0.83723235190E+03  0.25500000920E-02 0.  1.
        2   -1    0    0  501    0  0.00000000000E+00  0.00000000000E+00 -0.22327679419E+04  0.22327679419E+04  0.25500000920E-02 0. -1.
    10030    2    1    2    0    0  0.00000000000E+00  0.00000000000E+00 -0.13955355900E+04  0.30700002939E+04  0.27344802470E+04 0.  0.
        3    1    3    3  502    0  0.84359216094E+03  0.47335343144E+03 -0.17825736864E+04  0.20281223244E+04  0.10100000352E+00 0. -1.
       -3    1    3    3    0  502 -0.84359216094E+03 -0.47335343144E+03  0.38703809634E+03  0.10418779695E+04  0.10100000352E+00 0.  1.
</event>
<event>
 5   0  0.3371603E-06  0.2792090E+04  0.7818609E-02  0.8305728E-01
        1   -1    0    0  501    0  0.00000000000E+00  0.00000000000E+00  0.15711391118E+04  0.15711391119E+04  0.50400001928E-02 0. -1.
       -1   -1    0    0    0  501  0.00000000000E+00  0.00000000000E+00 -0.12404638023E+04  0.12404638023E+04  0.50400001928E-02 0.  1.
    10030    2    1    2    0    0  0.00000000000E+00  0.00000000000E+00  0.33067530959E+03  0.28116029141E+04  0.27920896809E+04 0.  0.
        1    1    3    3  502    0  0.12642514340E+04 -0.40296239337E+03  0.60222552345E+03  0.14571842574E+04  0.50400001928E-02 0. -1.
       -1    1    3    3    0  502 -0.12642514340E+04  0.40296239337E+03 -0.27155021386E+03  0.13544186567E+04  0.50400001928E-02 0.  1.
</event>
<event>
 5   0  0.9252359E-06  0.2903902E+04  0.7818609E-02  0.8271718E-01
        2   -1    0    0  501    0  0.00000000000E+00  0.00000000000E+00  0.18145875643E+04  0.18145875643E+04  0.25500000920E-02 0.  1.
       -2   -1    0    0    0  501  0.00000000000E+00  0.00000000000E+00 -0.11617854589E+04  0.11617854589E+04  0.25500000920E-02 0. -1.
    10030    2    1    2    0    0  0.00000000000E+00  0.00000000000E+00  0.65280210543E+03  0.29763730232E+04  0.29039018207E+04 0.  0.
        5    1    3    3  502    0 -0.13624541257E+04 -0.49956422431E+02 -0.18542333274E+03  0.13759290647E+04  0.46999998093E+01 0. -1.
       -5    1    3    3    0  502  0.13624541257E+04  0.49956422431E+02  0.83822543817E+03  0.16004439584E+04  0.46999998093E+01 0.  1.
</event>
<event>
 5   0  0.3357244E-06  0.2715072E+04  0.7818609E-02  0.8330131E-01
        1   -1    0    0  501    0  0.00000000000E+00  0.00000000000E+00  0.14932723704E+04  0.14932723704E+04  0.50400001928E-02 0. -1.
       -1   -1    0    0    0  501  0.00000000000E+00  0.00000000000E+00 -0.12341377179E+04  0.12341377179E+04  0.50400001928E-02 0.  1.
    10030    2    1    2    0    0  0.00000000000E+00  0.00000000000E+00  0.25913465250E+03  0.27274100883E+04  0.27150718262E+04 0.  0.
        4    1    3    3  502    0  0.18646050411E+03 -0.65080171587E+03 -0.10524667291E+04  0.12513985063E+04  0.12699999809E+01 0.  1.
       -4    1    3    3    0  502 -0.18646050411E+03  0.65080171587E+03  0.13116013816E+04  0.14760115819E+04  0.12699999809E+01 0. -1.
</event>
<event>
 5   0  0.9342133E-06  0.2787985E+04  0.7818609E-02  0.8307008E-01
        2   -1    0    0  501    0  0.00000000000E+00  0.00000000000E+00  0.10911762082E+04  0.10911762082E+04  0.25500000920E-02 0.  1.
       -2   -1    0    0    0  501  0.00000000000E+00  0.00000000000E+00 -0.17808446712E+04  0.17808446712E+04  0.25500000920E-02 0. -1.
    10030    2    1    2    0    0  0.00000000000E+00  0.00000000000E+00 -0.68966846302E+03  0.28720208794E+04  0.27879851762E+04 0.  0.
        2    1    3    3  502    0  0.75531075794E+03 -0.11698501562E+04 -0.41136902325E+03  0.14519876730E+04  0.25500000920E-02 0. -1.
       -2    1    3    3    0  502 -0.75531075794E+03  0.11698501562E+04 -0.27829943977E+03  0.14200332064E+04  0.25500000920E-02 0.  1.
</event>
<event>
 5   0  0.9065579E-06  0.2800335E+04  0.7818609E-02  0.8303164E-01
        2   -1    0    0  501    0  0.00000000000E+00  0.00000000000E+00  0.13669007327E+04  0.13669007327E+04  0.25500000920E-02 0. -1.
       -2   -1    0    0    0  501  0.00000000000E+00  0.00000000000E+00 -0.14342442811E+04  0.14342442811E+04  0.25500000920E-02 0.  1.
    10030    2    1    2    0    0  0.00000000000E+00  0.00000000000E+00 -0.67343548428E+02  0.28011450138E+04  0.28003353790E+04 0.  0.
        3    1    3    3  502    0 -0.12945105937E+04  0.41064860011E+03 -0.37447484093E+03  0.14087659020E+04  0.10100000352E+00 0. -1.
       -3    1    3    3    0  502  0.12945105937E+04 -0.41064860011E+03  0.30713129250E+03  0.13923791118E+04  0.10100000352E+00 0.  1.
</event>
<event>
 5   0  0.3600963E-06  0.2816587E+04  0.7818609E-02  0.8298137E-01
        1   -1    0    0  501    0  0.00000000000E+00  0.00000000000E+00  0.14932102379E+04  0.14932102379E+04  0.50400001928E-02 0.  1.
       -1   -1    0    0    0  501  0.00000000000E+00  0.00000000000E+00 -0.13282060669E+04  0.13282060669E+04  0.50400001928E-02 0. -1.
    10030    2    1    2    0    0  0.00000000000E+00  0.00000000000E+00  0.16500417101E+03  0.28214163048E+04  0.28165872236E+04 0.  0.
        5    1    3    3  502    0  0.55864109783E+03 -0.51134525661E+03  0.12718519324E+04  0.14802645965E+04  0.46999998093E+01 0.  1.
       -5    1    3    3    0  502 -0.55864109783E+03  0.51134525661E+03 -0.11068477614E+04  0.13411517083E+04  0.46999998093E+01 0. -1.
</event>
<event>
 5   0  0.3397882E-06  0.2813090E+04  0.7818609E-02  0.8299216E-01
        1   -1    0    0  501    0  0.00000000000E+00  0.00000000000E+00  0.14586317760E+04  0.14586317760E+04  0.50400001928E-02 0. -1.
       -1   -1    0    0    0  501  0.00000000000E+00  0.00000000000E+00 -0.13563183925E+04  0.13563183925E+04  0.50400001928E-02 0.  1.
    10030    2    1    2    0    0  0.00000000000E+00  0.00000000000E+00  0.10231338344E+03  0.28149501685E+04  0.28130901910E+04 0.  0.
        2    1    3    3  502    0  0.12565145841E+04  0.55189980954E+03  0.35949482162E+03  0.14186820739E+04  0.25500000920E-02 0. -1.
       -2    1    3    3    0  502 -0.12565145841E+04 -0.55189980954E+03 -0.25718143818E+03  0.13962680946E+04  0.25500000920E-02 0.  1.
</event>
<event>
 5   0  0.9260173E-06  0.2281967E+04  0.7818609E-02  0.8485065E-01
       -2   -1    0    0    0  501  0.00000000000E+00  0.00000000000E+00  0.81883469390E+03  0.81883469390E+03  0.25500000920E-02 0.  1.
        2   -1    0    0  501    0  0.00000000000E+00  0.00000000000E+00 -0.15898729468E+04  0.15898729468E+04  0.25500000920E-02 0. -1.
    10030    2    1    2    0    0  0.00000000000E+00  0.00000000000E+00 -0.77103825288E+03  0.24087076407E+04  0.22819668076E+04 0.  0.
        1    1    3    3  502    0 -0.27412901797E+03 -0.67047832931E+03 -0.13160454239E+04  0.15022195133E+04  0.50400001928E-02 0. -1.
       -1    1    3    3    0  502  0.27412901797E+03  0.67047832931E+03  0.54500717098E+03  0.90648812734E+03  0.50400001928E-02 0.  1.
</event>
<event>
 5   0  0.9342133E-06  0.2750054E+04  0.7818609E-02  0.8318945E-01
       -2   -1    0    0    0  501  0.00000000000E+00  0.00000000000E+00  0.11711858967E+04  0.11711858967E+04  0.25500000920E-02 0. -1.
        2   -1    0    0  501    0  0.00000000000E+00  0.00000000000E+00 -0.16143459243E+04  0.16143459243E+04  0.25500000920E-02 0.  1.
    10030    2    1    2    0    0  0.00000000000E+00  0.00000000000E+00 -0.44316002761E+03  0.27855318210E+04  0.27500539478E+04 0.  0.
        2    1    3    3  502    0 -0.10533732330E+04 -0.72191381402E+03  0.29484490550E+03  0.13106060587E+04  0.25500000920E-02 0. -1.
       -2    1    3    3    0  502  0.10533732330E+04  0.72191381402E+03 -0.73800493310E+03  0.14749257623E+04  0.25500000920E-02 0.  1.
</event>
<event>
 5   0  0.3397882E-06  0.2789201E+04  0.7818609E-02  0.8306629E-01
        1   -1    0    0  501    0  0.00000000000E+00  0.00000000000E+00  0.13139966298E+04  0.13139966298E+04  0.50400001928E-02 0.  1.
       -1   -1    0    0    0  501  0.00000000000E+00  0.00000000000E+00 -0.14801484289E+04  0.14801484289E+04  0.50400001928E-02 0. -1.
    10030    2    1    2    0    0  0.00000000000E+00  0.00000000000E+00 -0.16615179905E+03  0.27941450587E+04  0.27892006361E+04 0.  0.
        2    1    3    3  502    0  0.97239555731E+03 -0.66546554492E+03 -0.83039600952E+03  0.14415113749E+04  0.25500000920E-02 0. -1.
       -2    1    3    3    0  502 -0.97239555731E+03  0.66546554492E+03  0.66424421047E+03  0.13526336838E+04  0.25500000920E-02 0.  1.
</event>
<event>
 5   0  0.9426937E-06  0.2793574E+04  0.7818609E-02  0.8305266E-01
       -2   -1    0    0    0  501  0.00000000000E+00  0.00000000000E+00  0.66453461122E+03  0.66453461123E+03  0.25500000920E-02 0. -1.
        2   -1    0    0  501    0  0.00000000000E+00  0.00000000000E+00 -0.29359102918E+04  0.29359102918E+04  0.25500000920E-02 0.  1.
    10030    2    1    2    0    0  0.00000000000E+00  0.00000000000E+00 -0.22713756806E+04  0.36004449030E+04  0.27935740580E+04 0.  0.
        4    1    3    3  502    0 -0.13793304534E+04  0.18467023351E+03 -0.98126029955E+03  0.17028003357E+04  0.12699999809E+01 0.  1.
       -4    1    3    3    0  502  0.13793304534E+04 -0.18467023351E+03 -0.12901153810E+04  0.18976445674E+04  0.12699999809E+01 0. -1.
</event>
<event>
 5   0  0.9252359E-06  0.2811866E+04  0.7818609E-02  0.8299594E-01
       -2   -1    0    0    0  501  0.00000000000E+00  0.00000000000E+00  0.88257520567E+03  0.88257520567E+03  0.25500000920E-02 0. -1.
        2   -1    0    0  501    0  0.00000000000E+00  0.00000000000E+00 -0.22396364331E+04  0.22396364331E+04  0.25500000920E-02 0.  1.
    10030    2    1    2    0    0  0.00000000000E+00  0.00000000000E+00 -0.13570612275E+04  0.31222116388E+04  0.28118659894E+04 0.  0.
        5    1    3    3  502    0 -0.85927667027E+03 -0.10837400892E+04 -0.95894360063E+03  0.16829866002E+04  0.46999998093E+01 0.  1.
       -5    1    3    3    0  502  0.85927667027E+03  0.10837400892E+04 -0.39811762684E+03  0.14392250387E+04  0.46999998093E+01 0. -1.
</event>
<event>
 5   0  0.9426937E-06  0.2786014E+04  0.7818609E-02  0.8307624E-01
       -2   -1    0    0    0  501  0.00000000000E+00  0.00000000000E+00  0.22117466598E+04  0.22117466598E+04  0.25500000920E-02 0. -1.
        2   -1    0    0  501    0  0.00000000000E+00  0.00000000000E+00 -0.87734689077E+03  0.87734689077E+03  0.25500000920E-02 0.  1.
    10030    2    1    2    0    0  0.00000000000E+00  0.00000000000E+00  0.13343997690E+04  0.30890935505E+04  0.27860143970E+04 0.  0.
        4    1    3    3  502    0  0.33038729822E+03 -0.49935216994E+02 -0.83225349000E+03  0.89682594590E+03  0.12699999809E+01 0.  1.
       -4    1    3    3    0  502 -0.33038729822E+03  0.49935216994E+02  0.21666532590E+04  0.21922676046E+04  0.12699999809E+01 0. -1.
</event>
<event>
 5   0  0.9342133E-06  0.2805801E+04  0.7818609E-02  0.8301470E-01
        2   -1    0    0  501    0  0.00000000000E+00  0.00000000000E+00  0.27812879797E+04  0.27812879797E+04  0.25500000920E-02 0. -1.
       -2   -1    0    0    0  501  0.00000000000E+00  0.00000000000E+00 -0.70763271780E+03  0.70763271781E+03  0.25500000920E-02 0.  1.
    10030    2    1    2    0    0  0.00000000000E+00  0.00000000000E+00  0.20736552619E+04  0.34889206975E+04  0.28058013986E+04 0.  0.
        2    1    3    3  502    0  0.89595763157E+03 -0.48072367921E+03 -0.16509411313E+03  0.10300929082E+04  0.25500000920E-02 0.  1.
       -2    1    3    3    0  502 -0.89595763157E+03  0.48072367921E+03  0.22387493751E+04  0.24588277893E+04  0.25500000920E-02 0. -1.
</event>
<event>
 5   0  0.3397882E-06  0.2781879E+04  0.7818609E-02  0.8308916E-01
       -1   -1    0    0    0  501  0.00000000000E+00  0.00000000000E+00  0.13235181249E+04  0.13235181249E+04  0.50400001928E-02 0.  1.
        1   -1    0    0  501    0  0.00000000000E+00  0.00000000000E+00 -0.14617953853E+04  0.14617953853E+04  0.50400001928E-02 0. -1.
    10030    2    1    2    0    0  0.00000000000E+00  0.00000000000E+00 -0.13827726046E+03  0.27853135102E+04  0.27818789962E+04 0.  0.
        2    1    3    3  502    0  0.76124371290E+03 -0.10472575058E+04 -0.57816812706E+03  0.14179275923E+04  0.25500000920E-02 0. -1.
       -2    1    3    3    0  502 -0.76124371290E+03  0.10472575058E+04  0.43989086660E+03  0.13673859179E+04  0.25500000920E-02 0.  1.
</event>
<event>
 5   0  0.3371603E-06  0.2781255E+04  0.7818609E-02  0.8309112E-01
       -1   -1    0    0    0  501  0.00000000000E+00  0.00000000000E+00  0.86151640866E+03  0.86151640867E+03  0.50400001928E-02 0.  1.
        1   -1    0    0  501    0  0.00000000000E+00  0.00000000000E+00 -0.22446994691E+04  0.22446994691E+04  0.50400001928E-02 0. -1.
    10030    2    1    2    0    0  0.00000000000E+00  0.00000000000E+00 -0.13831830605E+04  0.31062158778E+04  0.27812554181E+04 0.  0.
        1    1    3    3  502    0 -0.42180090116E+03 -0.75007213578E+03  0.52843546966E+03  0.10098357563E+04  0.50400001928E-02 0.  1.
       -1    1    3    3    0  502  0.42180090116E+03  0.75007213578E+03 -0.19116185301E+04  0.20963801215E+04  0.50400001928E-02 0. -1.
</event>
<event>
 5   0  0.9065579E-06  0.2810605E+04  0.7818609E-02  0.8299983E-01
        2   -1    0    0  501    0  0.00000000000E+00  0.00000000000E+00  0.25294939735E+04  0.25294939735E+04  0.25500000920E-02 0. -1.
       -2   -1    0    0    0  501  0.00000000000E+00  0.00000000000E+00 -0.78073925407E+03  0.78073925407E+03  0.25500000920E-02 0.  1.
    10030    2    1    2    0    0  0.00000000000E+00  0.00000000000E+00  0.17487547195E+04  0.33102332276E+04  0.28106050865E+04 0.  0.
        3    1    3    3  502    0 -0.11474272419E+03 -0.35209621484E+03 -0.72223878058E+03  0.81164432089E+03  0.10100000352E+00 0.  1.
       -3    1    3    3    0  502  0.11474272419E+03  0.35209621484E+03  0.24709935000E+04  0.24985889067E+04  0.10100000352E+00 0. -1.
</event>
<event>
 5   0  0.3371603E-06  0.2878411E+04  0.7818609E-02  0.8279330E-01
        1   -1    0    0  501    0  0.00000000000E+00  0.00000000000E+00  0.19558173482E+04  0.19558173482E+04  0.50400001928E-02 0.  1.
       -1   -1    0    0    0  501  0.00000000000E+00  0.00000000000E+00 -0.10590524358E+04  0.10590524358E+04  0.50400001928E-02 0. -1.
    10030    2    1    2    0    0  0.00000000000E+00  0.00000000000E+00  0.89676491235E+03  0.30148697840E+04  0.28784114554E+04 0.  0.
        1    1    3    3  502    0 -0.99648005467E+03 -0.84042207209E+03 -0.19047720134E+03  0.13174078043E+04  0.50400001928E-02 0. -1.
       -1    1    3    3    0  502  0.99648005467E+03  0.84042207209E+03  0.10872421137E+04  0.16974619797E+04  0.50400001928E-02 0.  1.
</event>
<event>
 5   0  0.9342133E-06  0.2775965E+04  0.7818609E-02  0.8310769E-01
        2   -1    0    0  501    0  0.00000000000E+00  0.00000000000E+00  0.18794672090E+04  0.18794672090E+04  0.25500000920E-02 0.  1.
       -2   -1    0    0    0  501  0.00000000000E+00  0.00000000000E+00 -0.10250223434E+04  0.10250223434E+04  0.25500000920E-02 0. -1.
    10030    2    1    2    0    0  0.00000000000E+00  0.00000000000E+00  0.85444486563E+03  0.29044895524E+04  0.27759653333E+04 0.  0.
        2    1    3    3  502    0  0.25852842263E+02  0.78559355782E+03 -0.76971348469E+03  0.11001292906E+04  0.25500000920E-02 0. -1.
       -2    1    3    3    0  502 -0.25852842263E+02 -0.78559355782E+03  0.16241583503E+04  0.18043602618E+04  0.25500000920E-02 0.  1.
</event>
<event>
 5   0  0.9252359E-06  0.2793428E+04  0.7818609E-02  0.8305312E-01
        2   -1    0    0  501    0  0.00000000000E+00  0.00000000000E+00  0.21963491825E+04  0.21963491825E+04  0.25500000920E-02 0.  1.
       -2   -1    0    0    0  501  0.00000000000E+00  0.00000000000E+00 -0.88820565606E+03  0.88820565606E+03  0.25500000920E-02 0. -1.
    10030    2    1    2    0    0  0.00000000000E+00  0.00000000000E+00  0.13081435265E+04  0.30845548386E+04  0.27934278345E+04 0.  0.
        5    1    3    3  502    0  0.47889975863E+03 -0.38517132468E+03  0.20390126528E+04  0.21296235856E+04  0.46999998093E+01 0.  1.
       -5    1    3    3    0  502 -0.47889975863E+03  0.38517132468E+03 -0.73086912630E+03  0.95493125300E+03  0.46999998093E+01 0. -1.
</event>
<event>
 5   0  0.3438130E-06  0.2770505E+04  0.7818609E-02  0.8312484E-01
        1   -1    0    0  501    0  0.00000000000E+00  0.00000000000E+00  0.99540057950E+03  0.99540057951E+03  0.50400001928E-02 0. -1.
       -1   -1    0    0    0  501  0.00000000000E+00  0.00000000000E+00 -0.19277909420E+04  0.19277909420E+04  0.50400001928E-02 0.  1.
    10030    2    1    2    0    0  0.00000000000E+00  0.00000000000E+00 -0.93239036247E+03  0.29231915215E+04  0.27705048066E+04 0.  0.
        3    1    3    3  502    0 -0.63765892439E+03  0.10941977777E+04 -0.10584187850E+04  0.16504932642E+04  0.10100000352E+00 0.  1.
       -3    1    3    3    0  502  0.63765892439E+03 -0.10941977777E+04  0.12602842249E+03  0.12726982573E+04  0.10100000352E+00 0. -1.
</event>
<event>
 5   0  0.3371603E-06  0.2806061E+04  0.7818609E-02  0.8301389E-01
        1   -1    0    0  501    0  0.00000000000E+00  0.00000000000E+00  0.14431857427E+04  0.14431857427E+04  0.50400001928E-02 0. -1.
       -1   -1    0    0    0  501  0.00000000000E+00  0.00000000000E+00 -0.13639929119E+04  0.13639929119E+04  0.50400001928E-02 0.  1.
    10030    2    1    2    0    0  0.00000000000E+00  0.00000000000E+00  0.79192830841E+02  0.28071786546E+04  0.28060613846E+04 0.  0.
        1    1    3    3  502    0 -0.93388141726E+03  0.10467735884E+04  0.64619905816E+02  0.14042952606E+04  0.50400001928E-02 0.  1.
       -1    1    3    3    0  502  0.93388141726E+03 -0.10467735884E+04  0.14572925025E+02  0.14028833939E+04  0.50400001928E-02 0. -1.
</event>
<event>
 5   0  0.3600963E-06  0.2801374E+04  0.7818609E-02  0.8302842E-01
        1   -1    0    0  501    0  0.00000000000E+00  0.00000000000E+00  0.18404403777E+04  0.18404403778E+04  0.50400001928E-02 0.  1.
       -1   -1    0    0    0  501  0.00000000000E+00  0.00000000000E+00 -0.10660079764E+04  0.10660079764E+04  0.50400001928E-02 0. -1.
    10030    2    1    2    0    0  0.00000000000E+00  0.00000000000E+00  0.77443240138E+03  0.29064483541E+04  0.28013740362E+04 0.  0.
        5    1    3    3  502    0  0.13103425928E+04 -0.17989622348E+03 -0.91098310036E+02  0.13257757555E+04  0.46999998093E+01 0. -1.
       -5    1    3    3    0  502 -0.13103425928E+04  0.17989622348E+03  0.86553071142E+03  0.15806725987E+04  0.46999998093E+01 0.  1.
</event>
<event>
 5   0  0.3006875E-06  0.2509947E+04  0.7818609E-02  0.8399451E-01
        3   -1    0    0  501    0  0.00000000000E+00  0.00000000000E+00  0.22488554571E+04  0.22488554594E+04  0.10100000352E+00 0.  1.
       -3   -1    0    0    0  501  0.00000000000E+00  0.00000000000E+00 -0.70033760095E+03  0.70033760823E+03  0.10100000352E+00 0. -1.
    10030    2    1    2    0    0  0.00000000000E+00  0.00000000000E+00  0.15485178561E+04  0.29491930676E+04  0.25099466527E+04 0.  0.
        5    1    3    3  502    0 -0.36264414462E+02  0.12290870976E+04  0.10691020040E+04  0.16294082933E+04  0.46999998093E+01 0.  1.
       -5    1    3    3    0  502  0.36264414462E+02 -0.12290870976E+04  0.47941585217E+03  0.13197847743E+04  0.46999998093E+01 0. -1.
</event>
<event>
 5   0  0.3438130E-06  0.2707270E+04  0.7818609E-02  0.8332650E-01
       -1   -1    0    0    0  501  0.00000000000E+00  0.00000000000E+00  0.11882157685E+04  0.11882157685E+04  0.50400001928E-02 0. -1.
        1   -1    0    0  501    0  0.00000000000E+00  0.00000000000E+00 -0.15420833283E+04  0.15420833283E+04  0.50400001928E-02 0.  1.
    10030    2    1    2    0    0  0.00000000000E+00  0.00000000000E+00 -0.35386755984E+03  0.27302990968E+04  0.27072700102E+04 0.  0.
        3    1    3    3  502    0  0.48209328991E+03 -0.59415144823E+01  0.10986886608E+04  0.11998191636E+04  0.10100000352E+00 0. -1.
       -3    1    3    3    0  502 -0.48209328991E+03  0.59415144823E+01 -0.14525562206E+04  0.15304799332E+04  0.10100000352E+00 0.  1.
</event>
<event>
 5   0  0.9252359E-06  0.2530436E+04  0.7818609E-02  0.8392222E-01
        2   -1    0    0  501    0  0.00000000000E+00  0.00000000000E+00  0.28548802940E+04  0.28548802940E+04  0.25500000920E-02 0.  1.
       -2   -1    0    0    0  501  0.00000000000E+00  0.00000000000E+00 -0.56071571574E+03  0.56071571574E+03  0.25500000920E-02 0. -1.
    10030    2    1    2    0    0  0.00000000000E+00  0.00000000000E+00  0.22941645782E+04  0.34155960097E+04  0.25304357312E+04 0.  0.
        5    1    3    3  502    0 -0.48328876970E+03  0.42358847282E+03 -0.32399448214E+03  0.71971504338E+03  0.46999998093E+01 0. -1.
       -5    1    3    3    0  502  0.48328876970E+03 -0.42358847282E+03  0.26181590604E+04  0.26958809663E+04  0.46999998093E+01 0.  1.
</event>
<event>
 5   0  0.3006875E-06  0.2804530E+04  0.7818609E-02  0.8301864E-01
        3   -1    0    0  501    0  0.00000000000E+00  0.00000000000E+00  0.11330443670E+04  0.11330443715E+04  0.10100000352E+00 0.  1.
       -3   -1    0    0    0  501  0.00000000000E+00  0.00000000000E+00 -0.17354540837E+04  0.17354540867E+04  0.10100000352E+00 0. -1.
    10030    2    1    2    0    0  0.00000000000E+00  0.00000000000E+00 -0.60240971677E+03  0.28684984581E+04  0.28045295394E+04 0.  0.
        5    1    3    3  502    0  0.98740078569E+03 -0.80233680420E+03 -0.90424582248E+03  0.15608930958E+04  0.46999998093E+01 0. -1.
       -5    1    3    3    0  502 -0.98740078569E+03  0.80233680420E+03  0.30183610570E+03  0.13076053624E+04  0.46999998093E+01 0.  1.
</event>
<event>
 5   0  0.9252359E-06  0.2682709E+04  0.7818609E-02  0.8340637E-01
       -2   -1    0    0    0  501  0.00000000000E+00  0.00000000000E+00  0.99768718472E+03  0.99768718472E+03  0.25500000920E-02 0.  1.
        2   -1    0    0  501    0  0.00000000000E+00  0.00000000000E+00 -0.18034029031E+04  0.18034029031E+04  0.25500000920E-02 0. -1.
    10030    2    1    2    0    0  0.00000000000E+00  0.00000000000E+00 -0.80571571836E+03  0.28010900878E+04  0.26827090527E+04 0.  0.
        5    1    3    3  502    0  0.69962146775E+03 -0.10416244016E+04  0.92149157380E+02  0.12581594292E+04  0.46999998093E+01 0. -1.
       -5    1    3    3    0  502 -0.69962146775E+03  0.10416244016E+04 -0.89786487574E+03  0.15429306586E+04  0.46999998093E+01 0.  1.
</event>
<event>
 5   0  0.3371603E-06  0.2695812E+04  0.7818609E-02  0.8336365E-01
        1   -1    0    0  501    0  0.00000000000E+00  0.00000000000E+00  0.25210452902E+04  0.25210452902E+04  0.50400001928E-02 0. -1.
       -1   -1    0    0    0  501  0.00000000000E+00  0.00000000000E+00 -0.72067335986E+03  0.72067335987E+03  0.50400001928E-02 0.  1.
    10030    2    1    2    0    0  0.00000000000E+00  0.00000000000E+00  0.18003719303E+04  0.32417186501E+04  0.26958116994E+04 0.  0.
        1    1    3    3  502    0  0.75698271279E+02  0.30577621423E+03  0.24761613084E+04  0.24961178151E+04  0.50400001928E-02 0. -1.
       -1    1    3    3    0  502 -0.75698271279E+02 -0.30577621423E+03 -0.67578937812E+03  0.74560083495E+03  0.50400001928E-02 0.  1.
</event>
<event>
 5   0  0.3600963E-06  0.2841135E+04  0.7818609E-02  0.8290610E-01
       -1   -1    0    0    0  501  0.00000000000E+00  0.00000000000E+00  0.10508180205E+04  0.10508180205E+04  0.50400001928E-02 0.  1.
        1   -1    0    0  501    0  0.00000000000E+00  0.00000000000E+00 -0.19204195268E+04  0.19204195268E+04  0.50400001928E-02 0. -1.
    10030    2    1    2    0    0  0.00000000000E+00  0.00000000000E+00 -0.86960150633E+03  0.29712375473E+04  0.28411345943E+04 0.  0.
        5    1    3    3  502    0 -0.21770954306E+03 -0.15855386017E+03  0.10238653523E+04  0.10587063433E+04  0.46999998093E+01 0.  1.
       -5    1    3    3    0  502  0.21770954306E+03  0.15855386017E+03 -0.18934668586E+04  0.19125312040E+04  0.46999998093E+01 0. -1.
</event>
<event>
 5   0  0.9065579E-06  0.2798350E+04  0.7818609E-02  0.8303781E-01
       -2   -1    0    0    0  501  0.00000000000E+00  0.00000000000E+00  0.12372024744E+04  0.12372024744E+04  0.25500000920E-02 0.  1.
        2   -1    0    0  501    0  0.00000000000E+00  0.00000000000E+00 -0.15823527053E+04  0.15823527053E+04  0.25500000920E-02 0. -1.
    10030    2    1    2    0    0  0.00000000000E+00  0.00000000000E+00 -0.34515023087E+03  0.28195551797E+04  0.27983500012E+04 0.  0.
        3    1    3    3  502    0 -0.22629355013E+03 -0.88138151881E+03 -0.12434783603E+04  0.15408700773E+04  0.10100000352E+00 0. -1.
       -3    1    3    3    0  502  0.22629355013E+03  0.88138151881E+03  0.89832812943E+03  0.12786851023E+04  0.10100000352E+00 0.  1.
</event>
<event>
 5   0  0.9252359E-06  0.2798413E+04  0.7818609E-02  0.8303761E-01
       -2   -1    0    0    0  501  0.00000000000E+00  0.00000000000E+00  0.12187383743E+04  0.12187383743E+04  0.25500000920E-02 0.  1.
        2   -1    0    0  501    0  0.00000000000E+00  0.00000000000E+00 -0.16063974109E+04  0.16063974109E+04  0.25500000920E-02 0. -1.
    10030    2    1    2    0    0  0.00000000000E+00  0.00000000000E+00 -0.38765903661E+03  0.28251357852E+04  0.27984125279E+04 0.  0.
        5    1    3    3  502    0 -0.13418438183E+04 -0.25082005642E+03  0.11618689883E+03  0.13700281088E+04  0.46999998093E+01 0.  1.
       -5    1    3    3    0  502  0.13418438183E+04  0.25082005642E+03 -0.50384593544E+03  0.14551076765E+04  0.46999998093E+01 0. -1.
</event>
<event>
 5   0  0.9426937E-06  0.2799387E+04  0.7818609E-02  0.8303459E-01
        2   -1    0    0  501    0  0.00000000000E+00  0.00000000000E+00  0.18085512948E+04  0.18085512948E+04  0.25500000920E-02 0.  1.
       -2   -1    0    0    0  501  0.00000000000E+00  0.00000000000E+00 -0.10832658419E+04  0.10832658419E+04  0.25500000920E-02 0. -1.
    10030    2    1    2    0    0  0.00000000000E+00  0.00000000000E+00  0.72528545289E+03  0.28918171367E+04  0.27993869622E+04 0.  0.
        4    1    3    3  502    0  0.70018032987E+03  0.11479063913E+04  0.76432424394E+03  0.15466527536E+04  0.12699999809E+01 0.  1.
       -4    1    3    3    0  502 -0.70018032987E+03 -0.11479063913E+04 -0.39038791047E+02  0.13451643831E+04  0.12699999809E+01 0. -1.
</event>
<event>
 5   0  0.3438130E-06  0.2470470E+04  0.7818609E-02  0.8413582E-01
        1   -1    0    0  501    0  0.00000000000E+00  0.00000000000E+00  0.18217872177E+04  0.18217872177E+04  0.50400001928E-02 0. -1.
       -1   -1    0    0    0  501  0.00000000000E+00  0.00000000000E+00 -0.83753226512E+03  0.83753226514E+03  0.50400001928E-02 0.  1.
    10030    2    1    2    0    0  0.00000000000E+00  0.00000000000E+00  0.98425495255E+03  0.26593194828E+04  0.24704700565E+04 0.  0.
        3    1    3    3  502    0 -0.10394006232E+04 -0.53710741091E+03  0.65650250126E+02  0.11718139750E+04  0.10100000352E+00 0.  1.
       -3    1    3    3    0  502  0.10394006232E+04  0.53710741091E+03  0.91860470242E+03  0.14875055079E+04  0.10100000352E+00 0. -1.
</event>
<event>
 5   0  0.3357244E-06  0.2813386E+04  0.7818609E-02  0.8299125E-01
       -1   -1    0    0    0  501  0.00000000000E+00  0.00000000000E+00  0.75770789260E+03  0.75770789261E+03  0.50400001928E-02 0.  1.
        1   -1    0    0  501    0  0.00000000000E+00  0.00000000000E+00 -0.26115408648E+04  0.26115408648E+04  0.50400001928E-02 0. -1.
    10030    2    1    2    0    0  0.00000000000E+00  0.00000000000E+00 -0.18538329722E+04  0.33692487574E+04  0.28133859494E+04 0.  0.
        4    1    3    3  502    0  0.13723114565E+04  0.16781517399E+03 -0.12377862174E+04  0.18556715763E+04  0.12699999809E+01 0. -1.
       -4    1    3    3    0  502 -0.13723114565E+04 -0.16781517399E+03 -0.61604675475E+03  0.15135771811E+04  0.12699999809E+01 0.  1.
</event>
<event>
 5   0  0.3357244E-06  0.2825788E+04  0.7818609E-02  0.8295307E-01
       -1   -1    0    0    0  501  0.00000000000E+00  0.00000000000E+00  0.11882136793E+04  0.11882136793E+04  0.50400001928E-02 0.  1.
        1   -1    0    0  501    0  0.00000000000E+00  0.00000000000E+00 -0.16800596341E+04  0.16800596341E+04  0.50400001928E-02 0. -1.
    10030    2    1    2    0    0  0.00000000000E+00  0.00000000000E+00 -0.49184595478E+03  0.28682733134E+04  0.28257882718E+04 0.  0.
        4    1    3    3  502    0  0.63021697566E+03 -0.34334716694E+03 -0.14812696990E+04  0.16459715209E+04  0.12699999809E+01 0. -1.
       -4    1    3    3    0  502 -0.63021697566E+03  0.34334716694E+03  0.98942374420E+03  0.12223017925E+04  0.12699999809E+01 0.  1.
</event>
<event>
 5   0  0.3357244E-06  0.2779510E+04  0.7818609E-02  0.8309658E-01
       -1   -1    0    0    0  501  0.00000000000E+00  0.00000000000E+00  0.72826180338E+03  0.72826180340E+03  0.50400001928E-02 0.  1.
        1   -1    0    0  501    0  0.00000000000E+00  0.00000000000E+00 -0.26520944102E+04  0.26520944103E+04  0.50400001928E-02 0. -1.
    10030    2    1    2    0    0  0.00000000000E+00  0.00000000000E+00 -0.19238326069E+04  0.33803562136E+04  0.27795100705E+04 0.  0.
        4    1    3    3  502    0 -0.18894375229E+03 -0.69100063927E+03  0.48641674532E+03  0.86590096895E+03  0.12699999809E+01 0.  1.
       -4    1    3    3    0  502  0.18894375229E+03  0.69100063927E+03 -0.24102493522E+04  0.25144552447E+04  0.12699999809E+01 0. -1.
</event>
<event>
 5   0  0.3371603E-06  0.2809317E+04  0.7818609E-02  0.8300382E-01
       -1   -1    0    0    0  501  0.00000000000E+00  0.00000000000E+00  0.94628798454E+03  0.94628798456E+03  0.50400001928E-02 0.  1.
        1   -1    0    0  501    0  0.00000000000E+00  0.00000000000E+00 -0.20850576169E+04  0.20850576169E+04  0.50400001928E-02 0. -1.
    10030    2    1    2    0    0  0.00000000000E+00  0.00000000000E+00 -0.11387696324E+04  0.30313456015E+04  0.28093166215E+04 0.  0.
        1    1    3    3  502    0  0.27996416291E+02 -0.79253948263E+03 -0.18203943679E+04  0.19856329685E+04  0.50400001928E-02 0. -1.
       -1    1    3    3    0  502 -0.27996416291E+02  0.79253948263E+03  0.68162473548E+03  0.10457126330E+04  0.50400001928E-02 0.  1.
</event>
<event>
 5   0  0.3600963E-06  0.2726803E+04  0.7818609E-02  0.8326360E-01
        1   -1    0    0  501    0  0.00000000000E+00  0.00000000000E+00  0.13852068446E+04  0.13852068446E+04  0.50400001928E-02 0. -1.
       -1   -1    0    0    0  501  0.00000000000E+00  0.00000000000E+00 -0.13419394095E+04  0.13419394095E+04  0.50400001928E-02 0.  1.
    10030    2    1    2    0    0  0.00000000000E+00  0.00000000000E+00  0.43267435109E+02  0.27271462541E+04  0.27268030036E+04 0.  0.
        5    1    3    3  502    0 -0.71649326005E+03 -0.11970671418E+03  0.11755333786E+04  0.13818802782E+04  0.46999998093E+01 0. -1.
       -5    1    3    3    0  502  0.71649326005E+03  0.11970671418E+03 -0.11322659435E+04  0.13452659759E+04  0.46999998093E+01 0.  1.
</event>
<event>
 5   0  0.9426937E-06  0.2755788E+04  0.7818609E-02  0.8317127E-01
       -2   -1    0    0    0  501  0.00000000000E+00  0.00000000000E+00  0.11042352374E+04  0.11042352375E+04  0.25500000920E-02 0.  1.
        2   -1    0    0  501    0  0.00000000000E+00  0.00000000000E+00 -0.17193729914E+04  0.17193729914E+04  0.25500000920E-02 0. -1.
    10030    2    1    2    0    0  0.00000000000E+00  0.00000000000E+00 -0.61513775391E+03  0.28236082288E+04  0.27557882672E+04 0.  0.
        4    1    3    3  502    0 -0.50618092982E+03  0.11419719403E+04 -0.90349352799E+03  0.15416294023E+04  0.12699999809E+01 0. -1.
       -4    1    3    3    0  502  0.50618092982E+03 -0.11419719403E+04  0.28835577408E+03  0.12819788265E+04  0.12699999809E+01 0.  1.
</event>
<event>
 5   0  0.3600963E-06  0.2783794E+04  0.7818609E-02  0.8308317E-01
        1   -1    0    0  501    0  0.00000000000E+00  0.00000000000E+00  0.14452305211E+04  0.14452305211E+04  0.50400001928E-02 0.  1.
       -1   -1    0    0    0  501  0.00000000000E+00  0.00000000000E+00 -0.13405318138E+04  0.13405318138E+04  0.50400001928E-02 0. -1.
    10030    2    1    2    0    0  0.00000000000E+00  0.00000000000E+00  0.10469870728E+03  0.27857623349E+04  0.27837941676E+04 0.  0.
        5    1    3    3  502    0  0.60649423269E+03  0.79396913491E+03 -0.91742463078E+03  0.13564336639E+04  0.46999998093E+01 0. -1.
       -5    1    3    3    0  502 -0.60649423269E+03 -0.79396913491E+03  0.10221233381E+04  0.14293286710E+04  0.46999998093E+01 0.  1.
</event>
<event>
 5   0  0.9426937E-06  0.2813395E+04  0.7818609E-02  0.8299122E-01
       -2   -1    0    0    0  501  0.00000000000E+00  0.00000000000E+00  0.98848189863E+03  0.98848189863E+03  0.25500000920E-02 0. -1.
        2   -1    0    0  501    0  0.00000000000E+00  0.00000000000E+00 -0.20018547929E+04  0.20018547929E+04  0.25500000920E-02 0.  1.
    10030    2    1    2    0    0  0.00000000000E+00  0.00000000000E+00 -0.10133728942E+04  0.29903366915E+04  0.28133945521E+04 0.  0.
        4    1    3    3  502    0  0.45570112050E+03  0.85120544474E+03  0.58068006091E+03  0.11266788213E+04  0.12699999809E+01 0. -1.
       -4    1    3    3    0  502 -0.45570112050E+03 -0.85120544474E+03 -0.15940529551E+04  0.18636578702E+04  0.12699999809E+01 0.  1.
</event>
<event>
 5   0  0.3371603E-06  0.2742891E+04  0.7818609E-02  0.8321221E-01
        1   -1    0    0  501    0  0.00000000000E+00  0.00000000000E+00  0.15816646891E+04  0.15816646892E+04  0.50400001928E-02 0. -1.
       -1   -1    0    0    0  501  0.00000000000E+00  0.00000000000E+00 -0.11891662945E+04  0.11891662945E+04  0.50400001928E-02 0.  1.
    10030    2    1    2    0    0  0.00000000000E+00  0.00000000000E+00  0.39249839467E+03  0.27708309836E+04  0.27428906923E+04 0.  0.
        1    1    3    3  502    0 -0.82896784523E+03  0.82719386996E+03 -0.52476138764E+03  0.12832816920E+04  0.50400001928E-02 0.  1.
       -1    1    3    3    0  502  0.82896784523E+03 -0.82719386996E+03  0.91725978232E+03  0.14875492917E+04  0.50400001928E-02 0. -1.
</event>
<event>
 5   0  0.9065579E-06  0.2875275E+04  0.7818609E-02  0.8280272E-01
       -2   -1    0    0    0  501  0.00000000000E+00  0.00000000000E+00  0.10446716486E+04  0.10446716486E+04  0.25500000920E-02 0.  1.
        2   -1    0    0  501    0  0.00000000000E+00  0.00000000000E+00 -0.19784218648E+04  0.19784218648E+04  0.25500000920E-02 0. -1.
    10030    2    1    2    0    0  0.00000000000E+00  0.00000000000E+00 -0.93375021620E+03  0.30230935133E+04  0.28752747563E+04 0.  0.
        3    1    3    3  502    0 -0.29609006752E+03 -0.13588305481E+04 -0.83850743009E+02  0.13932410932E+04  0.10100000352E+00 0.  1.
       -3    1    3    3    0  502  0.29609006752E+03  0.13588305481E+04 -0.84989947319E+03  0.16298524201E+04  0.10100000352E+00 0. -1.
</event>
<event>
 5   0  0.3438130E-06  0.2669350E+04  0.7818609E-02  0.8345019E-01
       -1   -1    0    0    0  501  0.00000000000E+00  0.00000000000E+00  0.16007645697E+04  0.16007645697E+04  0.50400001928E-02 0. -1.
        1   -1    0    0  501    0  0.00000000000E+00  0.00000000000E+00 -0.11128166360E+04  0.11128166360E+04  0.50400001928E-02 0.  1.
    10030    2    1    2    0    0  0.00000000000E+00  0.00000000000E+00  0.48794793372E+03  0.27135812058E+04  0.26693500659E+04 0.  0.
        3    1    3    3  502    0 -0.76415195536E+03  0.52283346263E+03  0.12211903928E+04  0.15325106937E+04  0.10100000352E+00 0. -1.
       -3    1    3    3    0  502  0.76415195536E+03 -0.52283346263E+03 -0.73324245907E+03  0.11810705121E+04  0.10100000352E+00 0.  1.
</event>
<event>
 5   0  0.9342133E-06  0.2784717E+04  0.7818609E-02  0.8308029E-01
       -2   -1    0    0    0  501  0.00000000000E+00  0.00000000000E+00  0.10500954514E+04  0.10500954514E+04  0.25500000920E-02 0.  1.
        2   -1    0    0  501    0  0.00000000000E+00  0.00000000000E+00 -0.18461767130E+04  0.18461767130E+04  0.25500000920E-02 0. -1.
    10030    2    1    2    0    0  0.00000000000E+00  0.00000000000E+00 -0.79608126157E+03  0.28962721644E+04  0.27847166957E+04 0.  0.
        2    1    3    3  502    0 -0.60974570626E+02 -0.12093565087E+04 -0.11128884893E+04  0.16446221003E+04  0.25500000920E-02 0. -1.
       -2    1    3    3    0  502  0.60974570626E+02  0.12093565087E+04  0.31680722773E+03  0.12516500641E+04  0.25500000920E-02 0.  1.
</event>
<event>
 5   0  0.3371603E-06  0.2645948E+04  0.7818609E-02  0.8352759E-01
       -1   -1    0    0    0  501  0.00000000000E+00  0.00000000000E+00  0.12279213740E+04  0.12279213740E+04  0.50400001928E-02 0.  1.
        1   -1    0    0  501    0  0.00000000000E+00  0.00000000000E+00 -0.14253846413E+04  0.14253846413E+04  0.50400001928E-02 0. -1.
    10030    2    1    2    0    0  0.00000000000E+00  0.00000000000E+00 -0.19746326722E+03  0.26533060153E+04  0.26459480473E+04 0.  0.
        1    1    3    3  502    0  0.25918039502E+03 -0.21567495669E+03 -0.13815741221E+04  0.14221241925E+04  0.50400001928E-02 0. -1.
       -1    1    3    3    0  502 -0.25918039502E+03  0.21567495669E+03  0.11841108549E+04  0.12311818228E+04  0.50400001928E-02 0.  1.
</event>
<event>
 5   0  0.3438130E-06  0.2781425E+04  0.7818609E-02  0.8309059E-01
        1   -1    0    0  501    0  0.00000000000E+00  0.00000000000E+00  0.12151924551E+04  0.12151924551E+04  0.50400001928E-02 0.  1.
       -1   -1    0    0    0  501  0.00000000000E+00  0.00000000000E+00 -0.15915838240E+04  0.15915838240E+04  0.50400001928E-02 0. -1.
    10030    2    1    2    0    0  0.00000000000E+00  0.00000000000E+00 -0.37639136889E+03  0.28067762791E+04  0.27814245664E+04 0.  0.
        3    1    3    3  502    0  0.74638869587E+03  0.51121553256E+02  0.99482551129E+03  0.12447438719E+04  0.10100000352E+00 0.  1.
       -3    1    3    3    0  502 -0.74638869587E+03 -0.51121553256E+02 -0.13712168802E+04  0.15620324072E+04  0.10100000352E+00 0. -1.
</event>
<event>
 5   0  0.3371603E-06  0.2812518E+04  0.7818609E-02  0.8299392E-01
       -1   -1    0    0    0  501  0.00000000000E+00  0.00000000000E+00  0.12889379863E+04  0.12889379863E+04  0.50400001928E-02 0.  1.
        1   -1    0    0  501    0  0.00000000000E+00  0.00000000000E+00 -0.15342592500E+04  0.15342592501E+04  0.50400001928E-02 0. -1.
    10030    2    1    2    0    0  0.00000000000E+00  0.00000000000E+00 -0.24532126372E+03  0.28231972364E+04  0.28125184645E+04 0.  0.
        1    1    3    3  502    0 -0.89538636726E+03 -0.60162424577E+03  0.78292691412E+03  0.13329077360E+04  0.50400001928E-02 0.  1.
       -1    1    3    3    0  502  0.89538636726E+03  0.60162424577E+03 -0.10282481778E+04  0.14902895004E+04  0.50400001928E-02 0. -1.
</event>
<event>
 5   0  0.9252359E-06  0.2709473E+04  0.7818609E-02  0.8331938E-01
        2   -1    0    0  501    0  0.00000000000E+00  0.00000000000E+00  0.25473671377E+04  0.25473671377E+04  0.25500000920E-02 0. -1.
       -2   -1    0    0    0  501  0.00000000000E+00  0.00000000000E+00 -0.72047374206E+03  0.72047374207E+03  0.25500000920E-02 0.  1.
    10030    2    1    2    0    0  0.00000000000E+00  0.00000000000E+00  0.18268933956E+04  0.32678408797E+04  0.27094731105E+04 0.  0.
        5    1    3    3  502    0 -0.67580880405E+02  0.12749872748E+04  0.14596947782E+04  0.19393015913E+04  0.46999998093E+01 0. -1.
       -5    1    3    3    0  502  0.67580880405E+02 -0.12749872748E+04  0.36719861736E+03  0.13285392884E+04  0.46999998093E+01 0.  1.
</event>
<event>
 5   0  0.9065579E-06  0.2824339E+04  0.7818609E-02  0.8295752E-01
        2   -1    0    0  501    0  0.00000000000E+00  0.00000000000E+00  0.21544722125E+04  0.21544722125E+04  0.25500000920E-02 0. -1.
       -2   -1    0    0    0  501  0.00000000000E+00  0.00000000000E+00 -0.92562035953E+03  0.92562035953E+03  0.25500000920E-02 0.  1.
    10030    2    1    2    0    0  0.00000000000E+00  0.00000000000E+00  0.12288518530E+04  0.30800925721E+04  0.28243394583E+04 0.  0.
        3    1    3    3  502    0  0.22769220879E+03  0.12373917186E+04  0.13137770092E+04  0.18190635083E+04  0.10100000352E+00 0. -1.
       -3    1    3    3    0  502 -0.22769220879E+03 -0.12373917186E+04 -0.84925156213E+02  0.12610290637E+04  0.10100000352E+00 0.  1.
</event>
<event>
 5   0  0.9260173E-06  0.2811641E+04  0.7818609E-02  0.8299663E-01
       -2   -1    0    0    0  501  0.00000000000E+00  0.00000000000E+00  0.15206864417E+04  0.15206864417E+04  0.25500000920E-02 0. -1.
        2   -1    0    0  501    0  0.00000000000E+00  0.00000000000E+00 -0.12996307216E+04  0.12996307216E+04  0.25500000920E-02 0.  1.
    10030    2    1    2    0    0  0.00000000000E+00  0.00000000000E+00  0.22105572009E+03  0.28203171633E+04  0.28116406723E+04 0.  0.
        1    1    3    3  502    0  0.30997494811E+03 -0.48954289566E+02 -0.12640475246E+04  0.13024197232E+04  0.50400001928E-02 0.  1.
       -1    1    3    3    0  502 -0.30997494811E+03  0.48954289566E+02  0.14851032447E+04  0.15178974400E+04  0.50400001928E-02 0. -1.
</event>
<event>
 5   0  0.3397882E-06  0.2882460E+04  0.7818609E-02  0.8278115E-01
        1   -1    0    0  501    0  0.00000000000E+00  0.00000000000E+00  0.22464771435E+04  0.22464771435E+04  0.50400001928E-02 0.  1.
       -1   -1    0    0    0  501  0.00000000000E+00  0.00000000000E+00 -0.92462263818E+03  0.92462263819E+03  0.50400001928E-02 0. -1.
    10030    2    1    2    0    0  0.00000000000E+00  0.00000000000E+00  0.13218545053E+04  0.31710997817E+04  0.28824597989E+04 0.  0.
        2    1    3    3  502    0  0.52828001308E+03 -0.71012403666E+02 -0.81219689168E+03  0.97148665691E+03  0.25500000920E-02 0. -1.
       -2    1    3    3    0  502 -0.52828001308E+03  0.71012403666E+02  0.21340513970E+04  0.21996131248E+04  0.25500000920E-02 0.  1.
</event>
<event>
 5   0  0.3371603E-06  0.2798931E+04  0.7818609E-02  0.8303600E-01
       -1   -1    0    0    0  501  0.00000000000E+00  0.00000000000E+00  0.11537667342E+04  0.11537667342E+04  0.50400001928E-02 0.  1.
        1   -1    0    0  501    0  0.00000000000E+00  0.00000000000E+00 -0.16974869342E+04  0.16974869342E+04  0.50400001928E-02 0. -1.
    10030    2    1    2    0    0  0.00000000000E+00  0.00000000000E+00 -0.54372019997E+03  0.28512536684E+04  0.27989311935E+04 0.  0.
        1    1    3    3  502    0  0.98704168312E+03  0.38543795748E+03 -0.12031101375E+04  0.16032116848E+04  0.50400001928E-02 0. -1.
       -1    1    3    3    0  502 -0.98704168312E+03 -0.38543795748E+03  0.65938993749E+03  0.12480419837E+04  0.50400001928E-02 0.  1.
</event>
<event>
 5   0  0.9252359E-06  0.2789279E+04  0.7818609E-02  0.8306605E-01
       -2   -1    0    0    0  501  0.00000000000E+00  0.00000000000E+00  0.11780601393E+04  0.11780601393E+04  0.25500000920E-02 0. -1.
        2   -1    0    0  501    0  0.00000000000E+00  0.00000000000E+00 -0.16510354955E+04  0.16510354955E+04  0.25500000920E-02 0.  1.
    10030    2    1    2    0    0  0.00000000000E+00  0.00000000000E+00 -0.47297535626E+03  0.28290956348E+04  0.27892788357E+04 0.  0.
        5    1    3    3  502    0  0.55754368407E+02 -0.10241134747E+04  0.72203169011E+03  0.12543001276E+04  0.46999998093E+01 0. -1.
       -5    1    3    3    0  502 -0.55754368407E+02  0.10241134747E+04 -0.11950070464E+04  0.15747955072E+04  0.46999998093E+01 0.  1.
</event>
<event>
 5   0  0.3600963E-06  0.2811437E+04  0.7818609E-02  0.8299726E-01
        1   -1    0    0  501    0  0.00000000000E+00  0.00000000000E+00  0.15500124944E+04  0.15500124945E+04  0.50400001928E-02 0. -1.
       -1   -1    0    0    0  501  0.00000000000E+00  0.00000000000E+00 -0.12748574288E+04  0.12748574288E+04  0.50400001928E-02 0.  1.
    10030    2    1    2    0    0  0.00000000000E+00  0.00000000000E+00  0.27515506563E+03  0.28248699233E+04  0.28114373145E+04 0.  0.
        5    1    3    3  502    0 -0.45089162269E+03 -0.73187929294E+03  0.12551291490E+04  0.15212895272E+04  0.46999998093E+01 0. -1.
       -5    1    3    3    0  502  0.45089162269E+03  0.73187929294E+03 -0.97997408342E+03  0.13035803961E+04  0.46999998093E+01 0.  1.
</event>
<event>
 5   0  0.3357244E-06  0.2796328E+04  0.7818609E-02  0.8304409E-01
       -1   -1    0    0    0  501  0.00000000000E+00  0.00000000000E+00  0.74808699571E+03  0.74808699573E+03  0.50400001928E-02 0.  1.
        1   -1    0    0  501    0  0.00000000000E+00  0.00000000000E+00 -0.26131487141E+04  0.26131487141E+04  0.50400001928E-02 0. -1.
    10030    2    1    2    0    0  0.00000000000E+00  0.00000000000E+00 -0.18650617184E+04  0.33612357098E+04  0.27963280000E+04 0.  0.
        4    1    3    3  502    0  0.42602601131E+03 -0.42075500677E+03 -0.24512306246E+04  0.25233046043E+04  0.12699999809E+01 0. -1.
       -4    1    3    3    0  502 -0.42602601131E+03  0.42075500677E+03  0.58616890626E+03  0.83793110552E+03  0.12699999809E+01 0.  1.
</event>
<event>
 5   0  0.9252359E-06  0.2781056E+04  0.7818609E-02  0.8309174E-01
        2   -1    0    0  501    0  0.00000000000E+00  0.00000000000E+00  0.73394740237E+03  0.73394740238E+03  0.25500000920E-02 0.  1.
       -2   -1    0    0    0  501  0.00000000000E+00  0.00000000000E+00 -0.26344779809E+04  0.26344779809E+04  0.25500000920E-02 0. -1.
    10030    2    1    2    0    0  0.00000000000E+00  0.00000000000E+00 -0.19005305785E+04  0.33684253833E+04  0.27810561093E+04 0.  0.
        5    1    3    3  502    0  0.83742885926E+03 -0.67679508618E+03  0.11546146059E+03  0.10829091014E+04  0.46999998093E+01 0.  1.
       -5    1    3    3    0  502 -0.83742885926E+03  0.67679508618E+03 -0.20159920391E+04  0.22855162819E+04  0.46999998093E+01 0. -1.
</event>
<event>
 5   0  0.3006875E-06  0.2807729E+04  0.7818609E-02  0.8300873E-01
        3   -1    0    0  501    0  0.00000000000E+00  0.00000000000E+00  0.11314129544E+04  0.11314129589E+04  0.10100000352E+00 0. -1.
       -3   -1    0    0    0  501  0.00000000000E+00  0.00000000000E+00 -0.17419238194E+04  0.17419238223E+04  0.10100000352E+00 0.  1.
    10030    2    1    2    0    0  0.00000000000E+00  0.00000000000E+00 -0.61051086502E+03  0.28733367812E+04  0.28077287515E+04 0.  0.
        1    1    3    3  502    0  0.52683281794E+03  0.12970765180E+04 -0.19853600285E+03  0.14139932306E+04  0.50400001928E-02 0. -1.
       -1    1    3    3    0  502 -0.52683281794E+03 -0.12970765180E+04 -0.41197486218E+03  0.14593435506E+04  0.50400001928E-02 0.  1.
</event>
<event>
 5   0  0.9252359E-06  0.2791407E+04  0.7818609E-02  0.8305941E-01
        2   -1    0    0  501    0  0.00000000000E+00  0.00000000000E+00  0.10708757669E+04  0.10708757669E+04  0.25500000920E-02 0.  1.
       -2   -1    0    0    0  501  0.00000000000E+00  0.00000000000E+00 -0.18190610061E+04  0.18190610061E+04  0.25500000920E-02 0. -1.
    10030    2    1    2    0    0  0.00000000000E+00  0.00000000000E+00 -0.74818523918E+03  0.28899367730E+04  0.27914070645E+04 0.  0.
        5    1    3    3  502    0  0.69783143663E+01 -0.53589734133E+03  0.96008881477E+03  0.10995577655E+04  0.46999998093E+01 0.  1.
       -5    1    3    3    0  502 -0.69783143663E+01  0.53589734133E+03 -0.17082740540E+04  0.17903790076E+04  0.46999998093E+01 0. -1.
</event>
<event>
 5   0  0.9426937E-06  0.2799040E+04  0.7818609E-02  0.8303567E-01
       -2   -1    0    0    0  501  0.00000000000E+00  0.00000000000E+00  0.13271398962E+04  0.13271398963E+04  0.25500000920E-02 0.  1.
        2   -1    0    0  501    0  0.00000000000E+00  0.00000000000E+00 -0.14758473426E+04  0.14758473426E+04  0.25500000920E-02 0. -1.
    10030    2    1    2    0    0  0.00000000000E+00  0.00000000000E+00 -0.14870744638E+03  0.28029872389E+04  0.27990397562E+04 0.  0.
        4    1    3    3  502    0  0.72086961432E+03  0.69816808485E+03 -0.10512101449E+04  0.14533189799E+04  0.12699999809E+01 0. -1.
       -4    1    3    3    0  502 -0.72086961432E+03 -0.69816808485E+03  0.90250269855E+03  0.13496682590E+04  0.12699999809E+01 0.  1.
</event>
<event>
 5   0  0.9260173E-06  0.2811139E+04  0.7818609E-02  0.8299818E-01
       -2   -1    0    0    0  501  0.00000000000E+00  0.00000000000E+00  0.10363988296E+04  0.10363988296E+04  0.25500000920E-02 0.  1.
        2   -1    0    0  501    0  0.00000000000E+00  0.00000000000E+00 -0.19062410624E+04  0.19062410624E+04  0.25500000920E-02 0. -1.
    10030    2    1    2    0    0  0.00000000000E+00  0.00000000000E+00 -0.86984223273E+03  0.29426398920E+04  0.28111392751E+04 0.  0.
        1    1    3    3  502    0 -0.11923258957E+04  0.69787613278E+03 -0.70577969215E+03  0.15513855459E+04  0.50400001928E-02 0. -1.
       -1    1    3    3    0  502  0.11923258957E+04 -0.69787613278E+03 -0.16406254058E+03  0.13912543461E+04  0.50400001928E-02 0.  1.
</event>
<event>
 5   0  0.9260173E-06  0.2763993E+04  0.7818609E-02  0.8314535E-01
       -2   -1    0    0    0  501  0.00000000000E+00  0.00000000000E+00  0.14493200578E+04  0.14493200578E+04  0.25500000920E-02 0. -1.
        2   -1    0    0  501    0  0.00000000000E+00  0.00000000000E+00 -0.13178001552E+04  0.13178001552E+04  0.25500000920E-02 0.  1.
    10030    2    1    2    0    0  0.00000000000E+00  0.00000000000E+00  0.13151990258E+03  0.27671202130E+04  0.27639929067E+04 0.  0.
        1    1    3    3  502    0 -0.16734253067E+03  0.13254248162E+04 -0.28841954268E+03  0.13667261242E+04  0.50400001928E-02 0. -1.
       -1    1    3    3    0  502  0.16734253067E+03 -0.13254248162E+04  0.41993944527E+03  0.14003940887E+04  0.50400001928E-02 0.  1.
</event>
<event>
 5   0  0.3397882E-06  0.2673582E+04  0.7818609E-02  0.8343628E-01
        1   -1    0    0  501    0  0.00000000000E+00  0.00000000000E+00  0.16732764680E+04  0.16732764680E+04  0.50400001928E-02 0.  1.
       -1   -1    0    0    0  501  0.00000000000E+00  0.00000000000E+00 -0.10679703362E+04  0.10679703362E+04  0.50400001928E-02 0. -1.
    10030    2    1    2    0    0  0.00000000000E+00  0.00000000000E+00  0.60530613174E+03  0.27412468042E+04  0.26735815919E+04 0.  0.
        2    1    3    3  502    0  0.10287085646E+03 -0.19279776575E+03 -0.10495330775E+04  0.10720415442E+04  0.25500000920E-02 0. -1.
       -2    1    3    3    0  502 -0.10287085646E+03  0.19279776575E+03  0.16548392093E+04  0.16692052600E+04  0.25500000920E-02 0.  1.
</event>
<event>
 5   0  0.9260173E-06  0.2686956E+04  0.7818609E-02  0.8339250E-01
       -2   -1    0    0    0  501  0.00000000000E+00  0.00000000000E+00  0.99589513789E+03  0.99589513790E+03  0.25500000920E-02 0.  1.
        2   -1    0    0  501    0  0.00000000000E+00  0.00000000000E+00 -0.18123726086E+04  0.18123726086E+04  0.25500000920E-02 0. -1.
    10030    2    1    2    0    0  0.00000000000E+00  0.00000000000E+00 -0.81647747070E+03  0.28082677465E+04  0.26869559497E+04 0.  0.
        1    1    3    3  502    0  0.23563456569E+03 -0.91419322431E+03 -0.14072498304E+04  0.16945869659E+04  0.50400001928E-02 0. -1.
       -1    1    3    3    0  502 -0.23563456569E+03  0.91419322431E+03  0.59077235972E+03  0.11136807805E+04  0.50400001928E-02 0.  1.
</event>
<event>
 5   0  0.3600963E-06  0.2752562E+04  0.7818609E-02  0.8318149E-01
       -1   -1    0    0    0  501  0.00000000000E+00  0.00000000000E+00  0.89690828335E+03  0.89690828337E+03  0.50400001928E-02 0.  1.
        1   -1    0    0  501    0  0.00000000000E+00  0.00000000000E+00 -0.21118655750E+04  0.21118655750E+04  0.50400001928E-02 0. -1.
    10030    2    1    2    0    0  0.00000000000E+00  0.00000000000E+00 -0.12149572917E+04  0.30087738584E+04  0.27525622446E+04 0.  0.
        5    1    3    3  502    0  0.40268006034E+03  0.12832623547E+04 -0.28839230053E+03  0.13755383350E+04  0.46999998093E+01 0. -1.
       -5    1    3    3    0  502 -0.40268006034E+03 -0.12832623547E+04 -0.92656499113E+03  0.16332355234E+04  0.46999998093E+01 0.  1.
</event>
<event>
 5   0  0.3438130E-06  0.2852418E+04  0.7818609E-02  0.8287177E-01
       -1   -1    0    0    0  501  0.00000000000E+00  0.00000000000E+00  0.14495343213E+04  0.14495343213E+04  0.50400001928E-02 0.  1.
        1   -1    0    0  501    0  0.00000000000E+00  0.00000000000E+00 -0.14032586105E+04  0.14032586105E+04  0.50400001928E-02 0. -1.
    10030    2    1    2    0    0  0.00000000000E+00  0.00000000000E+00  0.46275710788E+02  0.28527929318E+04  0.28524175835E+04 0.  0.
        3    1    3    3  502    0 -0.37528947372E+03  0.13397535226E+04  0.33669117877E+03  0.14314826756E+04  0.10100000352E+00 0.  1.
       -3    1    3    3    0  502  0.37528947372E+03 -0.13397535226E+04 -0.29041546798E+03  0.14213102563E+04  0.10100000352E+00 0. -1.
</event>
<event>
 5   0  0.9426937E-06  0.2784730E+04  0.7818609E-02  0.8308025E-01
        2   -1    0    0  501    0  0.00000000000E+00  0.00000000000E+00  0.23742591814E+04  0.23742591814E+04  0.25500000920E-02 0.  1.
       -2   -1    0    0    0  501  0.00000000000E+00  0.00000000000E+00 -0.81654111988E+03  0.81654111988E+03  0.25500000920E-02 0. -1.
    10030    2    1    2    0    0  0.00000000000E+00  0.00000000000E+00  0.15577180615E+04  0.31908003013E+04  0.27847299696E+04 0.  0.
        4    1    3    3  502    0 -0.83094428562E+02 -0.13876650707E+04  0.86878662635E+03  0.16393019391E+04  0.12699999809E+01 0.  1.
       -4    1    3    3    0  502  0.83094428562E+02  0.13876650707E+04  0.68893143517E+03  0.15514983622E+04  0.12699999809E+01 0. -1.
</event>
<event>
 5   0  0.3371603E-06  0.3087106E+04  0.7818609E-02  0.8219285E-01
       -1   -1    0    0    0  501  0.00000000000E+00  0.00000000000E+00  0.16311629510E+04  0.16311629510E+04  0.50400001928E-02 0.  1.
        1   -1    0    0  501    0  0.00000000000E+00  0.00000000000E+00 -0.14606485696E+04  0.14606485696E+04  0.50400001928E-02 0. -1.
    10030    2    1    2    0    0  0.00000000000E+00  0.00000000000E+00  0.17051438142E+03  0.30918115206E+04  0.30871059788E+04 0.  0.
        1    1    3    3  502    0 -0.89460793220E+03 -0.12089931173E+04 -0.26250128119E+03  0.15267267708E+04  0.50400001928E-02 0. -1.
       -1    1    3    3    0  502  0.89460793220E+03  0.12089931173E+04  0.43301566261E+03  0.15650847498E+04  0.50400001928E-02 0.  1.
</event>
<event>
 5   0  0.9065579E-06  0.2786833E+04  0.7818609E-02  0.8307368E-01
       -2   -1    0    0    0  501  0.00000000000E+00  0.00000000000E+00  0.99359125056E+03  0.99359125057E+03  0.25500000920E-02 0.  1.
        2   -1    0    0  501    0  0.00000000000E+00  0.00000000000E+00 -0.19541336172E+04  0.19541336172E+04  0.25500000920E-02 0. -1.
    10030    2    1    2    0    0  0.00000000000E+00  0.00000000000E+00 -0.96054236659E+03  0.29477248677E+04  0.27868333746E+04 0.  0.
        3    1    3    3  502    0 -0.35511652697E+03  0.73941004352E+03  0.71115808540E+03  0.10856246095E+04  0.10100000352E+00 0.  1.
       -3    1    3    3    0  502  0.35511652697E+03 -0.73941004352E+03 -0.16717004520E+04  0.18621002582E+04  0.10100000352E+00 0. -1.
</event>
<event>
 5   0  0.9065579E-06  0.2801572E+04  0.7818609E-02  0.8302780E-01
        2   -1    0    0  501    0  0.00000000000E+00  0.00000000000E+00  0.16368436945E+04  0.16368436945E+04  0.25500000920E-02 0.  1.
       -2   -1    0    0    0  501  0.00000000000E+00  0.00000000000E+00 -0.11987717342E+04  0.11987717342E+04  0.25500000920E-02 0. -1.
    10030    2    1    2    0    0  0.00000000000E+00  0.00000000000E+00  0.43807196026E+03  0.28356154287E+04  0.28015723830E+04 0.  0.
        3    1    3    3  502    0 -0.99724065722E+03 -0.81032343961E+03 -0.34549498424E+03  0.13305937771E+04  0.10100000352E+00 0. -1.
       -3    1    3    3    0  502  0.99724065722E+03  0.81032343961E+03  0.78356694450E+03  0.15050216516E+04  0.10100000352E+00 0.  1.
</event>
<event>
 5   0  0.9065579E-06  0.2690684E+04  0.7818609E-02  0.8338034E-01
        2   -1    0    0  501    0  0.00000000000E+00  0.00000000000E+00  0.21394238853E+04  0.21394238853E+04  0.25500000920E-02 0. -1.
       -2   -1    0    0    0  501  0.00000000000E+00  0.00000000000E+00 -0.84599624281E+03  0.84599624282E+03  0.25500000920E-02 0.  1.
    10030    2    1    2    0    0  0.00000000000E+00  0.00000000000E+00  0.12934276425E+04  0.29854201281E+04  0.26906836074E+04 0.  0.
        3    1    3    3  502    0 -0.69735787242E+03 -0.62783181344E+03 -0.42297893960E+03  0.10292676920E+04  0.10100000352E+00 0.  1.
       -3    1    3    3    0  502  0.69735787242E+03  0.62783181344E+03  0.17164065821E+04  0.19561524362E+04  0.10100000352E+00 0. -1.
</event>
<event>
 5   0  0.3397882E-06  0.2801549E+04  0.7818609E-02  0.8302788E-01
        1   -1    0    0  501    0  0.00000000000E+00  0.00000000000E+00  0.16327050892E+04  0.16327050892E+04  0.50400001928E-02 0.  1.
       -1   -1    0    0    0  501  0.00000000000E+00  0.00000000000E+00 -0.12017902203E+04  0.12017902203E+04  0.50400001928E-02 0. -1.
    10030    2    1    2    0    0  0.00000000000E+00  0.00000000000E+00  0.43091486888E+03  0.28344953095E+04  0.28015488636E+04 0.  0.
        2    1    3    3  502    0 -0.20631176563E+03  0.91435055993E+03 -0.83772966267E+03  0.12571366190E+04  0.25500000920E-02 0. -1.
       -2    1    3    3    0  502  0.20631176563E+03 -0.91435055993E+03  0.12686445316E+04  0.15773586905E+04  0.25500000920E-02 0.  1.
</event>
<event>
 5   0  0.9252359E-06  0.2272447E+04  0.7818609E-02  0.8488865E-01
        2   -1    0    0  501    0  0.00000000000E+00  0.00000000000E+00  0.12437656595E+04  0.12437656595E+04  0.25500000920E-02 0.  1.
       -2   -1    0    0    0  501  0.00000000000E+00  0.00000000000E+00 -0.10379796117E+04  0.10379796117E+04  0.25500000920E-02 0. -1.
    10030    2    1    2    0    0  0.00000000000E+00  0.00000000000E+00  0.20578604787E+03  0.22817452712E+04  0.22724466078E+04 0.  0.
        5    1    3    3  502    0 -0.68650929918E+03  0.57332875361E+02  0.10101384018E+04  0.12226952839E+04  0.46999998093E+01 0.  1.
       -5    1    3    3    0  502  0.68650929918E+03 -0.57332875361E+02 -0.80435235390E+03  0.10590499873E+04  0.46999998093E+01 0. -1.
</event>
<event>
 5   0  0.9252359E-06  0.2802167E+04  0.7818609E-02  0.8302596E-01
       -2   -1    0    0    0  501  0.00000000000E+00  0.00000000000E+00  0.12493421285E+04  0.12493421285E+04  0.25500000920E-02 0. -1.
        2   -1    0    0  501    0  0.00000000000E+00  0.00000000000E+00 -0.15712549365E+04  0.15712549365E+04  0.25500000920E-02 0.  1.
    10030    2    1    2    0    0  0.00000000000E+00  0.00000000000E+00 -0.32191280805E+03  0.28205970650E+04  0.28021670091E+04 0.  0.
        5    1    3    3  502    0 -0.38601600882E+03  0.10276293667E+04  0.71539159874E+03  0.13102815361E+04  0.46999998093E+01 0. -1.
       -5    1    3    3    0  502  0.38601600882E+03 -0.10276293667E+04 -0.10373044068E+04  0.15103155289E+04  0.46999998093E+01 0.  1.
</event>
<event>
 5   0  0.9426937E-06  0.2848146E+04  0.7818609E-02  0.8288475E-01
        2   -1    0    0  501    0  0.00000000000E+00  0.00000000000E+00  0.77865952915E+03  0.77865952916E+03  0.25500000920E-02 0. -1.
       -2   -1    0    0    0  501  0.00000000000E+00  0.00000000000E+00 -0.26044548586E+04  0.26044548586E+04  0.25500000920E-02 0.  1.
    10030    2    1    2    0    0  0.00000000000E+00  0.00000000000E+00 -0.18257953295E+04  0.33831143878E+04  0.28481457785E+04 0.  0.
        4    1    3    3  502    0 -0.97009367824E+03 -0.34793017892E+03  0.25447131010E+03  0.10615528317E+04  0.12699999809E+01 0. -1.
       -4    1    3    3    0  502  0.97009367824E+03  0.34793017892E+03 -0.20802666396E+04  0.23215615561E+04  0.12699999809E+01 0.  1.
</event>
<event>
 5   0  0.9426937E-06  0.2771693E+04  0.7818609E-02  0.8312111E-01
        2   -1    0    0  501    0  0.00000000000E+00  0.00000000000E+00  0.16032699046E+04  0.16032699046E+04  0.25500000920E-02 0.  1.
       -2   -1    0    0    0  501  0.00000000000E+00  0.00000000000E+00 -0.11979081610E+04  0.11979081610E+04  0.25500000920E-02 0. -1.
    10030    2    1    2    0    0  0.00000000000E+00  0.00000000000E+00  0.40536174362E+03  0.28011780656E+04  0.27716926980E+04 0.  0.
        4    1    3    3  502    0  0.11012667495E+04  0.54650658560E+03 -0.44374093568E+03  0.13070445794E+04  0.12699999809E+01 0. -1.
       -4    1    3    3    0  502 -0.11012667495E+04 -0.54650658560E+03  0.84910267929E+03  0.14941334862E+04  0.12699999809E+01 0.  1.
</event>
<event>
 5   0  0.3357244E-06  0.2783596E+04  0.7818609E-02  0.8308379E-01
        1   -1    0    0  501    0  0.00000000000E+00  0.00000000000E+00  0.16368810440E+04  0.16368810440E+04  0.50400001928E-02 0.  1.
       -1   -1    0    0    0  501  0.00000000000E+00  0.00000000000E+00 -0.11834102646E+04  0.11834102646E+04  0.50400001928E-02 0. -1.
    10030    2    1    2    0    0  0.00000000000E+00  0.00000000000E+00  0.45347077942E+03  0.28202913086E+04  0.27835961125E+04 0.  0.
        4    1    3    3  502    0 -0.64064979659E+03 -0.99946485307E+03 -0.50929705166E+03  0.12918000055E+04  0.12699999809E+01 0. -1.
       -4    1    3    3    0  502  0.64064979659E+03  0.99946485307E+03  0.96276783109E+03  0.15284913032E+04  0.12699999809E+01 0.  1.
</event>
<event>
 5   0  0.9065579E-06  0.2844989E+04  0.7818609E-02  0.8289436E-01
       -2   -1    0    0    0  501  0.00000000000E+00  0.00000000000E+00  0.11256405987E+04  0.11256405988E+04  0.25500000920E-02 0. -1.
        2   -1    0    0  501    0  0.00000000000E+00  0.00000000000E+00 -0.17976340728E+04  0.17976340728E+04  0.25500000920E-02 0.  1.
    10030    2    1    2    0    0  0.00000000000E+00  0.00000000000E+00 -0.67199347405E+03  0.29232746716E+04  0.28449885019E+04 0.  0.
        3    1    3    3  502    0 -0.30722343302E+03  0.12955855994E+04 -0.85033207682E+03  0.15798711765E+04  0.10100000352E+00 0.  1.
       -3    1    3    3    0  502  0.30722343302E+03 -0.12955855994E+04  0.17833860277E+03  0.13434034951E+04  0.10100000352E+00 0. -1.
</event>
<event>
 5   0  0.3357244E-06  0.2809177E+04  0.7818609E-02  0.8300425E-01
       -1   -1    0    0    0  501  0.00000000000E+00  0.00000000000E+00  0.93569869209E+03  0.93569869211E+03  0.50400001928E-02 0. -1.
        1   -1    0    0  501    0  0.00000000000E+00  0.00000000000E+00 -0.21084443098E+04  0.21084443098E+04  0.50400001928E-02 0.  1.
    10030    2    1    2    0    0  0.00000000000E+00  0.00000000000E+00 -0.11727456177E+04  0.30441430019E+04  0.28091768068E+04 0.  0.
        4    1    3    3  502    0 -0.24736074203E+03 -0.43593129145E+02  0.91116419884E+03  0.94515052122E+03  0.12699999809E+01 0. -1.
       -4    1    3    3    0  502  0.24736074203E+03  0.43593129145E+02 -0.20839098165E+04  0.20989924807E+04  0.12699999809E+01 0.  1.
</event>
<event>
 5   0  0.9260173E-06  0.2864641E+04  0.7818609E-02  0.8283476E-01
        2   -1    0    0  501    0  0.00000000000E+00  0.00000000000E+00  0.25400794104E+04  0.25400794104E+04  0.25500000920E-02 0.  1.
       -2   -1    0    0    0  501  0.00000000000E+00  0.00000000000E+00 -0.80766865725E+03  0.80766865726E+03  0.25500000920E-02 0. -1.
    10030    2    1    2    0    0  0.00000000000E+00  0.00000000000E+00  0.17324107532E+04  0.33477480677E+04  0.28646413575E+04 0.  0.
        1    1    3    3  502    0 -0.70235405095E+03  0.11738425360E+04  0.36993021435E+03  0.14170588822E+04  0.50400001928E-02 0. -1.
       -1    1    3    3    0  502  0.70235405095E+03 -0.11738425360E+04  0.13624805388E+04  0.19306891854E+04  0.50400001928E-02 0.  1.
</event>
<event>
 5   0  0.9342133E-06  0.2609150E+04  0.7818609E-02  0.8365100E-01
        2   -1    0    0  501    0  0.00000000000E+00  0.00000000000E+00  0.28247471552E+04  0.28247471552E+04  0.25500000920E-02 0.  1.
       -2   -1    0    0    0  501  0.00000000000E+00  0.00000000000E+00 -0.60250206924E+03  0.60250206925E+03  0.25500000920E-02 0. -1.
    10030    2    1    2    0    0  0.00000000000E+00  0.00000000000E+00  0.22222450860E+04  0.34272492245E+04  0.26091500579E+04 0.  0.
        2    1    3    3  502    0 -0.65225301570E+03  0.10756569816E+04  0.15650943910E+04  0.20079821691E+04  0.25500000920E-02 0.  1.
       -2    1    3    3    0  502  0.65225301570E+03 -0.10756569816E+04  0.65715069499E+03  0.14192670554E+04  0.25500000920E-02 0. -1.
</event>
<event>
 5   0  0.3371603E-06  0.2808369E+04  0.7818609E-02  0.8300675E-01
        1   -1    0    0  501    0  0.00000000000E+00  0.00000000000E+00  0.28069976185E+04  0.28069976185E+04  0.50400001928E-02 0. -1.
       -1   -1    0    0    0  501  0.00000000000E+00  0.00000000000E+00 -0.70243510614E+03  0.70243510616E+03  0.50400001928E-02 0.  1.
    10030    2    1    2    0    0  0.00000000000E+00  0.00000000000E+00  0.21045625123E+04  0.35094327246E+04  0.28083686867E+04 0.  0.
        1    1    3    3  502    0 -0.86557949090E+03 -0.29866739439E+03 -0.27803817347E+03  0.95694059036E+03  0.50400001928E-02 0.  1.
       -1    1    3    3    0  502  0.86557949090E+03  0.29866739439E+03  0.23826006858E+04  0.25524921343E+04  0.50400001928E-02 0. -1.
</event>
<event>
 5   0  0.3397882E-06  0.2781998E+04  0.7818609E-02  0.8308879E-01
       -1   -1    0    0    0  501  0.00000000000E+00  0.00000000000E+00  0.11024307649E+04  0.11024307649E+04  0.50400001928E-02 0. -1.
        1   -1    0    0  501    0  0.00000000000E+00  0.00000000000E+00 -0.17551015261E+04  0.17551015261E+04  0.50400001928E-02 0.  1.
    10030    2    1    2    0    0  0.00000000000E+00  0.00000000000E+00 -0.65267076121E+03  0.28575322911E+04  0.27819977843E+04 0.  0.
        2    1    3    3  502    0  0.12600316038E+04 -0.51620534787E+03 -0.34490090560E+02  0.13621076206E+04  0.25500000920E-02 0. -1.
       -2    1    3    3    0  502 -0.12600316038E+04  0.51620534787E+03 -0.61818067065E+03  0.14954246705E+04  0.25500000920E-02 0.  1.
</event>
<event>
 5   0  0.9426937E-06  0.2810225E+04  0.7818609E-02  0.8300101E-01
       -2   -1    0    0    0  501  0.00000000000E+00  0.00000000000E+00  0.13457309493E+04  0.13457309493E+04  0.25500000920E-02 0. -1.
        2   -1    0    0  501    0  0.00000000000E+00  0.00000000000E+00 -0.14671146232E+04  0.14671146232E+04  0.25500000920E-02 0.  1.
    10030    2    1    2    0    0  0.00000000000E+00  0.00000000000E+00 -0.12138367390E+03  0.28128455725E+04  0.28102252967E+04 0.  0.
        4    1    3    3  502    0 -0.10792885437E+04 -0.59743079500E+03  0.61265573073E+03  0.13773655915E+04  0.12699999809E+01 0. -1.
       -4    1    3    3    0  502  0.10792885437E+04  0.59743079500E+03 -0.73403940463E+03  0.14354799810E+04  0.12699999809E+01 0.  1.
</event>
<event>
 5   0  0.9426937E-06  0.2799983E+04  0.7818609E-02  0.8303274E-01
       -2   -1    0    0    0  501  0.00000000000E+00  0.00000000000E+00  0.81839314393E+03  0.81839314394E+03  0.25500000920E-02 0. -1.
        2   -1    0    0  501    0  0.00000000000E+00  0.00000000000E+00 -0.23949081831E+04  0.23949081831E+04  0.25500000920E-02 0.  1.
    10030    2    1    2    0    0  0.00000000000E+00  0.00000000000E+00 -0.15765150392E+04  0.32133013270E+04  0.27999831695E+04 0.  0.
        4    1    3    3  502    0 -0.16199351309E+03 -0.14768878047E+03 -0.23750896977E+04  0.23851848061E+04  0.12699999809E+01 0.  1.
       -4    1    3    3    0  502  0.16199351309E+03  0.14768878047E+03  0.79857465852E+03  0.82811652096E+03  0.12699999809E+01 0. -1.
</event>
<event>
 5   0  0.3357244E-06  0.2830921E+04  0.7818609E-02  0.8293733E-01
        1   -1    0    0  501    0  0.00000000000E+00  0.00000000000E+00  0.21065077674E+04  0.21065077674E+04  0.50400001928E-02 0.  1.
       -1   -1    0    0    0  501  0.00000000000E+00  0.00000000000E+00 -0.95111346762E+03  0.95111346764E+03  0.50400001928E-02 0. -1.
    10030    2    1    2    0    0  0.00000000000E+00  0.00000000000E+00  0.11553942998E+04  0.30576212350E+04  0.28309206328E+04 0.  0.
        4    1    3    3  502    0  0.29223557570E+02  0.77675488019E+03 -0.69996242630E+03  0.10460168122E+04  0.12699999809E+01 0. -1.
       -4    1    3    3    0  502 -0.29223557570E+02 -0.77675488019E+03  0.18553567261E+04  0.20116044229E+04  0.12699999809E+01 0.  1.
</event>
<event>
 5   0  0.3397882E-06  0.2857419E+04  0.7818609E-02  0.8285661E-01
        1   -1    0    0  501    0  0.00000000000E+00  0.00000000000E+00  0.15195150639E+04  0.15195150639E+04  0.50400001928E-02 0.  1.
       -1   -1    0    0    0  501  0.00000000000E+00  0.00000000000E+00 -0.13433303472E+04  0.13433303472E+04  0.50400001928E-02 0. -1.
    10030    2    1    2    0    0  0.00000000000E+00  0.00000000000E+00  0.17618471664E+03  0.28628454111E+04  0.28574189041E+04 0.  0.
        2    1    3    3  502    0 -0.75692316334E+03 -0.29956663521E+03 -0.10882489067E+04  0.13590285233E+04  0.25500000920E-02 0. -1.
       -2    1    3    3    0  502  0.75692316334E+03  0.29956663521E+03  0.12644336234E+04  0.15038168878E+04  0.25500000920E-02 0.  1.
</event>
<event>
 5   0  0.9252359E-06  0.2804268E+04  0.7818609E-02  0.8301945E-01
        2   -1    0    0  501    0  0.00000000000E+00  0.00000000000E+00  0.22519568515E+04  0.22519568515E+04  0.25500000920E-02 0. -1.
       -2   -1    0    0    0  501  0.00000000000E+00  0.00000000000E+00 -0.87300937391E+03  0.87300937392E+03  0.25500000920E-02 0.  1.
    10030    2    1    2    0    0  0.00000000000E+00  0.00000000000E+00  0.13789474776E+04  0.31249662254E+04  0.28042677768E+04 0.  0.
        5    1    3    3  502    0 -0.34427211702E+03  0.12833496431E+04  0.19055887419E+03  0.13423279672E+04  0.46999998093E+01 0.  1.
       -5    1    3    3    0  502  0.34427211702E+03 -0.12833496431E+04  0.11883886034E+04  0.17826382582E+04  0.46999998093E+01 0. -1.
</event>
<event>
 5   0  0.3397882E-06  0.2784150E+04  0.7818609E-02  0.8308206E-01
       -1   -1    0    0    0  501  0.00000000000E+00  0.00000000000E+00  0.16406155474E+04  0.16406155474E+04  0.50400001928E-02 0. -1.
        1   -1    0    0  501    0  0.00000000000E+00  0.00000000000E+00 -0.11811862786E+04  0.11811862786E+04  0.50400001928E-02 0.  1.
    10030    2    1    2    0    0  0.00000000000E+00  0.00000000000E+00  0.45942926878E+03  0.28218018261E+04  0.27841498330E+04 0.  0.
        2    1    3    3  502    0 -0.37855069131E+03 -0.16037646071E+03  0.15776826072E+04  0.16303691742E+04  0.25500000920E-02 0. -1.
       -2    1    3    3    0  502  0.37855069131E+03  0.16037646071E+03 -0.11182533384E+04  0.11914326519E+04  0.25500000920E-02 0.  1.
</event>
<event>
 5   0  0.3600963E-06  0.2765603E+04  0.7818609E-02  0.8314027E-01
        1   -1    0    0  501    0  0.00000000000E+00  0.00000000000E+00  0.25929677894E+04  0.25929677894E+04  0.50400001928E-02 0.  1.
       -1   -1    0    0    0  501  0.00000000000E+00  0.00000000000E+00 -0.73743314752E+03  0.73743314754E+03  0.50400001928E-02 0. -1.
    10030    2    1    2    0    0  0.00000000000E+00  0.00000000000E+00  0.18555346419E+04  0.33304009370E+04  0.27656032965E+04 0.  0.
        5    1    3    3  502    0  0.43589156606E+03 -0.24710505078E+03  0.24797925111E+04  0.25299121233E+04  0.46999998093E+01 0.  1.
       -5    1    3    3    0  502 -0.43589156606E+03  0.24710505078E+03 -0.62425786923E+03  0.80048881365E+03  0.46999998093E+01 0. -1.
</event>
<event>
 5   0  0.9342133E-06  0.2764737E+04  0.7818609E-02  0.8314301E-01
       -2   -1    0    0    0  501  0.00000000000E+00  0.00000000000E+00  0.77407944511E+03  0.77407944512E+03  0.25500000920E-02 0.  1.
        2   -1    0    0  501    0  0.00000000000E+00  0.00000000000E+00 -0.24686643860E+04  0.24686643860E+04  0.25500000920E-02 0. -1.
    10030    2    1    2    0    0  0.00000000000E+00  0.00000000000E+00 -0.16945849409E+04  0.32427438311E+04  0.27647367745E+04 0.  0.
        2    1    3    3  502    0  0.21929546546E+03 -0.13443662114E+04 -0.11236860526E+04  0.17658089807E+04  0.25500000920E-02 0.  1.
       -2    1    3    3    0  502 -0.21929546546E+03  0.13443662114E+04 -0.57089888828E+03  0.14769348504E+04  0.25500000920E-02 0. -1.
</event>
<event>
 5   0  0.3357244E-06  0.2782423E+04  0.7818609E-02  0.8308746E-01
        1   -1    0    0  501    0  0.00000000000E+00  0.00000000000E+00  0.14212478191E+04  0.14212478191E+04  0.50400001928E-02 0.  1.
       -1   -1    0    0    0  501  0.00000000000E+00  0.00000000000E+00 -0.13618094836E+04  0.13618094836E+04  0.50400001928E-02 0. -1.
    10030    2    1    2    0    0  0.00000000000E+00  0.00000000000E+00  0.59438335519E+02  0.27830573027E+04  0.27824225119E+04 0.  0.
        4    1    3    3  502    0  0.73983372297E+03 -0.10643214576E+04  0.53513935064E+03  0.14023230157E+04  0.12699999809E+01 0. -1.
       -4    1    3    3    0  502 -0.73983372297E+03  0.10643214576E+04 -0.47570101513E+03  0.13807342871E+04  0.12699999809E+01 0.  1.
</event>
<event>
 5   0  0.9065579E-06  0.2792536E+04  0.7818609E-02  0.8305589E-01
       -2   -1    0    0    0  501  0.00000000000E+00  0.00000000000E+00  0.80958084438E+03  0.80958084439E+03  0.25500000920E-02 0.  1.
        2   -1    0    0  501    0  0.00000000000E+00  0.00000000000E+00 -0.24081157155E+04  0.24081157155E+04  0.25500000920E-02 0. -1.
    10030    2    1    2    0    0  0.00000000000E+00  0.00000000000E+00 -0.15985348711E+04  0.32176965599E+04  0.27925360190E+04 0.  0.
        3    1    3    3  502    0  0.33647838033E+03  0.24228778191E+03 -0.23355411850E+04  0.23720610672E+04  0.10100000352E+00 0. -1.
       -3    1    3    3    0  502 -0.33647838033E+03 -0.24228778191E+03  0.73700631383E+03  0.84563549270E+03  0.10100000352E+00 0.  1.
</event>
<event>
 5   0  0.3397882E-06  0.2768662E+04  0.7818609E-02  0.8313064E-01
        1   -1    0    0  501    0  0.00000000000E+00  0.00000000000E+00  0.19858480563E+04  0.19858480563E+04  0.50400001928E-02 0.  1.
       -1   -1    0    0    0  501  0.00000000000E+00  0.00000000000E+00 -0.96501436013E+03  0.96501436014E+03  0.50400001928E-02 0. -1.
    10030    2    1    2    0    0  0.00000000000E+00  0.00000000000E+00  0.10208336961E+04  0.29508624164E+04  0.27686616921E+04 0.  0.
        2    1    3    3  502    0  0.39239804045E+03 -0.14041396426E+03 -0.89656288434E+03  0.98869475021E+03  0.25500000920E-02 0. -1.
       -2    1    3    3    0  502 -0.39239804045E+03  0.14041396426E+03  0.19173965805E+04  0.19621676662E+04  0.25500000920E-02 0.  1.
</event>
<event>
 5   0  0.9342133E-06  0.2833651E+04  0.7818609E-02  0.8292897E-01
        2   -1    0    0  501    0  0.00000000000E+00  0.00000000000E+00  0.18051718008E+04  0.18051718008E+04  0.25500000920E-02 0.  1.
       -2   -1    0    0    0  501  0.00000000000E+00  0.00000000000E+00 -0.11120237990E+04  0.11120237990E+04  0.25500000920E-02 0. -1.
    10030    2    1    2    0    0  0.00000000000E+00  0.00000000000E+00  0.69314800179E+03  0.29171955999E+04  0.28336506516E+04 0.  0.
        2    1    3    3  502    0 -0.56565025767E+03 -0.50948408482E+03 -0.88358718403E+03  0.11663020871E+04  0.25500000920E-02 0. -1.
       -2    1    3    3    0  502  0.56565025767E+03  0.50948408482E+03  0.15767351858E+04  0.17508935127E+04  0.25500000920E-02 0.  1.
</event>
<event>
 5   0  0.3438130E-06  0.2405620E+04  0.7818609E-02  0.8437403E-01
       -1   -1    0    0    0  501  0.00000000000E+00  0.00000000000E+00  0.13595773802E+04  0.13595773802E+04  0.50400001928E-02 0.  1.
        1   -1    0    0  501    0  0.00000000000E+00  0.00000000000E+00 -0.10641187401E+04  0.10641187401E+04  0.50400001928E-02 0. -1.
    10030    2    1    2    0    0  0.00000000000E+00  0.00000000000E+00  0.29545864013E+03  0.24236961203E+04  0.24056198942E+04 0.  0.
        3    1    3    3  502    0  0.73605148187E+03  0.82690419237E+03  0.62159251761E+03  0.12696139553E+04  0.10100000352E+00 0.  1.
       -3    1    3    3    0  502 -0.73605148187E+03 -0.82690419237E+03 -0.32613387748E+03  0.11540821650E+04  0.10100000352E+00 0. -1.
</event>
<event>
 5   0  0.9342133E-06  0.2788300E+04  0.7818609E-02  0.8306910E-01
        2   -1    0    0  501    0  0.00000000000E+00  0.00000000000E+00  0.16046597010E+04  0.16046597010E+04  0.25500000920E-02 0. -1.
       -2   -1    0    0    0  501  0.00000000000E+00  0.00000000000E+00 -0.12112566674E+04  0.12112566674E+04  0.25500000920E-02 0.  1.
    10030    2    1    2    0    0  0.00000000000E+00  0.00000000000E+00  0.39340303359E+03  0.28159163685E+04  0.27883003868E+04 0.  0.
        2    1    3    3  502    0 -0.44001839342E+03  0.79452345909E+03 -0.87149412774E+03  0.12587238491E+04  0.25500000920E-02 0.  1.
       -2    1    3    3    0  502  0.44001839342E+03 -0.79452345909E+03  0.12648971613E+04  0.15571925194E+04  0.25500000920E-02 0. -1.
</event>
<event>
 5   0  0.3600963E-06  0.2811766E+04  0.7818609E-02  0.8299625E-01
        1   -1    0    0  501    0  0.00000000000E+00  0.00000000000E+00  0.19015875601E+04  0.19015875601E+04  0.50400001928E-02 0.  1.
       -1   -1    0    0    0  501  0.00000000000E+00  0.00000000000E+00 -0.10393983773E+04  0.10393983773E+04  0.50400001928E-02 0. -1.
    10030    2    1    2    0    0  0.00000000000E+00  0.00000000000E+00  0.86218918279E+03  0.29409859374E+04  0.28117660104E+04 0.  0.
        5    1    3    3  502    0  0.68910949221E+03 -0.81200952953E+03  0.13910149452E+04  0.17519064005E+04  0.46999998093E+01 0.  1.
       -5    1    3    3    0  502 -0.68910949221E+03  0.81200952953E+03 -0.52882576239E+03  0.11890795370E+04  0.46999998093E+01 0. -1.
</event>
<event>
 5   0  0.3357244E-06  0.2801439E+04  0.7818609E-02  0.8302822E-01
        1   -1    0    0  501    0  0.00000000000E+00  0.00000000000E+00  0.15526166080E+04  0.15526166080E+04  0.50400001928E-02 0. -1.
       -1   -1    0    0    0  501  0.00000000000E+00  0.00000000000E+00 -0.12636826686E+04  0.12636826686E+04  0.50400001928E-02 0.  1.
    10030    2    1    2    0    0  0.00000000000E+00  0.00000000000E+00  0.28893393941E+03  0.28162992767E+04  0.28014387008E+04 0.  0.
        4    1    3    3  502    0 -0.36247633005E+03  0.12842185277E+04 -0.28371110366E+03  0.13642213603E+04  0.12699999809E+01 0.  1.
       -4    1    3    3    0  502  0.36247633005E+03 -0.12842185277E+04  0.57264504307E+03  0.14520779163E+04  0.12699999809E+01 0. -1.
</event>
<event>
 5   0  0.9065579E-06  0.2806176E+04  0.7818609E-02  0.8301353E-01
       -2   -1    0    0    0  501  0.00000000000E+00  0.00000000000E+00  0.81844008206E+03  0.81844008206E+03  0.25500000920E-02 0. -1.
        2   -1    0    0  501    0  0.00000000000E+00  0.00000000000E+00 -0.24053760646E+04  0.24053760646E+04  0.25500000920E-02 0.  1.
    10030    2    1    2    0    0  0.00000000000E+00  0.00000000000E+00 -0.15869359826E+04  0.32238161467E+04  0.28061761767E+04 0.  0.
        3    1    3    3  502    0 -0.21652524699E+03  0.49688303259E+03 -0.22802497107E+04  0.23437821323E+04  0.10100000352E+00 0.  1.
       -3    1    3    3    0  502  0.21652524699E+03 -0.49688303259E+03  0.69331372810E+03  0.88003401436E+03  0.10100000352E+00 0. -1.
</event>
<event>
 5   0  0.3438130E-06  0.2828526E+04  0.7818609E-02  0.8294467E-01
       -1   -1    0    0    0  501  0.00000000000E+00  0.00000000000E+00  0.87736918063E+03  0.87736918065E+03  0.50400001928E-02 0. -1.
        1   -1    0    0  501    0  0.00000000000E+00  0.00000000000E+00 -0.22797012308E+04  0.22797012308E+04  0.50400001928E-02 0.  1.
    10030    2    1    2    0    0  0.00000000000E+00  0.00000000000E+00 -0.14023320501E+04  0.31570704114E+04  0.28285258358E+04 0.  0.
        3    1    3    3  502    0 -0.79470208161E+03 -0.48845725116E+03 -0.18876527923E+04  0.21055581111E+04  0.10100000352E+00 0.  1.
       -3    1    3    3    0  502  0.79470208161E+03  0.48845725116E+03  0.48532074217E+03  0.10515123003E+04  0.10100000352E+00 0. -1.
</event>
<event>
 5   0  0.3397882E-06  0.2789647E+04  0.7818609E-02  0.8306490E-01
       -1   -1    0    0    0  501  0.00000000000E+00  0.00000000000E+00  0.10686781597E+04  0.10686781597E+04  0.50400001928E-02 0. -1.
        1   -1    0    0  501    0  0.00000000000E+00  0.00000000000E+00 -0.18205037081E+04  0.18205037081E+04  0.50400001928E-02 0.  1.
    10030    2    1    2    0    0  0.00000000000E+00  0.00000000000E+00 -0.75182554841E+03  0.28891818678E+04  0.27896469687E+04 0.  0.
        2    1    3    3  502    0 -0.48881020302E+03 -0.12499933488E+04 -0.76908095908E+03  0.15469015186E+04  0.25500000920E-02 0.  1.
       -2    1    3    3    0  502  0.48881020302E+03  0.12499933488E+04  0.17255410671E+02  0.13422803492E+04  0.25500000920E-02 0. -1.
</event>
<event>
 5   0  0.3397882E-06  0.2787949E+04  0.7818609E-02  0.8307019E-01
        1   -1    0    0  501    0  0.00000000000E+00  0.00000000000E+00  0.16408274321E+04  0.16408274321E+04  0.50400001928E-02 0.  1.
       -1   -1    0    0    0  501  0.00000000000E+00  0.00000000000E+00 -0.11842591744E+04  0.11842591744E+04  0.50400001928E-02 0. -1.
    10030    2    1    2    0    0  0.00000000000E+00  0.00000000000E+00  0.45656825765E+03  0.28250866065E+04  0.27879490240E+04 0.  0.
        2    1    3    3  502    0 -0.72342882006E+03  0.11160795334E+04 -0.19462666552E+03  0.13441957899E+04  0.25500000920E-02 0. -1.
       -2    1    3    3    0  502  0.72342882006E+03 -0.11160795334E+04  0.65119492318E+03  0.14808908166E+04  0.25500000920E-02 0.  1.
</event>
<event>
 5   0  0.9426937E-06  0.2823151E+04  0.7818609E-02  0.8296117E-01
        2   -1    0    0  501    0  0.00000000000E+00  0.00000000000E+00  0.13967944789E+04  0.13967944789E+04  0.25500000920E-02 0. -1.
       -2   -1    0    0    0  501  0.00000000000E+00  0.00000000000E+00 -0.14265129779E+04  0.14265129779E+04  0.25500000920E-02 0.  1.
    10030    2    1    2    0    0  0.00000000000E+00  0.00000000000E+00 -0.29718498918E+02  0.28233074568E+04  0.28231510421E+04 0.  0.
        4    1    3    3  502    0  0.57047224120E+03 -0.12890002893E+04 -0.89586310332E+02  0.14124403151E+04  0.12699999809E+01 0. -1.
       -4    1    3    3    0  502 -0.57047224120E+03  0.12890002893E+04  0.59867811414E+02  0.14108671417E+04  0.12699999809E+01 0.  1.
</event>
<event>
 5   0  0.3371603E-06  0.2812244E+04  0.7818609E-02  0.8299477E-01
        1   -1    0    0  501    0  0.00000000000E+00  0.00000000000E+00  0.13813365072E+04  0.13813365072E+04  0.50400001928E-02 0.  1.
       -1   -1    0    0    0  501  0.00000000000E+00  0.00000000000E+00 -0.14313517920E+04  0.14313517920E+04  0.50400001928E-02 0. -1.
    10030    2    1    2    0    0  0.00000000000E+00  0.00000000000E+00 -0.50015284820E+02  0.28126882991E+04  0.28122435775E+04 0.  0.
        1    1    3    3  502    0  0.59750594749E+03 -0.48976620581E+00 -0.12980659075E+04  0.14289816995E+04  0.50400001928E-02 0. -1.
       -1    1    3    3    0  502 -0.59750594749E+03  0.48976620581E+00  0.12480506227E+04  0.13837065997E+04  0.50400001928E-02 0.  1.
</event>
<event>
 5   0  0.3371603E-06  0.2760685E+04  0.7818609E-02  0.8315579E-01
       -1   -1    0    0    0  501  0.00000000000E+00  0.00000000000E+00  0.15433172068E+04  0.15433172068E+04  0.50400001928E-02 0. -1.
        1   -1    0    0  501    0  0.00000000000E+00  0.00000000000E+00 -0.12345782355E+04  0.12345782355E+04  0.50400001928E-02 0.  1.
    10030    2    1    2    0    0  0.00000000000E+00  0.00000000000E+00  0.30873897132E+03  0.27778954424E+04  0.27606853019E+04 0.  0.
        1    1    3    3  502    0 -0.25294192863E+03 -0.10725130559E+04 -0.68212632494E+03  0.12959784711E+04  0.50400001928E-02 0.  1.
       -1    1    3    3    0  502  0.25294192863E+03  0.10725130559E+04  0.99086529625E+03  0.14819169713E+04  0.50400001928E-02 0. -1.
</event>
<event>
 5   0  0.9252359E-06  0.2763919E+04  0.7818609E-02  0.8314558E-01
       -2   -1    0    0    0  501  0.00000000000E+00  0.00000000000E+00  0.81531387295E+03  0.81531387295E+03  0.25500000920E-02 0.  1.
        2   -1    0    0  501    0  0.00000000000E+00  0.00000000000E+00 -0.23424260425E+04  0.23424260425E+04  0.25500000920E-02 0. -1.
    10030    2    1    2    0    0  0.00000000000E+00  0.00000000000E+00 -0.15271121696E+04  0.31577399155E+04  0.27639192816E+04 0.  0.
        5    1    3    3  502    0  0.65649386217E+03  0.84697416340E+02 -0.21495160604E+04  0.22491329946E+04  0.46999998093E+01 0. -1.
       -5    1    3    3    0  502 -0.65649386217E+03 -0.84697416340E+02  0.62240389082E+03  0.90860692090E+03  0.46999998093E+01 0.  1.
</event>
<event>
 5   0  0.9260173E-06  0.2854194E+04  0.7818609E-02  0.8286638E-01
       -2   -1    0    0    0  501  0.00000000000E+00  0.00000000000E+00  0.12872338931E+04  0.12872338931E+04  0.25500000920E-02 0. -1.
        2   -1    0    0  501    0  0.00000000000E+00  0.00000000000E+00 -0.15821563575E+04  0.15821563575E+04  0.25500000920E-02 0.  1.
    10030    2    1    2    0    0  0.00000000000E+00  0.00000000000E+00 -0.29492246443E+03  0.28693902506E+04  0.28541936077E+04 0.  0.
        1    1    3    3  502    0 -0.12128959789E+04  0.71687553393E+02 -0.90001181066E+03  0.15120439875E+04  0.50400001928E-02 0.  1.
       -1    1    3    3    0  502  0.12128959789E+04 -0.71687553393E+02  0.60508934622E+03  0.13573462630E+04  0.50400001928E-02 0. -1.
</event>
<event>
 5   0  0.9260173E-06  0.2772050E+04  0.7818609E-02  0.8311999E-01
       -2   -1    0    0    0  501  0.00000000000E+00  0.00000000000E+00  0.18628891525E+04  0.18628891525E+04  0.25500000920E-02 0. -1.
        2   -1    0    0  501    0  0.00000000000E+00  0.00000000000E+00 -0.10312286291E+04  0.10312286291E+04  0.25500000920E-02 0.  1.
    10030    2    1    2    0    0  0.00000000000E+00  0.00000000000E+00  0.83166052341E+03  0.28941177817E+04  0.27720495140E+04 0.  0.
        1    1    3    3  502    0 -0.13450132304E+03 -0.11377143547E+04 -0.39863784094E+03  0.12130114126E+04  0.50400001928E-02 0.  1.
       -1    1    3    3    0  502  0.13450132304E+03  0.11377143547E+04  0.12302983643E+04  0.16811063691E+04  0.50400001928E-02 0. -1.
</event>
<event>
 5   0  0.3438130E-06  0.2824688E+04  0.7818609E-02  0.8295644E-01
        1   -1    0    0  501    0  0.00000000000E+00  0.00000000000E+00  0.12563735794E+04  0.12563735795E+04  0.50400001928E-02 0. -1.
       -1   -1    0    0    0  501  0.00000000000E+00  0.00000000000E+00 -0.15876772470E+04  0.15876772470E+04  0.50400001928E-02 0.  1.
    10030    2    1    2    0    0  0.00000000000E+00  0.00000000000E+00 -0.33130366760E+03  0.28440508265E+04  0.28246881215E+04 0.  0.
        3    1    3    3  502    0 -0.10050519825E+04  0.22589314337E+03  0.80717967182E+03  0.13087002073E+04  0.10100000352E+00 0. -1.
       -3    1    3    3    0  502  0.10050519825E+04 -0.22589314337E+03 -0.11384833394E+04  0.15353506192E+04  0.10100000352E+00 0.  1.
</event>
<event>
 5   0  0.9252359E-06  0.2700366E+04  0.7818609E-02  0.8334886E-01
       -2   -1    0    0    0  501  0.00000000000E+00  0.00000000000E+00  0.17067739676E+04  0.17067739676E+04  0.25500000920E-02 0. -1.
        2   -1    0    0  501    0  0.00000000000E+00  0.00000000000E+00 -0.10680930993E+04  0.10680930993E+04  0.25500000920E-02 0.  1.
    10030    2    1    2    0    0  0.00000000000E+00  0.00000000000E+00  0.63868086825E+03  0.27748670669E+04  0.27003655285E+04 0.  0.
        5    1    3    3  502    0 -0.10274582024E+04  0.80235857142E+03 -0.41812696785E+02  0.13043082559E+04  0.46999998093E+01 0.  1.
       -5    1    3    3    0  502  0.10274582024E+04 -0.80235857142E+03  0.68049356504E+03  0.14705588111E+04  0.46999998093E+01 0. -1.
</event>
<event>
 5   0  0.9342133E-06  0.2727708E+04  0.7818609E-02  0.8326070E-01
        2   -1    0    0  501    0  0.00000000000E+00  0.00000000000E+00  0.18002642871E+04  0.18002642871E+04  0.25500000920E-02 0.  1.
       -2   -1    0    0    0  501  0.00000000000E+00  0.00000000000E+00 -0.10332359198E+04  0.10332359198E+04  0.25500000920E-02 0. -1.
    10030    2    1    2    0    0  0.00000000000E+00  0.00000000000E+00  0.76702836732E+03  0.28335002069E+04  0.27277079951E+04 0.  0.
        2    1    3    3  502    0  0.11494952653E+04 -0.62762614723E+03 -0.11829949663E+02  0.13097304659E+04  0.25500000920E-02 0. -1.
       -2    1    3    3    0  502 -0.11494952653E+04  0.62762614723E+03  0.77885831698E+03  0.15237697410E+04  0.25500000920E-02 0.  1.
</event>
<event>
 5   0  0.3600963E-06  0.2790352E+04  0.7818609E-02  0.8306270E-01
        1   -1    0    0  501    0  0.00000000000E+00  0.00000000000E+00  0.13425319871E+04  0.13425319872E+04  0.50400001928E-02 0. -1.
       -1   -1    0    0    0  501  0.00000000000E+00  0.00000000000E+00 -0.14498843465E+04  0.14498843465E+04  0.50400001928E-02 0.  1.
    10030    2    1    2    0    0  0.00000000000E+00  0.00000000000E+00 -0.10735235931E+03  0.27924163336E+04  0.27903520300E+04 0.  0.
        5    1    3    3  502    0  0.13292698767E+04  0.27557134789E+02 -0.47680835454E+03  0.14124751671E+04  0.46999998093E+01 0. -1.
       -5    1    3    3    0  502 -0.13292698767E+04 -0.27557134789E+02  0.36945599523E+03  0.13799411665E+04  0.46999998093E+01 0.  1.
</event>
<event>
 5   0  0.9260173E-06  0.2827665E+04  0.7818609E-02  0.8294731E-01
        2   -1    0    0  501    0  0.00000000000E+00  0.00000000000E+00  0.24365776751E+04  0.24365776751E+04  0.25500000920E-02 0.  1.
       -2   -1    0    0    0  501  0.00000000000E+00  0.00000000000E+00 -0.82038122114E+03  0.82038122115E+03  0.25500000920E-02 0. -1.
    10030    2    1    2    0    0  0.00000000000E+00  0.00000000000E+00  0.16161964539E+04  0.32569588962E+04  0.28276651630E+04 0.  0.
        1    1    3    3  502    0 -0.68733588492E+03 -0.16041198863E+03 -0.60294367654E+03  0.92827996956E+03  0.50400001928E-02 0. -1.
       -1    1    3    3    0  502  0.68733588492E+03  0.16041198863E+03  0.22191401305E+04  0.23286789266E+04  0.50400001928E-02 0.  1.
</event>
<event>
 5   0  0.9426937E-06  0.2779862E+04  0.7818609E-02  0.8309548E-01
        2   -1    0    0  501    0  0.00000000000E+00  0.00000000000E+00  0.16930529033E+04  0.16930529033E+04  0.25500000920E-02 0.  1.
       -2   -1    0    0    0  501  0.00000000000E+00  0.00000000000E+00 -0.11410797612E+04  0.11410797612E+04  0.25500000920E-02 0. -1.
    10030    2    1    2    0    0  0.00000000000E+00  0.00000000000E+00  0.55197314213E+03  0.28341326645E+04  0.27798621567E+04 0.  0.
        4    1    3    3  502    0  0.35445789263E+03  0.18515109447E+03  0.16331338856E+04  0.16813831290E+04  0.12699999809E+01 0.  1.
       -4    1    3    3    0  502 -0.35445789263E+03 -0.18515109447E+03 -0.10811607435E+04  0.11527495355E+04  0.12699999809E+01 0. -1.
</event>
<event>
 5   0  0.9260173E-06  0.2792619E+04  0.7818609E-02  0.8305563E-01
        2   -1    0    0  501    0  0.00000000000E+00  0.00000000000E+00  0.22213323357E+04  0.22213323357E+04  0.25500000920E-02 0.  1.
       -2   -1    0    0    0  501  0.00000000000E+00  0.00000000000E+00 -0.87770774417E+03  0.87770774417E+03  0.25500000920E-02 0. -1.
    10030    2    1    2    0    0  0.00000000000E+00  0.00000000000E+00  0.13436245916E+04  0.30990400799E+04  0.27926192676E+04 0.  0.
        1    1    3    3  502    0  0.65826560845E+03 -0.12215748336E+04  0.84416626650E+03  0.16242460930E+04  0.50400001928E-02 0.  1.
       -1    1    3    3    0  502 -0.65826560845E+03  0.12215748336E+04  0.49945832508E+03  0.14747939869E+04  0.50400001928E-02 0. -1.
</event>
<event>
 5   0  0.9342133E-06  0.2843253E+04  0.7818609E-02  0.8289964E-01
        2   -1    0    0  501    0  0.00000000000E+00  0.00000000000E+00  0.11966346235E+04  0.11966346235E+04  0.25500000920E-02 0. -1.
       -2   -1    0    0    0  501  0.00000000000E+00  0.00000000000E+00 -0.16889213224E+04  0.16889213224E+04  0.25500000920E-02 0.  1.
    10030    2    1    2    0    0  0.00000000000E+00  0.00000000000E+00 -0.49228669895E+03  0.28855559459E+04  0.28432528771E+04 0.  0.
        2    1    3    3  502    0 -0.12084567387E+04 -0.63388965138E+03  0.15833115353E+03  0.13737731012E+04  0.25500000920E-02 0. -1.
       -2    1    3    3    0  502  0.12084567387E+04  0.63388965138E+03 -0.65061785247E+03  0.15117828447E+04  0.25500000920E-02 0.  1.
</event>
<event>
 5   0  0.3397882E-06  0.2843607E+04  0.7818609E-02  0.8289856E-01
        1   -1    0    0  501    0  0.00000000000E+00  0.00000000000E+00  0.16164600780E+04  0.16164600780E+04  0.50400001928E-02 0. -1.
       -1   -1    0    0    0  501  0.00000000000E+00  0.00000000000E+00 -0.12505880131E+04  0.12505880131E+04  0.50400001928E-02 0.  1.
    10030    2    1    2    0    0  0.00000000000E+00  0.00000000000E+00  0.36587206485E+03  0.28670480911E+04  0.28436072846E+04 0.  0.
        2    1    3    3  502    0  0.37766981057E+03  0.68027194622E+03 -0.10168825128E+04  0.12804118289E+04  0.25500000920E-02 0.  1.
       -2    1    3    3    0  502 -0.37766981057E+03 -0.68027194622E+03  0.13827545777E+04  0.15866362623E+04  0.25500000920E-02 0. -1.
</event>
<event>
 5   0  0.3397882E-06  0.2785064E+04  0.7818609E-02  0.8307920E-01
       -1   -1    0    0    0  501  0.00000000000E+00  0.00000000000E+00  0.98221451029E+03  0.98221451031E+03  0.50400001928E-02 0.  1.
        1   -1    0    0  501    0  0.00000000000E+00  0.00000000000E+00 -0.19742584716E+04  0.19742584716E+04  0.50400001928E-02 0. -1.
    10030    2    1    2    0    0  0.00000000000E+00  0.00000000000E+00 -0.99204396134E+03  0.29564729819E+04  0.27850639619E+04 0.  0.
        2    1    3    3  502    0  0.69512806891E+03 -0.83801658168E+03 -0.14175944611E+04  0.17874699660E+04  0.25500000920E-02 0. -1.
       -2    1    3    3    0  502 -0.69512806891E+03  0.83801658168E+03  0.42555049975E+03  0.11690030159E+04  0.25500000920E-02 0.  1.
</event>
<event>
 5   0  0.9260173E-06  0.2794269E+04  0.7818609E-02  0.8305050E-01
       -2   -1    0    0    0  501  0.00000000000E+00  0.00000000000E+00  0.13732731599E+04  0.13732731599E+04  0.25500000920E-02 0. -1.
        2   -1    0    0  501    0  0.00000000000E+00  0.00000000000E+00 -0.14214106372E+04  0.14214106372E+04  0.25500000920E-02 0.  1.
    10030    2    1    2    0    0  0.00000000000E+00  0.00000000000E+00 -0.48137477323E+02  0.27946837970E+04  0.27942691904E+04 0.  0.
        1    1    3    3  502    0  0.77035421585E+03  0.11622271084E+04 -0.11221584926E+03  0.13988602025E+04  0.50400001928E-02 0.  1.
       -1    1    3    3    0  502 -0.77035421585E+03 -0.11622271084E+04  0.64078371940E+02  0.13958235945E+04  0.50400001928E-02 0. -1.
</event>
<event>
 5   0  0.3371603E-06  0.2708307E+04  0.7818609E-02  0.8332315E-01
       -1   -1    0    0    0  501  0.00000000000E+00  0.00000000000E+00  0.12146557932E+04  0.12146557932E+04  0.50400001928E-02 0. -1.
        1   -1    0    0  501    0  0.00000000000E+00  0.00000000000E+00 -0.15096718990E+04  0.15096718990E+04  0.50400001928E-02 0.  1.
    10030    2    1    2    0    0  0.00000000000E+00  0.00000000000E+00 -0.29501610584E+03  0.27243276922E+04  0.27083070121E+04 0.  0.
        1    1    3    3  502    0  0.14294413746E+03  0.88383135326E+02 -0.14991406194E+04  0.15085314719E+04  0.50400001928E-02 0.  1.
       -1    1    3    3    0  502 -0.14294413746E+03 -0.88383135326E+02  0.12041245136E+04  0.12157962203E+04  0.50400001928E-02 0. -1.
</event>
<event>
 5   0  0.3600963E-06  0.2793539E+04  0.7818609E-02  0.8305277E-01
        1   -1    0    0  501    0  0.00000000000E+00  0.00000000000E+00  0.15027042053E+04  0.15027042053E+04  0.50400001928E-02 0.  1.
       -1   -1    0    0    0  501  0.00000000000E+00  0.00000000000E+00 -0.12983027614E+04  0.12983027614E+04  0.50400001928E-02 0. -1.
    10030    2    1    2    0    0  0.00000000000E+00  0.00000000000E+00  0.20440144392E+03  0.28010069668E+04  0.27935389880E+04 0.  0.
        5    1    3    3  502    0 -0.10839623908E+04 -0.86845511633E+03 -0.45686540124E+02  0.13897115181E+04  0.46999998093E+01 0. -1.
       -5    1    3    3    0  502  0.10839623908E+04  0.86845511633E+03  0.25008798405E+03  0.14112954487E+04  0.46999998093E+01 0.  1.
</event>
<event>
 5   0  0.9065579E-06  0.2415910E+04  0.7818609E-02  0.8433571E-01
       -2   -1    0    0    0  501  0.00000000000E+00  0.00000000000E+00  0.18662718588E+04  0.18662718588E+04  0.25500000920E-02 0. -1.
        2   -1    0    0  501    0  0.00000000000E+00  0.00000000000E+00 -0.78185545803E+03  0.78185545803E+03  0.25500000920E-02 0.  1.
    10030    2    1    2    0    0  0.00000000000E+00  0.00000000000E+00  0.10844164008E+04  0.26481273168E+04  0.24159096332E+04 0.  0.
        3    1    3    3  502    0  0.20128858837E+03  0.34179600422E+03  0.17928487775E+04  0.18362048779E+04  0.10100000352E+00 0. -1.
       -3    1    3    3    0  502 -0.20128858837E+03 -0.34179600422E+03 -0.70843237673E+03  0.81192243897E+03  0.10100000352E+00 0.  1.
</event>
<event>
 5   0  0.3357244E-06  0.2826743E+04  0.7818609E-02  0.8295013E-01
        1   -1    0    0  501    0  0.00000000000E+00  0.00000000000E+00  0.25718912600E+04  0.25718912600E+04  0.50400001928E-02 0.  1.
       -1   -1    0    0    0  501  0.00000000000E+00  0.00000000000E+00 -0.77671223160E+03  0.77671223162E+03  0.50400001928E-02 0. -1.
    10030    2    1    2    0    0  0.00000000000E+00  0.00000000000E+00  0.17951790284E+04  0.33486034916E+04  0.28267432851E+04 0.  0.
        4    1    3    3  502    0 -0.78272951785E+03 -0.31086834481E+03  0.22421739454E+04  0.23951305267E+04  0.12699999809E+01 0.  1.
       -4    1    3    3    0  502  0.78272951785E+03  0.31086834481E+03 -0.44699491703E+03  0.95347296483E+03  0.12699999809E+01 0. -1.
</event>
<event>
 5   0  0.9342133E-06  0.2796338E+04  0.7818609E-02  0.8304406E-01
       -2   -1    0    0    0  501  0.00000000000E+00  0.00000000000E+00  0.10286971400E+04  0.10286971400E+04  0.25500000920E-02 0. -1.
        2   -1    0    0  501    0  0.00000000000E+00  0.00000000000E+00 -0.19003427901E+04  0.19003427902E+04  0.25500000920E-02 0.  1.
    10030    2    1    2    0    0  0.00000000000E+00  0.00000000000E+00 -0.87164565011E+03  0.29290399302E+04  0.27963384583E+04 0.  0.
        2    1    3    3  502    0  0.59022453121E+03 -0.83913706004E+03 -0.14308289655E+04  0.17606213481E+04  0.25500000920E-02 0. -1.
       -2    1    3    3    0  502 -0.59022453121E+03  0.83913706004E+03  0.55918331541E+03  0.11684185821E+04  0.25500000920E-02 0.  1.
</event>
<event>
 5   0  0.3371603E-06  0.2776688E+04  0.7818609E-02  0.8310543E-01
        1   -1    0    0  501    0  0.00000000000E+00  0.00000000000E+00  0.17117452107E+04  0.17117452107E+04  0.50400001928E-02 0. -1.
       -1   -1    0    0    0  501  0.00000000000E+00  0.00000000000E+00 -0.11260431305E+04  0.11260431305E+04  0.50400001928E-02 0.  1.
    10030    2    1    2    0    0  0.00000000000E+00  0.00000000000E+00  0.58570208023E+03  0.28377883413E+04  0.27766879088E+04 0.  0.
        1    1    3    3  502    0 -0.90673350315E+03  0.52682327731E+03  0.12227015989E+04  0.16108096136E+04  0.50400001928E-02 0. -1.
       -1    1    3    3    0  502  0.90673350315E+03 -0.52682327731E+03 -0.63699951871E+03  0.12269787277E+04  0.50400001928E-02 0.  1.
</event>
<event>
 5   0  0.3371603E-06  0.2791587E+04  0.7818609E-02  0.8305885E-01
        1   -1    0    0  501    0  0.00000000000E+00  0.00000000000E+00  0.20456091938E+04  0.20456091938E+04  0.50400001928E-02 0.  1.
       -1   -1    0    0    0  501  0.00000000000E+00  0.00000000000E+00 -0.95240072933E+03  0.95240072934E+03  0.50400001928E-02 0. -1.
    10030    2    1    2    0    0  0.00000000000E+00  0.00000000000E+00  0.10932084645E+04  0.29980099232E+04  0.27915871386E+04 0.  0.
        1    1    3    3  502    0 -0.98190806968E+03 -0.13846163289E+02 -0.51866247409E+03  0.11105610904E+04  0.50400001928E-02 0. -1.
       -1    1    3    3    0  502  0.98190806968E+03  0.13846163289E+02  0.16118709386E+04  0.18874488327E+04  0.50400001928E-02 0.  1.
</event>
<event>
 5   0  0.9252359E-06  0.2784407E+04  0.7818609E-02  0.8308126E-01
       -2   -1    0    0    0  501  0.00000000000E+00  0.00000000000E+00  0.98508954008E+03  0.98508954008E+03  0.25500000920E-02 0. -1.
        2   -1    0    0  501    0  0.00000000000E+00  0.00000000000E+00 -0.19675681251E+04  0.19675681251E+04  0.25500000920E-02 0.  1.
    10030    2    1    2    0    0  0.00000000000E+00  0.00000000000E+00 -0.98247858497E+03  0.29526576651E+04  0.27844071393E+04 0.  0.
        5    1    3    3  502    0 -0.92750254148E+03  0.10156888961E+04 -0.71947437747E+03  0.15522726462E+04  0.46999998093E+01 0. -1.
       -5    1    3    3    0  502  0.92750254148E+03 -0.10156888961E+04 -0.26300420750E+03  0.14003850190E+04  0.46999998093E+01 0.  1.
</event>
<event>
 5   0  0.3438130E-06  0.2891160E+04  0.7818609E-02  0.8275512E-01
        1   -1    0    0  501    0  0.00000000000E+00  0.00000000000E+00  0.16546573767E+04  0.16546573767E+04  0.50400001928E-02 0. -1.
       -1   -1    0    0    0  501  0.00000000000E+00  0.00000000000E+00 -0.12629213851E+04  0.12629213851E+04  0.50400001928E-02 0.  1.
    10030    2    1    2    0    0  0.00000000000E+00  0.00000000000E+00  0.39173599159E+03  0.29175787619E+04  0.28911604495E+04 0.  0.
        3    1    3    3  502    0  0.47409851509E+02  0.63551143488E+03  0.15052526138E+04  0.16345971735E+04  0.10100000352E+00 0. -1.
       -3    1    3    3    0  502 -0.47409851509E+02 -0.63551143488E+03 -0.11135166223E+04  0.12829815884E+04  0.10100000352E+00 0.  1.
</event>
<event>
 5   0  0.3600963E-06  0.2792787E+04  0.7818609E-02  0.8305511E-01
       -1   -1    0    0    0  501  0.00000000000E+00  0.00000000000E+00  0.17083244959E+04  0.17083244959E+04  0.50400001928E-02 0.  1.
        1   -1    0    0  501    0  0.00000000000E+00  0.00000000000E+00 -0.11414196663E+04  0.11414196663E+04  0.50400001928E-02 0. -1.
    10030    2    1    2    0    0  0.00000000000E+00  0.00000000000E+00  0.56690482964E+03  0.28497441622E+04  0.27927872644E+04 0.  0.
        5    1    3    3  502    0 -0.55123763583E+03 -0.10732796440E+04 -0.43380635417E+03  0.12821864795E+04  0.46999998093E+01 0. -1.
       -5    1    3    3    0  502  0.55123763583E+03  0.10732796440E+04  0.10007111838E+04  0.15675576827E+04  0.46999998093E+01 0.  1.
</event>
<event>
 5   0  0.9342133E-06  0.2797241E+04  0.7818609E-02  0.8304125E-01
       -2   -1    0    0    0  501  0.00000000000E+00  0.00000000000E+00  0.13141760571E+04  0.13141760571E+04  0.25500000920E-02 0.  1.
        2   -1    0    0  501    0  0.00000000000E+00  0.00000000000E+00 -0.14884913571E+04  0.14884913571E+04  0.25500000920E-02 0. -1.
    10030    2    1    2    0    0  0.00000000000E+00  0.00000000000E+00 -0.17431529999E+03  0.28026674141E+04  0.27972412857E+04 0.  0.
        2    1    3    3  502    0  0.12064604698E+04 -0.68184343733E+03  0.10210653809E+03  0.13895621913E+04  0.25500000920E-02 0.  1.
       -2    1    3    3    0  502 -0.12064604698E+04  0.68184343733E+03 -0.27642183808E+03  0.14131052229E+04  0.25500000920E-02 0. -1.
</event>
<event>
 5   0  0.9426937E-06  0.2870250E+04  0.7818609E-02  0.8281784E-01
       -2   -1    0    0    0  501  0.00000000000E+00  0.00000000000E+00  0.91108880853E+03  0.91108880853E+03  0.25500000920E-02 0. -1.
        2   -1    0    0  501    0  0.00000000000E+00  0.00000000000E+00 -0.22605742060E+04  0.22605742060E+04  0.25500000920E-02 0.  1.
    10030    2    1    2    0    0  0.00000000000E+00  0.00000000000E+00 -0.13494853975E+04  0.31716630146E+04  0.28702500657E+04 0.  0.
        4    1    3    3  502    0  0.38665739924E+03 -0.34520350647E+03 -0.21535259652E+04  0.22150271106E+04  0.12699999809E+01 0.  1.
       -4    1    3    3    0  502 -0.38665739924E+03  0.34520350647E+03  0.80404056769E+03  0.95663590391E+03  0.12699999809E+01 0. -1.
</event>
<event>
 5   0  0.3438130E-06  0.2826780E+04  0.7818609E-02  0.8295002E-01
        1   -1    0    0  501    0  0.00000000000E+00  0.00000000000E+00  0.25748649247E+04  0.25748649247E+04  0.50400001928E-02 0. -1.
       -1   -1    0    0    0  501  0.00000000000E+00  0.00000000000E+00 -0.77583531047E+03  0.77583531049E+03  0.50400001928E-02 0.  1.
    10030    2    1    2    0    0  0.00000000000E+00  0.00000000000E+00  0.17990296142E+04  0.33507002352E+04  0.28267798841E+04 0.  0.
        3    1    3    3  502    0  0.65575930768E+03 -0.88756117822E+03 -0.14727418516E+03  0.11133170306E+04  0.10100000352E+00 0.  1.
       -3    1    3    3    0  502 -0.65575930768E+03  0.88756117822E+03  0.19463037993E+04  0.22373832046E+04  0.10100000352E+00 0. -1.
</event>
<event>
 5   0  0.9342133E-06  0.2819460E+04  0.7818609E-02  0.8297252E-01
       -2   -1    0    0    0  501  0.00000000000E+00  0.00000000000E+00  0.73995643551E+03  0.73995643551E+03  0.25500000920E-02 0. -1.
        2   -1    0    0  501    0  0.00000000000E+00  0.00000000000E+00 -0.26857500583E+04  0.26857500583E+04  0.25500000920E-02 0.  1.
    10030    2    1    2    0    0  0.00000000000E+00  0.00000000000E+00 -0.19457936228E+04  0.34257064938E+04  0.28194595509E+04 0.  0.
        2    1    3    3  502    0  0.97797032668E+02 -0.99570681672E+03 -0.21795931169E+04  0.23982540482E+04  0.25500000920E-02 0.  1.
       -2    1    3    3    0  502 -0.97797032668E+02  0.99570681672E+03  0.23379949414E+03  0.10274524456E+04  0.25500000920E-02 0. -1.
</event>
<event>
 5   0  0.9426937E-06  0.2519670E+04  0.7818609E-02  0.8396011E-01
        2   -1    0    0  501    0  0.00000000000E+00  0.00000000000E+00  0.11130889475E+04  0.11130889475E+04  0.25500000920E-02 0. -1.
       -2   -1    0    0    0  501  0.00000000000E+00  0.00000000000E+00 -0.14259276682E+04  0.14259276682E+04  0.25500000920E-02 0.  1.
    10030    2    1    2    0    0  0.00000000000E+00  0.00000000000E+00 -0.31283872064E+03  0.25390166157E+04  0.25196700795E+04 0.  0.
        4    1    3    3  502    0 -0.69187995130E+03  0.79487449061E+03  0.53928694794E+03  0.11837885571E+04  0.12699999809E+01 0. -1.
       -4    1    3    3    0  502  0.69187995130E+03 -0.79487449061E+03 -0.85212566858E+03  0.13552280586E+04  0.12699999809E+01 0.  1.
</event>
<event>
 5   0  0.9065579E-06  0.2719318E+04  0.7818609E-02  0.8328764E-01
        2   -1    0    0  501    0  0.00000000000E+00  0.00000000000E+00  0.16457669062E+04  0.16457669062E+04  0.25500000920E-02 0. -1.
       -2   -1    0    0    0  501  0.00000000000E+00  0.00000000000E+00 -0.11232890859E+04  0.11232890859E+04  0.25500000920E-02 0.  1.
    10030    2    1    2    0    0  0.00000000000E+00  0.00000000000E+00  0.52247782032E+03  0.27690559921E+04  0.27193175641E+04 0.  0.
        3    1    3    3  502    0  0.44938235005E+02 -0.41847647862E+03 -0.10552854384E+04  0.11361203170E+04  0.10100000352E+00 0.  1.
       -3    1    3    3    0  502 -0.44938235005E+02  0.41847647862E+03  0.15777632587E+04  0.16329356750E+04  0.10100000352E+00 0. -1.
</event>
<event>
 5   0  0.3600963E-06  0.2860908E+04  0.7818609E-02  0.8284605E-01
        1   -1    0    0  501    0  0.00000000000E+00  0.00000000000E+00  0.18644317341E+04  0.18644317341E+04  0.50400001928E-02 0. -1.
       -1   -1    0    0    0  501  0.00000000000E+00  0.00000000000E+00 -0.10974915686E+04  0.10974915686E+04  0.50400001928E-02 0.  1.
    10030    2    1    2    0    0  0.00000000000E+00  0.00000000000E+00  0.76694016558E+03  0.29619233027E+04  0.28609076241E+04 0.  0.
        5    1    3    3  502    0 -0.13410648381E+04  0.43661607359E+03  0.13610376052E+03  0.14169103074E+04  0.46999998093E+01 0.  1.
       -5    1    3    3    0  502  0.13410648381E+04 -0.43661607359E+03  0.63083640506E+03  0.15450129953E+04  0.46999998093E+01 0. -1.
</event>
<event>
 5   0  0.9342133E-06  0.2824322E+04  0.7818609E-02  0.8295757E-01
        2   -1    0    0  501    0  0.00000000000E+00  0.00000000000E+00  0.19240841262E+04  0.19240841262E+04  0.25500000920E-02 0.  1.
       -2   -1    0    0    0  501  0.00000000000E+00  0.00000000000E+00 -0.10364402899E+04  0.10364402899E+04  0.25500000920E-02 0. -1.
    10030    2    1    2    0    0  0.00000000000E+00  0.00000000000E+00  0.88764383634E+03  0.29605244161E+04  0.28243217306E+04 0.  0.
        2    1    3    3  502    0 -0.84530088877E+03  0.65238123660E+03 -0.52490093443E+03  0.11898133725E+04  0.25500000920E-02 0. -1.
       -2    1    3    3    0  502  0.84530088877E+03 -0.65238123660E+03  0.14125447708E+04  0.17707110436E+04  0.25500000920E-02 0.  1.
</event>
<event>
 5   0  0.3006875E-06  0.2783745E+04  0.7818609E-02  0.8308333E-01
       -3   -1    0    0    0  501  0.00000000000E+00  0.00000000000E+00  0.20403688723E+04  0.20403688748E+04  0.10100000352E+00 0. -1.
        3   -1    0    0  501    0  0.00000000000E+00  0.00000000000E+00 -0.94948974315E+03  0.94948974852E+03  0.10100000352E+00 0.  1.
    10030    2    1    2    0    0  0.00000000000E+00  0.00000000000E+00  0.10908791292E+04  0.29898586234E+04  0.27837451954E+04 0.  0.
        5    1    3    3  502    0 -0.93008629224E+03  0.64375327459E+03  0.14165453460E+04  0.18127607666E+04  0.46999998093E+01 0. -1.
       -5    1    3    3    0  502  0.93008629224E+03 -0.64375327459E+03 -0.32566621686E+03  0.11770978567E+04  0.46999998093E+01 0.  1.
</event>
<event>
 5   0  0.3357244E-06  0.2828344E+04  0.7818609E-02  0.8294522E-01
        1   -1    0    0  501    0  0.00000000000E+00  0.00000000000E+00  0.17726677525E+04  0.17726677525E+04  0.50400001928E-02 0. -1.
       -1   -1    0    0    0  501  0.00000000000E+00  0.00000000000E+00 -0.11281763001E+04  0.11281763001E+04  0.50400001928E-02 0.  1.
    10030    2    1    2    0    0  0.00000000000E+00  0.00000000000E+00  0.64449145236E+03  0.29008440526E+04  0.28283435055E+04 0.  0.
        4    1    3    3  502    0 -0.12634693671E+04  0.36876007949E+03 -0.20825702574E+03  0.13325582312E+04  0.12699999809E+01 0.  1.
       -4    1    3    3    0  502  0.12634693671E+04 -0.36876007949E+03  0.85274847810E+03  0.15682858214E+04  0.12699999809E+01 0. -1.
</event>
<event>
 5   0  0.9342133E-06  0.2800036E+04  0.7818609E-02  0.8303257E-01
        2   -1    0    0  501    0  0.00000000000E+00  0.00000000000E+00  0.20567144459E+04  0.20567144459E+04  0.25500000920E-02 0.  1.
       -2   -1    0    0    0  501  0.00000000000E+00  0.00000000000E+00 -0.95300094920E+03  0.95300094920E+03  0.25500000920E-02 0. -1.
    10030    2    1    2    0    0  0.00000000000E+00  0.00000000000E+00  0.11037134967E+04  0.30097153951E+04  0.28000362992E+04 0.  0.
        2    1    3    3  502    0 -0.18927677760E+03 -0.72434310954E+03  0.18234737207E+04  0.19711811304E+04  0.25500000920E-02 0.  1.
       -2    1    3    3    0  502  0.18927677760E+03  0.72434310954E+03 -0.71976022399E+03  0.10385342647E+04  0.25500000920E-02 0. -1.
</event>
<event>
 5   0  0.3600963E-06  0.2640073E+04  0.7818609E-02  0.8354715E-01
       -1   -1    0    0    0  501  0.00000000000E+00  0.00000000000E+00  0.14000960165E+04  0.14000960165E+04  0.50400001928E-02 0.  1.
        1   -1    0    0  501    0  0.00000000000E+00  0.00000000000E+00 -0.12445553577E+04  0.12445553577E+04  0.50400001928E-02 0. -1.
    10030    2    1    2    0    0  0.00000000000E+00  0.00000000000E+00  0.15554065876E+03  0.26446513742E+04  0.26400734828E+04 0.  0.
        5    1    3    3  502    0  0.10526102169E+04  0.74362422157E+03  0.36376434623E+03  0.13391459373E+04  0.46999998093E+01 0. -1.
       -5    1    3    3    0  502 -0.10526102169E+04 -0.74362422157E+03 -0.20822368747E+03  0.13055054369E+04  0.46999998093E+01 0.  1.
</event>
<event>
 5   0  0.3600963E-06  0.2835217E+04  0.7818609E-02  0.8292417E-01
        1   -1    0    0  501    0  0.00000000000E+00  0.00000000000E+00  0.26075598792E+04  0.26075598792E+04  0.50400001928E-02 0.  1.
       -1   -1    0    0    0  501  0.00000000000E+00  0.00000000000E+00 -0.77068761238E+03  0.77068761240E+03  0.50400001928E-02 0. -1.
    10030    2    1    2    0    0  0.00000000000E+00  0.00000000000E+00  0.18368722669E+04  0.33782474916E+04  0.28352171681E+04 0.  0.
        5    1    3    3  502    0  0.13919338581E+04  0.19063350304E+03  0.11437929676E+04  0.18116582019E+04  0.46999998093E+01 0.  1.
       -5    1    3    3    0  502 -0.13919338581E+04 -0.19063350304E+03  0.69307929923E+03  0.15665892897E+04  0.46999998093E+01 0. -1.
</event>
<event>
 5   0  0.3438130E-06  0.2798302E+04  0.7818609E-02  0.8303796E-01
       -1   -1    0    0    0  501  0.00000000000E+00  0.00000000000E+00  0.14742867369E+04  0.14742867369E+04  0.50400001928E-02 0. -1.
        1   -1    0    0  501    0  0.00000000000E+00  0.00000000000E+00 -0.13278442173E+04  0.13278442173E+04  0.50400001928E-02 0.  1.
    10030    2    1    2    0    0  0.00000000000E+00  0.00000000000E+00  0.14644251959E+03  0.28021309543E+04  0.27983017123E+04 0.  0.
        3    1    3    3  502    0  0.43974792600E+03  0.27460971394E+03 -0.12281086732E+04  0.13330565092E+04  0.10100000352E+00 0.  1.
       -3    1    3    3    0  502 -0.43974792600E+03 -0.27460971394E+03  0.13745511928E+04  0.14690744451E+04  0.10100000352E+00 0. -1.
</event>
<event>
 5   0  0.3397882E-06  0.2787426E+04  0.7818609E-02  0.8307183E-01
       -1   -1    0    0    0  501  0.00000000000E+00  0.00000000000E+00  0.10575247892E+04  0.10575247892E+04  0.50400001928E-02 0. -1.
        1   -1    0    0  501    0  0.00000000000E+00  0.00000000000E+00 -0.18367762241E+04  0.18367762241E+04  0.50400001928E-02 0.  1.
    10030    2    1    2    0    0  0.00000000000E+00  0.00000000000E+00 -0.77925143489E+03  0.28943010133E+04  0.27874263321E+04 0.  0.
        2    1    3    3  502    0  0.13484253364E+04  0.87028100863E+02 -0.35048199470E+02  0.13516853016E+04  0.25500000920E-02 0. -1.
       -2    1    3    3    0  502 -0.13484253364E+04 -0.87028100863E+02 -0.74420323542E+03  0.15426157117E+04  0.25500000920E-02 0.  1.
</event>
<event>
 5   0  0.9252359E-06  0.2768998E+04  0.7818609E-02  0.8312958E-01
       -2   -1    0    0    0  501  0.00000000000E+00  0.00000000000E+00  0.18350641715E+04  0.18350641715E+04  0.25500000920E-02 0. -1.
        2   -1    0    0  501    0  0.00000000000E+00  0.00000000000E+00 -0.10445618651E+04  0.10445618651E+04  0.25500000920E-02 0.  1.
    10030    2    1    2    0    0  0.00000000000E+00  0.00000000000E+00  0.79050230638E+03  0.28796260366E+04  0.27689984135E+04 0.  0.
        5    1    3    3  502    0  0.49451983524E+03 -0.93959171192E+03 -0.52874712878E+03  0.11861610636E+04  0.46999998093E+01 0.  1.
       -5    1    3    3    0  502 -0.49451983524E+03  0.93959171192E+03  0.13192494352E+04  0.16934649730E+04  0.46999998093E+01 0. -1.
</event>
<event>
 5   0  0.3357244E-06  0.2731321E+04  0.7818609E-02  0.8324913E-01
        1   -1    0    0  501    0  0.00000000000E+00  0.00000000000E+00  0.22032255764E+04  0.22032255764E+04  0.50400001928E-02 0.  1.
       -1   -1    0    0    0  501  0.00000000000E+00  0.00000000000E+00 -0.84649942726E+03  0.84649942728E+03  0.50400001928E-02 0. -1.
    10030    2    1    2    0    0  0.00000000000E+00  0.00000000000E+00  0.13567261491E+04  0.30497250037E+04  0.27313214301E+04 0.  0.
        4    1    3    3  502    0 -0.11211433048E+04  0.32286201622E+03  0.14709153014E+04  0.18774439081E+04  0.12699999809E+01 0.  1.
       -4    1    3    3    0  502  0.11211433048E+04 -0.32286201622E+03 -0.11418915226E+03  0.11722810955E+04  0.12699999809E+01 0. -1.
</event>
<event>
 5   0  0.3600963E-06  0.2825620E+04  0.7818609E-02  0.8295358E-01
       -1   -1    0    0    0  501  0.00000000000E+00  0.00000000000E+00  0.28411797669E+04  0.28411797669E+04  0.50400001928E-02 0. -1.
        1   -1    0    0  501    0  0.00000000000E+00  0.00000000000E+00 -0.70253636115E+03  0.70253636117E+03  0.50400001928E-02 0.  1.
    10030    2    1    2    0    0  0.00000000000E+00  0.00000000000E+00  0.21386434057E+04  0.35437161281E+04  0.28256199991E+04 0.  0.
        5    1    3    3  502    0  0.39306047865E+03 -0.71416204398E+03  0.25164714668E+04  0.26452173253E+04  0.46999998093E+01 0. -1.
       -5    1    3    3    0  502 -0.39306047865E+03  0.71416204398E+03 -0.37782806101E+03  0.89849880279E+03  0.46999998093E+01 0.  1.
</event>
<event>
 5   0  0.9342133E-06  0.2791286E+04  0.7818609E-02  0.8305979E-01
       -2   -1    0    0    0  501  0.00000000000E+00  0.00000000000E+00  0.93215836349E+03  0.93215836350E+03  0.25500000920E-02 0.  1.
        2   -1    0    0  501    0  0.00000000000E+00  0.00000000000E+00 -0.20895800473E+04  0.20895800473E+04  0.25500000920E-02 0. -1.
    10030    2    1    2    0    0  0.00000000000E+00  0.00000000000E+00 -0.11574216838E+04  0.30217384108E+04  0.27912860959E+04 0.  0.
        2    1    3    3  502    0 -0.10217908309E+04  0.95062757560E+03 -0.58778291264E+03  0.15143440963E+04  0.25500000920E-02 0.  1.
       -2    1    3    3    0  502  0.10217908309E+04 -0.95062757560E+03 -0.56963877115E+03  0.15073943145E+04  0.25500000920E-02 0. -1.
</event>
<event>
 5   0  0.3397882E-06  0.2752581E+04  0.7818609E-02  0.8318143E-01
       -1   -1    0    0    0  501  0.00000000000E+00  0.00000000000E+00  0.16754529178E+04  0.16754529178E+04  0.50400001928E-02 0.  1.
        1   -1    0    0  501    0  0.00000000000E+00  0.00000000000E+00 -0.11305451192E+04  0.11305451192E+04  0.50400001928E-02 0. -1.
    10030    2    1    2    0    0  0.00000000000E+00  0.00000000000E+00  0.54490779864E+03  0.28059980371E+04  0.27525806936E+04 0.  0.
        2    1    3    3  502    0 -0.92712667650E+03  0.76465863292E+03 -0.41131503206E+03  0.12702152395E+04  0.25500000920E-02 0. -1.
       -2    1    3    3    0  502  0.92712667650E+03 -0.76465863292E+03  0.95622283070E+03  0.15357827975E+04  0.25500000920E-02 0.  1.
</event>
<event>
 5   0  0.9252359E-06  0.2717275E+04  0.7818609E-02  0.8329422E-01
       -2   -1    0    0    0  501  0.00000000000E+00  0.00000000000E+00  0.10819067298E+04  0.10819067298E+04  0.25500000920E-02 0.  1.
        2   -1    0    0  501    0  0.00000000000E+00  0.00000000000E+00 -0.17061505509E+04  0.17061505509E+04  0.25500000920E-02 0. -1.
    10030    2    1    2    0    0  0.00000000000E+00  0.00000000000E+00 -0.62424382107E+03  0.27880572806E+04  0.27172749313E+04 0.  0.
        5    1    3    3  502    0  0.33651824593E+03  0.28648099406E+03 -0.16303284943E+04  0.16891740523E+04  0.46999998093E+01 0. -1.
       -5    1    3    3    0  502 -0.33651824593E+03 -0.28648099406E+03  0.10060846732E+04  0.10988832283E+04  0.46999998093E+01 0.  1.
</event>
<event>
 5   0  0.3371603E-06  0.2823255E+04  0.7818609E-02  0.8296085E-01
        1   -1    0    0  501    0  0.00000000000E+00  0.00000000000E+00  0.15836834357E+04  0.15836834357E+04  0.50400001928E-02 0. -1.
       -1   -1    0    0    0  501  0.00000000000E+00  0.00000000000E+00 -0.12582641389E+04  0.12582641389E+04  0.50400001928E-02 0.  1.
    10030    2    1    2    0    0  0.00000000000E+00  0.00000000000E+00  0.32541929681E+03  0.28419475746E+04  0.28232549119E+04 0.  0.
        1    1    3    3  502    0  0.12946049897E+04  0.51050255882E+03  0.40108364025E+03  0.14482689765E+04  0.50400001928E-02 0. -1.
       -1    1    3    3    0  502 -0.12946049897E+04 -0.51050255882E+03 -0.75664343440E+02  0.13936785981E+04  0.50400001928E-02 0.  1.
</event>
<event>
 5   0  0.9065579E-06  0.2825076E+04  0.7818609E-02  0.8295525E-01
        2   -1    0    0  501    0  0.00000000000E+00  0.00000000000E+00  0.11496071177E+04  0.11496071177E+04  0.25500000920E-02 0.  1.
       -2   -1    0    0    0  501  0.00000000000E+00  0.00000000000E+00 -0.17356050361E+04  0.17356050361E+04  0.25500000920E-02 0. -1.
    10030    2    1    2    0    0  0.00000000000E+00  0.00000000000E+00 -0.58599791837E+03  0.28852121538E+04  0.28250762135E+04 0.  0.
        3    1    3    3  502    0 -0.89256280785E+03  0.29249691387E+03  0.78446606584E+03  0.12237686992E+04  0.10100000352E+00 0.  1.
       -3    1    3    3    0  502  0.89256280785E+03 -0.29249691387E+03 -0.13704639842E+04  0.16614434546E+04  0.10100000352E+00 0. -1.
</event>
<event>
 5   0  0.9252359E-06  0.2805606E+04  0.7818609E-02  0.8301530E-01
        2   -1    0    0  501    0  0.00000000000E+00  0.00000000000E+00  0.29128372931E+04  0.29128372931E+04  0.25500000920E-02 0. -1.
       -2   -1    0    0    0  501  0.00000000000E+00  0.00000000000E+00 -0.67558035010E+03  0.67558035011E+03  0.25500000920E-02 0.  1.
    10030    2    1    2    0    0  0.00000000000E+00  0.00000000000E+00  0.22372569430E+04  0.35884176433E+04  0.28056055591E+04 0.  0.
        5    1    3    3  502    0  0.25890528684E+02 -0.22197388032E+03  0.28899129244E+04  0.28985447252E+04  0.46999998093E+01 0. -1.
       -5    1    3    3    0  502 -0.25890528684E+02  0.22197388032E+03 -0.65265598140E+03  0.68987291807E+03  0.46999998093E+01 0.  1.
</event>
<event>
 5   0  0.3371603E-06  0.2826131E+04  0.7818609E-02  0.8295201E-01
        1   -1    0    0  501    0  0.00000000000E+00  0.00000000000E+00  0.14928328283E+04  0.14928328283E+04  0.50400001928E-02 0. -1.
       -1   -1    0    0    0  501  0.00000000000E+00  0.00000000000E+00 -0.13375601827E+04  0.13375601827E+04  0.50400001928E-02 0.  1.
    10030    2    1    2    0    0  0.00000000000E+00  0.00000000000E+00  0.15527264562E+03  0.28303930110E+04  0.28261307475E+04 0.  0.
        1    1    3    3  502    0  0.37701297694E+03 -0.64049408282E+03 -0.11260007929E+04  0.13491661279E+04  0.50400001928E-02 0.  1.
       -1    1    3    3    0  502 -0.37701297694E+03  0.64049408282E+03  0.12812734385E+04  0.14812268831E+04  0.50400001928E-02 0. -1.
</event>
<event>
 5   0  0.9342133E-06  0.2818906E+04  0.7818609E-02  0.8297423E-01
       -2   -1    0    0    0  501  0.00000000000E+00  0.00000000000E+00  0.10211930846E+04  0.10211930846E+04  0.25500000920E-02 0.  1.
        2   -1    0    0  501    0  0.00000000000E+00  0.00000000000E+00 -0.19453303886E+04  0.19453303886E+04  0.25500000920E-02 0. -1.
    10030    2    1    2    0    0  0.00000000000E+00  0.00000000000E+00 -0.92413730396E+03  0.29665234732E+04  0.28189061284E+04 0.  0.
        2    1    3    3  502    0 -0.60440787292E+03 -0.95378162450E+03 -0.13497759452E+04  0.17598020816E+04  0.25500000920E-02 0. -1.
       -2    1    3    3    0  502  0.60440787292E+03  0.95378162450E+03  0.42563864123E+03  0.12067213916E+04  0.25500000920E-02 0.  1.
</event>
<event>
 5   0  0.9252359E-06  0.2795173E+04  0.7818609E-02  0.8304768E-01
        2   -1    0    0  501    0  0.00000000000E+00  0.00000000000E+00  0.15883920681E+04  0.15883920681E+04  0.25500000920E-02 0.  1.
       -2   -1    0    0    0  501  0.00000000000E+00  0.00000000000E+00 -0.12297015367E+04  0.12297015367E+04  0.25500000920E-02 0. -1.
    10030    2    1    2    0    0  0.00000000000E+00  0.00000000000E+00  0.35869053147E+03  0.28180936048E+04  0.27951731016E+04 0.  0.
        5    1    3    3  502    0  0.22305431893E+03  0.22163857692E+03  0.15522565208E+04  0.15837926898E+04  0.46999998093E+01 0.  1.
       -5    1    3    3    0  502 -0.22305431893E+03 -0.22163857692E+03 -0.11935659893E+04  0.12343009150E+04  0.46999998093E+01 0. -1.
</event>
<event>
 5   0  0.3357244E-06  0.2788200E+04  0.7818609E-02  0.8306941E-01
        1   -1    0    0  501    0  0.00000000000E+00  0.00000000000E+00  0.13469840749E+04  0.13469840749E+04  0.50400001928E-02 0.  1.
       -1   -1    0    0    0  501  0.00000000000E+00  0.00000000000E+00 -0.14428635427E+04  0.14428635427E+04  0.50400001928E-02 0. -1.
    10030    2    1    2    0    0  0.00000000000E+00  0.00000000000E+00 -0.95879467838E+02  0.27898476176E+04  0.27881995727E+04 0.  0.
        4    1    3    3  502    0  0.87700120428E+03 -0.51876708527E+03  0.90407532832E+03  0.13622056428E+04  0.12699999809E+01 0.  1.
       -4    1    3    3    0  502 -0.87700120428E+03  0.51876708527E+03 -0.99995479616E+03  0.14276419748E+04  0.12699999809E+01 0. -1.
</event>
<event>
 5   0  0.9252359E-06  0.2813573E+04  0.7818609E-02  0.8299067E-01
        2   -1    0    0  501    0  0.00000000000E+00  0.00000000000E+00  0.19506559627E+04  0.19506559627E+04  0.25500000920E-02 0. -1.
       -2   -1    0    0    0  501  0.00000000000E+00  0.00000000000E+00 -0.10145555724E+04  0.10145555724E+04  0.25500000920E-02 0.  1.
    10030    2    1    2    0    0  0.00000000000E+00  0.00000000000E+00  0.93610039021E+03  0.29652115351E+04  0.28135734409E+04 0.  0.
        5    1    3    3  502    0  0.10763662223E+04 -0.81897877213E+03  0.87586312660E+03  0.16113499869E+04  0.46999998093E+01 0. -1.
       -5    1    3    3    0  502 -0.10763662223E+04  0.81897877213E+03  0.60237263603E+02  0.13538615482E+04  0.46999998093E+01 0.  1.
</event>
<event>
 5   0  0.3357244E-06  0.2782820E+04  0.7818609E-02  0.8308622E-01
       -1   -1    0    0    0  501  0.00000000000E+00  0.00000000000E+00  0.18812941366E+04  0.18812941366E+04  0.50400001928E-02 0.  1.
        1   -1    0    0  501    0  0.00000000000E+00  0.00000000000E+00 -0.10290901036E+04  0.10290901036E+04  0.50400001928E-02 0. -1.
    10030    2    1    2    0    0  0.00000000000E+00  0.00000000000E+00  0.85220403308E+03  0.29103842402E+04  0.27828195615E+04 0.  0.
        4    1    3    3  502    0 -0.80348522363E+03  0.10851648556E+04  0.74773997753E+02  0.13523180218E+04  0.12699999809E+01 0.  1.
       -4    1    3    3    0  502  0.80348522363E+03 -0.10851648556E+04  0.77743003533E+03  0.15580662185E+04  0.12699999809E+01 0. -1.
</event>
<event>
 5   0  0.3600963E-06  0.2635700E+04  0.7818609E-02  0.8356175E-01
        1   -1    0    0  501    0  0.00000000000E+00  0.00000000000E+00  0.16508875056E+04  0.16508875056E+04  0.50400001928E-02 0.  1.
       -1   -1    0    0    0  501  0.00000000000E+00  0.00000000000E+00 -0.10519967820E+04  0.10519967821E+04  0.50400001928E-02 0. -1.
    10030    2    1    2    0    0  0.00000000000E+00  0.00000000000E+00  0.59889072354E+03  0.27028842876E+04  0.26356997882E+04 0.  0.
        5    1    3    3  502    0  0.10631904032E+04 -0.31657464696E+03  0.10289956292E+04  0.15130920115E+04  0.46999998093E+01 0.  1.
       -5    1    3    3    0  502 -0.10631904032E+04  0.31657464696E+03 -0.43010490562E+03  0.11897922761E+04  0.46999998093E+01 0. -1.
</event>
<event>
 5   0  0.3600963E-06  0.2824718E+04  0.7818609E-02  0.8295635E-01
        1   -1    0    0  501    0  0.00000000000E+00  0.00000000000E+00  0.17781839446E+04  0.17781839446E+04  0.50400001928E-02 0.  1.
       -1   -1    0    0    0  501  0.00000000000E+00  0.00000000000E+00 -0.11217949032E+04  0.11217949033E+04  0.50400001928E-02 0. -1.
    10030    2    1    2    0    0  0.00000000000E+00  0.00000000000E+00  0.65638904134E+03  0.28999788479E+04  0.28247178168E+04 0.  0.
        5    1    3    3  502    0 -0.95848324154E+03 -0.66620717243E+03  0.11444979765E+04  0.16347537519E+04  0.46999998093E+01 0.  1.
       -5    1    3    3    0  502  0.95848324154E+03  0.66620717243E+03 -0.48810893520E+03  0.12652250960E+04  0.46999998093E+01 0. -1.
</event>
<event>
 5   0  0.9252359E-06  0.2777284E+04  0.7818609E-02  0.8310356E-01
        2   -1    0    0  501    0  0.00000000000E+00  0.00000000000E+00  0.10842212224E+04  0.10842212224E+04  0.25500000920E-02 0. -1.
       -2   -1    0    0    0  501  0.00000000000E+00  0.00000000000E+00 -0.17785358619E+04  0.17785358619E+04  0.25500000920E-02 0.  1.
    10030    2    1    2    0    0  0.00000000000E+00  0.00000000000E+00 -0.69431463942E+03  0.28627570843E+04  0.27772837999E+04 0.  0.
        5    1    3    3  502    0  0.32566615547E+03  0.10120986577E+04  0.57358698428E+03  0.12080671571E+04  0.46999998093E+01 0. -1.
       -5    1    3    3    0  502 -0.32566615547E+03 -0.10120986577E+04 -0.12679016237E+04  0.16546899272E+04  0.46999998093E+01 0.  1.
</event>
<event>
 5   0  0.3600963E-06  0.2780865E+04  0.7818609E-02  0.8309234E-01
       -1   -1    0    0    0  501  0.00000000000E+00  0.00000000000E+00  0.13330397633E+04  0.13330397633E+04  0.50400001928E-02 0.  1.
        1   -1    0    0  501    0  0.00000000000E+00  0.00000000000E+00 -0.14502963600E+04  0.14502963600E+04  0.50400001928E-02 0. -1.
    10030    2    1    2    0    0  0.00000000000E+00  0.00000000000E+00 -0.11725659672E+03  0.27833361233E+04  0.27808651290E+04 0.  0.
        5    1    3    3  502    0 -0.13691891441E+04  0.18639243052E+03  0.95974406807E+02  0.13851549471E+04  0.46999998093E+01 0. -1.
       -5    1    3    3    0  502  0.13691891441E+04 -0.18639243052E+03 -0.21323100353E+03  0.13981811762E+04  0.46999998093E+01 0.  1.
</event>
<event>
 5   0  0.3600963E-06  0.2846523E+04  0.7818609E-02  0.8288969E-01
       -1   -1    0    0    0  501  0.00000000000E+00  0.00000000000E+00  0.15537966205E+04  0.15537966205E+04  0.50400001928E-02 0.  1.
        1   -1    0    0  501    0  0.00000000000E+00  0.00000000000E+00 -0.13036926344E+04  0.13036926344E+04  0.50400001928E-02 0. -1.
    10030    2    1    2    0    0  0.00000000000E+00  0.00000000000E+00  0.25010398606E+03  0.28574892549E+04  0.28465229382E+04 0.  0.
        5    1    3    3  502    0 -0.57265731597E+03  0.84869541739E+03  0.11175118046E+04  0.15156104501E+04  0.46999998093E+01 0.  1.
       -5    1    3    3    0  502  0.57265731597E+03 -0.84869541739E+03 -0.86740781853E+03  0.13418788048E+04  0.46999998093E+01 0. -1.
</event>
<event>
 5   0  0.9065579E-06  0.2762914E+04  0.7818609E-02  0.8314875E-01
        2   -1    0    0  501    0  0.00000000000E+00  0.00000000000E+00  0.15648832329E+04  0.15648832329E+04  0.25500000920E-02 0. -1.
       -2   -1    0    0    0  501  0.00000000000E+00  0.00000000000E+00 -0.12195312030E+04  0.12195312030E+04  0.25500000920E-02 0.  1.
    10030    2    1    2    0    0  0.00000000000E+00  0.00000000000E+00  0.34535202987E+03  0.27844144360E+04  0.27629143538E+04 0.  0.
        3    1    3    3  502    0 -0.67519461044E+03 -0.39369151323E+03  0.13206376100E+04  0.15345893512E+04  0.10100000352E+00 0. -1.
       -3    1    3    3    0  502  0.67519461044E+03  0.39369151323E+03 -0.97528558013E+03  0.12498250848E+04  0.10100000352E+00 0.  1.
</event>
<event>
 5   0  0.9260173E-06  0.2795855E+04  0.7818609E-02  0.8304556E-01
       -2   -1    0    0    0  501  0.00000000000E+00  0.00000000000E+00  0.13983936757E+04  0.13983936757E+04  0.25500000920E-02 0.  1.
        2   -1    0    0  501    0  0.00000000000E+00  0.00000000000E+00 -0.13974614329E+04  0.13974614329E+04  0.25500000920E-02 0. -1.
    10030    2    1    2    0    0  0.00000000000E+00  0.00000000000E+00  0.93224282556E+00  0.27958551086E+04  0.27958549532E+04 0.  0.
        1    1    3    3  502    0 -0.11562617918E+04  0.28790254747E+03  0.73147370095E+03  0.13981712996E+04  0.50400001928E-02 0.  1.
       -1    1    3    3    0  502  0.11562617918E+04 -0.28790254747E+03 -0.73054145813E+03  0.13976838090E+04  0.50400001928E-02 0. -1.
</event>
<event>
 5   0  0.9426937E-06  0.2849057E+04  0.7818609E-02  0.8288198E-01
       -2   -1    0    0    0  501  0.00000000000E+00  0.00000000000E+00  0.81019940220E+03  0.81019940221E+03  0.25500000920E-02 0. -1.
        2   -1    0    0  501    0  0.00000000000E+00  0.00000000000E+00 -0.25046692780E+04  0.25046692780E+04  0.25500000920E-02 0.  1.
    10030    2    1    2    0    0  0.00000000000E+00  0.00000000000E+00 -0.16944698758E+04  0.33148686802E+04  0.28490570733E+04 0.  0.
        4    1    3    3  502    0 -0.53293875733E+03 -0.38038264389E+03  0.62474493867E+03  0.90499863322E+03  0.12699999809E+01 0. -1.
       -4    1    3    3    0  502  0.53293875733E+03  0.38038264389E+03 -0.23192148145E+04  0.24098700470E+04  0.12699999809E+01 0.  1.
</event>
<event>
 5   0  0.3397882E-06  0.2817296E+04  0.7818609E-02  0.8297919E-01
       -1   -1    0    0    0  501  0.00000000000E+00  0.00000000000E+00  0.11321534777E+04  0.11321534777E+04  0.50400001928E-02 0. -1.
        1   -1    0    0  501    0  0.00000000000E+00  0.00000000000E+00 -0.17526680681E+04  0.17526680681E+04  0.50400001928E-02 0.  1.
    10030    2    1    2    0    0  0.00000000000E+00  0.00000000000E+00 -0.62051459040E+03  0.28848215458E+04  0.28172960430E+04 0.  0.
        2    1    3    3  502    0 -0.38080675338E+03  0.11943643606E+04  0.34761277724E+03  0.13009053203E+04  0.25500000920E-02 0. -1.
       -2    1    3    3    0  502  0.38080675338E+03 -0.11943643606E+04 -0.96812736763E+03  0.15839162255E+04  0.25500000920E-02 0.  1.
</event>
<event>
 5   0  0.3006875E-06  0.2839000E+04  0.7818609E-02  0.8291262E-01
        4   -1    0    0  501    0  0.00000000000E+00  0.00000000000E+00  0.11919019714E+04  0.11919026480E+04  0.12699999809E+01 0. -1.
       -4   -1    0    0    0  501  0.00000000000E+00  0.00000000000E+00 -0.16905568547E+04  0.16905573317E+04  0.12699999809E+01 0.  1.
    10030    2    1    2    0    0  0.00000000000E+00  0.00000000000E+00 -0.49865488327E+03  0.28824599797E+04  0.28389996200E+04 0.  0.
        5    1    3    3  502    0  0.15360508476E+03 -0.42842420910E+03 -0.16144606773E+04  0.16773929753E+04  0.46999998093E+01 0.  1.
       -5    1    3    3    0  502 -0.15360508476E+03  0.42842420910E+03  0.11158057941E+04  0.12050670044E+04  0.46999998093E+01 0. -1.
</event>
<event>
 5   0  0.3357244E-06  0.2726393E+04  0.7818609E-02  0.8326492E-01
        1   -1    0    0  501    0  0.00000000000E+00  0.00000000000E+00  0.22641261600E+04  0.22641261600E+04  0.50400001928E-02 0. -1.
       -1   -1    0    0    0  501  0.00000000000E+00  0.00000000000E+00 -0.82076004431E+03  0.82076004433E+03  0.50400001928E-02 0.  1.
    10030    2    1    2    0    0  0.00000000000E+00  0.00000000000E+00  0.14433661157E+04  0.30848862043E+04  0.27263926991E+04 0.  0.
        4    1    3    3  502    0 -0.20959191630E+03 -0.12793188973E+04  0.24468643862E+03  0.13192644460E+04  0.12699999809E+01 0.  1.
       -4    1    3    3    0  502  0.20959191630E+03  0.12793188973E+04  0.11986796771E+04  0.17656217583E+04  0.12699999809E+01 0. -1.
</event>
<event>
 5   0  0.9260173E-06  0.2880274E+04  0.7818609E-02  0.8278771E-01
       -2   -1    0    0    0  501  0.00000000000E+00  0.00000000000E+00  0.10071765886E+04  0.10071765886E+04  0.25500000920E-02 0. -1.
        2   -1    0    0  501    0  0.00000000000E+00  0.00000000000E+00 -0.20592169155E+04  0.20592169155E+04  0.25500000920E-02 0.  1.
    10030    2    1    2    0    0  0.00000000000E+00  0.00000000000E+00 -0.10520403269E+04  0.30663935041E+04  0.28802743398E+04 0.  0.
        1    1    3    3  502    0 -0.21906145787E+03  0.80772262879E+03  0.72171609830E+03  0.11051144257E+04  0.50400001928E-02 0. -1.
       -1    1    3    3    0  502  0.21906145787E+03 -0.80772262879E+03 -0.17737564252E+04  0.19612790784E+04  0.50400001928E-02 0.  1.
</event>
<event>
 5   0  0.3397882E-06  0.2743230E+04  0.7818609E-02  0.8321113E-01
        1   -1    0    0  501    0  0.00000000000E+00  0.00000000000E+00  0.26046226113E+04  0.26046226113E+04  0.50400001928E-02 0.  1.
       -1   -1    0    0    0  501  0.00000000000E+00  0.00000000000E+00 -0.72230349842E+03  0.72230349844E+03  0.50400001928E-02 0. -1.
    10030    2    1    2    0    0  0.00000000000E+00  0.00000000000E+00  0.18823191128E+04  0.33269261097E+04  0.27432302304E+04 0.  0.
        2    1    3    3  502    0  0.47879643396E+03 -0.11244238384E+04  0.18596561376E+03  0.12361869612E+04  0.25500000920E-02 0. -1.
       -2    1    3    3    0  502 -0.47879643396E+03  0.11244238384E+04  0.16963534991E+04  0.20907391486E+04  0.25500000920E-02 0.  1.
</event>
<event>
 5   0  0.9342133E-06  0.2720121E+04  0.7818609E-02  0.8328506E-01
        2   -1    0    0  501    0  0.00000000000E+00  0.00000000000E+00  0.25835759841E+04  0.25835759841E+04  0.25500000920E-02 0. -1.
       -2   -1    0    0    0  501  0.00000000000E+00  0.00000000000E+00 -0.71597058562E+03  0.71597058563E+03  0.25500000920E-02 0.  1.
    10030    2    1    2    0    0  0.00000000000E+00  0.00000000000E+00  0.18676053985E+04  0.32995465698E+04  0.27201208873E+04 0.  0.
        2    1    3    3  502    0 -0.11437411780E+04 -0.89307468430E+02  0.18199219242E+04  0.21513334275E+04  0.25500000920E-02 0. -1.
       -2    1    3    3    0  502  0.11437411780E+04  0.89307468430E+02  0.47683474321E+02  0.11482131422E+04  0.25500000920E-02 0.  1.
</event>
<event>
 5   0  0.3371603E-06  0.2785967E+04  0.7818609E-02  0.8307638E-01
       -1   -1    0    0    0  501  0.00000000000E+00  0.00000000000E+00  0.17383886670E+04  0.17383886670E+04  0.50400001928E-02 0. -1.
        1   -1    0    0  501    0  0.00000000000E+00  0.00000000000E+00 -0.11162081734E+04  0.11162081734E+04  0.50400001928E-02 0.  1.
    10030    2    1    2    0    0  0.00000000000E+00  0.00000000000E+00  0.62218049358E+03  0.28545968405E+04  0.27859674361E+04 0.  0.
        1    1    3    3  502    0  0.10602862602E+04 -0.86904669811E+03  0.56406181259E+03  0.14824354439E+04  0.50400001928E-02 0. -1.
       -1    1    3    3    0  502 -0.10602862602E+04  0.86904669811E+03  0.58118680987E+02  0.13721613965E+04  0.50400001928E-02 0.  1.
</event>
<event>
 5   0  0.3357244E-06  0.2781151E+04  0.7818609E-02  0.8309144E-01
       -1   -1    0    0    0  501  0.00000000000E+00  0.00000000000E+00  0.12538348478E+04  0.12538348478E+04  0.50400001928E-02 0. -1.
        1   -1    0    0  501    0  0.00000000000E+00  0.00000000000E+00 -0.15422286706E+04  0.15422286707E+04  0.50400001928E-02 0.  1.
    10030    2    1    2    0    0  0.00000000000E+00  0.00000000000E+00 -0.28839382289E+03  0.27960635184E+04  0.27811508772E+04 0.  0.
        4    1    3    3  502    0 -0.76396141749E+03 -0.27377948035E+03 -0.12794577569E+04  0.15151257426E+04  0.12699999809E+01 0.  1.
       -4    1    3    3    0  502  0.76396141749E+03  0.27377948035E+03  0.99106393403E+03  0.12809377758E+04  0.12699999809E+01 0. -1.
</event>
<event>
 5   0  0.9342133E-06  0.2741435E+04  0.7818609E-02  0.8321685E-01
       -2   -1    0    0    0  501  0.00000000000E+00  0.00000000000E+00  0.14199357423E+04  0.14199357423E+04  0.25500000920E-02 0. -1.
        2   -1    0    0  501    0  0.00000000000E+00  0.00000000000E+00 -0.13232052809E+04  0.13232052809E+04  0.25500000920E-02 0.  1.
    10030    2    1    2    0    0  0.00000000000E+00  0.00000000000E+00  0.96730461399E+02  0.27431410232E+04  0.27414350058E+04 0.  0.
        2    1    3    3  502    0  0.10569692525E+04  0.79608040952E+03  0.40627267318E+03  0.13841912816E+04  0.25500000920E-02 0.  1.
       -2    1    3    3    0  502 -0.10569692525E+04 -0.79608040952E+03 -0.30954221178E+03  0.13589497416E+04  0.25500000920E-02 0. -1.
</event>
<event>
 5   0  0.9252359E-06  0.2778217E+04  0.7818609E-02  0.8310063E-01
        2   -1    0    0  501    0  0.00000000000E+00  0.00000000000E+00  0.18892406525E+04  0.18892406525E+04  0.25500000920E-02 0. -1.
       -2   -1    0    0    0  501  0.00000000000E+00  0.00000000000E+00 -0.10213742897E+04  0.10213742897E+04  0.25500000920E-02 0.  1.
    10030    2    1    2    0    0  0.00000000000E+00  0.00000000000E+00  0.86786636285E+03  0.29106149422E+04  0.27782165715E+04 0.  0.
        5    1    3    3  502    0 -0.67701719782E+03  0.99858956071E+03  0.11552701966E+04  0.16703905873E+04  0.46999998093E+01 0. -1.
       -5    1    3    3    0  502  0.67701719782E+03 -0.99858956071E+03 -0.28740383378E+03  0.12402243549E+04  0.46999998093E+01 0.  1.
</event>
<event>
 5   0  0.3371603E-06  0.2810036E+04  0.7818609E-02  0.8300159E-01
        1   -1    0    0  501    0  0.00000000000E+00  0.00000000000E+00  0.13605976337E+04  0.13605976337E+04  0.50400001928E-02 0. -1.
       -1   -1    0    0    0  501  0.00000000000E+00  0.00000000000E+00 -0.14508881115E+04  0.14508881115E+04  0.50400001928E-02 0.  1.
    10030    2    1    2    0    0  0.00000000000E+00  0.00000000000E+00 -0.90290477818E+02  0.28114857452E+04  0.28100355381E+04 0.  0.
        1    1    3    3  502    0  0.53291277621E+03 -0.46838252946E+03  0.11682034746E+04  0.13667763456E+04  0.50400001928E-02 0. -1.
       -1    1    3    3    0  502 -0.53291277621E+03  0.46838252946E+03 -0.12584939524E+04  0.14447093996E+04  0.50400001928E-02 0.  1.
</event>
<event>
 5   0  0.3397882E-06  0.2823197E+04  0.7818609E-02  0.8296103E-01
        1   -1    0    0  501    0  0.00000000000E+00  0.00000000000E+00  0.17768941929E+04  0.17768941929E+04  0.50400001928E-02 0.  1.
       -1   -1    0    0    0  501  0.00000000000E+00  0.00000000000E+00 -0.11214007450E+04  0.11214007450E+04  0.50400001928E-02 0. -1.
    10030    2    1    2    0    0  0.00000000000E+00  0.00000000000E+00  0.65549344785E+03  0.28982949379E+04  0.28231971038E+04 0.  0.
        2    1    3    3  502    0 -0.70851813886E+03 -0.11754889175E+04  0.66642886762E+03  0.15257455830E+04  0.25500000920E-02 0. -1.
       -2    1    3    3    0  502  0.70851813886E+03  0.11754889175E+04 -0.10935419774E+02  0.13725493549E+04  0.25500000920E-02 0.  1.
</event>
<event>
 5   0  0.9426937E-06  0.2912597E+04  0.7818609E-02  0.8269139E-01
        2   -1    0    0  501    0  0.00000000000E+00  0.00000000000E+00  0.20301308683E+04  0.20301308683E+04  0.25500000920E-02 0.  1.
       -2   -1    0    0    0  501  0.00000000000E+00  0.00000000000E+00 -0.10446643622E+04  0.10446643622E+04  0.25500000920E-02 0. -1.
    10030    2    1    2    0    0  0.00000000000E+00  0.00000000000E+00  0.98546650606E+03  0.30747952305E+04  0.29125970327E+04 0.  0.
        4    1    3    3  502    0  0.57165791205E+03  0.11357583351E+04  0.12422453268E+04  0.17776149270E+04  0.12699999809E+01 0.  1.
       -4    1    3    3    0  502 -0.57165791205E+03 -0.11357583351E+04 -0.25677882069E+03  0.12971803035E+04  0.12699999809E+01 0. -1.
</event>
<event>
 5   0  0.3006875E-06  0.2619080E+04  0.7818609E-02  0.8361749E-01
        3   -1    0    0  501    0  0.00000000000E+00  0.00000000000E+00  0.15593145115E+04  0.15593145148E+04  0.10100000352E+00 0. -1.
       -3   -1    0    0    0  501  0.00000000000E+00  0.00000000000E+00 -0.10997746630E+04  0.10997746677E+04  0.10100000352E+00 0.  1.
    10030    2    1    2    0    0  0.00000000000E+00  0.00000000000E+00  0.45953984844E+03  0.26590891824E+04  0.26190796872E+04 0.  0.
        1    1    3    3  502    0  0.62807041319E+02  0.24770026228E+03 -0.10742156453E+04  0.11041917392E+04  0.50400001928E-02 0.  1.
       -1    1    3    3    0  502 -0.62807041319E+02 -0.24770026228E+03  0.15337554937E+04  0.15548974432E+04  0.50400001928E-02 0. -1.
</event>
<event>
 5   0  0.9426937E-06  0.2776307E+04  0.7818609E-02  0.8310662E-01
        2   -1    0    0  501    0  0.00000000000E+00  0.00000000000E+00  0.16269346639E+04  0.16269346639E+04  0.25500000920E-02 0. -1.
       -2   -1    0    0    0  501  0.00000000000E+00  0.00000000000E+00 -0.11844180495E+04  0.11844180495E+04  0.25500000920E-02 0.  1.
    10030    2    1    2    0    0  0.00000000000E+00  0.00000000000E+00  0.44251661435E+03  0.28113527134E+04  0.27763074623E+04 0.  0.
        4    1    3    3  502    0  0.22054340614E+03  0.14968386768E+03  0.16007780794E+04  0.16228175273E+04  0.12699999809E+01 0. -1.
       -4    1    3    3    0  502 -0.22054340614E+03 -0.14968386768E+03 -0.11582614651E+04  0.11885351861E+04  0.12699999809E+01 0.  1.
</event>
<event>
 5   0  0.9426937E-06  0.2795085E+04  0.7818609E-02  0.8304796E-01
        2   -1    0    0  501    0  0.00000000000E+00  0.00000000000E+00  0.29569121846E+04  0.29569121846E+04  0.25500000920E-02 0.  1.
       -2   -1    0    0    0  501  0.00000000000E+00  0.00000000000E+00 -0.66052845108E+03  0.66052845108E+03  0.25500000920E-02 0. -1.
    10030    2    1    2    0    0  0.00000000000E+00  0.00000000000E+00  0.22963837335E+04  0.36174406356E+04  0.27950847037E+04 0.  0.
        4    1    3    3  502    0 -0.12719211368E+04 -0.24029475349E+03  0.46630134007E+03  0.13758501007E+04  0.12699999809E+01 0. -1.
       -4    1    3    3    0  502  0.12719211368E+04  0.24029475349E+03  0.18300823934E+04  0.22415905350E+04  0.12699999809E+01 0.  1.
</event>
<event>
 5   0  0.9252359E-06  0.2838974E+04  0.7818609E-02  0.8291270E-01
        2   -1    0    0  501    0  0.00000000000E+00  0.00000000000E+00  0.24991578958E+04  0.24991578958E+04  0.25500000920E-02 0. -1.
       -2   -1    0    0    0  501  0.00000000000E+00  0.00000000000E+00 -0.80624881374E+03  0.80624881375E+03  0.25500000920E-02 0.  1.
    10030    2    1    2    0    0  0.00000000000E+00  0.00000000000E+00  0.16929090821E+04  0.33054067095E+04  0.28389738208E+04 0.  0.
        5    1    3    3  502    0 -0.17210848006E+02 -0.11896929068E+04 -0.54845845646E+02  0.11910900816E+04  0.46999998093E+01 0.  1.
       -5    1    3    3    0  502  0.17210848006E+02  0.11896929068E+04  0.17477549277E+04  0.21143166279E+04  0.46999998093E+01 0. -1.
</event>
<event>
 5   0  0.3397882E-06  0.2796652E+04  0.7818609E-02  0.8304309E-01
        1   -1    0    0  501    0  0.00000000000E+00  0.00000000000E+00  0.21512730904E+04  0.21512730904E+04  0.50400001928E-02 0.  1.
       -1   -1    0    0    0  501  0.00000000000E+00  0.00000000000E+00 -0.90891075908E+03  0.90891075909E+03  0.50400001928E-02 0. -1.
    10030    2    1    2    0    0  0.00000000000E+00  0.00000000000E+00  0.12423623314E+04  0.30601838495E+04  0.27966517535E+04 0.  0.
        2    1    3    3  502    0 -0.69808873347E+03 -0.12114993064E+04  0.63871648896E+03  0.15372108517E+04  0.25500000920E-02 0.  1.
       -2    1    3    3    0  502  0.69808873347E+03  0.12114993064E+04  0.60364584240E+03  0.15229729979E+04  0.25500000920E-02 0. -1.
</event>
<event>
 5   0  0.3371603E-06  0.2711791E+04  0.7818609E-02  0.8331189E-01
        1   -1    0    0  501    0  0.00000000000E+00  0.00000000000E+00  0.14513436653E+04  0.14513436653E+04  0.50400001928E-02 0.  1.
       -1   -1    0    0    0  501  0.00000000000E+00  0.00000000000E+00 -0.12667243866E+04  0.12667243866E+04  0.50400001928E-02 0. -1.
    10030    2    1    2    0    0  0.00000000000E+00  0.00000000000E+00  0.18461927867E+03  0.27180680519E+04  0.27117908578E+04 0.  0.
        1    1    3    3  502    0 -0.77735006166E+03  0.10435443602E+04  0.47423558500E+03  0.13849755738E+04  0.50400001928E-02 0.  1.
       -1    1    3    3    0  502  0.77735006166E+03 -0.10435443602E+04 -0.28961630633E+03  0.13330924780E+04  0.50400001928E-02 0. -1.
</event>
<event>
 5   0  0.3006875E-06  0.2821098E+04  0.7818609E-02  0.8296748E-01
        3   -1    0    0  501    0  0.00000000000E+00  0.00000000000E+00  0.18292749346E+04  0.18292749373E+04  0.10100000352E+00 0. -1.
       -3   -1    0    0    0  501  0.00000000000E+00  0.00000000000E+00 -0.10876705508E+04  0.10876705555E+04  0.10100000352E+00 0.  1.
    10030    2    1    2    0    0  0.00000000000E+00  0.00000000000E+00  0.74160438379E+03  0.29169454928E+04  0.28210980036E+04 0.  0.
        2    1    3    3  502    0  0.73869743376E+02  0.69623778550E+03 -0.89531925678E+03  0.11365739591E+04  0.25500000920E-02 0.  1.
       -2    1    3    3    0  502 -0.73869743376E+02 -0.69623778550E+03  0.16369236406E+04  0.17803715337E+04  0.25500000920E-02 0. -1.
</event>
<event>
 5   0  0.9260173E-06  0.2816262E+04  0.7818609E-02  0.8298238E-01
        2   -1    0    0  501    0  0.00000000000E+00  0.00000000000E+00  0.10449557035E+04  0.10449557035E+04  0.25500000920E-02 0.  1.
       -2   -1    0    0    0  501  0.00000000000E+00  0.00000000000E+00 -0.18975276019E+04  0.18975276019E+04  0.25500000920E-02 0. -1.
    10030    2    1    2    0    0  0.00000000000E+00  0.00000000000E+00 -0.85257189836E+03  0.29424833054E+04  0.28162615575E+04 0.  0.
        1    1    3    3  502    0  0.11823848796E+02 -0.40313638043E+03 -0.18358909100E+04  0.18796686351E+04  0.50400001928E-02 0. -1.
       -1    1    3    3    0  502 -0.11823848796E+02  0.40313638043E+03  0.98331901160E+03  0.10628146702E+04  0.50400001928E-02 0.  1.
</event>
<event>
 5   0  0.3397882E-06  0.2248451E+04  0.7818609E-02  0.8498528E-01
       -1   -1    0    0    0  501  0.00000000000E+00  0.00000000000E+00  0.19283588567E+04  0.19283588567E+04  0.50400001928E-02 0. -1.
        1   -1    0    0  501    0  0.00000000000E+00  0.00000000000E+00 -0.65541902127E+03  0.65541902129E+03  0.50400001928E-02 0.  1.
    10030    2    1    2    0    0  0.00000000000E+00  0.00000000000E+00  0.12729398354E+04  0.25837778780E+04  0.22484510887E+04 0.  0.
        2    1    3    3  502    0  0.30808919995E+03  0.13158204213E+03 -0.59672589296E+03  0.68433513739E+03  0.25500000920E-02 0.  1.
       -2    1    3    3    0  502 -0.30808919995E+03 -0.13158204213E+03  0.18696657283E+04  0.18994427406E+04  0.25500000920E-02 0. -1.
</event>
<event>
 5   0  0.9426937E-06  0.2800850E+04  0.7818609E-02  0.8303005E-01
       -2   -1    0    0    0  501  0.00000000000E+00  0.00000000000E+00  0.10107763074E+04  0.10107763074E+04  0.25500000920E-02 0. -1.
        2   -1    0    0  501    0  0.00000000000E+00  0.00000000000E+00 -0.19402811367E+04  0.19402811367E+04  0.25500000920E-02 0.  1.
    10030    2    1    2    0    0  0.00000000000E+00  0.00000000000E+00 -0.92950482923E+03  0.29510574441E+04  0.28008500158E+04 0.  0.
        4    1    3    3  502    0  0.13219650330E+04  0.46214711404E+03 -0.46039717710E+03  0.14741569377E+04  0.12699999809E+01 0.  1.
       -4    1    3    3    0  502 -0.13219650330E+04 -0.46214711404E+03 -0.46910765213E+03  0.14769005064E+04  0.12699999809E+01 0. -1.
</event>
<event>
 5   0  0.3600963E-06  0.2785356E+04  0.7818609E-02  0.8307829E-01
        1   -1    0    0  501    0  0.00000000000E+00  0.00000000000E+00  0.23062484418E+04  0.23062484418E+04  0.50400001928E-02 0. -1.
       -1   -1    0    0    0  501  0.00000000000E+00  0.00000000000E+00 -0.84099852727E+03  0.84099852729E+03  0.50400001928E-02 0.  1.
    10030    2    1    2    0    0  0.00000000000E+00  0.00000000000E+00  0.14652499146E+04  0.31472469691E+04  0.27853556636E+04 0.  0.
        5    1    3    3  502    0 -0.11354916963E+04  0.24492302484E+03  0.16006855729E+04  0.19777626434E+04  0.46999998093E+01 0. -1.
       -5    1    3    3    0  502  0.11354916963E+04 -0.24492302484E+03 -0.13543565835E+03  0.11694843257E+04  0.46999998093E+01 0.  1.
</event>
<event>
 5   0  0.3438130E-06  0.2787969E+04  0.7818609E-02  0.8307013E-01
        1   -1    0    0  501    0  0.00000000000E+00  0.00000000000E+00  0.19782773582E+04  0.19782773582E+04  0.50400001928E-02 0.  1.
       -1   -1    0    0    0  501  0.00000000000E+00  0.00000000000E+00 -0.98226504678E+03  0.98226504679E+03  0.50400001928E-02 0. -1.
    10030    2    1    2    0    0  0.00000000000E+00  0.00000000000E+00  0.99601231147E+03  0.29605424050E+04  0.27879689395E+04 0.  0.
        3    1    3    3  502    0  0.89419366296E+03  0.53384756768E+03  0.14819790541E+04  0.18113082176E+04  0.10100000352E+00 0. -1.
       -3    1    3    3    0  502 -0.89419366296E+03 -0.53384756768E+03 -0.48596674259E+03  0.11492341874E+04  0.10100000352E+00 0.  1.
</event>
<event>
 5   0  0.3397882E-06  0.2818094E+04  0.7818609E-02  0.8297673E-01
        1   -1    0    0  501    0  0.00000000000E+00  0.00000000000E+00  0.12313131796E+04  0.12313131796E+04  0.50400001928E-02 0. -1.
       -1   -1    0    0    0  501  0.00000000000E+00  0.00000000000E+00 -0.16124357494E+04  0.16124357494E+04  0.50400001928E-02 0.  1.
    10030    2    1    2    0    0  0.00000000000E+00  0.00000000000E+00 -0.38112256985E+03  0.28437489290E+04  0.28180939584E+04 0.  0.
        2    1    3    3  502    0  0.62163624481E+02 -0.11167464974E+04 -0.10553497773E+04  0.15377744335E+04  0.25500000920E-02 0.  1.
       -2    1    3    3    0  502 -0.62163624481E+02  0.11167464974E+04  0.67422720747E+03  0.13059744956E+04  0.25500000920E-02 0. -1.
</event>
<event>
 5   0  0.3397882E-06  0.2814441E+04  0.7818609E-02  0.8298799E-01
       -1   -1    0    0    0  501  0.00000000000E+00  0.00000000000E+00  0.10070009101E+04  0.10070009101E+04  0.50400001928E-02 0. -1.
        1   -1    0    0  501    0  0.00000000000E+00  0.00000000000E+00 -0.19665016761E+04  0.19665016761E+04  0.50400001928E-02 0.  1.
    10030    2    1    2    0    0  0.00000000000E+00  0.00000000000E+00 -0.95950076607E+03  0.29735025862E+04  0.28144406034E+04 0.  0.
        2    1    3    3  502    0  0.82008611029E+03  0.72054180880E+03  0.45843809266E+03  0.11840131804E+04  0.25500000920E-02 0. -1.
       -2    1    3    3    0  502 -0.82008611029E+03 -0.72054180880E+03 -0.14179388587E+04  0.17894894058E+04  0.25500000920E-02 0.  1.
</event>
<event>
 5   0  0.3600963E-06  0.2767016E+04  0.7818609E-02  0.8313582E-01
        1   -1    0    0  501    0  0.00000000000E+00  0.00000000000E+00  0.10185030939E+04  0.10185030939E+04  0.50400001928E-02 0. -1.
       -1   -1    0    0    0  501  0.00000000000E+00  0.00000000000E+00 -0.18793212035E+04  0.18793212035E+04  0.50400001928E-02 0.  1.
    10030    2    1    2    0    0  0.00000000000E+00  0.00000000000E+00 -0.86081810954E+03  0.28978242974E+04  0.27670160536E+04 0.  0.
        5    1    3    3  502    0 -0.12555613709E+04 -0.57951990873E+03 -0.38604256789E+03  0.14357327867E+04  0.46999998093E+01 0.  1.
       -5    1    3    3    0  502  0.12555613709E+04  0.57951990873E+03 -0.47477554164E+03  0.14620915107E+04  0.46999998093E+01 0. -1.
</event>
<event>
 5   0  0.9260173E-06  0.2801074E+04  0.7818609E-02  0.8302935E-01
        2   -1    0    0  501    0  0.00000000000E+00  0.00000000000E+00  0.13165833102E+04  0.13165833102E+04  0.25500000920E-02 0.  1.
       -2   -1    0    0    0  501  0.00000000000E+00  0.00000000000E+00 -0.14898445367E+04  0.14898445367E+04  0.25500000920E-02 0. -1.
    10030    2    1    2    0    0  0.00000000000E+00  0.00000000000E+00 -0.17326122645E+03  0.28064278469E+04  0.28010744023E+04 0.  0.
        1    1    3    3  502    0 -0.12842722750E+03 -0.28234757008E+03  0.12817361107E+04  0.13187346816E+04  0.50400001928E-02 0.  1.
       -1    1    3    3    0  502  0.12842722750E+03  0.28234757008E+03 -0.14549973371E+04  0.14876931653E+04  0.50400001928E-02 0. -1.
</event>
<event>
 5   0  0.3357244E-06  0.2805683E+04  0.7818609E-02  0.8301506E-01
       -1   -1    0    0    0  501  0.00000000000E+00  0.00000000000E+00  0.28376285792E+04  0.28376285792E+04  0.50400001928E-02 0. -1.
        1   -1    0    0  501    0  0.00000000000E+00  0.00000000000E+00 -0.69352408221E+03  0.69352408223E+03  0.50400001928E-02 0.  1.
    10030    2    1    2    0    0  0.00000000000E+00  0.00000000000E+00  0.21441044970E+04  0.35311526614E+04  0.28056826307E+04 0.  0.
        4    1    3    3  502    0 -0.24364223482E+03  0.18397851688E+03  0.27953087355E+04  0.28119321067E+04  0.12699999809E+01 0. -1.
       -4    1    3    3    0  502  0.24364223482E+03 -0.18397851688E+03 -0.65120423847E+03  0.71922055474E+03  0.12699999809E+01 0.  1.
</event>
<event>
 5   0  0.3371603E-06  0.2756970E+04  0.7818609E-02  0.8316753E-01
        1   -1    0    0  501    0  0.00000000000E+00  0.00000000000E+00  0.18805671090E+04  0.18805671090E+04  0.50400001928E-02 0.  1.
       -1   -1    0    0    0  501  0.00000000000E+00  0.00000000000E+00 -0.10104507351E+04  0.10104507351E+04  0.50400001928E-02 0. -1.
    10030    2    1    2    0    0  0.00000000000E+00  0.00000000000E+00  0.87011637394E+03  0.28910178441E+04  0.27569696536E+04 0.  0.
        1    1    3    3  502    0  0.67667901946E+03 -0.83831645233E+03 -0.46672676159E+03  0.11740966058E+04  0.50400001928E-02 0. -1.
       -1    1    3    3    0  502 -0.67667901946E+03  0.83831645233E+03  0.13368431355E+04  0.17169212383E+04  0.50400001928E-02 0.  1.
</event>
<event>
 5   0  0.9426937E-06  0.2841259E+04  0.7818609E-02  0.8290572E-01
       -2   -1    0    0    0  501  0.00000000000E+00  0.00000000000E+00  0.11324037935E+04  0.11324037935E+04  0.25500000920E-02 0. -1.
        2   -1    0    0  501    0  0.00000000000E+00  0.00000000000E+00 -0.17822155101E+04  0.17822155101E+04  0.25500000920E-02 0.  1.
    10030    2    1    2    0    0  0.00000000000E+00  0.00000000000E+00 -0.64981171657E+03  0.29146193037E+04  0.28412585976E+04 0.  0.
        4    1    3    3  502    0 -0.48419891755E+02 -0.32776113704E+03 -0.17420283378E+04  0.17732558167E+04  0.12699999809E+01 0.  1.
       -4    1    3    3    0  502  0.48419891755E+02  0.32776113704E+03  0.10922166212E+04  0.11413634870E+04  0.12699999809E+01 0. -1.
</event>
<event>
 5   0  0.3600963E-06  0.2435276E+04  0.7818609E-02  0.8426414E-01
        1   -1    0    0  501    0  0.00000000000E+00  0.00000000000E+00  0.20332965312E+04  0.20332965312E+04  0.50400001928E-02 0.  1.
       -1   -1    0    0    0  501  0.00000000000E+00  0.00000000000E+00 -0.72918155100E+03  0.72918155102E+03  0.50400001928E-02 0. -1.
    10030    2    1    2    0    0  0.00000000000E+00  0.00000000000E+00  0.13041149802E+04  0.27624780822E+04  0.24352760158E+04 0.  0.
        5    1    3    3  502    0  0.30508521199E+03  0.33219224480E+03  0.19350332205E+04  0.19869082336E+04  0.46999998093E+01 0.  1.
       -5    1    3    3    0  502 -0.30508521199E+03 -0.33219224480E+03 -0.63091824036E+03  0.77556984862E+03  0.46999998093E+01 0. -1.
</event>
<event>
 5   0  0.3006875E-06  0.2789774E+04  0.7818609E-02  0.8306450E-01
        3   -1    0    0  501    0  0.00000000000E+00  0.00000000000E+00  0.10202109158E+04  0.10202109208E+04  0.10100000352E+00 0.  1.
       -3   -1    0    0    0  501  0.00000000000E+00  0.00000000000E+00 -0.19071635162E+04  0.19071635189E+04  0.10100000352E+00 0. -1.
    10030    2    1    2    0    0  0.00000000000E+00  0.00000000000E+00 -0.88695260041E+03  0.29273744397E+04  0.27897735025E+04 0.  0.
        2    1    3    3  502    0 -0.14772893596E+03  0.10438996112E+04  0.51489478555E+03  0.11733144834E+04  0.25500000920E-02 0.  1.
       -2    1    3    3    0  502  0.14772893596E+03 -0.10438996112E+04 -0.14018473860E+04  0.17540599563E+04  0.25500000920E-02 0. -1.
</event>
<event>
 5   0  0.3357244E-06  0.2834984E+04  0.7818609E-02  0.8292489E-01
        1   -1    0    0  501    0  0.00000000000E+00  0.00000000000E+00  0.14882442796E+04  0.14882442797E+04  0.50400001928E-02 0.  1.
       -1   -1    0    0    0  501  0.00000000000E+00  0.00000000000E+00 -0.13501034119E+04  0.13501034119E+04  0.50400001928E-02 0. -1.
    10030    2    1    2    0    0  0.00000000000E+00  0.00000000000E+00  0.13814086779E+03  0.28383476915E+04  0.28349840773E+04 0.  0.
        4    1    3    3  502    0 -0.10314202576E+04 -0.92233969778E+03  0.37724044390E+03  0.14341723157E+04  0.12699999809E+01 0.  1.
       -4    1    3    3    0  502  0.10314202576E+04  0.92233969778E+03 -0.23909957611E+03  0.14041753758E+04  0.12699999809E+01 0. -1.
</event>
<event>
 5   0  0.9260173E-06  0.2808018E+04  0.7818609E-02  0.8300783E-01
       -2   -1    0    0    0  501  0.00000000000E+00  0.00000000000E+00  0.12984798700E+04  0.12984798700E+04  0.25500000920E-02 0. -1.
        2   -1    0    0  501    0  0.00000000000E+00  0.00000000000E+00 -0.15181144584E+04  0.15181144584E+04  0.25500000920E-02 0.  1.
    10030    2    1    2    0    0  0.00000000000E+00  0.00000000000E+00 -0.21963458838E+03  0.28165943285E+04  0.28080178523E+04 0.  0.
        1    1    3    3  502    0 -0.85528057660E+03 -0.42828688799E+03  0.92108954442E+03  0.13279083071E+04  0.50400001928E-02 0. -1.
       -1    1    3    3    0  502  0.85528057660E+03  0.42828688799E+03 -0.11407241328E+04  0.14886860214E+04  0.50400001928E-02 0.  1.
</event>
<event>
 5   0  0.3357244E-06  0.2593134E+04  0.7818609E-02  0.8370537E-01
        1   -1    0    0  501    0  0.00000000000E+00  0.00000000000E+00  0.16764187736E+04  0.16764187736E+04  0.50400001928E-02 0.  1.
       -1   -1    0    0    0  501  0.00000000000E+00  0.00000000000E+00 -0.10027839979E+04  0.10027839979E+04  0.50400001928E-02 0. -1.
    10030    2    1    2    0    0  0.00000000000E+00  0.00000000000E+00  0.67363477563E+03  0.26792027715E+04  0.25931339495E+04 0.  0.
        4    1    3    3  502    0  0.25488155658E+03  0.11088488398E+03  0.16452730760E+04  0.16685877780E+04  0.12699999809E+01 0.  1.
       -4    1    3    3    0  502 -0.25488155658E+03 -0.11088488398E+03 -0.97163830039E+03  0.10106149935E+04  0.12699999809E+01 0. -1.
</event>
<event>
 5   0  0.9260173E-06  0.2838795E+04  0.7818609E-02  0.8291324E-01
        2   -1    0    0  501    0  0.00000000000E+00  0.00000000000E+00  0.17984985092E+04  0.17984985092E+04  0.25500000920E-02 0. -1.
       -2   -1    0    0    0  501  0.00000000000E+00  0.00000000000E+00 -0.11202065536E+04  0.11202065536E+04  0.25500000920E-02 0.  1.
    10030    2    1    2    0    0  0.00000000000E+00  0.00000000000E+00  0.67829195556E+03  0.29187050628E+04  0.28387953900E+04 0.  0.
        1    1    3    3  502    0  0.12705871944E+04  0.35633450496E+03 -0.19837421074E+03  0.13344356206E+04  0.50400001928E-02 0. -1.
       -1    1    3    3    0  502 -0.12705871944E+04 -0.35633450496E+03  0.87666616631E+03  0.15842694421E+04  0.50400001928E-02 0.  1.
</event>
<event>
 5   0  0.9065579E-06  0.2790620E+04  0.7818609E-02  0.8306187E-01
        2   -1    0    0  501    0  0.00000000000E+00  0.00000000000E+00  0.20810195353E+04  0.20810195353E+04  0.25500000920E-02 0. -1.
       -2   -1    0    0    0  501  0.00000000000E+00  0.00000000000E+00 -0.93554595379E+03  0.93554595379E+03  0.25500000920E-02 0.  1.
    10030    2    1    2    0    0  0.00000000000E+00  0.00000000000E+00  0.11454735815E+04  0.30165654891E+04  0.27906195771E+04 0.  0.
        3    1    3    3  502    0  0.11747492496E+04  0.69581771297E+03  0.26189310583E+03  0.13902467760E+04  0.10100000352E+00 0.  1.
       -3    1    3    3    0  502 -0.11747492496E+04 -0.69581771297E+03  0.88358047566E+03  0.16263187130E+04  0.10100000352E+00 0. -1.
</event>
<event>
 5   0  0.9065579E-06  0.2627983E+04  0.7818609E-02  0.8358758E-01
        2   -1    0    0  501    0  0.00000000000E+00  0.00000000000E+00  0.18163186276E+04  0.18163186276E+04  0.25500000920E-02 0.  1.
       -2   -1    0    0    0  501  0.00000000000E+00  0.00000000000E+00 -0.95058985235E+03  0.95058985236E+03  0.25500000920E-02 0. -1.
    10030    2    1    2    0    0  0.00000000000E+00  0.00000000000E+00  0.86572877526E+03  0.27669084800E+04  0.26279832998E+04 0.  0.
        3    1    3    3  502    0  0.20816882909E+02  0.13101527359E+04  0.32948778856E+03  0.13511090803E+04  0.10100000352E+00 0. -1.
       -3    1    3    3    0  502 -0.20816882909E+02 -0.13101527359E+04  0.53624098670E+03  0.14157993996E+04  0.10100000352E+00 0.  1.
</event>
<event>
 5   0  0.3371603E-06  0.2775880E+04  0.7818609E-02  0.8310796E-01
       -1   -1    0    0    0  501  0.00000000000E+00  0.00000000000E+00  0.71857428347E+03  0.71857428349E+03  0.50400001928E-02 0.  1.
        1   -1    0    0  501    0  0.00000000000E+00  0.00000000000E+00 -0.26808328385E+04  0.26808328385E+04  0.50400001928E-02 0. -1.
    10030    2    1    2    0    0  0.00000000000E+00  0.00000000000E+00 -0.19622585550E+04  0.33994071220E+04  0.27758800666E+04 0.  0.
        1    1    3    3  502    0  0.13632230558E+04 -0.15769695987E+03 -0.72679622238E+03  0.15528934864E+04  0.50400001928E-02 0. -1.
       -1    1    3    3    0  502 -0.13632230558E+04  0.15769695987E+03 -0.12354623327E+04  0.18465136356E+04  0.50400001928E-02 0.  1.
</event>
<event>
 5   0  0.3600963E-06  0.2810087E+04  0.7818609E-02  0.8300144E-01
       -1   -1    0    0    0  501  0.00000000000E+00  0.00000000000E+00  0.95688799941E+03  0.95688799943E+03  0.50400001928E-02 0. -1.
        1   -1    0    0  501    0  0.00000000000E+00  0.00000000000E+00 -0.20630910615E+04  0.20630910616E+04  0.50400001928E-02 0.  1.
    10030    2    1    2    0    0  0.00000000000E+00  0.00000000000E+00 -0.11062030621E+04  0.30199790610E+04  0.28100868873E+04 0.  0.
        5    1    3    3  502    0 -0.11179957507E+04 -0.51582460179E+02  0.35978609534E+03  0.11756034082E+04  0.46999998093E+01 0. -1.
       -5    1    3    3    0  502  0.11179957507E+04  0.51582460179E+02 -0.14659891575E+04  0.18443756528E+04  0.46999998093E+01 0.  1.
</event>
<event>
 5   0  0.9065579E-06  0.2751900E+04  0.7818609E-02  0.8318359E-01
        2   -1    0    0  501    0  0.00000000000E+00  0.00000000000E+00  0.15205849317E+04  0.15205849317E+04  0.25500000920E-02 0. -1.
       -2   -1    0    0    0  501  0.00000000000E+00  0.00000000000E+00 -0.12450728402E+04  0.12450728402E+04  0.25500000920E-02 0.  1.
    10030    2    1    2    0    0  0.00000000000E+00  0.00000000000E+00  0.27551209146E+03  0.27656577719E+04  0.27519004340E+04 0.  0.
        3    1    3    3  502    0 -0.10667685637E+04  0.76402923910E+03 -0.27844365468E+03  0.13413674835E+04  0.10100000352E+00 0.  1.
       -3    1    3    3    0  502  0.10667685637E+04 -0.76402923910E+03  0.55395574614E+03  0.14242902884E+04  0.10100000352E+00 0. -1.
</event>
<event>
 5   0  0.3600963E-06  0.2816248E+04  0.7818609E-02  0.8298242E-01
       -1   -1    0    0    0  501  0.00000000000E+00  0.00000000000E+00  0.16091254616E+04  0.16091254617E+04  0.50400001928E-02 0. -1.
        1   -1    0    0  501    0  0.00000000000E+00  0.00000000000E+00 -0.12322299890E+04  0.12322299890E+04  0.50400001928E-02 0.  1.
    10030    2    1    2    0    0  0.00000000000E+00  0.00000000000E+00  0.37689547265E+03  0.28413554507E+04  0.28162476098E+04 0.  0.
        5    1    3    3  502    0  0.75652517152E+03 -0.86504962975E+02  0.13834810838E+04  0.15791945551E+04  0.46999998093E+01 0. -1.
       -5    1    3    3    0  502 -0.75652517152E+03  0.86504962975E+02 -0.10065856111E+04  0.12621608955E+04  0.46999998093E+01 0.  1.
</event>
<event>
 5   0  0.9342133E-06  0.2793337E+04  0.7818609E-02  0.8305340E-01
        2   -1    0    0  501    0  0.00000000000E+00  0.00000000000E+00  0.20963500274E+04  0.20963500274E+04  0.25500000920E-02 0. -1.
       -2   -1    0    0    0  501  0.00000000000E+00  0.00000000000E+00 -0.93051397050E+03  0.93051397051E+03  0.25500000920E-02 0.  1.
    10030    2    1    2    0    0  0.00000000000E+00  0.00000000000E+00  0.11658360569E+04  0.30268639979E+04  0.27933370635E+04 0.  0.
        2    1    3    3  502    0  0.56297294821E+03 -0.44555694551E+03  0.18810813239E+04  0.20134364850E+04  0.25500000920E-02 0. -1.
       -2    1    3    3    0  502 -0.56297294821E+03  0.44555694551E+03 -0.71524526694E+03  0.10134275129E+04  0.25500000920E-02 0.  1.
</event>
<event>
 5   0  0.3438130E-06  0.2808838E+04  0.7818609E-02  0.8300530E-01
       -1   -1    0    0    0  501  0.00000000000E+00  0.00000000000E+00  0.11190198600E+04  0.11190198600E+04  0.50400001928E-02 0.  1.
        1   -1    0    0  501    0  0.00000000000E+00  0.00000000000E+00 -0.17626079277E+04  0.17626079277E+04  0.50400001928E-02 0. -1.
    10030    2    1    2    0    0  0.00000000000E+00  0.00000000000E+00 -0.64358806766E+03  0.28816277877E+04  0.28088383909E+04 0.  0.
        3    1    3    3  502    0 -0.74758124937E+03 -0.80184828222E+03  0.57876651349E+03  0.12396810394E+04  0.10100000352E+00 0.  1.
       -3    1    3    3    0  502  0.74758124937E+03  0.80184828222E+03 -0.12223545812E+04  0.16419467483E+04  0.10100000352E+00 0. -1.
</event>
<event>
 5   0  0.3371603E-06  0.2828698E+04  0.7818609E-02  0.8294414E-01
        1   -1    0    0  501    0  0.00000000000E+00  0.00000000000E+00  0.15575979909E+04  0.15575979909E+04  0.50400001928E-02 0.  1.
       -1   -1    0    0    0  501  0.00000000000E+00  0.00000000000E+00 -0.12842746507E+04  0.12842746507E+04  0.50400001928E-02 0. -1.
    10030    2    1    2    0    0  0.00000000000E+00  0.00000000000E+00  0.27332334012E+03  0.28418726416E+04  0.28286983690E+04 0.  0.
        1    1    3    3  502    0  0.77635411077E+03 -0.83145295460E+02  0.13214525127E+04  0.15348861811E+04  0.50400001928E-02 0.  1.
       -1    1    3    3    0  502 -0.77635411077E+03  0.83145295460E+02 -0.10481291726E+04  0.13069864605E+04  0.50400001928E-02 0. -1.
</event>
<event>
 5   0  0.3357244E-06  0.2796502E+04  0.7818609E-02  0.8304355E-01
       -1   -1    0    0    0  501  0.00000000000E+00  0.00000000000E+00  0.14321406026E+04  0.14321406026E+04  0.50400001928E-02 0.  1.
        1   -1    0    0  501    0  0.00000000000E+00  0.00000000000E+00 -0.13651631657E+04  0.13651631657E+04  0.50400001928E-02 0. -1.
    10030    2    1    2    0    0  0.00000000000E+00  0.00000000000E+00  0.66977436860E+02  0.27973037683E+04  0.27965018139E+04 0.  0.
        4    1    3    3  502    0 -0.47742975069E+03  0.65085286474E+03  0.11755496263E+04  0.14259968988E+04  0.12699999809E+01 0.  1.
       -4    1    3    3    0  502  0.47742975069E+03 -0.65085286474E+03 -0.11085721895E+04  0.13713068696E+04  0.12699999809E+01 0. -1.
</event>
<event>
 5   0  0.9426937E-06  0.2786564E+04  0.7818609E-02  0.8307452E-01
       -2   -1    0    0    0  501  0.00000000000E+00  0.00000000000E+00  0.74615715992E+03  0.74615715993E+03  0.25500000920E-02 0. -1.
        2   -1    0    0  501    0  0.00000000000E+00  0.00000000000E+00 -0.26016428047E+04  0.26016428047E+04  0.25500000920E-02 0.  1.
    10030    2    1    2    0    0  0.00000000000E+00  0.00000000000E+00 -0.18554856448E+04  0.33477999646E+04  0.27865637666E+04 0.  0.
        4    1    3    3  502    0  0.59128126345E+03 -0.12359854282E+04 -0.12315809738E+04  0.18422993294E+04  0.12699999809E+01 0. -1.
       -4    1    3    3    0  502 -0.59128126345E+03  0.12359854282E+04 -0.62390467101E+03  0.15055006352E+04  0.12699999809E+01 0.  1.
</event>
<event>
 5   0  0.3438130E-06  0.2797928E+04  0.7818609E-02  0.8303912E-01
       -1   -1    0    0    0  501  0.00000000000E+00  0.00000000000E+00  0.10507313628E+04  0.10507313629E+04  0.50400001928E-02 0. -1.
        1   -1    0    0  501    0  0.00000000000E+00  0.00000000000E+00 -0.18626073498E+04  0.18626073498E+04  0.50400001928E-02 0.  1.
    10030    2    1    2    0    0  0.00000000000E+00  0.00000000000E+00 -0.81187598691E+03  0.29133387126E+04  0.27979277754E+04 0.  0.
        3    1    3    3  502    0  0.11641241489E+03 -0.45902753306E+03 -0.17766112549E+04  0.18386423490E+04  0.10100000352E+00 0.  1.
       -3    1    3    3    0  502 -0.11641241489E+03  0.45902753306E+03  0.96473526798E+03  0.10746963636E+04  0.10100000352E+00 0. -1.
</event>
<event>
 5   0  0.3600963E-06  0.2795045E+04  0.7818609E-02  0.8304808E-01
       -1   -1    0    0    0  501  0.00000000000E+00  0.00000000000E+00  0.21324598809E+04  0.21324598809E+04  0.50400001928E-02 0. -1.
        1   -1    0    0  501    0  0.00000000000E+00  0.00000000000E+00 -0.91587596560E+03  0.91587596562E+03  0.50400001928E-02 0.  1.
    10030    2    1    2    0    0  0.00000000000E+00  0.00000000000E+00  0.12165839153E+04  0.30483358466E+04  0.27950447242E+04 0.  0.
        5    1    3    3  502    0  0.84652538897E+03 -0.10052473008E+04  0.89909004680E+02  0.13172824637E+04  0.46999998093E+01 0. -1.
       -5    1    3    3    0  502 -0.84652538897E+03  0.10052473008E+04  0.11266749106E+04  0.17310533829E+04  0.46999998093E+01 0.  1.
</event>
<event>
 5   0  0.3357244E-06  0.2783609E+04  0.7818609E-02  0.8308375E-01
        1   -1    0    0  501    0  0.00000000000E+00  0.00000000000E+00  0.21872639390E+04  0.21872639390E+04  0.50400001928E-02 0.  1.
       -1   -1    0    0    0  501  0.00000000000E+00  0.00000000000E+00 -0.88563610083E+03  0.88563610084E+03  0.50400001928E-02 0. -1.
    10030    2    1    2    0    0  0.00000000000E+00  0.00000000000E+00  0.13016278382E+04  0.30729000398E+04  0.27836091007E+04 0.  0.
        4    1    3    3  502    0  0.45437500410E+03  0.92955110739E+02 -0.79782252445E+03  0.92283242812E+03  0.12699999809E+01 0. -1.
       -4    1    3    3    0  502 -0.45437500410E+03 -0.92955110739E+02  0.20994503626E+04  0.21500676117E+04  0.12699999809E+01 0.  1.
</event>
<event>
 5   0  0.9342133E-06  0.2796984E+04  0.7818609E-02  0.8304205E-01
       -2   -1    0    0    0  501  0.00000000000E+00  0.00000000000E+00  0.15147093888E+04  0.15147093888E+04  0.25500000920E-02 0. -1.
        2   -1    0    0  501    0  0.00000000000E+00  0.00000000000E+00 -0.12911911068E+04  0.12911911068E+04  0.25500000920E-02 0.  1.
    10030    2    1    2    0    0  0.00000000000E+00  0.00000000000E+00  0.22351828206E+03  0.28059004956E+04  0.27969835839E+04 0.  0.
        2    1    3    3  502    0  0.96490437872E+03 -0.75193286925E+03  0.79166297821E+03  0.14571114477E+04  0.25500000920E-02 0. -1.
       -2    1    3    3    0  502 -0.96490437872E+03  0.75193286925E+03 -0.56814469615E+03  0.13487890479E+04  0.25500000920E-02 0.  1.
</event>
<event>
 5   0  0.9426937E-06  0.2836902E+04  0.7818609E-02  0.8291903E-01
       -2   -1    0    0    0  501  0.00000000000E+00  0.00000000000E+00  0.16993993566E+04  0.16993993566E+04  0.25500000920E-02 0.  1.
        2   -1    0    0  501    0  0.00000000000E+00  0.00000000000E+00 -0.11839493996E+04  0.11839493996E+04  0.25500000920E-02 0. -1.
    10030    2    1    2    0    0  0.00000000000E+00  0.00000000000E+00  0.51544995700E+03  0.28833487562E+04  0.28369017240E+04 0.  0.
        4    1    3    3  502    0 -0.11713297561E+04 -0.77626591221E+03  0.45427961438E+03  0.14768120209E+04  0.12699999809E+01 0. -1.
       -4    1    3    3    0  502  0.11713297561E+04  0.77626591221E+03  0.61170342618E+02  0.14065367353E+04  0.12699999809E+01 0.  1.
</event>
<event>
 5   0  0.9426937E-06  0.2833540E+04  0.7818609E-02  0.8292930E-01
        2   -1    0    0  501    0  0.00000000000E+00  0.00000000000E+00  0.21509994386E+04  0.21509994386E+04  0.25500000920E-02 0.  1.
       -2   -1    0    0    0  501  0.00000000000E+00  0.00000000000E+00 -0.93316511065E+03  0.93316511065E+03  0.25500000920E-02 0. -1.
    10030    2    1    2    0    0  0.00000000000E+00  0.00000000000E+00  0.12178343280E+04  0.30841645493E+04  0.28335402797E+04 0.  0.
        4    1    3    3  502    0 -0.41159235196E+03 -0.12436512398E+04  0.21598884719E+02  0.13101697581E+04  0.12699999809E+01 0. -1.
       -4    1    3    3    0  502  0.41159235196E+03  0.12436512398E+04  0.11962354433E+04  0.17739947912E+04  0.12699999809E+01 0.  1.
</event>
<event>
 5   0  0.3357244E-06  0.2864893E+04  0.7818609E-02  0.8283400E-01
        1   -1    0    0  501    0  0.00000000000E+00  0.00000000000E+00  0.18115878520E+04  0.18115878520E+04  0.50400001928E-02 0.  1.
       -1   -1    0    0    0  501  0.00000000000E+00  0.00000000000E+00 -0.11326542357E+04  0.11326542357E+04  0.50400001928E-02 0. -1.
    10030    2    1    2    0    0  0.00000000000E+00  0.00000000000E+00  0.67893361627E+03  0.29442420877E+04  0.28648927756E+04 0.  0.
        4    1    3    3  502    0  0.11364415790E+04 -0.86822200071E+03  0.25602605376E+03  0.14528798499E+04  0.12699999809E+01 0.  1.
       -4    1    3    3    0  502 -0.11364415790E+04  0.86822200071E+03  0.42290756251E+03  0.14913622378E+04  0.12699999809E+01 0. -1.
</event>
<event>
 5   0  0.9342133E-06  0.2785466E+04  0.7818609E-02  0.8307795E-01
       -2   -1    0    0    0  501  0.00000000000E+00  0.00000000000E+00  0.68431668051E+03  0.68431668052E+03  0.25500000920E-02 0.  1.
        2   -1    0    0  501    0  0.00000000000E+00  0.00000000000E+00 -0.28345138309E+04  0.28345138309E+04  0.25500000920E-02 0. -1.
    10030    2    1    2    0    0  0.00000000000E+00  0.00000000000E+00 -0.21501971504E+04  0.35188305114E+04  0.27854659184E+04 0.  0.
        2    1    3    3  502    0  0.22398433744E+03  0.13662013441E+04 -0.88338738421E+03  0.16422692735E+04  0.25500000920E-02 0.  1.
       -2    1    3    3    0  502 -0.22398433744E+03 -0.13662013441E+04 -0.12668097662E+04  0.18765612380E+04  0.25500000920E-02 0. -1.
</event>
<event>
 5   0  0.9426937E-06  0.2802457E+04  0.7818609E-02  0.8302506E-01
        2   -1    0    0  501    0  0.00000000000E+00  0.00000000000E+00  0.21496243050E+04  0.21496243050E+04  0.25500000920E-02 0. -1.
       -2   -1    0    0    0  501  0.00000000000E+00  0.00000000000E+00 -0.91338835863E+03  0.91338835863E+03  0.25500000920E-02 0.  1.
    10030    2    1    2    0    0  0.00000000000E+00  0.00000000000E+00  0.12362359464E+04  0.30630126637E+04  0.28024573614E+04 0.  0.
        4    1    3    3  502    0  0.37600446492E+03  0.27310490717E+03 -0.82670689815E+03  0.94837311028E+03  0.12699999809E+01 0.  1.
       -4    1    3    3    0  502 -0.37600446492E+03 -0.27310490717E+03  0.20629428445E+04  0.21146395534E+04  0.12699999809E+01 0. -1.
</event>
<event>
 5   0  0.9252359E-06  0.2838916E+04  0.7818609E-02  0.8291287E-01
        2   -1    0    0  501    0  0.00000000000E+00  0.00000000000E+00  0.15232736195E+04  0.15232736195E+04  0.25500000920E-02 0.  1.
       -2   -1    0    0    0  501  0.00000000000E+00  0.00000000000E+00 -0.13227175916E+04  0.13227175916E+04  0.25500000920E-02 0. -1.
    10030    2    1    2    0    0  0.00000000000E+00  0.00000000000E+00  0.20055602792E+03  0.28459912111E+04  0.28389158588E+04 0.  0.
        5    1    3    3  502    0 -0.14158427655E+04  0.34657933616E+02  0.50316754959E+01  0.14162836286E+04  0.46999998093E+01 0. -1.
       -5    1    3    3    0  502  0.14158427655E+04 -0.34657933616E+02  0.19552435243E+03  0.14297075825E+04  0.46999998093E+01 0.  1.
</event>
<event>
 5   0  0.3397882E-06  0.2795601E+04  0.7818609E-02  0.8304636E-01
        1   -1    0    0  501    0  0.00000000000E+00  0.00000000000E+00  0.70728577537E+03  0.70728577539E+03  0.50400001928E-02 0.  1.
       -1   -1    0    0    0  501  0.00000000000E+00  0.00000000000E+00 -0.27624556143E+04  0.27624556143E+04  0.50400001928E-02 0. -1.
    10030    2    1    2    0    0  0.00000000000E+00  0.00000000000E+00 -0.20551698389E+04  0.34697413897E+04  0.27956005159E+04 0.  0.
        2    1    3    3  502    0 -0.12963748691E+04  0.51855737072E+03 -0.94566932538E+03  0.16863510966E+04  0.25500000920E-02 0.  1.
       -2    1    3    3    0  502  0.12963748691E+04 -0.51855737072E+03 -0.11095005135E+04  0.17833902931E+04  0.25500000920E-02 0. -1.
</event>
<event>
 5   0  0.9252359E-06  0.2791101E+04  0.7818609E-02  0.8306037E-01
       -2   -1    0    0    0  501  0.00000000000E+00  0.00000000000E+00  0.80186048145E+03  0.80186048145E+03  0.25500000920E-02 0.  1.
        2   -1    0    0  501    0  0.00000000000E+00  0.00000000000E+00 -0.24288025225E+04  0.24288025225E+04  0.25500000920E-02 0. -1.
    10030    2    1    2    0    0  0.00000000000E+00  0.00000000000E+00 -0.16269420410E+04  0.32306630040E+04  0.27911006861E+04 0.  0.
        5    1    3    3  502    0  0.79939131225E+03  0.53982945779E+03 -0.19808105820E+04  0.22031965335E+04  0.46999998093E+01 0. -1.
       -5    1    3    3    0  502 -0.79939131225E+03 -0.53982945779E+03  0.35386854094E+03  0.10274664704E+04  0.46999998093E+01 0.  1.
</event>
<event>
 5   0  0.3006875E-06  0.2560664E+04  0.7818609E-02  0.8381687E-01
       -3   -1    0    0    0  501  0.00000000000E+00  0.00000000000E+00  0.14032144760E+04  0.14032144796E+04  0.10100000352E+00 0. -1.
        3   -1    0    0  501    0  0.00000000000E+00  0.00000000000E+00 -0.11682101743E+04  0.11682101786E+04  0.10100000352E+00 0.  1.
    10030    2    1    2    0    0  0.00000000000E+00  0.00000000000E+00  0.23500430171E+03  0.25714246583E+04  0.25606635373E+04 0.  0.
        4    1    3    3  502    0  0.94386731730E+03  0.82409910035E+03  0.38171044581E+03  0.13098585104E+04  0.12699999809E+01 0. -1.
       -4    1    3    3    0  502 -0.94386731730E+03 -0.82409910035E+03 -0.14670614410E+03  0.12615661479E+04  0.12699999809E+01 0.  1.
</event>
<event>
 5   0  0.3397882E-06  0.2784832E+04  0.7818609E-02  0.8307993E-01
        1   -1    0    0  501    0  0.00000000000E+00  0.00000000000E+00  0.17848419492E+04  0.17848419492E+04  0.50400001928E-02 0. -1.
       -1   -1    0    0    0  501  0.00000000000E+00  0.00000000000E+00 -0.10862711373E+04  0.10862711373E+04  0.50400001928E-02 0.  1.
    10030    2    1    2    0    0  0.00000000000E+00  0.00000000000E+00  0.69857081195E+03  0.28711130865E+04  0.27848319834E+04 0.  0.
        2    1    3    3  502    0 -0.68543160959E+03 -0.30655051503E+03  0.15582338913E+04  0.17297059200E+04  0.25500000920E-02 0. -1.
       -2    1    3    3    0  502  0.68543160959E+03  0.30655051503E+03 -0.85966307935E+03  0.11414071665E+04  0.25500000920E-02 0.  1.
</event>
<event>
 5   0  0.9260173E-06  0.2726266E+04  0.7818609E-02  0.8326532E-01
        2   -1    0    0  501    0  0.00000000000E+00  0.00000000000E+00  0.12570194662E+04  0.12570194662E+04  0.25500000920E-02 0. -1.
       -2   -1    0    0    0  501  0.00000000000E+00  0.00000000000E+00 -0.14782047098E+04  0.14782047098E+04  0.25500000920E-02 0.  1.
    10030    2    1    2    0    0  0.00000000000E+00  0.00000000000E+00 -0.22118524354E+03  0.27352241760E+04  0.27262663812E+04 0.  0.
        1    1    3    3  502    0  0.62270788522E+02  0.54011188976E+03 -0.13647132736E+04  0.14690271692E+04  0.50400001928E-02 0.  1.
       -1    1    3    3    0  502 -0.62270788522E+02 -0.54011188976E+03  0.11435280301E+04  0.12661970069E+04  0.50400001928E-02 0. -1.
</event>
<event>
 5   0  0.3357244E-06  0.2677429E+04  0.7818609E-02  0.8342366E-01
       -1   -1    0    0    0  501  0.00000000000E+00  0.00000000000E+00  0.79317828533E+03  0.79317828535E+03  0.50400001928E-02 0.  1.
        1   -1    0    0  501    0  0.00000000000E+00  0.00000000000E+00 -0.22594621443E+04  0.22594621443E+04  0.50400001928E-02 0. -1.
    10030    2    1    2    0    0  0.00000000000E+00  0.00000000000E+00 -0.14662838589E+04  0.30526404296E+04  0.26774288483E+04 0.  0.
        4    1    3    3  502    0 -0.98946259864E+03  0.11516722712E+03 -0.17528206068E+04  0.20161055073E+04  0.12699999809E+01 0. -1.
       -4    1    3    3    0  502  0.98946259864E+03 -0.11516722712E+03  0.28653674785E+03  0.10365349223E+04  0.12699999809E+01 0.  1.
</event>
<event>
 5   0  0.9252359E-06  0.2825010E+04  0.7818609E-02  0.8295546E-01
        2   -1    0    0  501    0  0.00000000000E+00  0.00000000000E+00  0.19692292162E+04  0.19692292162E+04  0.25500000920E-02 0. -1.
       -2   -1    0    0    0  501  0.00000000000E+00  0.00000000000E+00 -0.10131732470E+04  0.10131732470E+04  0.25500000920E-02 0.  1.
    10030    2    1    2    0    0  0.00000000000E+00  0.00000000000E+00  0.95605596923E+03  0.29824024633E+04  0.28250099887E+04 0.  0.
        5    1    3    3  502    0  0.75749455027E+03 -0.72861842342E+03  0.14742469445E+04  0.18105548718E+04  0.46999998093E+01 0. -1.
       -5    1    3    3    0  502 -0.75749455027E+03  0.72861842342E+03 -0.51819097526E+03  0.11718475914E+04  0.46999998093E+01 0.  1.
</event>
<event>
 5   0  0.3600963E-06  0.2663595E+04  0.7818609E-02  0.8346915E-01
        1   -1    0    0  501    0  0.00000000000E+00  0.00000000000E+00  0.12399318377E+04  0.12399318377E+04  0.50400001928E-02 0.  1.
       -1   -1    0    0    0  501  0.00000000000E+00  0.00000000000E+00 -0.14304693207E+04  0.14304693207E+04  0.50400001928E-02 0. -1.
    10030    2    1    2    0    0  0.00000000000E+00  0.00000000000E+00 -0.19053748299E+03  0.26704011585E+04  0.26635949044E+04 0.  0.
        5    1    3    3  502    0  0.11940507945E+04  0.17548867753E+02 -0.68634893278E+03  0.13773751160E+04  0.46999998093E+01 0. -1.
       -5    1    3    3    0  502 -0.11940507945E+04 -0.17548867753E+02  0.49581144979E+03  0.12930260425E+04  0.46999998093E+01 0.  1.
</event>
<event>
 5   0  0.3438130E-06  0.2776134E+04  0.7818609E-02  0.8310716E-01
        1   -1    0    0  501    0  0.00000000000E+00  0.00000000000E+00  0.12420773319E+04  0.12420773320E+04  0.50400001928E-02 0.  1.
       -1   -1    0    0    0  501  0.00000000000E+00  0.00000000000E+00 -0.15512158558E+04  0.15512158559E+04  0.50400001928E-02 0. -1.
    10030    2    1    2    0    0  0.00000000000E+00  0.00000000000E+00 -0.30913852389E+03  0.27932931878E+04  0.27761340397E+04 0.  0.
        3    1    3    3  502    0 -0.10054875133E+04 -0.94305982639E+03 -0.31793991581E+03  0.14147271030E+04  0.10100000352E+00 0. -1.
       -3    1    3    3    0  502  0.10054875133E+04  0.94305982639E+03  0.88013919156E+01  0.13785660848E+04  0.10100000352E+00 0.  1.
</event>
<event>
 5   0  0.9342133E-06  0.2789136E+04  0.7818609E-02  0.8306649E-01
       -2   -1    0    0    0  501  0.00000000000E+00  0.00000000000E+00  0.14093033711E+04  0.14093033711E+04  0.25500000920E-02 0.  1.
        2   -1    0    0  501    0  0.00000000000E+00  0.00000000000E+00 -0.13799864198E+04  0.13799864198E+04  0.25500000920E-02 0. -1.
    10030    2    1    2    0    0  0.00000000000E+00  0.00000000000E+00  0.29316951248E+02  0.27892897909E+04  0.27891357181E+04 0.  0.
        2    1    3    3  502    0  0.95694126044E+03 -0.37778759022E+03  0.95617714383E+03  0.14045407682E+04  0.25500000920E-02 0.  1.
       -2    1    3    3    0  502 -0.95694126044E+03  0.37778759022E+03 -0.92686019259E+03  0.13847490227E+04  0.25500000920E-02 0. -1.
</event>
<event>
 5   0  0.9252359E-06  0.2451497E+04  0.7818609E-02  0.8420472E-01
        2   -1    0    0  501    0  0.00000000000E+00  0.00000000000E+00  0.84950706878E+03  0.84950706878E+03  0.25500000920E-02 0. -1.
       -2   -1    0    0    0  501  0.00000000000E+00  0.00000000000E+00 -0.17686252249E+04  0.17686252249E+04  0.25500000920E-02 0.  1.
    10030    2    1    2    0    0  0.00000000000E+00  0.00000000000E+00 -0.91911815614E+03  0.26181322937E+04  0.24514972002E+04 0.  0.
        5    1    3    3  502    0  0.14313628537E+03  0.94687353270E+03  0.35754832918E+03  0.10222134713E+04  0.46999998093E+01 0. -1.
       -5    1    3    3    0  502 -0.14313628537E+03 -0.94687353270E+03 -0.12766664853E+04  0.15959188225E+04  0.46999998093E+01 0.  1.
</event>
<event>
 5   0  0.3357244E-06  0.2786856E+04  0.7818609E-02  0.8307361E-01
       -1   -1    0    0    0  501  0.00000000000E+00  0.00000000000E+00  0.18423045240E+04  0.18423045240E+04  0.50400001928E-02 0. -1.
        1   -1    0    0  501    0  0.00000000000E+00  0.00000000000E+00 -0.10539201079E+04  0.10539201079E+04  0.50400001928E-02 0.  1.
    10030    2    1    2    0    0  0.00000000000E+00  0.00000000000E+00  0.78838441616E+03  0.28962246319E+04  0.27868561374E+04 0.  0.
        4    1    3    3  502    0  0.11165973251E+04  0.19108075423E+03 -0.44903069655E+03  0.12185777039E+04  0.12699999809E+01 0.  1.
       -4    1    3    3    0  502 -0.11165973251E+04 -0.19108075423E+03  0.12374151127E+04  0.16776469280E+04  0.12699999809E+01 0. -1.
</event>
<event>
 5   0  0.9426937E-06  0.2791352E+04  0.7818609E-02  0.8305958E-01
        2   -1    0    0  501    0  0.00000000000E+00  0.00000000000E+00  0.12059735506E+04  0.12059735506E+04  0.25500000920E-02 0.  1.
       -2   -1    0    0    0  501  0.00000000000E+00  0.00000000000E+00 -0.16152185513E+04  0.16152185513E+04  0.25500000920E-02 0. -1.
    10030    2    1    2    0    0  0.00000000000E+00  0.00000000000E+00 -0.40924500073E+03  0.28211921019E+04  0.27913515373E+04 0.  0.
        4    1    3    3  502    0  0.43496964042E+03  0.13105259592E+04  0.60578858809E+00  0.13808254262E+04  0.12699999809E+01 0. -1.
       -4    1    3    3    0  502 -0.43496964042E+03 -0.13105259592E+04 -0.40985078932E+03  0.14403666756E+04  0.12699999809E+01 0.  1.
</event>
<event>
 5   0  0.3600963E-06  0.2891124E+04  0.7818609E-02  0.8275523E-01
       -1   -1    0    0    0  501  0.00000000000E+00  0.00000000000E+00  0.10542463737E+04  0.10542463737E+04  0.50400001928E-02 0.  1.
        1   -1    0    0  501    0  0.00000000000E+00  0.00000000000E+00 -0.19821269533E+04  0.19821269533E+04  0.50400001928E-02 0. -1.
    10030    2    1    2    0    0  0.00000000000E+00  0.00000000000E+00 -0.92788057967E+03  0.30363733270E+04  0.28911244544E+04 0.  0.
        5    1    3    3  502    0 -0.14185405160E+04 -0.24630660307E+03 -0.59967709986E+03  0.15596662632E+04  0.46999998093E+01 0. -1.
       -5    1    3    3    0  502  0.14185405160E+04  0.24630660307E+03 -0.32820347981E+03  0.14767070639E+04  0.46999998093E+01 0.  1.
</event>
<event>
 5   0  0.9342133E-06  0.2772217E+04  0.7818609E-02  0.8311946E-01
        2   -1    0    0  501    0  0.00000000000E+00  0.00000000000E+00  0.17818644357E+04  0.17818644357E+04  0.25500000920E-02 0. -1.
       -2   -1    0    0    0  501  0.00000000000E+00  0.00000000000E+00 -0.10782510331E+04  0.10782510331E+04  0.25500000920E-02 0.  1.
    10030    2    1    2    0    0  0.00000000000E+00  0.00000000000E+00  0.70361340267E+03  0.28601154688E+04  0.27722172848E+04 0.  0.
        2    1    3    3  502    0 -0.42364229960E+03  0.72312618856E+02 -0.10077759209E+04  0.10955885266E+04  0.25500000920E-02 0.  1.
       -2    1    3    3    0  502  0.42364229960E+03 -0.72312618856E+02  0.17113893236E+04  0.17645269422E+04  0.25500000920E-02 0. -1.
</event>
<event>
 5   0  0.9065579E-06  0.2793762E+04  0.7818609E-02  0.8305208E-01
        2   -1    0    0  501    0  0.00000000000E+00  0.00000000000E+00  0.17063199178E+04  0.17063199178E+04  0.25500000920E-02 0. -1.
       -2   -1    0    0    0  501  0.00000000000E+00  0.00000000000E+00 -0.11435584701E+04  0.11435584701E+04  0.25500000920E-02 0.  1.
    10030    2    1    2    0    0  0.00000000000E+00  0.00000000000E+00  0.56276144772E+03  0.28498783879E+04  0.27937620476E+04 0.  0.
        3    1    3    3  502    0 -0.22730383389E+03 -0.13213923798E+04  0.68108241562E+03  0.15038677207E+04  0.10100000352E+00 0. -1.
       -3    1    3    3    0  502  0.22730383389E+03  0.13213923798E+04 -0.11832096790E+03  0.13460106671E+04  0.10100000352E+00 0.  1.
</event>
<event>
 5   0  0.3357244E-06  0.2790114E+04  0.7818609E-02  0.8306344E-01
       -1   -1    0    0    0  501  0.00000000000E+00  0.00000000000E+00  0.14931837483E+04  0.14931837483E+04  0.50400001928E-02 0.  1.
        1   -1    0    0  501    0  0.00000000000E+00  0.00000000000E+00 -0.13033784064E+04  0.13033784064E+04  0.50400001928E-02 0. -1.
    10030    2    1    2    0    0  0.00000000000E+00  0.00000000000E+00  0.18980534190E+03  0.27965621547E+04  0.27901135850E+04 0.  0.
        4    1    3    3  502    0  0.11202216984E+04  0.77633040402E+03 -0.20343655905E+03  0.13780325092E+04  0.12699999809E+01 0. -1.
       -4    1    3    3    0  502 -0.11202216984E+04 -0.77633040402E+03  0.39324190095E+03  0.14185296456E+04  0.12699999809E+01 0.  1.
</event>
<event>
 5   0  0.3600963E-06  0.2788390E+04  0.7818609E-02  0.8306882E-01
        1   -1    0    0  501    0  0.00000000000E+00  0.00000000000E+00  0.17801945979E+04  0.17801945979E+04  0.50400001928E-02 0. -1.
       -1   -1    0    0    0  501  0.00000000000E+00  0.00000000000E+00 -0.10918918356E+04  0.10918918356E+04  0.50400001928E-02 0.  1.
    10030    2    1    2    0    0  0.00000000000E+00  0.00000000000E+00  0.68830276226E+03  0.28720864335E+04  0.27883901787E+04 0.  0.
        5    1    3    3  502    0  0.46951807366E+03  0.38070385734E+03  0.16381955098E+04  0.17461641580E+04  0.46999998093E+01 0. -1.
       -5    1    3    3    0  502 -0.46951807366E+03 -0.38070385734E+03 -0.94989274754E+03  0.11259222754E+04  0.46999998093E+01 0.  1.
</event>
<event>
 5   0  0.9065579E-06  0.2803811E+04  0.7818609E-02  0.8302086E-01
        2   -1    0    0  501    0  0.00000000000E+00  0.00000000000E+00  0.16573741341E+04  0.16573741341E+04  0.25500000920E-02 0.  1.
       -2   -1    0    0    0  501  0.00000000000E+00  0.00000000000E+00 -0.11858148616E+04  0.11858148616E+04  0.25500000920E-02 0. -1.
    10030    2    1    2    0    0  0.00000000000E+00  0.00000000000E+00  0.47155927251E+03  0.28431889957E+04  0.28038108920E+04 0.  0.
        3    1    3    3  502    0  0.54105540785E+03 -0.10615966986E+04 -0.51324881931E+03  0.12973638139E+04  0.10100000352E+00 0. -1.
       -3    1    3    3    0  502 -0.54105540785E+03  0.10615966986E+04  0.98480809182E+03  0.15458251818E+04  0.10100000352E+00 0.  1.
</event>
<event>
 5   0  0.9065579E-06  0.2809930E+04  0.7818609E-02  0.8300192E-01
       -2   -1    0    0    0  501  0.00000000000E+00  0.00000000000E+00  0.94088463514E+03  0.94088463514E+03  0.25500000920E-02 0. -1.
        2   -1    0    0  501    0  0.00000000000E+00  0.00000000000E+00 -0.20979472581E+04  0.20979472581E+04  0.25500000920E-02 0.  1.
    10030    2    1    2    0    0  0.00000000000E+00  0.00000000000E+00 -0.11570626229E+04  0.30388318932E+04  0.28099297788E+04 0.  0.
        3    1    3    3  502    0  0.10265396645E+04 -0.90915321268E+03 -0.24769750331E+03  0.13934479934E+04  0.10100000352E+00 0. -1.
       -3    1    3    3    0  502 -0.10265396645E+04  0.90915321268E+03 -0.90936511963E+03  0.16453838998E+04  0.10100000352E+00 0.  1.
</event>
<event>
 5   0  0.9342133E-06  0.2791098E+04  0.7818609E-02  0.8306038E-01
       -2   -1    0    0    0  501  0.00000000000E+00  0.00000000000E+00  0.17828806275E+04  0.17828806275E+04  0.25500000920E-02 0.  1.
        2   -1    0    0  501    0  0.00000000000E+00  0.00000000000E+00 -0.10923650511E+04  0.10923650511E+04  0.25500000920E-02 0. -1.
    10030    2    1    2    0    0  0.00000000000E+00  0.00000000000E+00  0.69051557641E+03  0.28752456786E+04  0.27910976248E+04 0.  0.
        2    1    3    3  502    0  0.10179013662E+04 -0.93597828906E+03  0.15149686464E+03  0.13910894467E+04  0.25500000920E-02 0. -1.
       -2    1    3    3    0  502 -0.10179013662E+04  0.93597828906E+03  0.53901871177E+03  0.14841562318E+04  0.25500000920E-02 0.  1.
</event>
<event>
 5   0  0.3371603E-06  0.2780727E+04  0.7818609E-02  0.8309277E-01
       -1   -1    0    0    0  501  0.00000000000E+00  0.00000000000E+00  0.21228314048E+04  0.21228314048E+04  0.50400001928E-02 0. -1.
        1   -1    0    0  501    0  0.00000000000E+00  0.00000000000E+00 -0.91062834607E+03  0.91062834608E+03  0.50400001928E-02 0.  1.
    10030    2    1    2    0    0  0.00000000000E+00  0.00000000000E+00  0.12122030587E+04  0.30334597508E+04  0.27807268482E+04 0.  0.
        1    1    3    3  502    0 -0.12228790053E+04  0.58549177484E+03  0.94211744969E+03  0.16510054419E+04  0.50400001928E-02 0. -1.
       -1    1    3    3    0  502  0.12228790053E+04 -0.58549177484E+03  0.27008560900E+03  0.13824543089E+04  0.50400001928E-02 0.  1.
</event>
<event>
 5   0  0.9426937E-06  0.2787378E+04  0.7818609E-02  0.8307198E-01
        2   -1    0    0  501    0  0.00000000000E+00  0.00000000000E+00  0.18760781452E+04  0.18760781452E+04  0.25500000920E-02 0. -1.
       -2   -1    0    0    0  501  0.00000000000E+00  0.00000000000E+00 -0.10353346904E+04  0.10353346904E+04  0.25500000920E-02 0.  1.
    10030    2    1    2    0    0  0.00000000000E+00  0.00000000000E+00  0.84074345479E+03  0.29114128356E+04  0.27873778256E+04 0.  0.
        4    1    3    3  502    0 -0.51801569395E+03  0.10055885040E+04 -0.42999316015E+03  0.12101422351E+04  0.12699999809E+01 0.  1.
       -4    1    3    3    0  502  0.51801569395E+03 -0.10055885040E+04  0.12707366149E+04  0.17012706005E+04  0.12699999809E+01 0. -1.
</event>
<event>
 5   0  0.9065579E-06  0.2785898E+04  0.7818609E-02  0.8307660E-01
       -2   -1    0    0    0  501  0.00000000000E+00  0.00000000000E+00  0.93268336818E+03  0.93268336818E+03  0.25500000920E-02 0. -1.
        2   -1    0    0  501    0  0.00000000000E+00  0.00000000000E+00 -0.20803497349E+04  0.20803497349E+04  0.25500000920E-02 0.  1.
    10030    2    1    2    0    0  0.00000000000E+00  0.00000000000E+00 -0.11476663667E+04  0.30130331031E+04  0.27858984890E+04 0.  0.
        3    1    3    3  502    0 -0.76862475497E+03 -0.76866563818E+03 -0.15158680810E+04  0.18653382874E+04  0.10100000352E+00 0.  1.
       -3    1    3    3    0  502  0.76862475497E+03  0.76866563818E+03  0.36820171429E+03  0.11476948157E+04  0.10100000352E+00 0. -1.
</event>
<event>
 5   0  0.3397882E-06  0.2808348E+04  0.7818609E-02  0.8300681E-01
       -1   -1    0    0    0  501  0.00000000000E+00  0.00000000000E+00  0.12247532340E+04  0.12247532340E+04  0.50400001928E-02 0. -1.
        1   -1    0    0  501    0  0.00000000000E+00  0.00000000000E+00 -0.16098791228E+04  0.16098791228E+04  0.50400001928E-02 0.  1.
    10030    2    1    2    0    0  0.00000000000E+00  0.00000000000E+00 -0.38512588880E+03  0.28346323569E+04  0.28083480283E+04 0.  0.
        2    1    3    3  502    0  0.21982225938E+03 -0.13220267333E+04  0.23043950241E+03  0.13598451653E+04  0.25500000920E-02 0. -1.
       -2    1    3    3    0  502 -0.21982225938E+03  0.13220267333E+04 -0.61556539121E+03  0.14747871915E+04  0.25500000920E-02 0.  1.
</event>
<event>
 5   0  0.3371603E-06  0.2801027E+04  0.7818609E-02  0.8302949E-01
        1   -1    0    0  501    0  0.00000000000E+00  0.00000000000E+00  0.15651562524E+04  0.15651562524E+04  0.50400001928E-02 0. -1.
       -1   -1    0    0    0  501  0.00000000000E+00  0.00000000000E+00 -0.12531902695E+04  0.12531902695E+04  0.50400001928E-02 0.  1.
    10030    2    1    2    0    0  0.00000000000E+00  0.00000000000E+00  0.31196598282E+03  0.28183465219E+04  0.28010273728E+04 0.  0.
        1    1    3    3  502    0  0.13539783430E+04  0.25361537800E+02 -0.20334982396E+03  0.13693983028E+04  0.50400001928E-02 0.  1.
       -1    1    3    3    0  502 -0.13539783430E+04 -0.25361537800E+02  0.51531580678E+03  0.14489482191E+04  0.50400001928E-02 0. -1.
</event>
<event>
 5   0  0.9260173E-06  0.2737995E+04  0.7818609E-02  0.8322781E-01
       -2   -1    0    0    0  501  0.00000000000E+00  0.00000000000E+00  0.14125188070E+04  0.14125188070E+04  0.25500000920E-02 0. -1.
        2   -1    0    0  501    0  0.00000000000E+00  0.00000000000E+00 -0.13268174503E+04  0.13268174503E+04  0.25500000920E-02 0.  1.
    10030    2    1    2    0    0  0.00000000000E+00  0.00000000000E+00  0.85701356696E+02  0.27393362573E+04  0.27379953265E+04 0.  0.
        1    1    3    3  502    0  0.62744766966E+03 -0.62387569613E+03  0.10879881201E+04  0.14023657197E+04  0.50400001928E-02 0. -1.
       -1    1    3    3    0  502 -0.62744766966E+03  0.62387569613E+03 -0.10022867634E+04  0.13369705376E+04  0.50400001928E-02 0.  1.
</event>
<event>
 5   0  0.3600963E-06  0.2873792E+04  0.7818609E-02  0.8280718E-01
       -1   -1    0    0    0  501  0.00000000000E+00  0.00000000000E+00  0.11431951418E+04  0.11431951418E+04  0.50400001928E-02 0. -1.
        1   -1    0    0  501    0  0.00000000000E+00  0.00000000000E+00 -0.18060523831E+04  0.18060523831E+04  0.50400001928E-02 0.  1.
    10030    2    1    2    0    0  0.00000000000E+00  0.00000000000E+00 -0.66285724129E+03  0.29492475249E+04  0.28737921360E+04 0.  0.
        5    1    3    3  502    0 -0.12474673415E+04 -0.44262999935E+03 -0.90517123368E+03  0.16035751111E+04  0.46999998093E+01 0.  1.
       -5    1    3    3    0  502  0.12474673415E+04  0.44262999935E+03  0.24231399239E+03  0.13456724139E+04  0.46999998093E+01 0. -1.
</event>
<event>
 5   0  0.3371603E-06  0.2783061E+04  0.7818609E-02  0.8308547E-01
        1   -1    0    0  501    0  0.00000000000E+00  0.00000000000E+00  0.14389814371E+04  0.14389814371E+04  0.50400001928E-02 0.  1.
       -1   -1    0    0    0  501  0.00000000000E+00  0.00000000000E+00 -0.13456439143E+04  0.13456439143E+04  0.50400001928E-02 0. -1.
    10030    2    1    2    0    0  0.00000000000E+00  0.00000000000E+00  0.93337522804E+02  0.27846253515E+04  0.27830606273E+04 0.  0.
        1    1    3    3  502    0  0.12694687270E+04  0.35103059169E+03  0.49590146856E+03  0.14073704529E+04  0.50400001928E-02 0. -1.
       -1    1    3    3    0  502 -0.12694687270E+04 -0.35103059169E+03 -0.40256394576E+03  0.13772548986E+04  0.50400001928E-02 0.  1.
</event>
<event>
 5   0  0.9065579E-06  0.2794479E+04  0.7818609E-02  0.8304985E-01
        2   -1    0    0  501    0  0.00000000000E+00  0.00000000000E+00  0.18704282757E+04  0.18704282757E+04  0.25500000920E-02 0. -1.
       -2   -1    0    0    0  501  0.00000000000E+00  0.00000000000E+00 -0.10437598153E+04  0.10437598153E+04  0.25500000920E-02 0.  1.
    10030    2    1    2    0    0  0.00000000000E+00  0.00000000000E+00  0.82666846049E+03  0.29141880910E+04  0.27944787504E+04 0.  0.
        3    1    3    3  502    0 -0.32182977188E+03 -0.83831677125E+03  0.15296717424E+04  0.17737657852E+04  0.10100000352E+00 0. -1.
       -3    1    3    3    0  502  0.32182977188E+03  0.83831677125E+03 -0.70300328191E+03  0.11404223058E+04  0.10100000352E+00 0.  1.
</event>
<event>
 5   0  0.3371603E-06  0.2867214E+04  0.7818609E-02  0.8282700E-01
        1   -1    0    0  501    0  0.00000000000E+00  0.00000000000E+00  0.17384786199E+04  0.17384786199E+04  0.50400001928E-02 0.  1.
       -1   -1    0    0    0  501  0.00000000000E+00  0.00000000000E+00 -0.11821999837E+04  0.11821999838E+04  0.50400001928E-02 0. -1.
    10030    2    1    2    0    0  0.00000000000E+00  0.00000000000E+00  0.55627863617E+03  0.29206786037E+04  0.28672142551E+04 0.  0.
        1    1    3    3  502    0 -0.12041876447E+04  0.56909546382E+03  0.81839856460E+03  0.15632382228E+04  0.50400001928E-02 0.  1.
       -1    1    3    3    0  502  0.12041876447E+04 -0.56909546382E+03 -0.26211992843E+03  0.13574403809E+04  0.50400001928E-02 0. -1.
</event>
<event>
 5   0  0.3371603E-06  0.2715819E+04  0.7818609E-02  0.8329890E-01
       -1   -1    0    0    0  501  0.00000000000E+00  0.00000000000E+00  0.17909993290E+04  0.17909993290E+04  0.50400001928E-02 0.  1.
        1   -1    0    0  501    0  0.00000000000E+00  0.00000000000E+00 -0.10295470589E+04  0.10295470589E+04  0.50400001928E-02 0. -1.
    10030    2    1    2    0    0  0.00000000000E+00  0.00000000000E+00  0.76145227015E+03  0.28205463879E+04  0.27158189127E+04 0.  0.
        1    1    3    3  502    0  0.11133405707E+04  0.45158177215E+03 -0.27649965242E+03  0.12328444269E+04  0.50400001928E-02 0. -1.
       -1    1    3    3    0  502 -0.11133405707E+04 -0.45158177215E+03  0.10379519226E+04  0.15877019610E+04  0.50400001928E-02 0.  1.
</event>
<event>
 5   0  0.3397882E-06  0.2804716E+04  0.7818609E-02  0.8301806E-01
        1   -1    0    0  501    0  0.00000000000E+00  0.00000000000E+00  0.15246700568E+04  0.15246700568E+04  0.50400001928E-02 0. -1.
       -1   -1    0    0    0  501  0.00000000000E+00  0.00000000000E+00 -0.12898579491E+04  0.12898579492E+04  0.50400001928E-02 0.  1.
    10030    2    1    2    0    0  0.00000000000E+00  0.00000000000E+00  0.23481210768E+03  0.28145280060E+04  0.28047158805E+04 0.  0.
        2    1    3    3  502    0 -0.96524936756E+03  0.47480291313E+03  0.10202555812E+04  0.14825874675E+04  0.25500000920E-02 0. -1.
       -2    1    3    3    0  502  0.96524936756E+03 -0.47480291313E+03 -0.78544347352E+03  0.13319405385E+04  0.25500000920E-02 0.  1.
</event>
<event>
 5   0  0.9260173E-06  0.2785518E+04  0.7818609E-02  0.8307779E-01
       -2   -1    0    0    0  501  0.00000000000E+00  0.00000000000E+00  0.85921430482E+03  0.85921430483E+03  0.25500000920E-02 0.  1.
        2   -1    0    0  501    0  0.00000000000E+00  0.00000000000E+00 -0.22576182893E+04  0.22576182893E+04  0.25500000920E-02 0. -1.
    10030    2    1    2    0    0  0.00000000000E+00  0.00000000000E+00 -0.13984039845E+04  0.31168325941E+04  0.27855182132E+04 0.  0.
        1    1    3    3  502    0  0.48508848954E+03  0.42394190699E+01 -0.21600313708E+04  0.22138347586E+04  0.50400001928E-02 0. -1.
       -1    1    3    3    0  502 -0.48508848954E+03 -0.42394190699E+01  0.76162738634E+03  0.90299783555E+03  0.50400001928E-02 0.  1.
</event>
<event>
 5   0  0.9065579E-06  0.2823601E+04  0.7818609E-02  0.8295978E-01
        2   -1    0    0  501    0  0.00000000000E+00  0.00000000000E+00  0.18592791483E+04  0.18592791483E+04  0.25500000920E-02 0. -1.
       -2   -1    0    0    0  501  0.00000000000E+00  0.00000000000E+00 -0.10720179825E+04  0.10720179825E+04  0.25500000920E-02 0.  1.
    10030    2    1    2    0    0  0.00000000000E+00  0.00000000000E+00  0.78726116582E+03  0.29312971308E+04  0.28236010210E+04 0.  0.
        3    1    3    3  502    0 -0.68319285102E+03  0.11489597753E+04 -0.77918378207E+02  0.13390042273E+04  0.10100000352E+00 0.  1.
       -3    1    3    3    0  502  0.68319285102E+03 -0.11489597753E+04  0.86517954403E+03  0.15922929035E+04  0.10100000352E+00 0. -1.
</event>
<event>
 5   0  0.9342133E-06  0.2728747E+04  0.7818609E-02  0.8325738E-01
        2   -1    0    0  501    0  0.00000000000E+00  0.00000000000E+00  0.10983636944E+04  0.10983636944E+04  0.25500000920E-02 0.  1.
       -2   -1    0    0    0  501  0.00000000000E+00  0.00000000000E+00 -0.16948070855E+04  0.16948070855E+04  0.25500000920E-02 0. -1.
    10030    2    1    2    0    0  0.00000000000E+00  0.00000000000E+00 -0.59644339109E+03  0.27931707798E+04  0.27287466512E+04 0.  0.
        2    1    3    3  502    0 -0.24237654063E+03 -0.89401966432E+02 -0.16695433604E+04  0.16894123628E+04  0.25500000920E-02 0. -1.
       -2    1    3    3    0  502  0.24237654063E+03  0.89401966432E+02  0.10730999693E+04  0.11037584171E+04  0.25500000920E-02 0.  1.
</event>
<event>
 5   0  0.9260173E-06  0.2797910E+04  0.7818609E-02  0.8303918E-01
       -2   -1    0    0    0  501  0.00000000000E+00  0.00000000000E+00  0.82853433515E+03  0.82853433516E+03  0.25500000920E-02 0.  1.
        2   -1    0    0  501    0  0.00000000000E+00  0.00000000000E+00 -0.23620924908E+04  0.23620924908E+04  0.25500000920E-02 0. -1.
    10030    2    1    2    0    0  0.00000000000E+00  0.00000000000E+00 -0.15335581556E+04  0.31906268260E+04  0.27979097422E+04 0.  0.
        1    1    3    3  502    0  0.10188617231E+04  0.35562835720E+03 -0.17819718594E+04  0.20832605327E+04  0.50400001928E-02 0. -1.
       -1    1    3    3    0  502 -0.10188617231E+04 -0.35562835720E+03  0.24841370378E+03  0.11073662933E+04  0.50400001928E-02 0.  1.
</event>
<event>
 5   0  0.9065579E-06  0.2802733E+04  0.7818609E-02  0.8302420E-01
       -2   -1    0    0    0  501  0.00000000000E+00  0.00000000000E+00  0.11319821179E+04  0.11319821179E+04  0.25500000920E-02 0.  1.
        2   -1    0    0  501    0  0.00000000000E+00  0.00000000000E+00 -0.17348580429E+04  0.17348580429E+04  0.25500000920E-02 0. -1.
    10030    2    1    2    0    0  0.00000000000E+00  0.00000000000E+00 -0.60287592498E+03  0.28668401608E+04  0.28027331530E+04 0.  0.
        3    1    3    3  502    0 -0.56793358984E+03  0.12811242719E+04 -0.30086943144E+03  0.14333005224E+04  0.10100000352E+00 0.  1.
       -3    1    3    3    0  502  0.56793358984E+03 -0.12811242719E+04 -0.30200649353E+03  0.14335396384E+04  0.10100000352E+00 0. -1.
</event>
<event>
 5   0  0.3371603E-06  0.2790603E+04  0.7818609E-02  0.8306192E-01
        1   -1    0    0  501    0  0.00000000000E+00  0.00000000000E+00  0.20768729244E+04  0.20768729244E+04  0.50400001928E-02 0.  1.
       -1   -1    0    0    0  501  0.00000000000E+00  0.00000000000E+00 -0.93740249199E+03  0.93740249201E+03  0.50400001928E-02 0. -1.
    10030    2    1    2    0    0  0.00000000000E+00  0.00000000000E+00  0.11394704324E+04  0.30142754164E+04  0.27906026983E+04 0.  0.
        1    1    3    3  502    0 -0.11088897746E+04 -0.53703930673E+03  0.12770642398E+04  0.17745255202E+04  0.50400001928E-02 0.  1.
       -1    1    3    3    0  502  0.11088897746E+04  0.53703930673E+03 -0.13759380743E+03  0.12397498962E+04  0.50400001928E-02 0. -1.
</event>
<event>
 5   0  0.3006875E-06  0.2834601E+04  0.7818609E-02  0.8292606E-01
        3   -1    0    0  501    0  0.00000000000E+00  0.00000000000E+00  0.90275390222E+03  0.90275390787E+03  0.10100000352E+00 0. -1.
       -3   -1    0    0    0  501  0.00000000000E+00  0.00000000000E+00 -0.22251251441E+04  0.22251251464E+04  0.10100000352E+00 0.  1.
    10030    2    1    2    0    0  0.00000000000E+00  0.00000000000E+00 -0.13223712419E+04  0.31278790543E+04  0.28346007967E+04 0.  0.
        5    1    3    3  502    0  0.28852594951E+03 -0.11897744310E+04 -0.14491451666E+04  0.18970646336E+04  0.46999998093E+01 0.  1.
       -5    1    3    3    0  502 -0.28852594951E+03  0.11897744310E+04  0.12677392475E+03  0.12308144207E+04  0.46999998093E+01 0. -1.
</event>
<event>
 5   0  0.9426937E-06  0.2795560E+04  0.7818609E-02  0.8304648E-01
       -2   -1    0    0    0  501  0.00000000000E+00  0.00000000000E+00  0.73330045749E+03  0.73330045749E+03  0.25500000920E-02 0.  1.
        2   -1    0    0  501    0  0.00000000000E+00  0.00000000000E+00 -0.26643763601E+04  0.26643763601E+04  0.25500000920E-02 0. -1.
    10030    2    1    2    0    0  0.00000000000E+00  0.00000000000E+00 -0.19310759027E+04  0.33976768176E+04  0.27955596247E+04 0.  0.
        4    1    3    3  502    0 -0.34849787790E+03 -0.13506127817E+04 -0.85560698188E+03  0.16363589390E+04  0.12699999809E+01 0. -1.
       -4    1    3    3    0  502  0.34849787790E+03  0.13506127817E+04 -0.10754689208E+04  0.17613178786E+04  0.12699999809E+01 0.  1.
</event>
<event>
 5   0  0.9342133E-06  0.2764726E+04  0.7818609E-02  0.8314304E-01
       -2   -1    0    0    0  501  0.00000000000E+00  0.00000000000E+00  0.91821237362E+03  0.91821237362E+03  0.25500000920E-02 0. -1.
        2   -1    0    0  501    0  0.00000000000E+00  0.00000000000E+00 -0.20811382486E+04  0.20811382486E+04  0.25500000920E-02 0.  1.
    10030    2    1    2    0    0  0.00000000000E+00  0.00000000000E+00 -0.11629258749E+04  0.29993506222E+04  0.27647255857E+04 0.  0.
        2    1    3    3  502    0 -0.13443722437E+04  0.28563560346E+03 -0.42054262789E+03  0.14372823416E+04  0.25500000920E-02 0. -1.
       -2    1    3    3    0  502  0.13443722437E+04 -0.28563560346E+03 -0.74238324706E+03  0.15620682806E+04  0.25500000920E-02 0.  1.
</event>
<event>
 5   0  0.3397882E-06  0.2825290E+04  0.7818609E-02  0.8295460E-01
       -1   -1    0    0    0  501  0.00000000000E+00  0.00000000000E+00  0.16895768949E+04  0.16895768949E+04  0.50400001928E-02 0.  1.
        1   -1    0    0  501    0  0.00000000000E+00  0.00000000000E+00 -0.11811038862E+04  0.11811038862E+04  0.50400001928E-02 0. -1.
    10030    2    1    2    0    0  0.00000000000E+00  0.00000000000E+00  0.50847300870E+03  0.28706807811E+04  0.28252899579E+04 0.  0.
        2    1    3    3  502    0 -0.50895991996E+03 -0.13009392089E+04  0.46756875564E+03  0.14731271387E+04  0.25500000920E-02 0.  1.
       -2    1    3    3    0  502  0.50895991996E+03  0.13009392089E+04  0.40904253061E+02  0.13975536424E+04  0.25500000920E-02 0. -1.
</event>
<event>
 5   0  0.3397882E-06  0.2883087E+04  0.7818609E-02  0.8277927E-01
        1   -1    0    0  501    0  0.00000000000E+00  0.00000000000E+00  0.17025460903E+04  0.17025460903E+04  0.50400001928E-02 0.  1.
       -1   -1    0    0    0  501  0.00000000000E+00  0.00000000000E+00 -0.12205527544E+04  0.12205527544E+04  0.50400001928E-02 0. -1.
    10030    2    1    2    0    0  0.00000000000E+00  0.00000000000E+00  0.48199333593E+03  0.29230988448E+04  0.28830867625E+04 0.  0.
        2    1    3    3  502    0 -0.56225807500E+03 -0.43620004907E+03 -0.10300535173E+04  0.12519644061E+04  0.25500000920E-02 0. -1.
       -2    1    3    3    0  502  0.56225807500E+03  0.43620004907E+03  0.15120468532E+04  0.16711344386E+04  0.25500000920E-02 0.  1.
</event>
<event>
 5   0  0.9260173E-06  0.2818279E+04  0.7818609E-02  0.8297616E-01
        2   -1    0    0  501    0  0.00000000000E+00  0.00000000000E+00  0.17908698012E+04  0.17908698012E+04  0.25500000920E-02 0.  1.
       -2   -1    0    0    0  501  0.00000000000E+00  0.00000000000E+00 -0.11087763826E+04  0.11087763826E+04  0.25500000920E-02 0. -1.
    10030    2    1    2    0    0  0.00000000000E+00  0.00000000000E+00  0.68209341863E+03  0.28996461838E+04  0.28182790066E+04 0.  0.
        1    1    3    3  502    0 -0.12757072838E+03 -0.24742049842E+03  0.17622985095E+04  0.17841488812E+04  0.50400001928E-02 0.  1.
       -1    1    3    3    0  502  0.12757072838E+03  0.24742049842E+03 -0.10802050908E+04  0.11154973026E+04  0.50400001928E-02 0. -1.
</event>
<event>
 5   0  0.3371603E-06  0.2809991E+04  0.7818609E-02  0.8300173E-01
        1   -1    0    0  501    0  0.00000000000E+00  0.00000000000E+00  0.25427007256E+04  0.25427007256E+04  0.50400001928E-02 0. -1.
       -1   -1    0    0    0  501  0.00000000000E+00  0.00000000000E+00 -0.77634474639E+03  0.77634474641E+03  0.50400001928E-02 0.  1.
    10030    2    1    2    0    0  0.00000000000E+00  0.00000000000E+00  0.17663559792E+04  0.33190454720E+04  0.28099909964E+04 0.  0.
        1    1    3    3  502    0 -0.94794853966E+03  0.83613272912E+03  0.15862785043E+03  0.12739258885E+04  0.50400001928E-02 0.  1.
       -1    1    3    3    0  502  0.94794853966E+03 -0.83613272912E+03  0.16077281287E+04  0.20451195834E+04  0.50400001928E-02 0. -1.
</event>
<event>
 5   0  0.3600963E-06  0.2779344E+04  0.7818609E-02  0.8309710E-01
       -1   -1    0    0    0  501  0.00000000000E+00  0.00000000000E+00  0.14489263528E+04  0.14489263528E+04  0.50400001928E-02 0.  1.
        1   -1    0    0  501    0  0.00000000000E+00  0.00000000000E+00 -0.13328409355E+04  0.13328409355E+04  0.50400001928E-02 0. -1.
    10030    2    1    2    0    0  0.00000000000E+00  0.00000000000E+00  0.11608541730E+03  0.27817672884E+04  0.27793440633E+04 0.  0.
        5    1    3    3  502    0  0.15259586835E+03 -0.68630886424E+01 -0.13244050764E+04  0.13331929708E+04  0.46999998093E+01 0. -1.
       -5    1    3    3    0  502 -0.15259586835E+03  0.68630886424E+01  0.14404904937E+04  0.14485743175E+04  0.46999998093E+01 0.  1.
</event>
<event>
 5   0  0.3371603E-06  0.2807104E+04  0.7818609E-02  0.8301066E-01
       -1   -1    0    0    0  501  0.00000000000E+00  0.00000000000E+00  0.12824791581E+04  0.12824791581E+04  0.50400001928E-02 0.  1.
        1   -1    0    0  501    0  0.00000000000E+00  0.00000000000E+00 -0.15360545030E+04  0.15360545030E+04  0.50400001928E-02 0. -1.
    10030    2    1    2    0    0  0.00000000000E+00  0.00000000000E+00 -0.25357534493E+03  0.28185336612E+04  0.28071037643E+04 0.  0.
        1    1    3    3  502    0  0.13582118265E+04 -0.33288375069E+03 -0.24730526902E+03  0.14201094512E+04  0.50400001928E-02 0. -1.
       -1    1    3    3    0  502 -0.13582118265E+04  0.33288375069E+03 -0.62700759081E+01  0.13984242100E+04  0.50400001928E-02 0.  1.
</event>
<event>
 5   0  0.3438130E-06  0.2849437E+04  0.7818609E-02  0.8288082E-01
       -1   -1    0    0    0  501  0.00000000000E+00  0.00000000000E+00  0.18319430321E+04  0.18319430321E+04  0.50400001928E-02 0. -1.
        1   -1    0    0  501    0  0.00000000000E+00  0.00000000000E+00 -0.11080164494E+04  0.11080164495E+04  0.50400001928E-02 0.  1.
    10030    2    1    2    0    0  0.00000000000E+00  0.00000000000E+00  0.72392658262E+03  0.29399594815E+04  0.28494371472E+04 0.  0.
        3    1    3    3  502    0  0.12126178950E+04 -0.60239114865E+03  0.81933562758E+03  0.15826016985E+04  0.10100000352E+00 0.  1.
       -3    1    3    3    0  502 -0.12126178950E+04  0.60239114865E+03 -0.95409044961E+02  0.13573577831E+04  0.10100000352E+00 0. -1.
</event>
<event>
 5   0  0.9065579E-06  0.2787836E+04  0.7818609E-02  0.8307055E-01
       -2   -1    0    0    0  501  0.00000000000E+00  0.00000000000E+00  0.24536370497E+04  0.24536370497E+04  0.25500000920E-02 0.  1.
        2   -1    0    0  501    0  0.00000000000E+00  0.00000000000E+00 -0.79188872112E+03  0.79188872112E+03  0.25500000920E-02 0. -1.
    10030    2    1    2    0    0  0.00000000000E+00  0.00000000000E+00  0.16617483286E+04  0.32455257708E+04  0.27878360823E+04 0.  0.
        3    1    3    3  502    0  0.66170459110E+03  0.11957217976E+04  0.51119467966E+03  0.14590831346E+04  0.10100000352E+00 0. -1.
       -3    1    3    3    0  502 -0.66170459110E+03 -0.11957217976E+04  0.11505536489E+04  0.17864426362E+04  0.10100000352E+00 0.  1.
</event>
<event>
 5   0  0.9260173E-06  0.2770134E+04  0.7818609E-02  0.8312601E-01
        2   -1    0    0  501    0  0.00000000000E+00  0.00000000000E+00  0.15590058044E+04  0.15590058044E+04  0.25500000920E-02 0.  1.
       -2   -1    0    0    0  501  0.00000000000E+00  0.00000000000E+00 -0.12305348982E+04  0.12305348982E+04  0.25500000920E-02 0. -1.
    10030    2    1    2    0    0  0.00000000000E+00  0.00000000000E+00  0.32847090612E+03  0.27895407026E+04  0.27701343280E+04 0.  0.
        1    1    3    3  502    0 -0.14552984219E+03  0.13737194464E+04  0.26557342332E+03  0.14067029877E+04  0.50400001928E-02 0.  1.
       -1    1    3    3    0  502  0.14552984219E+03 -0.13737194464E+04  0.62897482803E+02  0.13828377149E+04  0.50400001928E-02 0. -1.
</event>
<event>
 5   0  0.9426937E-06  0.2783705E+04  0.7818609E-02  0.8308345E-01
       -2   -1    0    0    0  501  0.00000000000E+00  0.00000000000E+00  0.11587165592E+04  0.11587165592E+04  0.25500000920E-02 0.  1.
        2   -1    0    0  501    0  0.00000000000E+00  0.00000000000E+00 -0.16718961567E+04  0.16718961567E+04  0.25500000920E-02 0. -1.
    10030    2    1    2    0    0  0.00000000000E+00  0.00000000000E+00 -0.51317959751E+03  0.28306127158E+04  0.27837052731E+04 0.  0.
        4    1    3    3  502    0 -0.25612007824E+03 -0.98933384705E+03  0.70425245543E+03  0.12411092173E+04  0.12699999809E+01 0.  1.
       -4    1    3    3    0  502  0.25612007824E+03  0.98933384705E+03 -0.12174320529E+04  0.15895034985E+04  0.12699999809E+01 0. -1.
</event>
<event>
 5   0  0.3397882E-06  0.2820449E+04  0.7818609E-02  0.8296948E-01
       -1   -1    0    0    0  501  0.00000000000E+00  0.00000000000E+00  0.10524661109E+04  0.10524661109E+04  0.50400001928E-02 0. -1.
        1   -1    0    0  501    0  0.00000000000E+00  0.00000000000E+00 -0.18895928687E+04  0.18895928687E+04  0.50400001928E-02 0.  1.
    10030    2    1    2    0    0  0.00000000000E+00  0.00000000000E+00 -0.83712675777E+03  0.29420589796E+04  0.28204485159E+04 0.  0.
        2    1    3    3  502    0 -0.80750202856E+03  0.11511345436E+04 -0.30639942101E+03  0.14391146128E+04  0.25500000920E-02 0. -1.
       -2    1    3    3    0  502  0.80750202856E+03 -0.11511345436E+04 -0.53072733676E+03  0.15029443668E+04  0.25500000920E-02 0.  1.
</event>
<event>
 5   0  0.9252359E-06  0.2752378E+04  0.7818609E-02  0.8318207E-01
       -2   -1    0    0    0  501  0.00000000000E+00  0.00000000000E+00  0.13157345032E+04  0.13157345032E+04  0.25500000920E-02 0. -1.
        2   -1    0    0  501    0  0.00000000000E+00  0.00000000000E+00 -0.14394214483E+04  0.14394214483E+04  0.25500000920E-02 0.  1.
    10030    2    1    2    0    0  0.00000000000E+00  0.00000000000E+00 -0.12368694511E+03  0.27551559516E+04  0.27523782184E+04 0.  0.
        5    1    3    3  502    0  0.10634046235E+04  0.39061459214E+03 -0.84395473118E+03  0.14126892196E+04  0.46999998093E+01 0.  1.
       -5    1    3    3    0  502 -0.10634046235E+04 -0.39061459214E+03  0.72026778607E+03  0.13424667320E+04  0.46999998093E+01 0. -1.
</event>
<event>
 5   0  0.9252359E-06  0.2751601E+04  0.7818609E-02  0.8318454E-01
        2   -1    0    0  501    0  0.00000000000E+00  0.00000000000E+00  0.18116243632E+04  0.18116243632E+04  0.25500000920E-02 0.  1.
       -2   -1    0    0    0  501  0.00000000000E+00  0.00000000000E+00 -0.10448231469E+04  0.10448231469E+04  0.25500000920E-02 0. -1.
    10030    2    1    2    0    0  0.00000000000E+00  0.00000000000E+00  0.76680121626E+03  0.28564475101E+04  0.27516010381E+04 0.  0.
        5    1    3    3  502    0 -0.11718521693E+04  0.72079814673E+03  0.37905752258E+03  0.14270578722E+04  0.46999998093E+01 0.  1.
       -5    1    3    3    0  502  0.11718521693E+04 -0.72079814673E+03  0.38774369368E+03  0.14293896380E+04  0.46999998093E+01 0. -1.
</event>
<event>
 5   0  0.9065579E-06  0.2807779E+04  0.7818609E-02  0.8300857E-01
       -2   -1    0    0    0  501  0.00000000000E+00  0.00000000000E+00  0.76726040146E+03  0.76726040146E+03  0.25500000920E-02 0. -1.
        2   -1    0    0  501    0  0.00000000000E+00  0.00000000000E+00 -0.25687576499E+04  0.25687576499E+04  0.25500000920E-02 0.  1.
    10030    2    1    2    0    0  0.00000000000E+00  0.00000000000E+00 -0.18014972484E+04  0.33360180513E+04  0.28077792119E+04 0.  0.
        3    1    3    3  502    0  0.23484530328E+03 -0.62079539400E+03 -0.23705654079E+04  0.24617310172E+04  0.10100000352E+00 0.  1.
       -3    1    3    3    0  502 -0.23484530328E+03  0.62079539400E+03  0.56906815950E+03  0.87428703413E+03  0.10100000352E+00 0. -1.
</event>
<event>
 5   0  0.9252359E-06  0.2777200E+04  0.7818609E-02  0.8310382E-01
       -2   -1    0    0    0  501  0.00000000000E+00  0.00000000000E+00  0.94364079611E+03  0.94364079612E+03  0.25500000920E-02 0.  1.
        2   -1    0    0  501    0  0.00000000000E+00  0.00000000000E+00 -0.20433726756E+04  0.20433726756E+04  0.25500000920E-02 0. -1.
    10030    2    1    2    0    0  0.00000000000E+00  0.00000000000E+00 -0.10997318795E+04  0.29870134717E+04  0.27771998980E+04 0.  0.
        5    1    3    3  502    0 -0.35205493609E+03  0.12544856411E+04 -0.33478458955E+02  0.13033878160E+04  0.46999998093E+01 0. -1.
       -5    1    3    3    0  502  0.35205493609E+03 -0.12544856411E+04 -0.10662534205E+04  0.16836256557E+04  0.46999998093E+01 0.  1.
</event>
<event>
 5   0  0.9342133E-06  0.2460163E+04  0.7818609E-02  0.8417317E-01
        2   -1    0    0  501    0  0.00000000000E+00  0.00000000000E+00  0.11307744376E+04  0.11307744376E+04  0.25500000920E-02 0. -1.
       -2   -1    0    0    0  501  0.00000000000E+00  0.00000000000E+00 -0.13381095611E+04  0.13381095611E+04  0.25500000920E-02 0.  1.
    10030    2    1    2    0    0  0.00000000000E+00  0.00000000000E+00 -0.20733512342E+03  0.24688839987E+04  0.24601626665E+04 0.  0.
        2    1    3    3  502    0 -0.49909245979E+03 -0.49971260584E+03  0.90702440544E+03  0.11495648063E+04  0.25500000920E-02 0. -1.
       -2    1    3    3    0  502  0.49909245979E+03  0.49971260584E+03 -0.11143595289E+04  0.13193191924E+04  0.25500000920E-02 0.  1.
</event>
<event>
 5   0  0.9252359E-06  0.2820756E+04  0.7818609E-02  0.8296853E-01
       -2   -1    0    0    0  501  0.00000000000E+00  0.00000000000E+00  0.12975863518E+04  0.12975863518E+04  0.25500000920E-02 0. -1.
        2   -1    0    0  501    0  0.00000000000E+00  0.00000000000E+00 -0.15329739711E+04  0.15329739711E+04  0.25500000920E-02 0.  1.
    10030    2    1    2    0    0  0.00000000000E+00  0.00000000000E+00 -0.23538761926E+03  0.28305603229E+04  0.28207559998E+04 0.  0.
        5    1    3    3  502    0  0.19746630223E+03  0.12946334423E+04  0.40764787297E+03  0.13715930770E+04  0.46999998093E+01 0. -1.
       -5    1    3    3    0  502 -0.19746630223E+03 -0.12946334423E+04 -0.64303549224E+03  0.14589672459E+04  0.46999998093E+01 0.  1.
</event>
<event>
 5   0  0.9342133E-06  0.2799138E+04  0.7818609E-02  0.8303536E-01
        2   -1    0    0  501    0  0.00000000000E+00  0.00000000000E+00  0.10305760222E+04  0.10305760222E+04  0.25500000920E-02 0. -1.
       -2   -1    0    0    0  501  0.00000000000E+00  0.00000000000E+00 -0.19006776334E+04  0.19006776334E+04  0.25500000920E-02 0.  1.
    10030    2    1    2    0    0  0.00000000000E+00  0.00000000000E+00 -0.87010161112E+03  0.29312536556E+04  0.27991375779E+04 0.  0.
        2    1    3    3  502    0 -0.11821745390E+04 -0.29777648199E+03  0.28484438307E+03  0.12519360193E+04  0.25500000920E-02 0. -1.
       -2    1    3    3    0  502  0.11821745390E+04  0.29777648199E+03 -0.11549459942E+04  0.16793176363E+04  0.25500000920E-02 0.  1.
</event>
<event>
 5   0  0.9426937E-06  0.2823239E+04  0.7818609E-02  0.8296090E-01
        2   -1    0    0  501    0  0.00000000000E+00  0.00000000000E+00  0.10929358514E+04  0.10929358514E+04  0.25500000920E-02 0.  1.
       -2   -1    0    0    0  501  0.00000000000E+00  0.00000000000E+00 -0.18232261845E+04  0.18232261845E+04  0.25500000920E-02 0. -1.
    10030    2    1    2    0    0  0.00000000000E+00  0.00000000000E+00 -0.73029033304E+03  0.29161620359E+04  0.28232387517E+04 0.  0.
        4    1    3    3  502    0  0.36849724929E+03  0.13388612337E+04 -0.62712276053E+03  0.15236876962E+04  0.12699999809E+01 0.  1.
       -4    1    3    3    0  502 -0.36849724929E+03 -0.13388612337E+04 -0.10316757251E+03  0.13924743397E+04  0.12699999809E+01 0. -1.
</event>
<event>
 5   0  0.9260173E-06  0.2821032E+04  0.7818609E-02  0.8296768E-01
        2   -1    0    0  501    0  0.00000000000E+00  0.00000000000E+00  0.20514418313E+04  0.20514418313E+04  0.25500000920E-02 0. -1.
       -2   -1    0    0    0  501  0.00000000000E+00  0.00000000000E+00 -0.96983297493E+03  0.96983297494E+03  0.25500000920E-02 0.  1.
    10030    2    1    2    0    0  0.00000000000E+00  0.00000000000E+00  0.10816088564E+04  0.30212748062E+04  0.28210323884E+04 0.  0.
        1    1    3    3  502    0 -0.25635094125E+03  0.12391146525E+04  0.12082891636E+04  0.17495952761E+04  0.50400001928E-02 0. -1.
       -1    1    3    3    0  502  0.25635094125E+03 -0.12391146525E+04 -0.12668030722E+03  0.12716795302E+04  0.50400001928E-02 0.  1.
</event>
<event>
 5   0  0.3371603E-06  0.2833250E+04  0.7818609E-02  0.8293019E-01
       -1   -1    0    0    0  501  0.00000000000E+00  0.00000000000E+00  0.16510415876E+04  0.16510415876E+04  0.50400001928E-02 0.  1.
        1   -1    0    0  501    0  0.00000000000E+00  0.00000000000E+00 -0.12154915069E+04  0.12154915069E+04  0.50400001928E-02 0. -1.
    10030    2    1    2    0    0  0.00000000000E+00  0.00000000000E+00  0.43555008066E+03  0.28665330945E+04  0.28332504494E+04 0.  0.
        1    1    3    3  502    0 -0.56639098319E+03 -0.78970352823E+03 -0.82505932344E+03  0.12748150044E+04  0.50400001928E-02 0. -1.
       -1    1    3    3    0  502  0.56639098319E+03  0.78970352823E+03  0.12606094041E+04  0.15917180900E+04  0.50400001928E-02 0.  1.
</event>
<event>
 5   0  0.3600963E-06  0.2466499E+04  0.7818609E-02  0.8415018E-01
        1   -1    0    0  501    0  0.00000000000E+00  0.00000000000E+00  0.21036497910E+04  0.21036497910E+04  0.50400001928E-02 0. -1.
       -1   -1    0    0    0  501  0.00000000000E+00  0.00000000000E+00 -0.72298370478E+03  0.72298370480E+03  0.50400001928E-02 0.  1.
    10030    2    1    2    0    0  0.00000000000E+00  0.00000000000E+00  0.13806660862E+04  0.28266334958E+04  0.24664991542E+04 0.  0.
        5    1    3    3  502    0 -0.25913838370E+03 -0.72813608330E+03  0.17916648084E+04  0.19512610623E+04  0.46999998093E+01 0. -1.
       -5    1    3    3    0  502  0.25913838370E+03  0.72813608330E+03 -0.41099872215E+03  0.87537243349E+03  0.46999998093E+01 0.  1.
</event>
<event>
 5   0  0.3397882E-06  0.2788662E+04  0.7818609E-02  0.8306797E-01
       -1   -1    0    0    0  501  0.00000000000E+00  0.00000000000E+00  0.10174967892E+04  0.10174967892E+04  0.50400001928E-02 0. -1.
        1   -1    0    0  501    0  0.00000000000E+00  0.00000000000E+00 -0.19107267877E+04  0.19107267877E+04  0.50400001928E-02 0.  1.
    10030    2    1    2    0    0  0.00000000000E+00  0.00000000000E+00 -0.89322999853E+03  0.29282235769E+04  0.27886615940E+04 0.  0.
        2    1    3    3  502    0  0.50805050000E+03  0.25631712575E+02 -0.18098104195E+04  0.18799430975E+04  0.25500000920E-02 0.  1.
       -2    1    3    3    0  502 -0.50805050000E+03 -0.25631712575E+02  0.91658042101E+03  0.10482804794E+04  0.25500000920E-02 0. -1.
</event>
<event>
 5   0  0.3600963E-06  0.2793169E+04  0.7818609E-02  0.8305392E-01
        1   -1    0    0  501    0  0.00000000000E+00  0.00000000000E+00  0.16290305442E+04  0.16290305442E+04  0.50400001928E-02 0. -1.
       -1   -1    0    0    0  501  0.00000000000E+00  0.00000000000E+00 -0.11973061976E+04  0.11973061976E+04  0.50400001928E-02 0.  1.
    10030    2    1    2    0    0  0.00000000000E+00  0.00000000000E+00  0.43172434664E+03  0.28263367418E+04  0.27931690724E+04 0.  0.
        5    1    3    3  502    0 -0.52896661460E+03 -0.90293274415E+03 -0.71996210528E+03  0.12702207457E+04  0.46999998093E+01 0.  1.
       -5    1    3    3    0  502  0.52896661460E+03  0.90293274415E+03  0.11516864519E+04  0.15561159961E+04  0.46999998093E+01 0. -1.
</event>
<event>
 5   0  0.9065579E-06  0.2774176E+04  0.7818609E-02  0.8311331E-01
       -2   -1    0    0    0  501  0.00000000000E+00  0.00000000000E+00  0.92695423619E+03  0.92695423619E+03  0.25500000920E-02 0.  1.
        2   -1    0    0  501    0  0.00000000000E+00  0.00000000000E+00 -0.20756283335E+04  0.20756283335E+04  0.25500000920E-02 0. -1.
    10030    2    1    2    0    0  0.00000000000E+00  0.00000000000E+00 -0.11486740973E+04  0.30025825697E+04  0.27741755363E+04 0.  0.
        3    1    3    3  502    0 -0.22082406361E+03  0.10129066305E+04  0.42309598807E+03  0.11197112728E+04  0.10100000352E+00 0.  1.
       -3    1    3    3    0  502  0.22082406361E+03 -0.10129066305E+04 -0.15717700854E+04  0.18828712969E+04  0.10100000352E+00 0. -1.
</event>
<event>
 5   0  0.9426937E-06  0.2736292E+04  0.7818609E-02  0.8323325E-01
        2   -1    0    0  501    0  0.00000000000E+00  0.00000000000E+00  0.93730768353E+03  0.93730768354E+03  0.25500000920E-02 0. -1.
       -2   -1    0    0    0  501  0.00000000000E+00  0.00000000000E+00 -0.19970206515E+04  0.19970206515E+04  0.25500000920E-02 0.  1.
    10030    2    1    2    0    0  0.00000000000E+00  0.00000000000E+00 -0.10597129679E+04  0.29343283350E+04  0.27362915055E+04 0.  0.
        4    1    3    3  502    0  0.88599382914E+03  0.98871937038E+03 -0.17537212816E+03  0.13391445235E+04  0.12699999809E+01 0. -1.
       -4    1    3    3    0  502 -0.88599382914E+03 -0.98871937038E+03 -0.88434083977E+03  0.15951838115E+04  0.12699999809E+01 0.  1.
</event>
<event>
 5   0  0.3357244E-06  0.2782799E+04  0.7818609E-02  0.8308628E-01
       -1   -1    0    0    0  501  0.00000000000E+00  0.00000000000E+00  0.99188620209E+03  0.99188620210E+03  0.50400001928E-02 0. -1.
        1   -1    0    0  501    0  0.00000000000E+00  0.00000000000E+00 -0.19518295554E+04  0.19518295554E+04  0.50400001928E-02 0.  1.
    10030    2    1    2    0    0  0.00000000000E+00  0.00000000000E+00 -0.95994335333E+03  0.29437157575E+04  0.27827991698E+04 0.  0.
        4    1    3    3  502    0 -0.78592036195E+03 -0.44744715719E+03  0.63858127649E+03  0.11070986557E+04  0.12699999809E+01 0. -1.
       -4    1    3    3    0  502  0.78592036195E+03  0.44744715719E+03 -0.15985246298E+04  0.18366171019E+04  0.12699999809E+01 0.  1.
</event>
<event>
 5   0  0.3397882E-06  0.2786907E+04  0.7818609E-02  0.8307345E-01
       -1   -1    0    0    0  501  0.00000000000E+00  0.00000000000E+00  0.10423834728E+04  0.10423834728E+04  0.50400001928E-02 0. -1.
        1   -1    0    0  501    0  0.00000000000E+00  0.00000000000E+00 -0.18627626148E+04  0.18627626148E+04  0.50400001928E-02 0.  1.
    10030    2    1    2    0    0  0.00000000000E+00  0.00000000000E+00 -0.82037914197E+03  0.29051460876E+04  0.27869072201E+04 0.  0.
        2    1    3    3  502    0  0.10201928293E+04  0.93777392107E+03 -0.25734115824E+03  0.14094104468E+04  0.25500000920E-02 0. -1.
       -2    1    3    3    0  502 -0.10201928293E+04 -0.93777392107E+03 -0.56303798373E+03  0.14957356408E+04  0.25500000920E-02 0.  1.
</event>
<event>
 5   0  0.3397882E-06  0.2738864E+04  0.7818609E-02  0.8322504E-01
        1   -1    0    0  501    0  0.00000000000E+00  0.00000000000E+00  0.13467792765E+04  0.13467792765E+04  0.50400001928E-02 0. -1.
       -1   -1    0    0    0  501  0.00000000000E+00  0.00000000000E+00 -0.13924661861E+04  0.13924661861E+04  0.50400001928E-02 0.  1.
    10030    2    1    2    0    0  0.00000000000E+00  0.00000000000E+00 -0.45686909622E+02  0.27392454626E+04  0.27388644381E+04 0.  0.
        2    1    3    3  502    0 -0.21132532955E+03 -0.73336630124E+03 -0.11600416874E+04  0.13885896598E+04  0.25500000920E-02 0.  1.
       -2    1    3    3    0  502  0.21132532955E+03  0.73336630124E+03  0.11143547778E+04  0.13506558028E+04  0.25500000920E-02 0. -1.
</event>
<event>
 5   0  0.9342133E-06  0.2782431E+04  0.7818609E-02  0.8308744E-01
       -2   -1    0    0    0  501  0.00000000000E+00  0.00000000000E+00  0.80380817422E+03  0.80380817422E+03  0.25500000920E-02 0.  1.
        2   -1    0    0  501    0  0.00000000000E+00  0.00000000000E+00 -0.24078880164E+04  0.24078880164E+04  0.25500000920E-02 0. -1.
    10030    2    1    2    0    0  0.00000000000E+00  0.00000000000E+00 -0.16040798422E+04  0.32116961906E+04  0.27824306426E+04 0.  0.
        2    1    3    3  502    0 -0.88833444213E+03 -0.80293498855E+03 -0.16195724846E+04  0.20141642708E+04  0.25500000920E-02 0. -1.
       -2    1    3    3    0  502  0.88833444213E+03  0.80293498855E+03  0.15492642467E+02  0.11975319198E+04  0.25500000920E-02 0.  1.
</event>
<event>
 5   0  0.3371603E-06  0.2541159E+04  0.7818609E-02  0.8388467E-01
       -1   -1    0    0    0  501  0.00000000000E+00  0.00000000000E+00  0.10655549997E+04  0.10655549998E+04  0.50400001928E-02 0. -1.
        1   -1    0    0  501    0  0.00000000000E+00  0.00000000000E+00 -0.15150534149E+04  0.15150534149E+04  0.50400001928E-02 0.  1.
    10030    2    1    2    0    0  0.00000000000E+00  0.00000000000E+00 -0.44949841520E+03  0.25806084147E+04  0.25411593741E+04 0.  0.
        1    1    3    3  502    0  0.18221191411E+03  0.12574464342E+04 -0.22490860502E+03  0.12903319717E+04  0.50400001928E-02 0.  1.
       -1    1    3    3    0  502 -0.18221191411E+03 -0.12574464342E+04 -0.22458981018E+03  0.12902764430E+04  0.50400001928E-02 0. -1.
</event>
<event>
 5   0  0.3357244E-06  0.2758914E+04  0.7818609E-02  0.8316139E-01
        1   -1    0    0  501    0  0.00000000000E+00  0.00000000000E+00  0.11390171273E+04  0.11390171273E+04  0.50400001928E-02 0. -1.
       -1   -1    0    0    0  501  0.00000000000E+00  0.00000000000E+00 -0.16706521463E+04  0.16706521463E+04  0.50400001928E-02 0.  1.
    10030    2    1    2    0    0  0.00000000000E+00  0.00000000000E+00 -0.53163501893E+03  0.28096692736E+04  0.27589138504E+04 0.  0.
        4    1    3    3  502    0 -0.51547152029E+03 -0.32438679505E+03  0.99467733955E+03  0.11663285574E+04  0.12699999809E+01 0. -1.
       -4    1    3    3    0  502  0.51547152029E+03  0.32438679505E+03 -0.15263123585E+04  0.16433407162E+04  0.12699999809E+01 0.  1.
</event>
<event>
 5   0  0.3438130E-06  0.2825830E+04  0.7818609E-02  0.8295294E-01
        1   -1    0    0  501    0  0.00000000000E+00  0.00000000000E+00  0.16667937539E+04  0.16667937539E+04  0.50400001928E-02 0. -1.
       -1   -1    0    0    0  501  0.00000000000E+00  0.00000000000E+00 -0.11977061436E+04  0.11977061436E+04  0.50400001928E-02 0.  1.
    10030    2    1    2    0    0  0.00000000000E+00  0.00000000000E+00  0.46908761036E+03  0.28644998975E+04  0.28258302279E+04 0.  0.
        3    1    3    3  502    0  0.30977659958E+03  0.13355385024E+04  0.58083902827E+03  0.14889589048E+04  0.10100000352E+00 0. -1.
       -3    1    3    3    0  502 -0.30977659958E+03 -0.13355385024E+04 -0.11175141790E+03  0.13755409928E+04  0.10100000352E+00 0.  1.
</event>
<event>
 5   0  0.3357244E-06  0.2795954E+04  0.7818609E-02  0.8304526E-01
        1   -1    0    0  501    0  0.00000000000E+00  0.00000000000E+00  0.20794875097E+04  0.20794875097E+04  0.50400001928E-02 0.  1.
       -1   -1    0    0    0  501  0.00000000000E+00  0.00000000000E+00 -0.93981778790E+03  0.93981778791E+03  0.50400001928E-02 0. -1.
    10030    2    1    2    0    0  0.00000000000E+00  0.00000000000E+00  0.11396697218E+04  0.30193052976E+04  0.27959537559E+04 0.  0.
        4    1    3    3  502    0 -0.10849473994E+04  0.19198969744E+02  0.15216397778E+04  0.18689217978E+04  0.12699999809E+01 0.  1.
       -4    1    3    3    0  502  0.10849473994E+04 -0.19198969744E+02 -0.38197005605E+03  0.11503834998E+04  0.12699999809E+01 0. -1.
</event>
<event>
 5   0  0.9426937E-06  0.2802141E+04  0.7818609E-02  0.8302604E-01
        2   -1    0    0  501    0  0.00000000000E+00  0.00000000000E+00  0.23019939827E+04  0.23019939827E+04  0.25500000920E-02 0. -1.
       -2   -1    0    0    0  501  0.00000000000E+00  0.00000000000E+00 -0.85273806956E+03  0.85273806957E+03  0.25500000920E-02 0.  1.
    10030    2    1    2    0    0  0.00000000000E+00  0.00000000000E+00  0.14492559131E+04  0.31547320522E+04  0.28021405425E+04 0.  0.
        4    1    3    3  502    0 -0.10584058541E+04  0.46560077262E+03 -0.16612240194E+03  0.11681632150E+04  0.12699999809E+01 0.  1.
       -4    1    3    3    0  502  0.10584058541E+04 -0.46560077262E+03  0.16153783150E+04  0.19865688373E+04  0.12699999809E+01 0. -1.
</event>
<event>
 5   0  0.9342133E-06  0.2772224E+04  0.7818609E-02  0.8311944E-01
        2   -1    0    0  501    0  0.00000000000E+00  0.00000000000E+00  0.13903979778E+04  0.13903979778E+04  0.25500000920E-02 0.  1.
       -2   -1    0    0    0  501  0.00000000000E+00  0.00000000000E+00 -0.13818396483E+04  0.13818396483E+04  0.25500000920E-02 0. -1.
    10030    2    1    2    0    0  0.00000000000E+00  0.00000000000E+00  0.85583294183E+01  0.27722376261E+04  0.27722244156E+04 0.  0.
        2    1    3    3  502    0 -0.83910929844E+03 -0.48351199796E+03  0.99595862821E+03  0.13891802820E+04  0.25500000920E-02 0.  1.
       -2    1    3    3    0  502  0.83910929844E+03  0.48351199796E+03 -0.98740029879E+03  0.13830573441E+04  0.25500000920E-02 0. -1.
</event>
<event>
 5   0  0.9252359E-06  0.2799326E+04  0.7818609E-02  0.8303478E-01
       -2   -1    0    0    0  501  0.00000000000E+00  0.00000000000E+00  0.16839456843E+04  0.16839456843E+04  0.25500000920E-02 0.  1.
        2   -1    0    0  501    0  0.00000000000E+00  0.00000000000E+00 -0.11633725354E+04  0.11633725354E+04  0.25500000920E-02 0. -1.
    10030    2    1    2    0    0  0.00000000000E+00  0.00000000000E+00  0.52057314883E+03  0.28473182197E+04  0.27993257476E+04 0.  0.
        5    1    3    3  502    0  0.13433358422E+04  0.24888732879E+03  0.56970244280E+03  0.14802293912E+04  0.46999998093E+01 0.  1.
       -5    1    3    3    0  502 -0.13433358422E+04 -0.24888732879E+03 -0.49129293976E+02  0.13670888285E+04  0.46999998093E+01 0. -1.
</event>
<event>
 5   0  0.9065579E-06  0.2806950E+04  0.7818609E-02  0.8301114E-01
        2   -1    0    0  501    0  0.00000000000E+00  0.00000000000E+00  0.22757094078E+04  0.22757094078E+04  0.25500000920E-02 0.  1.
       -2   -1    0    0    0  501  0.00000000000E+00  0.00000000000E+00 -0.86555096217E+03  0.86555096218E+03  0.25500000920E-02 0. -1.
    10030    2    1    2    0    0  0.00000000000E+00  0.00000000000E+00  0.14101584456E+04  0.31412603700E+04  0.28069502793E+04 0.  0.
        3    1    3    3  502    0 -0.12839758428E+04 -0.13309511628E+03  0.88624098207E+02  0.12938943217E+04  0.10100000352E+00 0. -1.
       -3    1    3    3    0  502  0.12839758428E+04  0.13309511628E+03  0.13215343474E+04  0.18473660483E+04  0.10100000352E+00 0.  1.
</event>
<event>
 5   0  0.9260173E-06  0.2858892E+04  0.7818609E-02  0.8285214E-01
        2   -1    0    0  501    0  0.00000000000E+00  0.00000000000E+00  0.89460349362E+03  0.89460349362E+03  0.25500000920E-02 0.  1.
       -2   -1    0    0    0  501  0.00000000000E+00  0.00000000000E+00 -0.22840467420E+04  0.22840467420E+04  0.25500000920E-02 0. -1.
    10030    2    1    2    0    0  0.00000000000E+00  0.00000000000E+00 -0.13894432484E+04  0.31786502356E+04  0.28588922295E+04 0.  0.
        1    1    3    3  502    0  0.45854277763E+03  0.10758839869E+04 -0.16085544463E+04  0.19887773226E+04  0.50400001928E-02 0. -1.
       -1    1    3    3    0  502 -0.45854277763E+03 -0.10758839869E+04  0.21911119792E+03  0.11898729130E+04  0.50400001928E-02 0.  1.
</event>
<event>
 5   0  0.3438130E-06  0.2806809E+04  0.7818609E-02  0.8301158E-01
       -1   -1    0    0    0  501  0.00000000000E+00  0.00000000000E+00  0.17356871292E+04  0.17356871292E+04  0.50400001928E-02 0. -1.
        1   -1    0    0  501    0  0.00000000000E+00  0.00000000000E+00 -0.11347345143E+04  0.11347345143E+04  0.50400001928E-02 0.  1.
    10030    2    1    2    0    0  0.00000000000E+00  0.00000000000E+00  0.60095261483E+03  0.28704216435E+04  0.28068089294E+04 0.  0.
        3    1    3    3  502    0  0.11844784434E+04 -0.31295002350E+03 -0.39959447113E+03  0.12886437256E+04  0.10100000352E+00 0.  1.
       -3    1    3    3    0  502 -0.11844784434E+04  0.31295002350E+03  0.10005470860E+04  0.15817779179E+04  0.10100000352E+00 0. -1.
</event>
<event>
 5   0  0.3438130E-06  0.2760688E+04  0.7818609E-02  0.8315578E-01
       -1   -1    0    0    0  501  0.00000000000E+00  0.00000000000E+00  0.17043238426E+04  0.17043238426E+04  0.50400001928E-02 0. -1.
        1   -1    0    0  501    0  0.00000000000E+00  0.00000000000E+00 -0.11179500927E+04  0.11179500927E+04  0.50400001928E-02 0.  1.
    10030    2    1    2    0    0  0.00000000000E+00  0.00000000000E+00  0.58637374993E+03  0.28222739354E+04  0.27606875940E+04 0.  0.
        3    1    3    3  502    0 -0.97059279991E+03  0.78834549576E+03  0.89087451265E+03  0.15353163880E+04  0.10100000352E+00 0. -1.
       -3    1    3    3    0  502  0.97059279991E+03 -0.78834549576E+03 -0.30450076272E+03  0.12869575473E+04  0.10100000352E+00 0.  1.
</event>
<event>
 5   0  0.9252359E-06  0.2309135E+04  0.7818609E-02  0.8474328E-01
       -2   -1    0    0    0  501  0.00000000000E+00  0.00000000000E+00  0.11074612566E+04  0.11074612566E+04  0.25500000920E-02 0.  1.
        2   -1    0    0  501    0  0.00000000000E+00  0.00000000000E+00 -0.12036777205E+04  0.12036777205E+04  0.25500000920E-02 0. -1.
    10030    2    1    2    0    0  0.00000000000E+00  0.00000000000E+00 -0.96216463905E+02  0.23111389771E+04  0.23091352848E+04 0.  0.
        5    1    3    3  502    0  0.45305827174E+03  0.37288428316E+03 -0.10433049193E+04  0.11970011407E+04  0.46999998093E+01 0. -1.
       -5    1    3    3    0  502 -0.45305827174E+03 -0.37288428316E+03  0.94708845538E+03  0.11141378364E+04  0.46999998093E+01 0.  1.
</event>
<event>
 5   0  0.3357244E-06  0.2834030E+04  0.7818609E-02  0.8292781E-01
        1   -1    0    0  501    0  0.00000000000E+00  0.00000000000E+00  0.19399033585E+04  0.19399033585E+04  0.50400001928E-02 0.  1.
       -1   -1    0    0    0  501  0.00000000000E+00  0.00000000000E+00 -0.10350679488E+04  0.10350679488E+04  0.50400001928E-02 0. -1.
    10030    2    1    2    0    0  0.00000000000E+00  0.00000000000E+00  0.90483540973E+03  0.29749713073E+04  0.28340301975E+04 0.  0.
        4    1    3    3  502    0  0.25641037729E+03  0.12095271168E+04  0.11791081044E+04  0.17085080224E+04  0.12699999809E+01 0.  1.
       -4    1    3    3    0  502 -0.25641037729E+03 -0.12095271168E+04 -0.27427269469E+03  0.12664632849E+04  0.12699999809E+01 0. -1.
</event>
<event>
 5   0  0.9260173E-06  0.2774941E+04  0.7818609E-02  0.8311091E-01
        2   -1    0    0  501    0  0.00000000000E+00  0.00000000000E+00  0.17481205507E+04  0.17481205507E+04  0.25500000920E-02 0.  1.
       -2   -1    0    0    0  501  0.00000000000E+00  0.00000000000E+00 -0.11012248319E+04  0.11012248319E+04  0.25500000920E-02 0. -1.
    10030    2    1    2    0    0  0.00000000000E+00  0.00000000000E+00  0.64689571876E+03  0.28493453826E+04  0.27749405468E+04 0.  0.
        1    1    3    3  502    0 -0.95974871674E+03 -0.45609420184E+02 -0.70432793771E+03  0.11913335647E+04  0.50400001928E-02 0. -1.
       -1    1    3    3    0  502  0.95974871674E+03  0.45609420184E+02  0.13512236565E+04  0.16580118179E+04  0.50400001928E-02 0.  1.
</event>
<event>
 5   0  0.9065579E-06  0.2829062E+04  0.7818609E-02  0.8294302E-01
       -2   -1    0    0    0  501  0.00000000000E+00  0.00000000000E+00  0.11376970614E+04  0.11376970614E+04  0.25500000920E-02 0.  1.
        2   -1    0    0  501    0  0.00000000000E+00  0.00000000000E+00 -0.17587270218E+04  0.17587270218E+04  0.25500000920E-02 0. -1.
    10030    2    1    2    0    0  0.00000000000E+00  0.00000000000E+00 -0.62102996042E+03  0.28964240833E+04  0.28290624345E+04 0.  0.
        3    1    3    3  502    0 -0.55670175640E+03 -0.17956218338E+03 -0.16291015955E+04  0.17309336908E+04  0.10100000352E+00 0. -1.
       -3    1    3    3    0  502  0.55670175640E+03  0.17956218338E+03  0.10080716351E+04  0.11654903925E+04  0.10100000352E+00 0.  1.
</event>
<event>
 5   0  0.3438130E-06  0.2850399E+04  0.7818609E-02  0.8287790E-01
       -1   -1    0    0    0  501  0.00000000000E+00  0.00000000000E+00  0.10797352127E+04  0.10797352127E+04  0.50400001928E-02 0.  1.
        1   -1    0    0  501    0  0.00000000000E+00  0.00000000000E+00 -0.18811958453E+04  0.18811958454E+04  0.50400001928E-02 0. -1.
    10030    2    1    2    0    0  0.00000000000E+00  0.00000000000E+00 -0.80146063261E+03  0.29609310581E+04  0.28503988467E+04 0.  0.
        3    1    3    3  502    0  0.13211339268E+04 -0.16924075925E+03 -0.92750036809E+03  0.16230509019E+04  0.10100000352E+00 0. -1.
       -3    1    3    3    0  502 -0.13211339268E+04  0.16924075925E+03  0.12603973547E+03  0.13378801562E+04  0.10100000352E+00 0.  1.
</event>
<event>
 5   0  0.9065579E-06  0.2690117E+04  0.7818609E-02  0.8338219E-01
       -2   -1    0    0    0  501  0.00000000000E+00  0.00000000000E+00  0.87875144421E+03  0.87875144421E+03  0.25500000920E-02 0.  1.
        2   -1    0    0  501    0  0.00000000000E+00  0.00000000000E+00 -0.20588098766E+04  0.20588098766E+04  0.25500000920E-02 0. -1.
    10030    2    1    2    0    0  0.00000000000E+00  0.00000000000E+00 -0.11800584324E+04  0.29375613208E+04  0.26901168394E+04 0.  0.
        3    1    3    3  502    0  0.13851591203E+03 -0.27837443558E+03 -0.20190267807E+04  0.20428284646E+04  0.10100000352E+00 0. -1.
       -3    1    3    3    0  502 -0.13851591203E+03  0.27837443558E+03  0.83896834834E+03  0.89473285621E+03  0.10100000352E+00 0.  1.
</event>
<event>
 5   0  0.9260173E-06  0.2826882E+04  0.7818609E-02  0.8294971E-01
        2   -1    0    0  501    0  0.00000000000E+00  0.00000000000E+00  0.10515429589E+04  0.10515429589E+04  0.25500000920E-02 0.  1.
       -2   -1    0    0    0  501  0.00000000000E+00  0.00000000000E+00 -0.18998898075E+04  0.18998898075E+04  0.25500000920E-02 0. -1.
    10030    2    1    2    0    0  0.00000000000E+00  0.00000000000E+00 -0.84834684867E+03  0.29514327664E+04  0.28268822046E+04 0.  0.
        1    1    3    3  502    0  0.12938593490E+04 -0.31105661602E+02  0.16899212051E+03  0.13052194888E+04  0.50400001928E-02 0.  1.
       -1    1    3    3    0  502 -0.12938593490E+04  0.31105661602E+02 -0.10173389692E+04  0.16462132776E+04  0.50400001928E-02 0. -1.
</event>
<event>
 5   0  0.3357244E-06  0.2798362E+04  0.7818609E-02  0.8303777E-01
        1   -1    0    0  501    0  0.00000000000E+00  0.00000000000E+00  0.21477497562E+04  0.21477497562E+04  0.50400001928E-02 0.  1.
       -1   -1    0    0    0  501  0.00000000000E+00  0.00000000000E+00 -0.91151547345E+03  0.91151547346E+03  0.50400001928E-02 0. -1.
    10030    2    1    2    0    0  0.00000000000E+00  0.00000000000E+00  0.12362342828E+04  0.30592652297E+04  0.27983617607E+04 0.  0.
        4    1    3    3  502    0  0.10126400240E+04 -0.86697282221E+03  0.10827402402E+04  0.17173845619E+04  0.12699999809E+01 0.  1.
       -4    1    3    3    0  502 -0.10126400240E+04  0.86697282221E+03  0.15349404262E+03  0.13418806679E+04  0.12699999809E+01 0. -1.
</event>
<event>
 5   0  0.9426937E-06  0.2806520E+04  0.7818609E-02  0.8301247E-01
        2   -1    0    0  501    0  0.00000000000E+00  0.00000000000E+00  0.20381393551E+04  0.20381393551E+04  0.25500000920E-02 0. -1.
       -2   -1    0    0    0  501  0.00000000000E+00  0.00000000000E+00 -0.96614533379E+03  0.96614533379E+03  0.25500000920E-02 0.  1.
    10030    2    1    2    0    0  0.00000000000E+00  0.00000000000E+00  0.10719940213E+04  0.30042846889E+04  0.28065201425E+04 0.  0.
        4    1    3    3  502    0 -0.37068501151E+03 -0.76104666959E+03  0.17340288003E+04  0.19296261048E+04  0.12699999809E+01 0. -1.
       -4    1    3    3    0  502  0.37068501151E+03  0.76104666959E+03 -0.66203477895E+03  0.10746585842E+04  0.12699999809E+01 0.  1.
</event>
<event>
 5   0  0.9342133E-06  0.2777343E+04  0.7818609E-02  0.8310337E-01
       -2   -1    0    0    0  501  0.00000000000E+00  0.00000000000E+00  0.15440331662E+04  0.15440331662E+04  0.25500000920E-02 0. -1.
        2   -1    0    0  501    0  0.00000000000E+00  0.00000000000E+00 -0.12489424711E+04  0.12489424711E+04  0.25500000920E-02 0.  1.
    10030    2    1    2    0    0  0.00000000000E+00  0.00000000000E+00  0.29509069509E+03  0.27929756373E+04  0.27773430454E+04 0.  0.
        2    1    3    3  502    0 -0.57607173417E+03  0.72064857896E+01 -0.11230925800E+04  0.12622390897E+04  0.25500000920E-02 0.  1.
       -2    1    3    3    0  502  0.57607173417E+03 -0.72064857896E+01  0.14181832751E+04  0.15307365476E+04  0.25500000920E-02 0. -1.
</event>
<event>
 5   0  0.3438130E-06  0.2791570E+04  0.7818609E-02  0.8305890E-01
        1   -1    0    0  501    0  0.00000000000E+00  0.00000000000E+00  0.21909809030E+04  0.21909809030E+04  0.50400001928E-02 0.  1.
       -1   -1    0    0    0  501  0.00000000000E+00  0.00000000000E+00 -0.88919820745E+03  0.88919820747E+03  0.50400001928E-02 0. -1.
    10030    2    1    2    0    0  0.00000000000E+00  0.00000000000E+00  0.13017826956E+04  0.30801791105E+04  0.27915703764E+04 0.  0.
        3    1    3    3  502    0 -0.98011992539E+03  0.96253209953E+03  0.92366021370E+03  0.16553704454E+04  0.10100000352E+00 0. -1.
       -3    1    3    3    0  502  0.98011992539E+03 -0.96253209953E+03  0.37812248188E+03  0.14248086652E+04  0.10100000352E+00 0.  1.
</event>
<event>
 5   0  0.3357244E-06  0.2728181E+04  0.7818609E-02  0.8325919E-01
       -1   -1    0    0    0  501  0.00000000000E+00  0.00000000000E+00  0.10774361067E+04  0.10774361067E+04  0.50400001928E-02 0. -1.
        1   -1    0    0  501    0  0.00000000000E+00  0.00000000000E+00 -0.17270103560E+04  0.17270103560E+04  0.50400001928E-02 0.  1.
    10030    2    1    2    0    0  0.00000000000E+00  0.00000000000E+00 -0.64957424937E+03  0.28044464627E+04  0.27281813094E+04 0.  0.
        4    1    3    3  502    0  0.13851987898E+03  0.99820545280E+03  0.62022679667E+03  0.11833362899E+04  0.12699999809E+01 0. -1.
       -4    1    3    3    0  502 -0.13851987898E+03 -0.99820545280E+03 -0.12698010460E+04  0.16211101728E+04  0.12699999809E+01 0.  1.
</event>
<event>
 5   0  0.3600963E-06  0.2588161E+04  0.7818609E-02  0.8372234E-01
       -1   -1    0    0    0  501  0.00000000000E+00  0.00000000000E+00  0.13934532396E+04  0.13934532396E+04  0.50400001928E-02 0. -1.
        1   -1    0    0  501    0  0.00000000000E+00  0.00000000000E+00 -0.12017947087E+04  0.12017947087E+04  0.50400001928E-02 0.  1.
    10030    2    1    2    0    0  0.00000000000E+00  0.00000000000E+00  0.19165853093E+03  0.25952479484E+04  0.25881613012E+04 0.  0.
        5    1    3    3  502    0  0.48198036067E+02  0.69545930173E+03 -0.99740175830E+03  0.12168890864E+04  0.46999998093E+01 0.  1.
       -5    1    3    3    0  502 -0.48198036067E+02 -0.69545930173E+03  0.11890602892E+04  0.13783588620E+04  0.46999998093E+01 0. -1.
</event>
<event>
 5   0  0.3357244E-06  0.2804635E+04  0.7818609E-02  0.8301831E-01
        1   -1    0    0  501    0  0.00000000000E+00  0.00000000000E+00  0.94033486963E+03  0.94033486965E+03  0.50400001928E-02 0.  1.
       -1   -1    0    0    0  501  0.00000000000E+00  0.00000000000E+00 -0.20912705090E+04  0.20912705090E+04  0.50400001928E-02 0. -1.
    10030    2    1    2    0    0  0.00000000000E+00  0.00000000000E+00 -0.11509356394E+04  0.30316053787E+04  0.28046351502E+04 0.  0.
        4    1    3    3  502    0 -0.56049423198E+03 -0.12811326540E+04 -0.68903361283E+03  0.15589174429E+04  0.12699999809E+01 0.  1.
       -4    1    3    3    0  502  0.56049423198E+03  0.12811326540E+04 -0.46190202656E+03  0.14726879358E+04  0.12699999809E+01 0. -1.
</event>
<event>
 5   0  0.3371603E-06  0.2795673E+04  0.7818609E-02  0.8304613E-01
       -1   -1    0    0    0  501  0.00000000000E+00  0.00000000000E+00  0.94236341848E+03  0.94236341849E+03  0.50400001928E-02 0. -1.
        1   -1    0    0  501    0  0.00000000000E+00  0.00000000000E+00 -0.20734542309E+04  0.20734542309E+04  0.50400001928E-02 0.  1.
    10030    2    1    2    0    0  0.00000000000E+00  0.00000000000E+00 -0.11310908125E+04  0.30158176494E+04  0.27956733838E+04 0.  0.
        1    1    3    3  502    0 -0.12118226132E+04  0.81438512777E+02 -0.13119876927E+04  0.17878640841E+04  0.50400001928E-02 0.  1.
       -1    1    3    3    0  502  0.12118226132E+04 -0.81438512777E+02  0.18089688026E+03  0.12279535653E+04  0.50400001928E-02 0. -1.
</event>
<event>
 5   0  0.9252359E-06  0.3003890E+04  0.7818609E-02  0.8242621E-01
       -2   -1    0    0    0  501  0.00000000000E+00  0.00000000000E+00  0.10586497820E+04  0.10586497820E+04  0.25500000920E-02 0.  1.
        2   -1    0    0  501    0  0.00000000000E+00  0.00000000000E+00 -0.21308635037E+04  0.21308635037E+04  0.25500000920E-02 0. -1.
    10030    2    1    2    0    0  0.00000000000E+00  0.00000000000E+00 -0.10722137217E+04  0.31895132857E+04  0.30038896009E+04 0.  0.
        5    1    3    3  502    0  0.82841905237E+03 -0.58388514161E+03  0.64081749565E+03  0.11991118120E+04  0.46999998093E+01 0.  1.
       -5    1    3    3    0  502 -0.82841905237E+03  0.58388514161E+03 -0.17130312174E+04  0.19904014737E+04  0.46999998093E+01 0. -1.
</event>
<event>
 5   0  0.3357244E-06  0.2875834E+04  0.7818609E-02  0.8280104E-01
        1   -1    0    0  501    0  0.00000000000E+00  0.00000000000E+00  0.11396978913E+04  0.11396978913E+04  0.50400001928E-02 0.  1.
       -1   -1    0    0    0  501  0.00000000000E+00  0.00000000000E+00 -0.18141695015E+04  0.18141695015E+04  0.50400001928E-02 0. -1.
    10030    2    1    2    0    0  0.00000000000E+00  0.00000000000E+00 -0.67447161018E+03  0.29538673928E+04  0.28758339002E+04 0.  0.
        4    1    3    3  502    0  0.14179114490E+04  0.16766662689E+03 -0.51220644501E+03  0.15168856352E+04  0.12699999809E+01 0. -1.
       -4    1    3    3    0  502 -0.14179114490E+04 -0.16766662689E+03 -0.16226516517E+03  0.14369817576E+04  0.12699999809E+01 0.  1.
</event>
<event>
 5   0  0.3397882E-06  0.2792829E+04  0.7818609E-02  0.8305498E-01
        1   -1    0    0  501    0  0.00000000000E+00  0.00000000000E+00  0.82909247509E+03  0.82909247510E+03  0.50400001928E-02 0.  1.
       -1   -1    0    0    0  501  0.00000000000E+00  0.00000000000E+00 -0.23519367015E+04  0.23519367015E+04  0.50400001928E-02 0. -1.
    10030    2    1    2    0    0  0.00000000000E+00  0.00000000000E+00 -0.15228442264E+04  0.31810291766E+04  0.27928286887E+04 0.  0.
        2    1    3    3  502    0  0.84764335261E+03 -0.92715326809E+03 -0.66856257751E+02  0.12580072317E+04  0.25500000920E-02 0.  1.
       -2    1    3    3    0  502 -0.84764335261E+03  0.92715326809E+03 -0.14559879686E+04  0.19230219449E+04  0.25500000920E-02 0. -1.
</event>
<event>
 5   0  0.9065579E-06  0.2810793E+04  0.7818609E-02  0.8299926E-01
        2   -1    0    0  501    0  0.00000000000E+00  0.00000000000E+00  0.20274401264E+04  0.20274401264E+04  0.25500000920E-02 0. -1.
       -2   -1    0    0    0  501  0.00000000000E+00  0.00000000000E+00 -0.97420325531E+03  0.97420325532E+03  0.25500000920E-02 0.  1.
    10030    2    1    2    0    0  0.00000000000E+00  0.00000000000E+00  0.10532368711E+04  0.30016433817E+04  0.28107926079E+04 0.  0.
        3    1    3    3  502    0 -0.90105346382E+03  0.62152775960E+03  0.14679125297E+04  0.18311093102E+04  0.10100000352E+00 0. -1.
       -3    1    3    3    0  502  0.90105346382E+03 -0.62152775960E+03 -0.41467565864E+03  0.11705340716E+04  0.10100000352E+00 0.  1.
</event>
<event>
 5   0  0.9065579E-06  0.2788665E+04  0.7818609E-02  0.8306796E-01
       -2   -1    0    0    0  501  0.00000000000E+00  0.00000000000E+00  0.12066607969E+04  0.12066607969E+04  0.25500000920E-02 0.  1.
        2   -1    0    0  501    0  0.00000000000E+00  0.00000000000E+00 -0.16111931322E+04  0.16111931323E+04  0.25500000920E-02 0. -1.
    10030    2    1    2    0    0  0.00000000000E+00  0.00000000000E+00 -0.40453233535E+03  0.28178539291E+04  0.27886653359E+04 0.  0.
        3    1    3    3  502    0 -0.74665334434E+03 -0.53370673243E+03 -0.12629336960E+04  0.15611968562E+04  0.10100000352E+00 0. -1.
       -3    1    3    3    0  502  0.74665334434E+03  0.53370673243E+03  0.85840136069E+03  0.12566570730E+04  0.10100000352E+00 0.  1.
</event>
<event>
 5   0  0.3600963E-06  0.2843762E+04  0.7818609E-02  0.8289809E-01
       -1   -1    0    0    0  501  0.00000000000E+00  0.00000000000E+00  0.94078655094E+03  0.94078655095E+03  0.50400001928E-02 0. -1.
        1   -1    0    0  501    0  0.00000000000E+00  0.00000000000E+00 -0.21489948146E+04  0.21489948146E+04  0.50400001928E-02 0.  1.
    10030    2    1    2    0    0  0.00000000000E+00  0.00000000000E+00 -0.12082082636E+04  0.30897813655E+04  0.28437618885E+04 0.  0.
        5    1    3    3  502    0  0.98107723445E+02 -0.11575822270E+04 -0.14948462376E+04  0.18932007557E+04  0.46999998093E+01 0.  1.
       -5    1    3    3    0  502 -0.98107723445E+02  0.11575822270E+04  0.28663797394E+03  0.11965806098E+04  0.46999998093E+01 0. -1.
</event>
<event>
 5   0  0.9252359E-06  0.2763644E+04  0.7818609E-02  0.8314645E-01
       -2   -1    0    0    0  501  0.00000000000E+00  0.00000000000E+00  0.13256502413E+04  0.13256502413E+04  0.25500000920E-02 0. -1.
        2   -1    0    0  501    0  0.00000000000E+00  0.00000000000E+00 -0.14403741345E+04  0.14403741345E+04  0.25500000920E-02 0.  1.
    10030    2    1    2    0    0  0.00000000000E+00  0.00000000000E+00 -0.11472389326E+03  0.27660243758E+04  0.27636442021E+04 0.  0.
        5    1    3    3  502    0 -0.21016082167E+03  0.10825574136E+04 -0.89073271714E+03  0.14175771542E+04  0.46999998093E+01 0.  1.
       -5    1    3    3    0  502  0.21016082167E+03 -0.10825574136E+04  0.77600882388E+03  0.13484472216E+04  0.46999998093E+01 0. -1.
</event>
<event>
 5   0  0.9065579E-06  0.2822016E+04  0.7818609E-02  0.8296466E-01
        2   -1    0    0  501    0  0.00000000000E+00  0.00000000000E+00  0.15795552457E+04  0.15795552457E+04  0.25500000920E-02 0.  1.
       -2   -1    0    0    0  501  0.00000000000E+00  0.00000000000E+00 -0.12604453938E+04  0.12604453939E+04  0.25500000920E-02 0. -1.
    10030    2    1    2    0    0  0.00000000000E+00  0.00000000000E+00  0.31910985189E+03  0.28400006396E+04  0.28220156866E+04 0.  0.
        3    1    3    3  502    0 -0.14500057938E+03  0.37948712681E+02 -0.12524112090E+04  0.12613481357E+04  0.10100000352E+00 0. -1.
       -3    1    3    3    0  502  0.14500057938E+03 -0.37948712681E+02  0.15715210609E+04  0.15786525039E+04  0.10100000352E+00 0.  1.
</event>
<event>
 5   0  0.3438130E-06  0.2796266E+04  0.7818609E-02  0.8304429E-01
        1   -1    0    0  501    0  0.00000000000E+00  0.00000000000E+00  0.12186902657E+04  0.12186902657E+04  0.50400001928E-02 0. -1.
       -1   -1    0    0    0  501  0.00000000000E+00  0.00000000000E+00 -0.16039972808E+04  0.16039972808E+04  0.50400001928E-02 0.  1.
    10030    2    1    2    0    0  0.00000000000E+00  0.00000000000E+00 -0.38530701518E+03  0.28226875465E+04  0.27962659904E+04 0.  0.
        3    1    3    3  502    0 -0.48155951620E+03 -0.90291522094E+03  0.76903948263E+03  0.12800692168E+04  0.10100000352E+00 0. -1.
       -3    1    3    3    0  502  0.48155951620E+03  0.90291522094E+03 -0.11543464978E+04  0.15426183297E+04  0.10100000352E+00 0.  1.
</event>
<event>
 5   0  0.3438130E-06  0.2793409E+04  0.7818609E-02  0.8305317E-01
       -1   -1    0    0    0  501  0.00000000000E+00  0.00000000000E+00  0.19765918337E+04  0.19765918337E+04  0.50400001928E-02 0. -1.
        1   -1    0    0  501    0  0.00000000000E+00  0.00000000000E+00 -0.98694325892E+03  0.98694325894E+03  0.50400001928E-02 0.  1.
    10030    2    1    2    0    0  0.00000000000E+00  0.00000000000E+00  0.98964857479E+03  0.29635350927E+04  0.27934093763E+04 0.  0.
        3    1    3    3  502    0 -0.27467270975E+03  0.60630426229E+03 -0.80785604053E+03  0.10467479870E+04  0.10100000352E+00 0.  1.
       -3    1    3    3    0  502  0.27467270975E+03 -0.60630426229E+03  0.17975046153E+04  0.19167871056E+04  0.10100000352E+00 0. -1.
</event>
<event>
 5   0  0.3357244E-06  0.2756375E+04  0.7818609E-02  0.8316942E-01
       -1   -1    0    0    0  501  0.00000000000E+00  0.00000000000E+00  0.99756927424E+03  0.99756927425E+03  0.50400001928E-02 0.  1.
        1   -1    0    0  501    0  0.00000000000E+00  0.00000000000E+00 -0.19040289427E+04  0.19040289427E+04  0.50400001928E-02 0. -1.
    10030    2    1    2    0    0  0.00000000000E+00  0.00000000000E+00 -0.90645966845E+03  0.29015982169E+04  0.27563749894E+04 0.  0.
        4    1    3    3  502    0  0.12873270610E+04 -0.98958685825E+02  0.54242901738E+02  0.12922645583E+04  0.12699999809E+01 0. -1.
       -4    1    3    3    0  502 -0.12873270610E+04  0.98958685825E+02 -0.96070257019E+03  0.16093336586E+04  0.12699999809E+01 0.  1.
</event>
<event>
 5   0  0.9065579E-06  0.2798660E+04  0.7818609E-02  0.8303685E-01
       -2   -1    0    0    0  501  0.00000000000E+00  0.00000000000E+00  0.12178907789E+04  0.12178907789E+04  0.25500000920E-02 0. -1.
        2   -1    0    0  501    0  0.00000000000E+00  0.00000000000E+00 -0.16077995677E+04  0.16077995677E+04  0.25500000920E-02 0.  1.
    10030    2    1    2    0    0  0.00000000000E+00  0.00000000000E+00 -0.38990878881E+03  0.28256903466E+04  0.27986598706E+04 0.  0.
        3    1    3    3  502    0  0.27674784444E+03 -0.57590563871E+03  0.10620064372E+04  0.12394008056E+04  0.10100000352E+00 0. -1.
       -3    1    3    3    0  502 -0.27674784444E+03  0.57590563871E+03 -0.14519152260E+04  0.15862895410E+04  0.10100000352E+00 0.  1.
</event>
<event>
 5   0  0.3397882E-06  0.2444287E+04  0.7818609E-02  0.8423107E-01
        1   -1    0    0  501    0  0.00000000000E+00  0.00000000000E+00  0.21967030403E+04  0.21967030403E+04  0.50400001928E-02 0.  1.
       -1   -1    0    0    0  501  0.00000000000E+00  0.00000000000E+00 -0.67994412364E+03  0.67994412366E+03  0.50400001928E-02 0. -1.
    10030    2    1    2    0    0  0.00000000000E+00  0.00000000000E+00  0.15167589167E+04  0.28766471640E+04  0.24442874820E+04 0.  0.
        2    1    3    3  502    0 -0.51967660774E+03  0.23004165315E+03  0.20317309170E+04  0.21097188101E+04  0.25500000920E-02 0.  1.
       -2    1    3    3    0  502  0.51967660774E+03 -0.23004165315E+03 -0.51497200031E+03  0.76692835385E+03  0.25500000920E-02 0. -1.
</event>
<event>
 5   0  0.9342133E-06  0.2765977E+04  0.7818609E-02  0.8313910E-01
        2   -1    0    0  501    0  0.00000000000E+00  0.00000000000E+00  0.12263464468E+04  0.12263464468E+04  0.25500000920E-02 0. -1.
       -2   -1    0    0    0  501  0.00000000000E+00  0.00000000000E+00 -0.15596385343E+04  0.15596385343E+04  0.25500000920E-02 0.  1.
    10030    2    1    2    0    0  0.00000000000E+00  0.00000000000E+00 -0.33329208750E+03  0.27859849810E+04  0.27659769882E+04 0.  0.
        2    1    3    3  502    0  0.10271230917E+04  0.91850622087E+03 -0.47376435785E+02  0.13787240659E+04  0.25500000920E-02 0. -1.
       -2    1    3    3    0  502 -0.10271230917E+04 -0.91850622087E+03 -0.28591565171E+03  0.14072609151E+04  0.25500000920E-02 0.  1.
</event>
<event>
 5   0  0.9065579E-06  0.2838477E+04  0.7818609E-02  0.8291421E-01
        2   -1    0    0  501    0  0.00000000000E+00  0.00000000000E+00  0.22067174906E+04  0.22067174906E+04  0.25500000920E-02 0.  1.
       -2   -1    0    0    0  501  0.00000000000E+00  0.00000000000E+00 -0.91277575397E+03  0.91277575397E+03  0.25500000920E-02 0. -1.
    10030    2    1    2    0    0  0.00000000000E+00  0.00000000000E+00  0.12939417366E+04  0.31194932446E+04  0.28384772124E+04 0.  0.
        3    1    3    3  502    0 -0.91654223165E+03  0.99479812715E+03  0.17482783337E+03  0.13639053331E+04  0.10100000352E+00 0.  1.
       -3    1    3    3    0  502  0.91654223165E+03 -0.99479812715E+03  0.11191139033E+04  0.17555879115E+04  0.10100000352E+00 0. -1.
</event>
<event>
 5   0  0.3357244E-06  0.2767441E+04  0.7818609E-02  0.8313448E-01
        1   -1    0    0  501    0  0.00000000000E+00  0.00000000000E+00  0.20463083901E+04  0.20463083901E+04  0.50400001928E-02 0.  1.
       -1   -1    0    0    0  501  0.00000000000E+00  0.00000000000E+00 -0.93567671394E+03  0.93567671395E+03  0.50400001928E-02 0. -1.
    10030    2    1    2    0    0  0.00000000000E+00  0.00000000000E+00  0.11106316762E+04  0.29819851041E+04  0.27674414973E+04 0.  0.
        4    1    3    3  502    0 -0.13251996105E+03 -0.69456582504E+03  0.18369348239E+04  0.19683278145E+04  0.12699999809E+01 0.  1.
       -4    1    3    3    0  502  0.13251996105E+03  0.69456582504E+03 -0.72630314770E+03  0.10136572895E+04  0.12699999809E+01 0. -1.
</event>
<event>
 5   0  0.3371603E-06  0.2752021E+04  0.7818609E-02  0.8318321E-01
        1   -1    0    0  501    0  0.00000000000E+00  0.00000000000E+00  0.59776494646E+03  0.59776494648E+03  0.50400001928E-02 0.  1.
       -1   -1    0    0    0  501  0.00000000000E+00  0.00000000000E+00 -0.31674743071E+04  0.31674743071E+04  0.50400001928E-02 0. -1.
    10030    2    1    2    0    0  0.00000000000E+00  0.00000000000E+00 -0.25697093607E+04  0.37652392536E+04  0.27520211552E+04 0.  0.
        1    1    3    3  502    0  0.33920216807E+03  0.12943352580E+03 -0.31007621540E+04  0.31219444396E+04  0.50400001928E-02 0. -1.
       -1    1    3    3    0  502 -0.33920216807E+03 -0.12943352580E+03  0.53105279331E+03  0.64329481401E+03  0.50400001928E-02 0.  1.
</event>
<event>
 5   0  0.9065579E-06  0.2725977E+04  0.7818609E-02  0.8326625E-01
        2   -1    0    0  501    0  0.00000000000E+00  0.00000000000E+00  0.22191258772E+04  0.22191258772E+04  0.25500000920E-02 0. -1.
       -2   -1    0    0    0  501  0.00000000000E+00  0.00000000000E+00 -0.83714826418E+03  0.83714826419E+03  0.25500000920E-02 0.  1.
    10030    2    1    2    0    0  0.00000000000E+00  0.00000000000E+00  0.13819776130E+04  0.30562741414E+04  0.27259767982E+04 0.  0.
        3    1    3    3  502    0 -0.75157633057E+03 -0.88533155052E+03  0.14909224620E+04  0.18898488651E+04  0.10100000352E+00 0. -1.
       -3    1    3    3    0  502  0.75157633057E+03  0.88533155052E+03 -0.10894484891E+03  0.11664252764E+04  0.10100000352E+00 0.  1.
</event>
<event>
 5   0  0.9252359E-06  0.2522991E+04  0.7818609E-02  0.8394840E-01
        2   -1    0    0  501    0  0.00000000000E+00  0.00000000000E+00  0.18758189876E+04  0.18758189876E+04  0.25500000920E-02 0. -1.
       -2   -1    0    0    0  501  0.00000000000E+00  0.00000000000E+00 -0.84836055899E+03  0.84836055899E+03  0.25500000920E-02 0.  1.
    10030    2    1    2    0    0  0.00000000000E+00  0.00000000000E+00  0.10274584286E+04  0.27241795466E+04  0.25229909591E+04 0.  0.
        5    1    3    3  502    0  0.85488676518E+03 -0.61496975948E+03 -0.23615114171E+03  0.10792630069E+04  0.46999998093E+01 0.  1.
       -5    1    3    3    0  502 -0.85488676518E+03  0.61496975948E+03  0.12636095704E+04  0.16449165397E+04  0.46999998093E+01 0. -1.
</event>
<event>
 5   0  0.3438130E-06  0.2804952E+04  0.7818609E-02  0.8301733E-01
       -1   -1    0    0    0  501  0.00000000000E+00  0.00000000000E+00  0.12904632498E+04  0.12904632498E+04  0.50400001928E-02 0. -1.
        1   -1    0    0  501    0  0.00000000000E+00  0.00000000000E+00 -0.15242115585E+04  0.15242115585E+04  0.50400001928E-02 0.  1.
    10030    2    1    2    0    0  0.00000000000E+00  0.00000000000E+00 -0.23374830870E+03  0.28146748082E+04  0.28049520503E+04 0.  0.
        3    1    3    3  502    0 -0.91821105289E+03  0.99066835753E+03 -0.49554629802E+03  0.14387847219E+04  0.10100000352E+00 0.  1.
       -3    1    3    3    0  502  0.91821105289E+03 -0.99066835753E+03  0.26179798932E+03  0.13758900863E+04  0.10100000352E+00 0. -1.
</event>
<event>
 5   0  0.3357244E-06  0.2826019E+04  0.7818609E-02  0.8295236E-01
        1   -1    0    0  501    0  0.00000000000E+00  0.00000000000E+00  0.28069236985E+04  0.28069236985E+04  0.50400001928E-02 0. -1.
       -1   -1    0    0    0  501  0.00000000000E+00  0.00000000000E+00 -0.71131117610E+03  0.71131117612E+03  0.50400001928E-02 0.  1.
    10030    2    1    2    0    0  0.00000000000E+00  0.00000000000E+00  0.20956125224E+04  0.35182348746E+04  0.28260192478E+04 0.  0.
        4    1    3    3  502    0  0.41518877679E+02 -0.11536657260E+04  0.20622071108E+04  0.23633383603E+04  0.12699999809E+01 0. -1.
       -4    1    3    3    0  502 -0.41518877679E+02  0.11536657260E+04  0.33405411628E+02  0.11548965144E+04  0.12699999809E+01 0.  1.
</event>
<event>
 5   0  0.3397882E-06  0.2776476E+04  0.7818609E-02  0.8310609E-01
        1   -1    0    0  501    0  0.00000000000E+00  0.00000000000E+00  0.22750046629E+04  0.22750046629E+04  0.50400001928E-02 0.  1.
       -1   -1    0    0    0  501  0.00000000000E+00  0.00000000000E+00 -0.84712133190E+03  0.84712133191E+03  0.50400001928E-02 0. -1.
    10030    2    1    2    0    0  0.00000000000E+00  0.00000000000E+00  0.14278833310E+04  0.31221259948E+04  0.27764761696E+04 0.  0.
        2    1    3    3  502    0 -0.28820408768E+03  0.88456020251E+03  0.18726034812E+04  0.20909691881E+04  0.25500000920E-02 0.  1.
       -2    1    3    3    0  502  0.28820408768E+03 -0.88456020251E+03 -0.44472015016E+03  0.10311568067E+04  0.25500000920E-02 0. -1.
</event>
<event>
 5   0  0.9426937E-06  0.2789354E+04  0.7818609E-02  0.8306581E-01
       -2   -1    0    0    0  501  0.00000000000E+00  0.00000000000E+00  0.13614456380E+04  0.13614456380E+04  0.25500000920E-02 0.  1.
        2   -1    0    0  501    0  0.00000000000E+00  0.00000000000E+00 -0.14287192035E+04  0.14287192035E+04  0.25500000920E-02 0. -1.
    10030    2    1    2    0    0  0.00000000000E+00  0.00000000000E+00 -0.67273565491E+02  0.27901648415E+04  0.27893537083E+04 0.  0.
        4    1    3    3  502    0 -0.91237265723E+03 -0.98074173652E+03 -0.42213573709E+03  0.14044495053E+04  0.12699999809E+01 0. -1.
       -4    1    3    3    0  502  0.91237265723E+03  0.98074173652E+03  0.35486217160E+03  0.13857153363E+04  0.12699999809E+01 0.  1.
</event>
<event>
 5   0  0.3600963E-06  0.2840462E+04  0.7818609E-02  0.8290816E-01
       -1   -1    0    0    0  501  0.00000000000E+00  0.00000000000E+00  0.16671553776E+04  0.16671553776E+04  0.50400001928E-02 0.  1.
        1   -1    0    0  501    0  0.00000000000E+00  0.00000000000E+00 -0.12098784883E+04  0.12098784883E+04  0.50400001928E-02 0. -1.
    10030    2    1    2    0    0  0.00000000000E+00  0.00000000000E+00  0.45727688931E+03  0.28770338659E+04  0.28404615315E+04 0.  0.
        5    1    3    3  502    0 -0.32351783134E+02 -0.72860780458E+03  0.14629831272E+04  0.16347041602E+04  0.46999998093E+01 0.  1.
       -5    1    3    3    0  502  0.32351783134E+02  0.72860780458E+03 -0.10057062379E+04  0.12423297057E+04  0.46999998093E+01 0. -1.
</event>
<event>
 5   0  0.9252359E-06  0.2794999E+04  0.7818609E-02  0.8304823E-01
        2   -1    0    0  501    0  0.00000000000E+00  0.00000000000E+00  0.21270323529E+04  0.21270323529E+04  0.25500000920E-02 0.  1.
       -2   -1    0    0    0  501  0.00000000000E+00  0.00000000000E+00 -0.91818278295E+03  0.91818278296E+03  0.25500000920E-02 0. -1.
    10030    2    1    2    0    0  0.00000000000E+00  0.00000000000E+00  0.12088495700E+04  0.30452151359E+04  0.27949987372E+04 0.  0.
        5    1    3    3  502    0 -0.10703544895E+04  0.89048344967E+03  0.73499894725E+03  0.15744411865E+04  0.46999998093E+01 0. -1.
       -5    1    3    3    0  502  0.10703544895E+04 -0.89048344967E+03  0.47385062272E+03  0.14707739493E+04  0.46999998093E+01 0.  1.
</event>
<event>
 5   0  0.3397882E-06  0.2672692E+04  0.7818609E-02  0.8343920E-01
       -1   -1    0    0    0  501  0.00000000000E+00  0.00000000000E+00  0.92936233207E+03  0.92936233208E+03  0.50400001928E-02 0.  1.
        1   -1    0    0  501    0  0.00000000000E+00  0.00000000000E+00 -0.19215554581E+04  0.19215554581E+04  0.50400001928E-02 0. -1.
    10030    2    1    2    0    0  0.00000000000E+00  0.00000000000E+00 -0.99219312607E+03  0.28509177902E+04  0.26726924715E+04 0.  0.
        2    1    3    3  502    0 -0.87336497730E+02  0.84083886233E+03 -0.16000929761E+04  0.18096782002E+04  0.25500000920E-02 0. -1.
       -2    1    3    3    0  502  0.87336497730E+02 -0.84083886233E+03  0.60789984998E+03  0.10412395900E+04  0.25500000920E-02 0.  1.
</event>
<event>
 5   0  0.9260173E-06  0.2826457E+04  0.7818609E-02  0.8295101E-01
       -2   -1    0    0    0  501  0.00000000000E+00  0.00000000000E+00  0.12653580665E+04  0.12653580665E+04  0.25500000920E-02 0.  1.
        2   -1    0    0  501    0  0.00000000000E+00  0.00000000000E+00 -0.15783786873E+04  0.15783786873E+04  0.25500000920E-02 0. -1.
    10030    2    1    2    0    0  0.00000000000E+00  0.00000000000E+00 -0.31302062087E+03  0.28437367538E+04  0.28264565830E+04 0.  0.
        1    1    3    3  502    0 -0.45943323465E+03 -0.74985299708E+03 -0.12695539589E+04  0.15443852074E+04  0.50400001928E-02 0. -1.
       -1    1    3    3    0  502  0.45943323465E+03  0.74985299708E+03  0.95653333802E+03  0.12993515464E+04  0.50400001928E-02 0.  1.
</event>
<event>
 5   0  0.3600963E-06  0.2784683E+04  0.7818609E-02  0.8308039E-01
       -1   -1    0    0    0  501  0.00000000000E+00  0.00000000000E+00  0.15588112022E+04  0.15588112022E+04  0.50400001928E-02 0. -1.
        1   -1    0    0  501    0  0.00000000000E+00  0.00000000000E+00 -0.12436499780E+04  0.12436499780E+04  0.50400001928E-02 0.  1.
    10030    2    1    2    0    0  0.00000000000E+00  0.00000000000E+00  0.31516122417E+03  0.28024611802E+04  0.27846834774E+04 0.  0.
        5    1    3    3  502    0  0.71780229114E+02  0.95705058376E+03  0.11727299912E+04  0.15153929996E+04  0.46999998093E+01 0. -1.
       -5    1    3    3    0  502 -0.71780229114E+02 -0.95705058376E+03 -0.85756876700E+03  0.12870681805E+04  0.46999998093E+01 0.  1.
</event>
<event>
 5   0  0.3397882E-06  0.2723052E+04  0.7818609E-02  0.8327564E-01
       -1   -1    0    0    0  501  0.00000000000E+00  0.00000000000E+00  0.10694239729E+04  0.10694239729E+04  0.50400001928E-02 0.  1.
        1   -1    0    0  501    0  0.00000000000E+00  0.00000000000E+00 -0.17334121879E+04  0.17334121879E+04  0.50400001928E-02 0. -1.
    10030    2    1    2    0    0  0.00000000000E+00  0.00000000000E+00 -0.66398821499E+03  0.28028361607E+04  0.27230516327E+04 0.  0.
        2    1    3    3  502    0  0.75116570755E+02  0.73058694149E+03  0.84804882486E+03  0.11218674555E+04  0.25500000920E-02 0.  1.
       -2    1    3    3    0  502 -0.75116570755E+02 -0.73058694149E+03 -0.15120370398E+04  0.16809687053E+04  0.25500000920E-02 0. -1.
</event>
<event>
 5   0  0.9342133E-06  0.2806912E+04  0.7818609E-02  0.8301126E-01
       -2   -1    0    0    0  501  0.00000000000E+00  0.00000000000E+00  0.10352262235E+04  0.10352262235E+04  0.25500000920E-02 0. -1.
        2   -1    0    0  501    0  0.00000000000E+00  0.00000000000E+00 -0.19026646009E+04  0.19026646009E+04  0.25500000920E-02 0.  1.
    10030    2    1    2    0    0  0.00000000000E+00  0.00000000000E+00 -0.86743837741E+03  0.29378908245E+04  0.28069116762E+04 0.  0.
        2    1    3    3  502    0 -0.13654983667E+04  0.91599157894E+01 -0.77290682185E+03  0.15690935756E+04  0.25500000920E-02 0. -1.
       -2    1    3    3    0  502  0.13654983667E+04 -0.91599157894E+01 -0.94531555554E+02  0.13687972489E+04  0.25500000920E-02 0.  1.
</event>
<event>
 5   0  0.9342133E-06  0.2788600E+04  0.7818609E-02  0.8306817E-01
       -2   -1    0    0    0  501  0.00000000000E+00  0.00000000000E+00  0.13451984932E+04  0.13451984932E+04  0.25500000920E-02 0. -1.
        2   -1    0    0  501    0  0.00000000000E+00  0.00000000000E+00 -0.14451932808E+04  0.14451932808E+04  0.25500000920E-02 0.  1.
    10030    2    1    2    0    0  0.00000000000E+00  0.00000000000E+00 -0.99994787568E+02  0.27903917740E+04  0.27885995221E+04 0.  0.
        2    1    3    3  502    0 -0.24445416791E+03 -0.13039697196E+04  0.37920362709E+03  0.13798152995E+04  0.25500000920E-02 0. -1.
       -2    1    3    3    0  502  0.24445416791E+03  0.13039697196E+04 -0.47919841466E+03  0.14105764745E+04  0.25500000920E-02 0.  1.
</event>
<event>
 5   0  0.9426937E-06  0.2909905E+04  0.7818609E-02  0.8269937E-01
       -2   -1    0    0    0  501  0.00000000000E+00  0.00000000000E+00  0.83328386157E+03  0.83328386157E+03  0.25500000920E-02 0.  1.
        2   -1    0    0  501    0  0.00000000000E+00  0.00000000000E+00 -0.25404151674E+04  0.25404151674E+04  0.25500000920E-02 0. -1.
    10030    2    1    2    0    0  0.00000000000E+00  0.00000000000E+00 -0.17071313059E+04  0.33736990290E+04  0.29099051261E+04 0.  0.
        4    1    3    3  502    0 -0.22368789843E+03  0.59780764059E+03 -0.23694249643E+04  0.24538921178E+04  0.12699999809E+01 0. -1.
       -4    1    3    3    0  502  0.22368789843E+03 -0.59780764059E+03  0.66229365847E+03  0.91980691126E+03  0.12699999809E+01 0.  1.
</event>
<event>
 5   0  0.9342133E-06  0.2792625E+04  0.7818609E-02  0.8305562E-01
        2   -1    0    0  501    0  0.00000000000E+00  0.00000000000E+00  0.16163024450E+04  0.16163024450E+04  0.25500000920E-02 0. -1.
       -2   -1    0    0    0  501  0.00000000000E+00  0.00000000000E+00 -0.12062647476E+04  0.12062647476E+04  0.25500000920E-02 0.  1.
    10030    2    1    2    0    0  0.00000000000E+00  0.00000000000E+00  0.41003769748E+03  0.28225671926E+04  0.27926250452E+04 0.  0.
        2    1    3    3  502    0  0.10466456969E+04 -0.69071538387E+03 -0.41567770525E+03  0.13211142687E+04  0.25500000920E-02 0.  1.
       -2    1    3    3    0  502 -0.10466456969E+04  0.69071538387E+03  0.82571540273E+03  0.15014529239E+04  0.25500000920E-02 0. -1.
</event>
<event>
 5   0  0.9342133E-06  0.2797102E+04  0.7818609E-02  0.8304169E-01
        2   -1    0    0  501    0  0.00000000000E+00  0.00000000000E+00  0.83339174256E+03  0.83339174256E+03  0.25500000920E-02 0. -1.
       -2   -1    0    0    0  501  0.00000000000E+00  0.00000000000E+00 -0.23469689527E+04  0.23469689527E+04  0.25500000920E-02 0.  1.
    10030    2    1    2    0    0  0.00000000000E+00  0.00000000000E+00 -0.15135772101E+04  0.31803606953E+04  0.27971017466E+04 0.  0.
        2    1    3    3  502    0  0.47262387714E+03 -0.11037749046E+04 -0.15721613345E+04  0.19782273961E+04  0.25500000920E-02 0.  1.
       -2    1    3    3    0  502 -0.47262387714E+03  0.11037749046E+04  0.58584124330E+02  0.12021332991E+04  0.25500000920E-02 0. -1.
</event>
<event>
 5   0  0.9065579E-06  0.2820002E+04  0.7818609E-02  0.8297085E-01
        2   -1    0    0  501    0  0.00000000000E+00  0.00000000000E+00  0.20306911082E+04  0.20306911082E+04  0.25500000920E-02 0.  1.
       -2   -1    0    0    0  501  0.00000000000E+00  0.00000000000E+00 -0.97902785399E+03  0.97902785400E+03  0.25500000920E-02 0. -1.
    10030    2    1    2    0    0  0.00000000000E+00  0.00000000000E+00  0.10516632542E+04  0.30097189622E+04  0.28200022396E+04 0.  0.
        3    1    3    3  502    0 -0.42713841650E+03 -0.39526989469E+02 -0.90769583353E+03  0.10039528605E+04  0.10100000352E+00 0. -1.
       -3    1    3    3    0  502  0.42713841650E+03  0.39526989469E+02  0.19593590877E+04  0.20057661017E+04  0.10100000352E+00 0.  1.
</event>
<event>
 5   0  0.3357244E-06  0.2764453E+04  0.7818609E-02  0.8314390E-01
        1   -1    0    0  501    0  0.00000000000E+00  0.00000000000E+00  0.20030124603E+04  0.20030124603E+04  0.50400001928E-02 0.  1.
       -1   -1    0    0    0  501  0.00000000000E+00  0.00000000000E+00 -0.95383803012E+03  0.95383803013E+03  0.50400001928E-02 0. -1.
    10030    2    1    2    0    0  0.00000000000E+00  0.00000000000E+00  0.10491744302E+04  0.29568504905E+04  0.27644525386E+04 0.  0.
        4    1    3    3  502    0 -0.46040767247E+03 -0.41884268056E+02 -0.86869117381E+03  0.98405055009E+03  0.12699999809E+01 0. -1.
       -4    1    3    3    0  502  0.46040767247E+03  0.41884268056E+02  0.19178656040E+04  0.19727999404E+04  0.12699999809E+01 0.  1.
</event>
<event>
 5   0  0.3371603E-06  0.2824652E+04  0.7818609E-02  0.8295655E-01
       -1   -1    0    0    0  501  0.00000000000E+00  0.00000000000E+00  0.11856415485E+04  0.11856415485E+04  0.50400001928E-02 0.  1.
        1   -1    0    0  501    0  0.00000000000E+00  0.00000000000E+00 -0.16823510066E+04  0.16823510066E+04  0.50400001928E-02 0. -1.
    10030    2    1    2    0    0  0.00000000000E+00  0.00000000000E+00 -0.49670945814E+03  0.28679925551E+04  0.28246523698E+04 0.  0.
        1    1    3    3  502    0  0.83441532487E+03 -0.97145601331E+03  0.35634141418E+03  0.13292685672E+04  0.50400001928E-02 0.  1.
       -1    1    3    3    0  502 -0.83441532487E+03  0.97145601331E+03 -0.85305087231E+03  0.15387239879E+04  0.50400001928E-02 0. -1.
</event>
<event>
 5   0  0.3438130E-06  0.2803409E+04  0.7818609E-02  0.8302211E-01
        1   -1    0    0  501    0  0.00000000000E+00  0.00000000000E+00  0.86457498732E+03  0.86457498733E+03  0.50400001928E-02 0.  1.
       -1   -1    0    0    0  501  0.00000000000E+00  0.00000000000E+00 -0.22725329719E+04  0.22725329719E+04  0.50400001928E-02 0. -1.
    10030    2    1    2    0    0  0.00000000000E+00  0.00000000000E+00 -0.14079579846E+04  0.31371079592E+04  0.28034087575E+04 0.  0.
        3    1    3    3  502    0 -0.12296106272E+04  0.75184019428E+02 -0.14522937902E+04  0.19044033697E+04  0.10100000352E+00 0. -1.
       -3    1    3    3    0  502  0.12296106272E+04 -0.75184019428E+02  0.44335805607E+02  0.12327045896E+04  0.10100000352E+00 0.  1.
</event>
<event>
 5   0  0.3397882E-06  0.2823941E+04  0.7818609E-02  0.8295874E-01
        1   -1    0    0  501    0  0.00000000000E+00  0.00000000000E+00  0.12524297890E+04  0.12524297890E+04  0.50400001928E-02 0.  1.
       -1   -1    0    0    0  501  0.00000000000E+00  0.00000000000E+00 -0.15918343533E+04  0.15918343533E+04  0.50400001928E-02 0. -1.
    10030    2    1    2    0    0  0.00000000000E+00  0.00000000000E+00 -0.33940456427E+03  0.28442641423E+04  0.28239410498E+04 0.  0.
        2    1    3    3  502    0  0.29849623772E+03  0.43075742464E+03  0.11508431573E+04  0.12645520691E+04  0.25500000920E-02 0.  1.
       -2    1    3    3    0  502 -0.29849623772E+03 -0.43075742464E+03 -0.14902477215E+04  0.15797120732E+04  0.25500000920E-02 0. -1.
</event>
<event>
 5   0  0.3438130E-06  0.2797614E+04  0.7818609E-02  0.8304009E-01
       -1   -1    0    0    0  501  0.00000000000E+00  0.00000000000E+00  0.16696250715E+04  0.16696250715E+04  0.50400001928E-02 0. -1.
        1   -1    0    0  501    0  0.00000000000E+00  0.00000000000E+00 -0.11719165321E+04  0.11719165321E+04  0.50400001928E-02 0.  1.
    10030    2    1    2    0    0  0.00000000000E+00  0.00000000000E+00  0.49770853942E+03  0.28415416036E+04  0.27976141432E+04 0.  0.
        3    1    3    3  502    0 -0.12392093539E+04 -0.64249270513E+03  0.34096735642E+03  0.14369048150E+04  0.10100000352E+00 0.  1.
       -3    1    3    3    0  502  0.12392093539E+04  0.64249270513E+03  0.15674118300E+03  0.14046367885E+04  0.10100000352E+00 0. -1.
</event>
<event>
 5   0  0.9426937E-06  0.2792677E+04  0.7818609E-02  0.8305546E-01
        2   -1    0    0  501    0  0.00000000000E+00  0.00000000000E+00  0.15481756681E+04  0.15481756681E+04  0.25500000920E-02 0.  1.
       -2   -1    0    0    0  501  0.00000000000E+00  0.00000000000E+00 -0.12593924460E+04  0.12593924460E+04  0.25500000920E-02 0. -1.
    10030    2    1    2    0    0  0.00000000000E+00  0.00000000000E+00  0.28878322213E+03  0.28075681141E+04  0.27926766669E+04 0.  0.
        4    1    3    3  502    0 -0.12906461529E+03 -0.13133343145E+04  0.60317403459E+03  0.14509738886E+04  0.12699999809E+01 0.  1.
       -4    1    3    3    0  502  0.12906461529E+03  0.13133343145E+04 -0.31439081246E+03  0.13565942254E+04  0.12699999809E+01 0. -1.
</event>
<event>
 5   0  0.9426937E-06  0.2836635E+04  0.7818609E-02  0.8291984E-01
        2   -1    0    0  501    0  0.00000000000E+00  0.00000000000E+00  0.18643028128E+04  0.18643028128E+04  0.25500000920E-02 0. -1.
       -2   -1    0    0    0  501  0.00000000000E+00  0.00000000000E+00 -0.10790227746E+04  0.10790227746E+04  0.25500000920E-02 0.  1.
    10030    2    1    2    0    0  0.00000000000E+00  0.00000000000E+00  0.78528003829E+03  0.29433255874E+04  0.28366354674E+04 0.  0.
        4    1    3    3  502    0 -0.11640942665E+03 -0.74063305152E+03 -0.85660937255E+03  0.11383627285E+04  0.12699999809E+01 0.  1.
       -4    1    3    3    0  502  0.11640942665E+03  0.74063305152E+03  0.16418894108E+04  0.18049628589E+04  0.12699999809E+01 0. -1.
</event>
<event>
 5   0  0.9342133E-06  0.2701289E+04  0.7818609E-02  0.8334587E-01
        2   -1    0    0  501    0  0.00000000000E+00  0.00000000000E+00  0.19180286490E+04  0.19180286490E+04  0.25500000920E-02 0.  1.
       -2   -1    0    0    0  501  0.00000000000E+00  0.00000000000E+00 -0.95110176903E+03  0.95110176903E+03  0.25500000920E-02 0. -1.
    10030    2    1    2    0    0  0.00000000000E+00  0.00000000000E+00  0.96692688000E+03  0.28691304181E+04  0.27012889080E+04 0.  0.
        2    1    3    3  502    0 -0.29137481274E+03  0.31925599109E+03  0.18425867836E+04  0.18926039534E+04  0.25500000920E-02 0.  1.
       -2    1    3    3    0  502  0.29137481274E+03 -0.31925599109E+03 -0.87565990361E+03  0.97652646464E+03  0.25500000920E-02 0. -1.
</event>
<event>
 5   0  0.3006875E-06  0.2756103E+04  0.7818609E-02  0.8317028E-01
       -3   -1    0    0    0  501  0.00000000000E+00  0.00000000000E+00  0.84949821665E+03  0.84949822266E+03  0.10100000352E+00 0. -1.
        3   -1    0    0  501    0  0.00000000000E+00  0.00000000000E+00 -0.22354682014E+04  0.22354682037E+04  0.10100000352E+00 0.  1.
    10030    2    1    2    0    0  0.00000000000E+00  0.00000000000E+00 -0.13859699848E+04  0.30849664264E+04  0.27561032370E+04 0.  0.
        5    1    3    3  502    0  0.59692343851E+02 -0.13029541054E+04 -0.11907392230E+04  0.17661071780E+04  0.46999998093E+01 0.  1.
       -5    1    3    3    0  502 -0.59692343851E+02  0.13029541054E+04 -0.19523076175E+03  0.13188592484E+04  0.46999998093E+01 0. -1.
</event>
<event>
 5   0  0.3357244E-06  0.2795051E+04  0.7818609E-02  0.8304806E-01
       -1   -1    0    0    0  501  0.00000000000E+00  0.00000000000E+00  0.17591013025E+04  0.17591013025E+04  0.50400001928E-02 0.  1.
        1   -1    0    0  501    0  0.00000000000E+00  0.00000000000E+00 -0.11102702671E+04  0.11102702671E+04  0.50400001928E-02 0. -1.
    10030    2    1    2    0    0  0.00000000000E+00  0.00000000000E+00  0.64883103540E+03  0.28693715696E+04  0.27950512503E+04 0.  0.
        4    1    3    3  502    0  0.11794789042E+04  0.44542153423E+03  0.94336109996E+03  0.15746436443E+04  0.12699999809E+01 0. -1.
       -4    1    3    3    0  502 -0.11794789042E+04 -0.44542153423E+03 -0.29453006456E+03  0.12947279253E+04  0.12699999809E+01 0.  1.
</event>
<event>
 5   0  0.3438130E-06  0.2806869E+04  0.7818609E-02  0.8301139E-01
       -1   -1    0    0    0  501  0.00000000000E+00  0.00000000000E+00  0.13084310813E+04  0.13084310813E+04  0.50400001928E-02 0. -1.
        1   -1    0    0  501    0  0.00000000000E+00  0.00000000000E+00 -0.15053356478E+04  0.15053356478E+04  0.50400001928E-02 0.  1.
    10030    2    1    2    0    0  0.00000000000E+00  0.00000000000E+00 -0.19690456649E+03  0.28137667291E+04  0.28068686819E+04 0.  0.
        3    1    3    3  502    0 -0.62582573209E+02 -0.11724938390E+04 -0.86908696533E+03  0.14608116047E+04  0.10100000352E+00 0.  1.
       -3    1    3    3    0  502  0.62582573209E+02  0.11724938390E+04  0.67218239884E+03  0.13529551244E+04  0.10100000352E+00 0. -1.
</event>
<event>
 5   0  0.3357244E-06  0.3009577E+04  0.7818609E-02  0.8241001E-01
        1   -1    0    0  501    0  0.00000000000E+00  0.00000000000E+00  0.19569445692E+04  0.19569445692E+04  0.50400001928E-02 0. -1.
       -1   -1    0    0    0  501  0.00000000000E+00  0.00000000000E+00 -0.11571040658E+04  0.11571040659E+04  0.50400001928E-02 0.  1.
    10030    2    1    2    0    0  0.00000000000E+00  0.00000000000E+00  0.79984050339E+03  0.31140486351E+04  0.30095770585E+04 0.  0.
        4    1    3    3  502    0  0.12056051176E+04  0.17864796148E+03 -0.51332061634E+03  0.13224592477E+04  0.12699999809E+01 0.  1.
       -4    1    3    3    0  502 -0.12056051176E+04 -0.17864796148E+03  0.13131611197E+04  0.17915893874E+04  0.12699999809E+01 0. -1.
</event>
<event>
 5   0  0.3357244E-06  0.2561487E+04  0.7818609E-02  0.8381402E-01
        1   -1    0    0  501    0  0.00000000000E+00  0.00000000000E+00  0.12333802422E+04  0.12333802422E+04  0.50400001928E-02 0. -1.
       -1   -1    0    0    0  501  0.00000000000E+00  0.00000000000E+00 -0.13299260046E+04  0.13299260046E+04  0.50400001928E-02 0.  1.
    10030    2    1    2    0    0  0.00000000000E+00  0.00000000000E+00 -0.96545762440E+02  0.25633062468E+04  0.25614874254E+04 0.  0.
        4    1    3    3  502    0 -0.18635312004E+03  0.11214806022E+04  0.54193961867E+03  0.12594230384E+04  0.12699999809E+01 0. -1.
       -4    1    3    3    0  502  0.18635312004E+03 -0.11214806022E+04 -0.63848538111E+03  0.13038832084E+04  0.12699999809E+01 0.  1.
</event>
<event>
 5   0  0.9065579E-06  0.2825011E+04  0.7818609E-02  0.8295545E-01
        2   -1    0    0  501    0  0.00000000000E+00  0.00000000000E+00  0.12021383876E+04  0.12021383876E+04  0.25500000920E-02 0. -1.
       -2   -1    0    0    0  501  0.00000000000E+00  0.00000000000E+00 -0.16596850404E+04  0.16596850404E+04  0.25500000920E-02 0.  1.
    10030    2    1    2    0    0  0.00000000000E+00  0.00000000000E+00 -0.45754665277E+03  0.28618234280E+04  0.28250105121E+04 0.  0.
        3    1    3    3  502    0  0.11452866445E+04  0.12457118692E+03 -0.10567188617E+04  0.15632831610E+04  0.10100000352E+00 0.  1.
       -3    1    3    3    0  502 -0.11452866445E+04 -0.12457118692E+03  0.59917220893E+03  0.12985402669E+04  0.10100000352E+00 0. -1.
</event>
<event>
 5   0  0.9342133E-06  0.2783001E+04  0.7818609E-02  0.8308566E-01
        2   -1    0    0  501    0  0.00000000000E+00  0.00000000000E+00  0.21778379008E+04  0.21778379008E+04  0.25500000920E-02 0.  1.
       -2   -1    0    0    0  501  0.00000000000E+00  0.00000000000E+00 -0.88908041228E+03  0.88908041229E+03  0.25500000920E-02 0. -1.
    10030    2    1    2    0    0  0.00000000000E+00  0.00000000000E+00  0.12887574885E+04  0.30669183131E+04  0.27830005525E+04 0.  0.
        2    1    3    3  502    0  0.58904289190E+03  0.22278325683E+03 -0.72304341897E+03  0.95885123650E+03  0.25500000920E-02 0. -1.
       -2    1    3    3    0  502 -0.58904289190E+03 -0.22278325683E+03  0.20118009075E+04  0.21080670766E+04  0.25500000920E-02 0.  1.
</event>
<event>
 5   0  0.9065579E-06  0.2800725E+04  0.7818609E-02  0.8303043E-01
       -2   -1    0    0    0  501  0.00000000000E+00  0.00000000000E+00  0.77818192678E+03  0.77818192678E+03  0.25500000920E-02 0. -1.
        2   -1    0    0  501    0  0.00000000000E+00  0.00000000000E+00 -0.25199949532E+04  0.25199949532E+04  0.25500000920E-02 0.  1.
    10030    2    1    2    0    0  0.00000000000E+00  0.00000000000E+00 -0.17418130264E+04  0.32981768800E+04  0.28007245692E+04 0.  0.
        3    1    3    3  502    0 -0.68308992882E+03  0.94245273190E+03  0.45960438834E+02  0.11648782661E+04  0.10100000352E+00 0. -1.
       -3    1    3    3    0  502  0.68308992882E+03 -0.94245273190E+03 -0.17877734653E+04  0.21332986139E+04  0.10100000352E+00 0.  1.
</event>
<event>
 5   0  0.9252359E-06  0.2795344E+04  0.7818609E-02  0.8304715E-01
        2   -1    0    0  501    0  0.00000000000E+00  0.00000000000E+00  0.11224977759E+04  0.11224977759E+04  0.25500000920E-02 0.  1.
       -2   -1    0    0    0  501  0.00000000000E+00  0.00000000000E+00 -0.17403031435E+04  0.17403031435E+04  0.25500000920E-02 0. -1.
    10030    2    1    2    0    0  0.00000000000E+00  0.00000000000E+00 -0.61780536764E+03  0.28628009194E+04  0.27953435624E+04 0.  0.
        5    1    3    3  502    0 -0.16453556583E+03 -0.12195327166E+04 -0.98756487650E+03  0.15778588259E+04  0.46999998093E+01 0. -1.
       -5    1    3    3    0  502  0.16453556583E+03  0.12195327166E+04  0.36975950886E+03  0.12849420935E+04  0.46999998093E+01 0.  1.
</event>
<event>
 5   0  0.3600963E-06  0.2804423E+04  0.7818609E-02  0.8301896E-01
       -1   -1    0    0    0  501  0.00000000000E+00  0.00000000000E+00  0.10065562934E+04  0.10065562934E+04  0.50400001928E-02 0.  1.
        1   -1    0    0  501    0  0.00000000000E+00  0.00000000000E+00 -0.19533906958E+04  0.19533906958E+04  0.50400001928E-02 0. -1.
    10030    2    1    2    0    0  0.00000000000E+00  0.00000000000E+00 -0.94683440241E+03  0.29599469892E+04  0.28044234333E+04 0.  0.
        5    1    3    3  502    0  0.27584069945E+03 -0.11201074216E+04 -0.13147735418E+04  0.17491084254E+04  0.46999998093E+01 0. -1.
       -5    1    3    3    0  502 -0.27584069945E+03  0.11201074216E+04  0.36793913942E+03  0.12108385638E+04  0.46999998093E+01 0.  1.
</event>
<event>
 5   0  0.3397882E-06  0.2811191E+04  0.7818609E-02  0.8299802E-01
       -1   -1    0    0    0  501  0.00000000000E+00  0.00000000000E+00  0.13472835466E+04  0.13472835467E+04  0.50400001928E-02 0. -1.
        1   -1    0    0  501    0  0.00000000000E+00  0.00000000000E+00 -0.14664315244E+04  0.14664315244E+04  0.50400001928E-02 0.  1.
    10030    2    1    2    0    0  0.00000000000E+00  0.00000000000E+00 -0.11914797779E+03  0.28137150711E+04  0.28111912530E+04 0.  0.
        2    1    3    3  502    0  0.77743212575E+03  0.46361907721E+03  0.10167312343E+04  0.13612809268E+04  0.25500000920E-02 0. -1.
       -2    1    3    3    0  502 -0.77743212575E+03 -0.46361907721E+03 -0.11358792121E+04  0.14524341443E+04  0.25500000920E-02 0.  1.
</event>
<event>
 5   0  0.3600963E-06  0.2804511E+04  0.7818609E-02  0.8301869E-01
       -1   -1    0    0    0  501  0.00000000000E+00  0.00000000000E+00  0.94351949981E+03  0.94351949983E+03  0.50400001928E-02 0. -1.
        1   -1    0    0  501    0  0.00000000000E+00  0.00000000000E+00 -0.20840276389E+04  0.20840276389E+04  0.50400001928E-02 0.  1.
    10030    2    1    2    0    0  0.00000000000E+00  0.00000000000E+00 -0.11405081390E+04  0.30275471387E+04  0.28045111627E+04 0.  0.
        5    1    3    3  502    0 -0.28159383717E+02  0.16921113731E+03  0.93214166940E+03  0.94780564554E+03  0.46999998093E+01 0. -1.
       -5    1    3    3    0  502  0.28159383717E+02 -0.16921113731E+03 -0.20726498084E+04  0.20797414931E+04  0.46999998093E+01 0.  1.
</event>
<event>
 5   0  0.9342133E-06  0.2806649E+04  0.7818609E-02  0.8301207E-01
       -2   -1    0    0    0  501  0.00000000000E+00  0.00000000000E+00  0.17060112865E+04  0.17060112865E+04  0.25500000920E-02 0. -1.
        2   -1    0    0  501    0  0.00000000000E+00  0.00000000000E+00 -0.11543414697E+04  0.11543414697E+04  0.25500000920E-02 0.  1.
    10030    2    1    2    0    0  0.00000000000E+00  0.00000000000E+00  0.55166981687E+03  0.28603527562E+04  0.28066489455E+04 0.  0.
        2    1    3    3  502    0  0.25616977614E+03  0.10629860777E+03  0.16778014630E+04  0.17005705212E+04  0.25500000920E-02 0. -1.
       -2    1    3    3    0  502 -0.25616977614E+03 -0.10629860777E+03 -0.11261316462E+04  0.11597822350E+04  0.25500000920E-02 0.  1.
</event>
<event>
 5   0  0.9260173E-06  0.2813193E+04  0.7818609E-02  0.8299184E-01
        2   -1    0    0  501    0  0.00000000000E+00  0.00000000000E+00  0.13654159608E+04  0.13654159608E+04  0.25500000920E-02 0. -1.
       -2   -1    0    0    0  501  0.00000000000E+00  0.00000000000E+00 -0.14490191140E+04  0.14490191140E+04  0.25500000920E-02 0.  1.
    10030    2    1    2    0    0  0.00000000000E+00  0.00000000000E+00 -0.83603153250E+02  0.28144350748E+04  0.28131930796E+04 0.  0.
        1    1    3    3  502    0 -0.68863643834E+03 -0.10968381299E+04  0.50729390266E+03  0.13909065861E+04  0.50400001928E-02 0. -1.
       -1    1    3    3    0  502  0.68863643834E+03  0.10968381299E+04 -0.59089705591E+03  0.14235284887E+04  0.50400001928E-02 0.  1.
</event>
<event>
 5   0  0.9260173E-06  0.2857963E+04  0.7818609E-02  0.8285496E-01
        2   -1    0    0  501    0  0.00000000000E+00  0.00000000000E+00  0.21557085792E+04  0.21557085792E+04  0.25500000920E-02 0. -1.
       -2   -1    0    0    0  501  0.00000000000E+00  0.00000000000E+00 -0.94724691845E+03  0.94724691845E+03  0.25500000920E-02 0.  1.
    10030    2    1    2    0    0  0.00000000000E+00  0.00000000000E+00  0.12084616607E+04  0.31029554976E+04  0.28579631269E+04 0.  0.
        1    1    3    3  502    0 -0.66783695825E+03  0.12439494338E+04  0.36494800643E+03  0.14582878468E+04  0.50400001928E-02 0. -1.
       -1    1    3    3    0  502  0.66783695825E+03 -0.12439494338E+04  0.84351365428E+03  0.16446676508E+04  0.50400001928E-02 0.  1.
</event>
<event>
 5   0  0.9065579E-06  0.2871506E+04  0.7818609E-02  0.8281406E-01
       -2   -1    0    0    0  501  0.00000000000E+00  0.00000000000E+00  0.95952823001E+03  0.95952823001E+03  0.25500000920E-02 0. -1.
        2   -1    0    0  501    0  0.00000000000E+00  0.00000000000E+00 -0.21483329608E+04  0.21483329608E+04  0.25500000920E-02 0.  1.
    10030    2    1    2    0    0  0.00000000000E+00  0.00000000000E+00 -0.11888047308E+04  0.31078611908E+04  0.28715056144E+04 0.  0.
        3    1    3    3  502    0  0.10711259659E+04  0.48913952296E+03 -0.14834913102E+04  0.18940207985E+04  0.10100000352E+00 0.  1.
       -3    1    3    3    0  502 -0.10711259659E+04 -0.48913952296E+03  0.29468657940E+03  0.12138403923E+04  0.10100000352E+00 0. -1.
</event>
<event>
 5   0  0.3357244E-06  0.2806890E+04  0.7818609E-02  0.8301133E-01
       -1   -1    0    0    0  501  0.00000000000E+00  0.00000000000E+00  0.14409357961E+04  0.14409357961E+04  0.50400001928E-02 0.  1.
        1   -1    0    0  501    0  0.00000000000E+00  0.00000000000E+00 -0.13669292509E+04  0.13669292509E+04  0.50400001928E-02 0. -1.
    10030    2    1    2    0    0  0.00000000000E+00  0.00000000000E+00  0.74006545206E+02  0.28078650471E+04  0.28068895870E+04 0.  0.
        4    1    3    3  502    0 -0.12784381527E+04 -0.12330676618E+03 -0.52892030264E+03  0.13890165472E+04  0.12699999809E+01 0. -1.
       -4    1    3    3    0  502  0.12784381527E+04  0.12330676618E+03  0.60292684784E+03  0.14188484999E+04  0.12699999809E+01 0.  1.
</event>
<event>
 5   0  0.9065579E-06  0.2784616E+04  0.7818609E-02  0.8308060E-01
        2   -1    0    0  501    0  0.00000000000E+00  0.00000000000E+00  0.19631205708E+04  0.19631205708E+04  0.25500000920E-02 0. -1.
       -2   -1    0    0    0  501  0.00000000000E+00  0.00000000000E+00 -0.98746971032E+03  0.98746971032E+03  0.25500000920E-02 0.  1.
    10030    2    1    2    0    0  0.00000000000E+00  0.00000000000E+00  0.97565086051E+03  0.29505902812E+04  0.27846163839E+04 0.  0.
        3    1    3    3  502    0  0.92706697960E+03  0.79498037724E+03  0.11963155167E+04  0.17095665563E+04  0.10100000352E+00 0. -1.
       -3    1    3    3    0  502 -0.92706697960E+03 -0.79498037724E+03 -0.22066465618E+03  0.12410237248E+04  0.10100000352E+00 0.  1.
</event>
<event>
 5   0  0.3397882E-06  0.2792771E+04  0.7818609E-02  0.8305516E-01
       -1   -1    0    0    0  501  0.00000000000E+00  0.00000000000E+00  0.10519257975E+04  0.10519257975E+04  0.50400001928E-02 0. -1.
        1   -1    0    0  501    0  0.00000000000E+00  0.00000000000E+00 -0.18536412136E+04  0.18536412136E+04  0.50400001928E-02 0.  1.
    10030    2    1    2    0    0  0.00000000000E+00  0.00000000000E+00 -0.80171541613E+03  0.29055670111E+04  0.27927713919E+04 0.  0.
        2    1    3    3  502    0 -0.43041556249E+03 -0.33840063218E+03  0.93559419739E+03  0.10840244677E+04  0.25500000920E-02 0. -1.
       -2    1    3    3    0  502  0.43041556249E+03  0.33840063218E+03 -0.17373096135E+04  0.18215425434E+04  0.25500000920E-02 0.  1.
</event>
<event>
 5   0  0.3397882E-06  0.2816492E+04  0.7818609E-02  0.8298167E-01
        1   -1    0    0  501    0  0.00000000000E+00  0.00000000000E+00  0.10308419236E+04  0.10308419236E+04  0.50400001928E-02 0. -1.
       -1   -1    0    0    0  501  0.00000000000E+00  0.00000000000E+00 -0.19238222975E+04  0.19238222975E+04  0.50400001928E-02 0.  1.
    10030    2    1    2    0    0  0.00000000000E+00  0.00000000000E+00 -0.89298037386E+03  0.29546642211E+04  0.28164919158E+04 0.  0.
        2    1    3    3  502    0  0.86381960618E+03 -0.40495437621E+03 -0.15331567695E+04  0.18057524855E+04  0.25500000920E-02 0.  1.
       -2    1    3    3    0  502 -0.86381960618E+03  0.40495437621E+03  0.64017639565E+03  0.11489117357E+04  0.25500000920E-02 0. -1.
</event>
<event>
 5   0  0.9065579E-06  0.2790725E+04  0.7818609E-02  0.8306154E-01
       -2   -1    0    0    0  501  0.00000000000E+00  0.00000000000E+00  0.13295338186E+04  0.13295338186E+04  0.25500000920E-02 0.  1.
        2   -1    0    0  501    0  0.00000000000E+00  0.00000000000E+00 -0.14644505038E+04  0.14644505038E+04  0.25500000920E-02 0. -1.
    10030    2    1    2    0    0  0.00000000000E+00  0.00000000000E+00 -0.13491668523E+03  0.27939843224E+04  0.27907249742E+04 0.  0.
        3    1    3    3  502    0  0.52968910961E+03 -0.10806340054E+04  0.63955057512E+03  0.13628519196E+04  0.10100000352E+00 0.  1.
       -3    1    3    3    0  502 -0.52968910961E+03  0.10806340054E+04 -0.77446726035E+03  0.14311324027E+04  0.10100000352E+00 0. -1.
</event>
<event>
 5   0  0.3397882E-06  0.2796043E+04  0.7818609E-02  0.8304498E-01
       -1   -1    0    0    0  501  0.00000000000E+00  0.00000000000E+00  0.12391733777E+04  0.12391733777E+04  0.50400001928E-02 0. -1.
        1   -1    0    0  501    0  0.00000000000E+00  0.00000000000E+00 -0.15772324296E+04  0.15772324296E+04  0.50400001928E-02 0.  1.
    10030    2    1    2    0    0  0.00000000000E+00  0.00000000000E+00 -0.33805905194E+03  0.28164058073E+04  0.27960432308E+04 0.  0.
        2    1    3    3  502    0  0.12351037896E+04  0.44587270584E+03  0.31423587656E+03  0.13501955514E+04  0.25500000920E-02 0. -1.
       -2    1    3    3    0  502 -0.12351037896E+04 -0.44587270584E+03 -0.65229492850E+03  0.14662102559E+04  0.25500000920E-02 0.  1.
</event>
<event>
 5   0  0.3397882E-06  0.2791558E+04  0.7818609E-02  0.8305894E-01
        1   -1    0    0  501    0  0.00000000000E+00  0.00000000000E+00  0.21318394287E+04  0.21318394287E+04  0.50400001928E-02 0. -1.
       -1   -1    0    0    0  501  0.00000000000E+00  0.00000000000E+00 -0.91385797718E+03  0.91385797719E+03  0.50400001928E-02 0.  1.
    10030    2    1    2    0    0  0.00000000000E+00  0.00000000000E+00  0.12179814515E+04  0.30456974059E+04  0.27915576068E+04 0.  0.
        2    1    3    3  502    0  0.76139835895E+03  0.92531596565E+03 -0.17189226413E+03  0.12105717855E+04  0.25500000920E-02 0.  1.
       -2    1    3    3    0  502 -0.76139835895E+03 -0.92531596565E+03  0.13898737157E+04  0.18351256204E+04  0.25500000920E-02 0. -1.
</event>
<event>
 5   0  0.3006875E-06  0.2820956E+04  0.7818609E-02  0.8296792E-01
       -3   -1    0    0    0  501  0.00000000000E+00  0.00000000000E+00  0.16893568245E+04  0.16893568276E+04  0.10100000352E+00 0. -1.
        3   -1    0    0  501    0  0.00000000000E+00  0.00000000000E+00 -0.11776367862E+04  0.11776367905E+04  0.10100000352E+00 0.  1.
    10030    2    1    2    0    0  0.00000000000E+00  0.00000000000E+00  0.51172003833E+03  0.28669936181E+04  0.28209563996E+04 0.  0.
        4    1    3    3  502    0  0.92972040832E+03 -0.27437104284E+01 -0.82213837081E+03  0.12410885058E+04  0.12699999809E+01 0.  1.
       -4    1    3    3    0  502 -0.92972040832E+03  0.27437104284E+01  0.13338584091E+04  0.16259051123E+04  0.12699999809E+01 0. -1.
</event>
<event>
 5   0  0.9342133E-06  0.2773571E+04  0.7818609E-02  0.8311521E-01
       -2   -1    0    0    0  501  0.00000000000E+00  0.00000000000E+00  0.24475620053E+04  0.24475620053E+04  0.25500000920E-02 0.  1.
        2   -1    0    0  501    0  0.00000000000E+00  0.00000000000E+00 -0.78575110191E+03  0.78575110191E+03  0.25500000920E-02 0. -1.
    10030    2    1    2    0    0  0.00000000000E+00  0.00000000000E+00  0.16618109034E+04  0.32333131072E+04  0.27735713747E+04 0.  0.
        2    1    3    3  502    0  0.91236480641E+03  0.10075462750E+04  0.51034211596E+03  0.14518981065E+04  0.25500000920E-02 0. -1.
       -2    1    3    3    0  502 -0.91236480641E+03 -0.10075462750E+04  0.11514687874E+04  0.17814150007E+04  0.25500000920E-02 0.  1.
</event>
<event>
 5   0  0.9342133E-06  0.2773219E+04  0.7818609E-02  0.8311631E-01
        2   -1    0    0  501    0  0.00000000000E+00  0.00000000000E+00  0.90502066677E+03  0.90502066678E+03  0.25500000920E-02 0. -1.
       -2   -1    0    0    0  501  0.00000000000E+00  0.00000000000E+00 -0.21244664773E+04  0.21244664774E+04  0.25500000920E-02 0.  1.
    10030    2    1    2    0    0  0.00000000000E+00  0.00000000000E+00 -0.12194458106E+04  0.30294871441E+04  0.27732191171E+04 0.  0.
        2    1    3    3  502    0  0.11560875165E+04 -0.47573299629E+03  0.45563414506E+02  0.12509741222E+04  0.25500000920E-02 0. -1.
       -2    1    3    3    0  502 -0.11560875165E+04  0.47573299629E+03 -0.12650092251E+04  0.17785130219E+04  0.25500000920E-02 0.  1.
</event>
<event>
 5   0  0.3438130E-06  0.2789288E+04  0.7818609E-02  0.8306602E-01
       -1   -1    0    0    0  501  0.00000000000E+00  0.00000000000E+00  0.18085718196E+04  0.18085718196E+04  0.50400001928E-02 0.  1.
        1   -1    0    0  501    0  0.00000000000E+00  0.00000000000E+00 -0.10754520966E+04  0.10754520966E+04  0.50400001928E-02 0. -1.
    10030    2    1    2    0    0  0.00000000000E+00  0.00000000000E+00  0.73311972300E+03  0.28840239162E+04  0.27892883359E+04 0.  0.
        3    1    3    3  502    0 -0.56949296916E+03 -0.12665473419E+04  0.49964808354E+03  0.14758430231E+04  0.10100000352E+00 0. -1.
       -3    1    3    3    0  502  0.56949296916E+03  0.12665473419E+04  0.23347163946E+03  0.14081808931E+04  0.10100000352E+00 0.  1.
</event>
<event>
 5   0  0.9426937E-06  0.2759256E+04  0.7818609E-02  0.8316031E-01
       -2   -1    0    0    0  501  0.00000000000E+00  0.00000000000E+00  0.12761290201E+04  0.12761290201E+04  0.25500000920E-02 0. -1.
        2   -1    0    0  501    0  0.00000000000E+00  0.00000000000E+00 -0.14915208866E+04  0.14915208866E+04  0.25500000920E-02 0.  1.
    10030    2    1    2    0    0  0.00000000000E+00  0.00000000000E+00 -0.21539186658E+03  0.27676499067E+04  0.27592557601E+04 0.  0.
        4    1    3    3  502    0  0.87554713765E+03  0.67299807745E+03  0.72177948065E+03  0.13192711753E+04  0.12699999809E+01 0. -1.
       -4    1    3    3    0  502 -0.87554713765E+03 -0.67299807745E+03 -0.93717134723E+03  0.14483787314E+04  0.12699999809E+01 0.  1.
</event>
<event>
 5   0  0.3371603E-06  0.2816117E+04  0.7818609E-02  0.8298282E-01
        1   -1    0    0  501    0  0.00000000000E+00  0.00000000000E+00  0.13173211918E+04  0.13173211918E+04  0.50400001928E-02 0. -1.
       -1   -1    0    0    0  501  0.00000000000E+00  0.00000000000E+00 -0.15050454469E+04  0.15050454469E+04  0.50400001928E-02 0.  1.
    10030    2    1    2    0    0  0.00000000000E+00  0.00000000000E+00 -0.18772425509E+03  0.28223666387E+04  0.28161166608E+04 0.  0.
        1    1    3    3  502    0 -0.10361109923E+04  0.18320972606E+02  0.86154608517E+03  0.13476361910E+04  0.50400001928E-02 0. -1.
       -1    1    3    3    0  502  0.10361109923E+04 -0.18320972606E+02 -0.10492703403E+04  0.14747304477E+04  0.50400001928E-02 0.  1.
</event>
<event>
 5   0  0.9342133E-06  0.2812054E+04  0.7818609E-02  0.8299536E-01
       -2   -1    0    0    0  501  0.00000000000E+00  0.00000000000E+00  0.11112048872E+04  0.11112048872E+04  0.25500000920E-02 0.  1.
        2   -1    0    0  501    0  0.00000000000E+00  0.00000000000E+00 -0.17790710396E+04  0.17790710396E+04  0.25500000920E-02 0. -1.
    10030    2    1    2    0    0  0.00000000000E+00  0.00000000000E+00 -0.66786615239E+03  0.28902759269E+04  0.28120543622E+04 0.  0.
        2    1    3    3  502    0  0.17483588943E+03 -0.99993327480E+03 -0.13338661245E+04  0.16761959851E+04  0.25500000920E-02 0. -1.
       -2    1    3    3    0  502 -0.17483588943E+03  0.99993327480E+03  0.66599997210E+03  0.12140799418E+04  0.25500000920E-02 0.  1.
</event>
<event>
 5   0  0.3600963E-06  0.2771367E+04  0.7818609E-02  0.8312213E-01
       -1   -1    0    0    0  501  0.00000000000E+00  0.00000000000E+00  0.11401771026E+04  0.11401771026E+04  0.50400001928E-02 0. -1.
        1   -1    0    0  501    0  0.00000000000E+00  0.00000000000E+00 -0.16840533001E+04  0.16840533002E+04  0.50400001928E-02 0.  1.
    10030    2    1    2    0    0  0.00000000000E+00  0.00000000000E+00 -0.54387619752E+03  0.28242304028E+04  0.27713671806E+04 0.  0.
        5    1    3    3  502    0  0.92958597684E+03 -0.72718210328E+03 -0.10118544814E+04  0.15546046060E+04  0.46999998093E+01 0.  1.
       -5    1    3    3    0  502 -0.92958597684E+03  0.72718210328E+03  0.46797828384E+03  0.12696257968E+04  0.46999998093E+01 0. -1.
</event>
<event>
 5   0  0.9260173E-06  0.2821226E+04  0.7818609E-02  0.8296709E-01
        2   -1    0    0  501    0  0.00000000000E+00  0.00000000000E+00  0.12042412000E+04  0.12042412000E+04  0.25500000920E-02 0. -1.
       -2   -1    0    0    0  501  0.00000000000E+00  0.00000000000E+00 -0.16523507672E+04  0.16523507672E+04  0.25500000920E-02 0.  1.
    10030    2    1    2    0    0  0.00000000000E+00  0.00000000000E+00 -0.44810956717E+03  0.28565919672E+04  0.28212258830E+04 0.  0.
        1    1    3    3  502    0  0.80906218336E+03  0.10768722052E+04 -0.64834652484E+03  0.14948540328E+04  0.50400001928E-02 0.  1.
       -1    1    3    3    0  502 -0.80906218336E+03 -0.10768722052E+04  0.20023695766E+03  0.13617379345E+04  0.50400001928E-02 0. -1.
</event>
<event>
 5   0  0.3397882E-06  0.2744873E+04  0.7818609E-02  0.8320590E-01
        1   -1    0    0  501    0  0.00000000000E+00  0.00000000000E+00  0.15116540865E+04  0.15116540865E+04  0.50400001928E-02 0. -1.
       -1   -1    0    0    0  501  0.00000000000E+00  0.00000000000E+00 -0.12460407242E+04  0.12460407242E+04  0.50400001928E-02 0.  1.
    10030    2    1    2    0    0  0.00000000000E+00  0.00000000000E+00  0.26561336236E+03  0.27576948107E+04  0.27448734417E+04 0.  0.
        2    1    3    3  502    0  0.36828750126E+03 -0.71725430853E+03 -0.98300844255E+03  0.12713752494E+04  0.25500000920E-02 0.  1.
       -2    1    3    3    0  502 -0.36828750126E+03  0.71725430853E+03  0.12486218049E+04  0.14863195613E+04  0.25500000920E-02 0. -1.
</event>
<event>
 5   0  0.3371603E-06  0.2802440E+04  0.7818609E-02  0.8302511E-01
        1   -1    0    0  501    0  0.00000000000E+00  0.00000000000E+00  0.92871266007E+03  0.92871266008E+03  0.50400001928E-02 0. -1.
       -1   -1    0    0    0  501  0.00000000000E+00  0.00000000000E+00 -0.21141279849E+04  0.21141279849E+04  0.50400001928E-02 0.  1.
    10030    2    1    2    0    0  0.00000000000E+00  0.00000000000E+00 -0.11854153248E+04  0.30428406449E+04  0.28024399544E+04 0.  0.
        1    1    3    3  502    0  0.53336558431E+03 -0.11299607923E+04 -0.12812404246E+04  0.17896556273E+04  0.50400001928E-02 0.  1.
       -1    1    3    3    0  502 -0.53336558431E+03  0.11299607923E+04  0.95825099854E+02  0.12531850176E+04  0.50400001928E-02 0. -1.
</event>
<event>
 5   0  0.3357244E-06  0.2799534E+04  0.7818609E-02  0.8303413E-01
       -1   -1    0    0    0  501  0.00000000000E+00  0.00000000000E+00  0.98343100929E+03  0.98343100930E+03  0.50400001928E-02 0. -1.
        1   -1    0    0  501    0  0.00000000000E+00  0.00000000000E+00 -0.19923590655E+04  0.19923590655E+04  0.50400001928E-02 0.  1.
    10030    2    1    2    0    0  0.00000000000E+00  0.00000000000E+00 -0.10089280562E+04  0.29757900748E+04  0.27995340231E+04 0.  0.
        4    1    3    3  502    0  0.22978855340E+03 -0.10848322091E+04 -0.14124590520E+04  0.17957466101E+04  0.12699999809E+01 0.  1.
       -4    1    3    3    0  502 -0.22978855340E+03  0.10848322091E+04  0.40353099579E+03  0.11800434647E+04  0.12699999809E+01 0. -1.
</event>
<event>
 5   0  0.3357244E-06  0.2807923E+04  0.7818609E-02  0.8300813E-01
       -1   -1    0    0    0  501  0.00000000000E+00  0.00000000000E+00  0.13166939240E+04  0.13166939240E+04  0.50400001928E-02 0.  1.
        1   -1    0    0  501    0  0.00000000000E+00  0.00000000000E+00 -0.14970133965E+04  0.14970133965E+04  0.50400001928E-02 0. -1.
    10030    2    1    2    0    0  0.00000000000E+00  0.00000000000E+00 -0.18031947250E+03  0.28137073204E+04  0.28079233916E+04 0.  0.
        4    1    3    3  502    0 -0.72078789260E+03 -0.11775760626E+04  0.16509278472E+03  0.13904955267E+04  0.12699999809E+01 0.  1.
       -4    1    3    3    0  502  0.72078789260E+03  0.11775760626E+04 -0.34541225722E+03  0.14232117937E+04  0.12699999809E+01 0. -1.
</event>
<event>
 5   0  0.9342133E-06  0.2806015E+04  0.7818609E-02  0.8301403E-01
       -2   -1    0    0    0  501  0.00000000000E+00  0.00000000000E+00  0.10821228915E+04  0.10821228915E+04  0.25500000920E-02 0.  1.
        2   -1    0    0  501    0  0.00000000000E+00  0.00000000000E+00 -0.18190449007E+04  0.18190449007E+04  0.25500000920E-02 0. -1.
    10030    2    1    2    0    0  0.00000000000E+00  0.00000000000E+00 -0.73692200919E+03  0.29011677922E+04  0.28060150589E+04 0.  0.
        2    1    3    3  502    0  0.51084769626E+03  0.20205507928E+03 -0.17032221486E+04  0.17896249080E+04  0.25500000920E-02 0. -1.
       -2    1    3    3    0  502 -0.51084769626E+03 -0.20205507928E+03  0.96630013945E+03  0.11115428842E+04  0.25500000920E-02 0.  1.
</event>
<event>
 5   0  0.9342133E-06  0.2650745E+04  0.7818609E-02  0.8351166E-01
       -2   -1    0    0    0  501  0.00000000000E+00  0.00000000000E+00  0.96998698941E+03  0.96998698942E+03  0.25500000920E-02 0. -1.
        2   -1    0    0  501    0  0.00000000000E+00  0.00000000000E+00 -0.18109643213E+04  0.18109643213E+04  0.25500000920E-02 0.  1.
    10030    2    1    2    0    0  0.00000000000E+00  0.00000000000E+00 -0.84097733184E+03  0.27809513107E+04  0.26507446727E+04 0.  0.
        2    1    3    3  502    0  0.79251588824E+03 -0.89010410100E+03  0.18786126232E+03  0.12065067748E+04  0.25500000920E-02 0. -1.
       -2    1    3    3    0  502 -0.79251588824E+03  0.89010410100E+03 -0.10288385942E+04  0.15744445359E+04  0.25500000920E-02 0.  1.
</event>
<event>
 5   0  0.9426937E-06  0.2803059E+04  0.7818609E-02  0.8302319E-01
       -2   -1    0    0    0  501  0.00000000000E+00  0.00000000000E+00  0.12113954704E+04  0.12113954704E+04  0.25500000920E-02 0. -1.
        2   -1    0    0  501    0  0.00000000000E+00  0.00000000000E+00 -0.16215056170E+04  0.16215056170E+04  0.25500000920E-02 0.  1.
    10030    2    1    2    0    0  0.00000000000E+00  0.00000000000E+00 -0.41011014658E+03  0.28329010874E+04  0.28030587291E+04 0.  0.
        4    1    3    3  502    0  0.83758100150E+03 -0.65114601861E+02 -0.13388278217E+04  0.15805832450E+04  0.12699999809E+01 0.  1.
       -4    1    3    3    0  502 -0.83758100150E+03  0.65114601861E+02  0.92871767510E+03  0.12523178424E+04  0.12699999809E+01 0. -1.
</event>
<event>
 5   0  0.9252359E-06  0.2823073E+04  0.7818609E-02  0.8296141E-01
        2   -1    0    0  501    0  0.00000000000E+00  0.00000000000E+00  0.74915770654E+03  0.74915770655E+03  0.25500000920E-02 0. -1.
       -2   -1    0    0    0  501  0.00000000000E+00  0.00000000000E+00 -0.26595676101E+04  0.26595676101E+04  0.25500000920E-02 0.  1.
    10030    2    1    2    0    0  0.00000000000E+00  0.00000000000E+00 -0.19104099036E+04  0.34087253166E+04  0.28230731986E+04 0.  0.
        5    1    3    3  502    0 -0.35014023548E+03 -0.74329912719E+03 -0.23410535625E+04  0.24810573653E+04  0.46999998093E+01 0.  1.
       -5    1    3    3    0  502  0.35014023548E+03  0.74329912719E+03  0.43064365900E+03  0.92766795138E+03  0.46999998093E+01 0. -1.
</event>
<event>
 5   0  0.9342133E-06  0.2842214E+04  0.7818609E-02  0.8290281E-01
        2   -1    0    0  501    0  0.00000000000E+00  0.00000000000E+00  0.22824512634E+04  0.22824512634E+04  0.25500000920E-02 0.  1.
       -2   -1    0    0    0  501  0.00000000000E+00  0.00000000000E+00 -0.88481405089E+03  0.88481405089E+03  0.25500000920E-02 0. -1.
    10030    2    1    2    0    0  0.00000000000E+00  0.00000000000E+00  0.13976372125E+04  0.31672653143E+04  0.28422138894E+04 0.  0.
        2    1    3    3  502    0 -0.13923553415E+04  0.97021173536E+02  0.40088792488E+03  0.14521630877E+04  0.25500000920E-02 0. -1.
       -2    1    3    3    0  502  0.13923553415E+04 -0.97021173536E+02  0.99674928763E+03  0.17151022265E+04  0.25500000920E-02 0.  1.
</event>
<event>
 5   0  0.9260173E-06  0.2753724E+04  0.7818609E-02  0.8317781E-01
        2   -1    0    0  501    0  0.00000000000E+00  0.00000000000E+00  0.22398843221E+04  0.22398843221E+04  0.25500000920E-02 0. -1.
       -2   -1    0    0    0  501  0.00000000000E+00  0.00000000000E+00 -0.84636034527E+03  0.84636034527E+03  0.25500000920E-02 0.  1.
    10030    2    1    2    0    0  0.00000000000E+00  0.00000000000E+00  0.13935239768E+04  0.30862446674E+04  0.27537242187E+04 0.  0.
        1    1    3    3  502    0 -0.11967324592E+04  0.35062223600E+03  0.42636984891E+02  0.12477669829E+04  0.50400001928E-02 0.  1.
       -1    1    3    3    0  502  0.11967324592E+04 -0.35062223600E+03  0.13508869920E+04  0.18384776845E+04  0.50400001928E-02 0. -1.
</event>
<event>
 5   0  0.9426937E-06  0.2863195E+04  0.7818609E-02  0.8283913E-01
       -2   -1    0    0    0  501  0.00000000000E+00  0.00000000000E+00  0.99786571777E+03  0.99786571778E+03  0.25500000920E-02 0.  1.
        2   -1    0    0  501    0  0.00000000000E+00  0.00000000000E+00 -0.20538545687E+04  0.20538545687E+04  0.25500000920E-02 0. -1.
    10030    2    1    2    0    0  0.00000000000E+00  0.00000000000E+00 -0.10559888509E+04  0.30517202864E+04  0.28631947635E+04 0.  0.
        4    1    3    3  502    0 -0.40465048815E+03  0.11425527495E+04  0.28393888874E+03  0.12449063051E+04  0.12699999809E+01 0.  1.
       -4    1    3    3    0  502  0.40465048815E+03 -0.11425527495E+04 -0.13399277396E+04  0.18068139814E+04  0.12699999809E+01 0. -1.
</event>
<event>
 5   0  0.9426937E-06  0.2786520E+04  0.7818609E-02  0.8307465E-01
        2   -1    0    0  501    0  0.00000000000E+00  0.00000000000E+00  0.23677245047E+04  0.23677245047E+04  0.25500000920E-02 0. -1.
       -2   -1    0    0    0  501  0.00000000000E+00  0.00000000000E+00 -0.81984788879E+03  0.81984788879E+03  0.25500000920E-02 0.  1.
    10030    2    1    2    0    0  0.00000000000E+00  0.00000000000E+00  0.15478766159E+04  0.31875723935E+04  0.27865203652E+04 0.  0.
        4    1    3    3  502    0  0.73393700306E+03  0.67307225752E+03  0.18885955084E+04  0.21350607475E+04  0.12699999809E+01 0. -1.
       -4    1    3    3    0  502 -0.73393700306E+03 -0.67307225752E+03 -0.34071889249E+03  0.10525116460E+04  0.12699999809E+01 0.  1.
</event>
<event>
 5   0  0.9252359E-06  0.2813448E+04  0.7818609E-02  0.8299105E-01
        2   -1    0    0  501    0  0.00000000000E+00  0.00000000000E+00  0.21597918939E+04  0.21597918939E+04  0.25500000920E-02 0.  1.
       -2   -1    0    0    0  501  0.00000000000E+00  0.00000000000E+00 -0.91623300257E+03  0.91623300257E+03  0.25500000920E-02 0. -1.
    10030    2    1    2    0    0  0.00000000000E+00  0.00000000000E+00  0.12435588914E+04  0.30760248965E+04  0.28134481420E+04 0.  0.
        5    1    3    3  502    0 -0.11556693684E+04 -0.41959802635E+03  0.13691051810E+04  0.18401372990E+04  0.46999998093E+01 0.  1.
       -5    1    3    3    0  502  0.11556693684E+04  0.41959802635E+03 -0.12554628960E+03  0.12358875975E+04  0.46999998093E+01 0. -1.
</event>
<event>
 5   0  0.3357244E-06  0.2775066E+04  0.7818609E-02  0.8311051E-01
        1   -1    0    0  501    0  0.00000000000E+00  0.00000000000E+00  0.15545756068E+04  0.15545756068E+04  0.50400001928E-02 0. -1.
       -1   -1    0    0    0  501  0.00000000000E+00  0.00000000000E+00 -0.12384393887E+04  0.12384393888E+04  0.50400001928E-02 0.  1.
    10030    2    1    2    0    0  0.00000000000E+00  0.00000000000E+00  0.31613621807E+03  0.27930149956E+04  0.27750658834E+04 0.  0.
        4    1    3    3  502    0 -0.88486439967E+03  0.92848038615E+03 -0.37468081195E+03  0.13362066296E+04  0.12699999809E+01 0.  1.
       -4    1    3    3    0  502  0.88486439967E+03 -0.92848038615E+03  0.69081703002E+03  0.14568083660E+04  0.12699999809E+01 0. -1.
</event>
<event>
 5   0  0.9252359E-06  0.2734080E+04  0.7818609E-02  0.8324031E-01
       -2   -1    0    0    0  501  0.00000000000E+00  0.00000000000E+00  0.77755578204E+03  0.77755578204E+03  0.25500000920E-02 0.  1.
        2   -1    0    0  501    0  0.00000000000E+00  0.00000000000E+00 -0.24034260730E+04  0.24034260730E+04  0.25500000920E-02 0. -1.
    10030    2    1    2    0    0  0.00000000000E+00  0.00000000000E+00 -0.16258702909E+04  0.31809818550E+04  0.27340796183E+04 0.  0.
        5    1    3    3  502    0  0.47262240870E+03 -0.11556039848E+04 -0.14607026240E+04  0.19215792351E+04  0.46999998093E+01 0. -1.
       -5    1    3    3    0  502 -0.47262240870E+03  0.11556039848E+04 -0.16516766692E+03  0.12594026199E+04  0.46999998093E+01 0.  1.
</event>
<event>
 5   0  0.9065579E-06  0.2814245E+04  0.7818609E-02  0.8298859E-01
        2   -1    0    0  501    0  0.00000000000E+00  0.00000000000E+00  0.82099380192E+03  0.82099380193E+03  0.25500000920E-02 0.  1.
       -2   -1    0    0    0  501  0.00000000000E+00  0.00000000000E+00 -0.24117044743E+04  0.24117044743E+04  0.25500000920E-02 0. -1.
    10030    2    1    2    0    0  0.00000000000E+00  0.00000000000E+00 -0.15907106723E+04  0.32326982762E+04  0.28142454942E+04 0.  0.
        3    1    3    3  502    0  0.71868604088E+03 -0.80781434174E+03  0.23905394056E+03  0.11073483791E+04  0.10100000352E+00 0.  1.
       -3    1    3    3    0  502 -0.71868604088E+03  0.80781434174E+03 -0.18297646129E+04  0.21253498970E+04  0.10100000352E+00 0. -1.
</event>
<event>
 5   0  0.3397882E-06  0.2503165E+04  0.7818609E-02  0.8401859E-01
       -1   -1    0    0    0  501  0.00000000000E+00  0.00000000000E+00  0.22119311970E+04  0.22119311970E+04  0.50400001928E-02 0.  1.
        1   -1    0    0  501    0  0.00000000000E+00  0.00000000000E+00 -0.70818627345E+03  0.70818627347E+03  0.50400001928E-02 0. -1.
    10030    2    1    2    0    0  0.00000000000E+00  0.00000000000E+00  0.15037449235E+04  0.29201174704E+04  0.25031654452E+04 0.  0.
        2    1    3    3  502    0  0.38078954738E+03 -0.11486563524E+04  0.11245312337E+04  0.16519632535E+04  0.25500000920E-02 0.  1.
       -2    1    3    3    0  502 -0.38078954738E+03  0.11486563524E+04  0.37921368979E+03  0.12681542169E+04  0.25500000920E-02 0. -1.
</event>
<event>
 5   0  0.3371603E-06  0.2899065E+04  0.7818609E-02  0.8273156E-01
       -1   -1    0    0    0  501  0.00000000000E+00  0.00000000000E+00  0.12577274691E+04  0.12577274692E+04  0.50400001928E-02 0.  1.
        1   -1    0    0  501    0  0.00000000000E+00  0.00000000000E+00 -0.16705882645E+04  0.16705882645E+04  0.50400001928E-02 0. -1.
    10030    2    1    2    0    0  0.00000000000E+00  0.00000000000E+00 -0.41286079535E+03  0.29283157337E+04  0.28990651941E+04 0.  0.
        1    1    3    3  502    0  0.12514463220E+04  0.32816416633E+02  0.53166107590E+03  0.13600949650E+04  0.50400001928E-02 0. -1.
       -1    1    3    3    0  502 -0.12514463220E+04 -0.32816416633E+02 -0.94452187124E+03  0.15682207687E+04  0.50400001928E-02 0.  1.
</event>
<event>
 5   0  0.3600963E-06  0.2765048E+04  0.7818609E-02  0.8314203E-01
        1   -1    0    0  501    0  0.00000000000E+00  0.00000000000E+00  0.15372892011E+04  0.15372892011E+04  0.50400001928E-02 0. -1.
       -1   -1    0    0    0  501  0.00000000000E+00  0.00000000000E+00 -0.12433392988E+04  0.12433392988E+04  0.50400001928E-02 0.  1.
    10030    2    1    2    0    0  0.00000000000E+00  0.00000000000E+00  0.29394990224E+03  0.27806284999E+04  0.27650476143E+04 0.  0.
        5    1    3    3  502    0  0.75213587139E+03  0.20029868416E+03  0.12960078461E+04  0.15117825105E+04  0.46999998093E+01 0. -1.
       -5    1    3    3    0  502 -0.75213587139E+03 -0.20029868416E+03 -0.10020579439E+04  0.12688459894E+04  0.46999998093E+01 0.  1.
</event>
<event>
 5   0  0.3600963E-06  0.2803307E+04  0.7818609E-02  0.8302243E-01
        1   -1    0    0  501    0  0.00000000000E+00  0.00000000000E+00  0.19446995480E+04  0.19446995480E+04  0.50400001928E-02 0.  1.
       -1   -1    0    0    0  501  0.00000000000E+00  0.00000000000E+00 -0.10102496729E+04  0.10102496729E+04  0.50400001928E-02 0. -1.
    10030    2    1    2    0    0  0.00000000000E+00  0.00000000000E+00  0.93444987517E+03  0.29549492209E+04  0.28033066777E+04 0.  0.
        5    1    3    3  502    0  0.28919418894E+03 -0.10732947173E+04  0.13672356764E+04  0.17620869201E+04  0.46999998093E+01 0.  1.
       -5    1    3    3    0  502 -0.28919418894E+03  0.10732947173E+04 -0.43278580122E+03  0.11928623009E+04  0.46999998093E+01 0. -1.
</event>
<event>
 5   0  0.9260173E-06  0.2850265E+04  0.7818609E-02  0.8287831E-01
        2   -1    0    0  501    0  0.00000000000E+00  0.00000000000E+00  0.14476088837E+04  0.14476088837E+04  0.25500000920E-02 0. -1.
       -2   -1    0    0    0  501  0.00000000000E+00  0.00000000000E+00 -0.14030055163E+04  0.14030055163E+04  0.25500000920E-02 0.  1.
    10030    2    1    2    0    0  0.00000000000E+00  0.00000000000E+00  0.44603367435E+02  0.28506144000E+04  0.28502654257E+04 0.  0.
        1    1    3    3  502    0 -0.84145988013E+03 -0.11433315853E+04 -0.10317843575E+03  0.14233438212E+04  0.50400001928E-02 0.  1.
       -1    1    3    3    0  502  0.84145988013E+03  0.11433315853E+04  0.14778180318E+03  0.14272705788E+04  0.50400001928E-02 0. -1.
</event>
<event>
 5   0  0.9260173E-06  0.2833485E+04  0.7818609E-02  0.8292947E-01
        2   -1    0    0  501    0  0.00000000000E+00  0.00000000000E+00  0.23130867574E+04  0.23130867574E+04  0.25500000920E-02 0. -1.
       -2   -1    0    0    0  501  0.00000000000E+00  0.00000000000E+00 -0.86774046638E+03  0.86774046638E+03  0.25500000920E-02 0.  1.
    10030    2    1    2    0    0  0.00000000000E+00  0.00000000000E+00  0.14453462910E+04  0.31808272238E+04  0.28334847673E+04 0.  0.
        1    1    3    3  502    0  0.64926132966E+03 -0.39751065382E+02 -0.69019642673E+03  0.94841527238E+03  0.50400001928E-02 0.  1.
       -1    1    3    3    0  502 -0.64926132966E+03  0.39751065382E+02  0.21355427177E+04  0.22324119514E+04  0.50400001928E-02 0. -1.
</event>
<event>
 5   0  0.3371603E-06  0.2823365E+04  0.7818609E-02  0.8296051E-01
       -1   -1    0    0    0  501  0.00000000000E+00  0.00000000000E+00  0.99289157466E+03  0.99289157467E+03  0.50400001928E-02 0.  1.
        1   -1    0    0  501    0  0.00000000000E+00  0.00000000000E+00 -0.20071144812E+04  0.20071144812E+04  0.50400001928E-02 0. -1.
    10030    2    1    2    0    0  0.00000000000E+00  0.00000000000E+00 -0.10142229066E+04  0.30000060559E+04  0.28233647004E+04 0.  0.
        1    1    3    3  502    0  0.74459959509E+03 -0.10295547554E+04  0.14654731214E+03  0.12790182431E+04  0.50400001928E-02 0.  1.
       -1    1    3    3    0  502 -0.74459959509E+03  0.10295547554E+04 -0.11607702187E+04  0.17209878129E+04  0.50400001928E-02 0. -1.
</event>
<event>
 5   0  0.9342133E-06  0.2807926E+04  0.7818609E-02  0.8300812E-01
        2   -1    0    0  501    0  0.00000000000E+00  0.00000000000E+00  0.19403068709E+04  0.19403068709E+04  0.25500000920E-02 0. -1.
       -2   -1    0    0    0  501  0.00000000000E+00  0.00000000000E+00 -0.10158768180E+04  0.10158768180E+04  0.25500000920E-02 0.  1.
    10030    2    1    2    0    0  0.00000000000E+00  0.00000000000E+00  0.92443005285E+03  0.29561836889E+04  0.28079264733E+04 0.  0.
        2    1    3    3  502    0  0.13240722724E+04  0.29286091519E+03  0.79456334105E+02  0.13583991340E+04  0.25500000920E-02 0.  1.
       -2    1    3    3    0  502 -0.13240722724E+04 -0.29286091519E+03  0.84497371874E+03  0.15977845548E+04  0.25500000920E-02 0. -1.
</event>
<event>
 5   0  0.9252359E-06  0.2778801E+04  0.7818609E-02  0.8309880E-01
        2   -1    0    0  501    0  0.00000000000E+00  0.00000000000E+00  0.16264071414E+04  0.16264071414E+04  0.25500000920E-02 0.  1.
       -2   -1    0    0    0  501  0.00000000000E+00  0.00000000000E+00 -0.11869317920E+04  0.11869317920E+04  0.25500000920E-02 0. -1.
    10030    2    1    2    0    0  0.00000000000E+00  0.00000000000E+00  0.43947534940E+03  0.28133389335E+04  0.27788014272E+04 0.  0.
        5    1    3    3  502    0  0.34302093971E+03 -0.28651006400E+03  0.15516343367E+04  0.16147267840E+04  0.46999998093E+01 0.  1.
       -5    1    3    3    0  502 -0.34302093971E+03  0.28651006400E+03 -0.11121589873E+04  0.11986121495E+04  0.46999998093E+01 0. -1.
</event>
<event>
 5   0  0.9252359E-06  0.2804932E+04  0.7818609E-02  0.8301739E-01
       -2   -1    0    0    0  501  0.00000000000E+00  0.00000000000E+00  0.97290875183E+03  0.97290875183E+03  0.25500000920E-02 0.  1.
        2   -1    0    0  501    0  0.00000000000E+00  0.00000000000E+00 -0.20216802525E+04  0.20216802525E+04  0.25500000920E-02 0. -1.
    10030    2    1    2    0    0  0.00000000000E+00  0.00000000000E+00 -0.10487715007E+04  0.29945890043E+04  0.28049316648E+04 0.  0.
        5    1    3    3  502    0 -0.63736371563E+03  0.59979761527E+03  0.64556644346E+03  0.10875512899E+04  0.46999998093E+01 0.  1.
       -5    1    3    3    0  502  0.63736371563E+03 -0.59979761527E+03 -0.16943379441E+04  0.19070377144E+04  0.46999998093E+01 0. -1.
</event>
<event>
 5   0  0.3371603E-06  0.2787771E+04  0.7818609E-02  0.8307075E-01
       -1   -1    0    0    0  501  0.00000000000E+00  0.00000000000E+00  0.11119952362E+04  0.11119952362E+04  0.50400001928E-02 0.  1.
        1   -1    0    0  501    0  0.00000000000E+00  0.00000000000E+00 -0.17472345536E+04  0.17472345536E+04  0.50400001928E-02 0. -1.
    10030    2    1    2    0    0  0.00000000000E+00  0.00000000000E+00 -0.63523931741E+03  0.28592297899E+04  0.27877707942E+04 0.  0.
        1    1    3    3  502    0 -0.26620448136E+03  0.11744319318E+04 -0.10375828568E+04  0.15895701850E+04  0.50400001928E-02 0. -1.
       -1    1    3    3    0  502  0.26620448136E+03 -0.11744319318E+04  0.40234353941E+03  0.12696596048E+04  0.50400001928E-02 0.  1.
</event>
<event>
 5   0  0.3357244E-06  0.2912484E+04  0.7818609E-02  0.8269173E-01
        1   -1    0    0  501    0  0.00000000000E+00  0.00000000000E+00  0.23255400134E+04  0.23255400134E+04  0.50400001928E-02 0.  1.
       -1   -1    0    0    0  501  0.00000000000E+00  0.00000000000E+00 -0.91189184792E+03  0.91189184794E+03  0.50400001928E-02 0. -1.
    10030    2    1    2    0    0  0.00000000000E+00  0.00000000000E+00  0.14136481655E+04  0.32374318613E+04  0.29124841495E+04 0.  0.
        4    1    3    3  502    0 -0.12561804418E+04  0.41392138802E+03  0.13841703466E+04  0.19144841026E+04  0.12699999809E+01 0.  1.
       -4    1    3    3    0  502  0.12561804418E+04 -0.41392138802E+03  0.29477818875E+02  0.13229477588E+04  0.12699999809E+01 0. -1.
</event>
<event>
 5   0  0.9065579E-06  0.2791254E+04  0.7818609E-02  0.8305989E-01
        2   -1    0    0  501    0  0.00000000000E+00  0.00000000000E+00  0.25867200131E+04  0.25867200131E+04  0.25500000920E-02 0.  1.
       -2   -1    0    0    0  501  0.00000000000E+00  0.00000000000E+00 -0.75298989468E+03  0.75298989468E+03  0.25500000920E-02 0. -1.
    10030    2    1    2    0    0  0.00000000000E+00  0.00000000000E+00  0.18337301184E+04  0.33397099077E+04  0.27912535035E+04 0.  0.
        3    1    3    3  502    0  0.75060945269E+03  0.20814712757E+03 -0.46870789514E+03  0.90908023758E+03  0.10100000352E+00 0. -1.
       -3    1    3    3    0  502 -0.75060945269E+03 -0.20814712757E+03  0.23024380135E+04  0.24306296702E+04  0.10100000352E+00 0.  1.
</event>
<event>
 5   0  0.9260173E-06  0.2884697E+04  0.7818609E-02  0.8277445E-01
       -2   -1    0    0    0  501  0.00000000000E+00  0.00000000000E+00  0.11697395854E+04  0.11697395854E+04  0.25500000920E-02 0.  1.
        2   -1    0    0  501    0  0.00000000000E+00  0.00000000000E+00 -0.17784897204E+04  0.17784897204E+04  0.25500000920E-02 0. -1.
    10030    2    1    2    0    0  0.00000000000E+00  0.00000000000E+00 -0.60875013492E+03  0.29482293058E+04  0.28846974387E+04 0.  0.
        1    1    3    3  502    0  0.98786934703E+03  0.40326879029E+02 -0.13776740917E+04  0.16957293436E+04  0.50400001928E-02 0. -1.
       -1    1    3    3    0  502 -0.98786934703E+03 -0.40326879029E+02  0.76892395674E+03  0.12524999622E+04  0.50400001928E-02 0.  1.
</event>
<event>
 5   0  0.9252359E-06  0.2539781E+04  0.7818609E-02  0.8388949E-01
        2   -1    0    0  501    0  0.00000000000E+00  0.00000000000E+00  0.20684881325E+04  0.20684881325E+04  0.25500000920E-02 0. -1.
       -2   -1    0    0    0  501  0.00000000000E+00  0.00000000000E+00 -0.77961352342E+03  0.77961352342E+03  0.25500000920E-02 0.  1.
    10030    2    1    2    0    0  0.00000000000E+00  0.00000000000E+00  0.12888746091E+04  0.28481016559E+04  0.25397805584E+04 0.  0.
        5    1    3    3  502    0 -0.98555749114E+03  0.45427279882E+02  0.15410022616E+04  0.18297806607E+04  0.46999998093E+01 0. -1.
       -5    1    3    3    0  502  0.98555749114E+03 -0.45427279882E+02 -0.25212765252E+03  0.10183209952E+04  0.46999998093E+01 0.  1.
</event>
<event>
 5   0  0.3397882E-06  0.2890852E+04  0.7818609E-02  0.8275605E-01
        1   -1    0    0  501    0  0.00000000000E+00  0.00000000000E+00  0.13946601637E+04  0.13946601637E+04  0.50400001928E-02 0. -1.
       -1   -1    0    0    0  501  0.00000000000E+00  0.00000000000E+00 -0.14980392934E+04  0.14980392934E+04  0.50400001928E-02 0.  1.
    10030    2    1    2    0    0  0.00000000000E+00  0.00000000000E+00 -0.10337912969E+03  0.28926994571E+04  0.28908515881E+04 0.  0.
        2    1    3    3  502    0 -0.10123715720E+04  0.63085415094E+02 -0.10820952162E+04  0.14831743075E+04  0.25500000920E-02 0.  1.
       -2    1    3    3    0  502  0.10123715720E+04 -0.63085415094E+02  0.97871608647E+03  0.14095251496E+04  0.25500000920E-02 0. -1.
</event>
<event>
 5   0  0.9065579E-06  0.2851066E+04  0.7818609E-02  0.8287587E-01
        2   -1    0    0  501    0  0.00000000000E+00  0.00000000000E+00  0.80614812798E+03  0.80614812798E+03  0.25500000920E-02 0.  1.
       -2   -1    0    0    0  501  0.00000000000E+00  0.00000000000E+00 -0.25208079249E+04  0.25208079249E+04  0.25500000920E-02 0. -1.
    10030    2    1    2    0    0  0.00000000000E+00  0.00000000000E+00 -0.17146597969E+04  0.33269560529E+04  0.28510661793E+04 0.  0.
        3    1    3    3  502    0  0.94888087890E+03  0.69924348454E+03 -0.17929234680E+04  0.21456679485E+04  0.10100000352E+00 0. -1.
       -3    1    3    3    0  502 -0.94888087890E+03 -0.69924348454E+03  0.78263671105E+02  0.11812881043E+04  0.10100000352E+00 0.  1.
</event>
<event>
 5   0  0.9426937E-06  0.2747526E+04  0.7818609E-02  0.8319747E-01
       -2   -1    0    0    0  501  0.00000000000E+00  0.00000000000E+00  0.87730420106E+03  0.87730420107E+03  0.25500000920E-02 0. -1.
        2   -1    0    0  501    0  0.00000000000E+00  0.00000000000E+00 -0.21511638502E+04  0.21511638502E+04  0.25500000920E-02 0.  1.
    10030    2    1    2    0    0  0.00000000000E+00  0.00000000000E+00 -0.12738596491E+04  0.30284680513E+04  0.27475262204E+04 0.  0.
        4    1    3    3  502    0  0.12187162372E+03  0.12614957119E+04 -0.12212270249E+04  0.17600060180E+04  0.12699999809E+01 0.  1.
       -4    1    3    3    0  502 -0.12187162372E+03 -0.12614957119E+04 -0.52632624192E+02  0.12684620333E+04  0.12699999809E+01 0. -1.
</event>
<event>
 5   0  0.3006875E-06  0.2787506E+04  0.7818609E-02  0.8307158E-01
       -3   -1    0    0    0  501  0.00000000000E+00  0.00000000000E+00  0.20650274791E+04  0.20650274815E+04  0.10100000352E+00 0.  1.
        3   -1    0    0  501    0  0.00000000000E+00  0.00000000000E+00 -0.94068812771E+03  0.94068813313E+03  0.10100000352E+00 0. -1.
    10030    2    1    2    0    0  0.00000000000E+00  0.00000000000E+00  0.11243393514E+04  0.30057156147E+04  0.27875055837E+04 0.  0.
        3    1    3    3  502    0 -0.42778228352E+03  0.12646662203E+04  0.13063002998E+03  0.13414330195E+04  0.10100000352E+00 0. -1.
       -3    1    3    3    0  502  0.42778228352E+03 -0.12646662203E+04  0.99370932138E+03  0.16642825952E+04  0.10100000352E+00 0.  1.
</event>
<event>
 5   0  0.9065579E-06  0.2810555E+04  0.7818609E-02  0.8299999E-01
       -2   -1    0    0    0  501  0.00000000000E+00  0.00000000000E+00  0.92030224684E+03  0.92030224685E+03  0.25500000920E-02 0.  1.
        2   -1    0    0  501    0  0.00000000000E+00  0.00000000000E+00 -0.21458218129E+04  0.21458218129E+04  0.25500000920E-02 0. -1.
    10030    2    1    2    0    0  0.00000000000E+00  0.00000000000E+00 -0.12255195660E+04  0.30661240597E+04  0.28105548461E+04 0.  0.
        3    1    3    3  502    0 -0.15600290072E+03 -0.61696301281E+03 -0.19796171271E+04  0.20793903540E+04  0.10100000352E+00 0. -1.
       -3    1    3    3    0  502  0.15600290072E+03  0.61696301281E+03  0.75409756106E+03  0.98673370572E+03  0.10100000352E+00 0.  1.
</event>
<event>
 5   0  0.9426937E-06  0.2820601E+04  0.7818609E-02  0.8296901E-01
        2   -1    0    0  501    0  0.00000000000E+00  0.00000000000E+00  0.14662699617E+04  0.14662699617E+04  0.25500000920E-02 0.  1.
       -2   -1    0    0    0  501  0.00000000000E+00  0.00000000000E+00 -0.13564675913E+04  0.13564675913E+04  0.25500000920E-02 0. -1.
    10030    2    1    2    0    0  0.00000000000E+00  0.00000000000E+00  0.10980237044E+03  0.28227375530E+04  0.28206011297E+04 0.  0.
        4    1    3    3  502    0 -0.85852146443E+03 -0.80648397502E+02 -0.10619112924E+04  0.13679256101E+04  0.12699999809E+01 0. -1.
       -4    1    3    3    0  502  0.85852146443E+03  0.80648397502E+02  0.11717136628E+04  0.14548119430E+04  0.12699999809E+01 0.  1.
</event>
<event>
 5   0  0.9260173E-06  0.2776766E+04  0.7818609E-02  0.8310518E-01
       -2   -1    0    0    0  501  0.00000000000E+00  0.00000000000E+00  0.15825549153E+04  0.15825549153E+04  0.25500000920E-02 0.  1.
        2   -1    0    0  501    0  0.00000000000E+00  0.00000000000E+00 -0.12180346166E+04  0.12180346166E+04  0.25500000920E-02 0. -1.
    10030    2    1    2    0    0  0.00000000000E+00  0.00000000000E+00  0.36452029870E+03  0.28005895319E+04  0.27767655065E+04 0.  0.
        1    1    3    3  502    0 -0.92990554442E+02 -0.37875336836E+03  0.15261734228E+04  0.15752163895E+04  0.50400001928E-02 0.  1.
       -1    1    3    3    0  502  0.92990554442E+02  0.37875336836E+03 -0.11616531241E+04  0.12253731424E+04  0.50400001928E-02 0. -1.
</event>
<event>
 5   0  0.3357244E-06  0.2793259E+04  0.7818609E-02  0.8305364E-01
       -1   -1    0    0    0  501  0.00000000000E+00  0.00000000000E+00  0.12681992171E+04  0.12681992172E+04  0.50400001928E-02 0.  1.
        1   -1    0    0  501    0  0.00000000000E+00  0.00000000000E+00 -0.15380656780E+04  0.15380656780E+04  0.50400001928E-02 0. -1.
    10030    2    1    2    0    0  0.00000000000E+00  0.00000000000E+00 -0.26986646083E+03  0.28062648951E+04  0.27932588056E+04 0.  0.
        4    1    3    3  502    0  0.23914085780E+03 -0.11792679891E+04  0.57738911289E+03  0.13346314625E+04  0.12699999809E+01 0.  1.
       -4    1    3    3    0  502 -0.23914085780E+03  0.11792679891E+04 -0.84725557372E+03  0.14716334327E+04  0.12699999809E+01 0. -1.
</event>
<event>
 5   0  0.9065579E-06  0.2770699E+04  0.7818609E-02  0.8312423E-01
       -2   -1    0    0    0  501  0.00000000000E+00  0.00000000000E+00  0.87292272136E+03  0.87292272137E+03  0.25500000920E-02 0. -1.
        2   -1    0    0  501    0  0.00000000000E+00  0.00000000000E+00 -0.21985831000E+04  0.21985831001E+04  0.25500000920E-02 0.  1.
    10030    2    1    2    0    0  0.00000000000E+00  0.00000000000E+00 -0.13256603787E+04  0.30715058214E+04  0.27706989319E+04 0.  0.
        3    1    3    3  502    0  0.17991449574E+03 -0.38718716418E+03  0.79817131835E+03  0.90518538958E+03  0.10100000352E+00 0. -1.
       -3    1    3    3    0  502 -0.17991449574E+03  0.38718716418E+03 -0.21238316970E+04  0.21663204318E+04  0.10100000352E+00 0.  1.
</event>
<event>
 5   0  0.9252359E-06  0.2852699E+04  0.7818609E-02  0.8287092E-01
        2   -1    0    0  501    0  0.00000000000E+00  0.00000000000E+00  0.23755030885E+04  0.23755030885E+04  0.25500000920E-02 0.  1.
       -2   -1    0    0    0  501  0.00000000000E+00  0.00000000000E+00 -0.85643858613E+03  0.85643858614E+03  0.25500000920E-02 0. -1.
    10030    2    1    2    0    0  0.00000000000E+00  0.00000000000E+00  0.15190645024E+04  0.32319416746E+04  0.28526987268E+04 0.  0.
        5    1    3    3  502    0 -0.72107717420E+03 -0.79192267793E+03  0.18267589899E+04  0.21175845476E+04  0.46999998093E+01 0.  1.
       -5    1    3    3    0  502  0.72107717420E+03  0.79192267793E+03 -0.30769448753E+03  0.11143571271E+04  0.46999998093E+01 0. -1.
</event>
<event>
 5   0  0.3438130E-06  0.2778079E+04  0.7818609E-02  0.8310106E-01
        1   -1    0    0  501    0  0.00000000000E+00  0.00000000000E+00  0.22253796029E+04  0.22253796029E+04  0.50400001928E-02 0.  1.
       -1   -1    0    0    0  501  0.00000000000E+00  0.00000000000E+00 -0.86701208119E+03  0.86701208120E+03  0.50400001928E-02 0. -1.
    10030    2    1    2    0    0  0.00000000000E+00  0.00000000000E+00  0.13583675217E+04  0.30923916841E+04  0.27780791933E+04 0.  0.
        3    1    3    3  502    0 -0.89548218809E+03 -0.10325410643E+04  0.95501261239E+03  0.16673567401E+04  0.10100000352E+00 0.  1.
       -3    1    3    3    0  502  0.89548218809E+03  0.10325410643E+04  0.40335490935E+03  0.14250349441E+04  0.10100000352E+00 0. -1.
</event>
<event>
 5   0  0.3357244E-06  0.2803940E+04  0.7818609E-02  0.8302046E-01
        1   -1    0    0  501    0  0.00000000000E+00  0.00000000000E+00  0.11384676028E+04  0.11384676028E+04  0.50400001928E-02 0. -1.
       -1   -1    0    0    0  501  0.00000000000E+00  0.00000000000E+00 -0.17264613197E+04  0.17264613197E+04  0.50400001928E-02 0.  1.
    10030    2    1    2    0    0  0.00000000000E+00  0.00000000000E+00 -0.58799371684E+03  0.28649289225E+04  0.28039402846E+04 0.  0.
        4    1    3    3  502    0 -0.69779852773E+03  0.96732762634E+03 -0.10468222709E+04  0.15869732202E+04  0.12699999809E+01 0.  1.
       -4    1    3    3    0  502  0.69779852773E+03 -0.96732762634E+03  0.45882855407E+03  0.12779557022E+04  0.12699999809E+01 0. -1.
</event>
<event>
 5   0  0.9426937E-06  0.2791512E+04  0.7818609E-02  0.8305908E-01
        2   -1    0    0  501    0  0.00000000000E+00  0.00000000000E+00  0.83441910101E+03  0.83441910101E+03  0.25500000920E-02 0.  1.
       -2   -1    0    0    0  501  0.00000000000E+00  0.00000000000E+00 -0.23347196064E+04  0.23347196064E+04  0.25500000920E-02 0. -1.
    10030    2    1    2    0    0  0.00000000000E+00  0.00000000000E+00 -0.15003005053E+04  0.31691387074E+04  0.27915118736E+04 0.  0.
        4    1    3    3  502    0 -0.46430831144E+03 -0.96479277512E+03  0.26636681570E+03  0.11033404735E+04  0.12699999809E+01 0.  1.
       -4    1    3    3    0  502  0.46430831144E+03  0.96479277512E+03 -0.17666673210E+04  0.20657982339E+04  0.12699999809E+01 0. -1.
</event>
<event>
 5   0  0.3438130E-06  0.2834634E+04  0.7818609E-02  0.8292596E-01
        1   -1    0    0  501    0  0.00000000000E+00  0.00000000000E+00  0.15904304227E+04  0.15904304227E+04  0.50400001928E-02 0. -1.
       -1   -1    0    0    0  501  0.00000000000E+00  0.00000000000E+00 -0.12630460579E+04  0.12630460580E+04  0.50400001928E-02 0.  1.
    10030    2    1    2    0    0  0.00000000000E+00  0.00000000000E+00  0.32738436478E+03  0.28534764807E+04  0.28346335748E+04 0.  0.
        3    1    3    3  502    0  0.72390176066E+03  0.11175358643E+04  0.65258165383E+03  0.14828293875E+04  0.10100000352E+00 0. -1.
       -3    1    3    3    0  502 -0.72390176066E+03 -0.11175358643E+04 -0.32519728906E+03  0.13706470932E+04  0.10100000352E+00 0.  1.
</event>
<event>
 5   0  0.9252359E-06  0.2787478E+04  0.7818609E-02  0.8307167E-01
       -2   -1    0    0    0  501  0.00000000000E+00  0.00000000000E+00  0.14105888743E+04  0.14105888743E+04  0.25500000920E-02 0.  1.
        2   -1    0    0  501    0  0.00000000000E+00  0.00000000000E+00 -0.13770903812E+04  0.13770903812E+04  0.25500000920E-02 0. -1.
    10030    2    1    2    0    0  0.00000000000E+00  0.00000000000E+00  0.33498493102E+02  0.27876792554E+04  0.27874779788E+04 0.  0.
        5    1    3    3  502    0 -0.13536981980E+03 -0.52259116348E+03 -0.12682792413E+04  0.13783979237E+04  0.46999998093E+01 0. -1.
       -5    1    3    3    0  502  0.13536981980E+03  0.52259116348E+03  0.13017777344E+04  0.14092813317E+04  0.46999998093E+01 0.  1.
</event>
<event>
 5   0  0.9342133E-06  0.2796077E+04  0.7818609E-02  0.8304487E-01
        2   -1    0    0  501    0  0.00000000000E+00  0.00000000000E+00  0.10926599612E+04  0.10926599612E+04  0.25500000920E-02 0. -1.
       -2   -1    0    0    0  501  0.00000000000E+00  0.00000000000E+00 -0.17887648161E+04  0.17887648161E+04  0.25500000920E-02 0.  1.
    10030    2    1    2    0    0  0.00000000000E+00  0.00000000000E+00 -0.69610485493E+03  0.28814247773E+04  0.27960770336E+04 0.  0.
        2    1    3    3  502    0 -0.22997401536E+03 -0.28778883919E+03 -0.17378475197E+04  0.17764640344E+04  0.25500000920E-02 0.  1.
       -2    1    3    3    0  502  0.22997401536E+03  0.28778883919E+03  0.10417426648E+04  0.11049607429E+04  0.25500000920E-02 0. -1.
</event>
<event>
 5   0  0.9252359E-06  0.2637222E+04  0.7818609E-02  0.8355667E-01
        2   -1    0    0  501    0  0.00000000000E+00  0.00000000000E+00  0.22496110275E+04  0.22496110275E+04  0.25500000920E-02 0.  1.
       -2   -1    0    0    0  501  0.00000000000E+00  0.00000000000E+00 -0.77290453490E+03  0.77290453490E+03  0.25500000920E-02 0. -1.
    10030    2    1    2    0    0  0.00000000000E+00  0.00000000000E+00  0.14767064926E+04  0.30225155624E+04  0.26372216933E+04 0.  0.
        5    1    3    3  502    0 -0.57414004777E+03 -0.94318372984E+02  0.20945222014E+04  0.21738394817E+04  0.46999998093E+01 0.  1.
       -5    1    3    3    0  502  0.57414004777E+03  0.94318372984E+02 -0.61781570881E+03  0.84867608072E+03  0.46999998093E+01 0. -1.
</event>
<event>
 5   0  0.3600963E-06  0.2807800E+04  0.7818609E-02  0.8300851E-01
        1   -1    0    0  501    0  0.00000000000E+00  0.00000000000E+00  0.15360364744E+04  0.15360364745E+04  0.50400001928E-02 0. -1.
       -1   -1    0    0    0  501  0.00000000000E+00  0.00000000000E+00 -0.12831304839E+04  0.12831304839E+04  0.50400001928E-02 0.  1.
    10030    2    1    2    0    0  0.00000000000E+00  0.00000000000E+00  0.25290599053E+03  0.28191669584E+04  0.28078000105E+04 0.  0.
        5    1    3    3  502    0 -0.55055032020E+03  0.12385490444E+04  0.49372578914E+03  0.14425313291E+04  0.46999998093E+01 0. -1.
       -5    1    3    3    0  502  0.55055032020E+03 -0.12385490444E+04 -0.24081979862E+03  0.13766356293E+04  0.46999998093E+01 0.  1.
</event>
<event>
 5   0  0.3357244E-06  0.2774910E+04  0.7818609E-02  0.8311100E-01
       -1   -1    0    0    0  501  0.00000000000E+00  0.00000000000E+00  0.69293195685E+03  0.69293195687E+03  0.50400001928E-02 0. -1.
        1   -1    0    0  501    0  0.00000000000E+00  0.00000000000E+00 -0.27780959658E+04  0.27780959658E+04  0.50400001928E-02 0.  1.
    10030    2    1    2    0    0  0.00000000000E+00  0.00000000000E+00 -0.20851640090E+04  0.34710279227E+04  0.27749100699E+04 0.  0.
        4    1    3    3  502    0  0.35182069781E+03 -0.12638618613E+04 -0.16074193477E+04  0.20748308799E+04  0.12699999809E+01 0. -1.
       -4    1    3    3    0  502 -0.35182069781E+03  0.12638618613E+04 -0.47774466125E+03  0.13961970428E+04  0.12699999809E+01 0.  1.
</event>
<event>
 5   0  0.9065579E-06  0.2839564E+04  0.7818609E-02  0.8291090E-01
       -2   -1    0    0    0  501  0.00000000000E+00  0.00000000000E+00  0.98748985922E+03  0.98748985922E+03  0.25500000920E-02 0.  1.
        2   -1    0    0  501    0  0.00000000000E+00  0.00000000000E+00 -0.20413178195E+04  0.20413178195E+04  0.25500000920E-02 0. -1.
    10030    2    1    2    0    0  0.00000000000E+00  0.00000000000E+00 -0.10538279603E+04  0.30288076787E+04  0.28395638018E+04 0.  0.
        3    1    3    3  502    0 -0.12024604340E+04 -0.43599011315E+03  0.13042191371E+03  0.12856937271E+04  0.10100000352E+00 0.  1.
       -3    1    3    3    0  502  0.12024604340E+04  0.43599011315E+03 -0.11842498740E+04  0.17431139516E+04  0.10100000352E+00 0. -1.
</event>
<event>
 5   0  0.3397882E-06  0.2792201E+04  0.7818609E-02  0.8305694E-01
        1   -1    0    0  501    0  0.00000000000E+00  0.00000000000E+00  0.13431627660E+04  0.13431627660E+04  0.50400001928E-02 0. -1.
       -1   -1    0    0    0  501  0.00000000000E+00  0.00000000000E+00 -0.14511249169E+04  0.14511249169E+04  0.50400001928E-02 0.  1.
    10030    2    1    2    0    0  0.00000000000E+00  0.00000000000E+00 -0.10796215090E+03  0.27942876829E+04  0.27922012515E+04 0.  0.
        2    1    3    3  502    0 -0.28164153175E+03  0.85520261902E+03  0.10137761214E+04  0.13558891903E+04  0.25500000920E-02 0. -1.
       -2    1    3    3    0  502  0.28164153175E+03 -0.85520261902E+03 -0.11217382723E+04  0.14383984926E+04  0.25500000920E-02 0.  1.
</event>
<event>
 5   0  0.9426937E-06  0.3017148E+04  0.7818609E-02  0.8238851E-01
        2   -1    0    0  501    0  0.00000000000E+00  0.00000000000E+00  0.12947438955E+04  0.12947438955E+04  0.25500000920E-02 0. -1.
       -2   -1    0    0    0  501  0.00000000000E+00  0.00000000000E+00 -0.17577181487E+04  0.17577181487E+04  0.25500000920E-02 0.  1.
    10030    2    1    2    0    0  0.00000000000E+00  0.00000000000E+00 -0.46297425322E+03  0.30524620443E+04  0.30171475556E+04 0.  0.
        4    1    3    3  502    0  0.46458040261E+03 -0.11419200180E+04 -0.11111332637E+04  0.16596490655E+04  0.12699999809E+01 0.  1.
       -4    1    3    3    0  502 -0.46458040261E+03  0.11419200180E+04  0.64815901048E+03  0.13928129788E+04  0.12699999809E+01 0. -1.
</event>
<event>
 5   0  0.3357244E-06  0.2786483E+04  0.7818609E-02  0.8307477E-01
        1   -1    0    0  501    0  0.00000000000E+00  0.00000000000E+00  0.13065704429E+04  0.13065704429E+04  0.50400001928E-02 0. -1.
       -1   -1    0    0    0  501  0.00000000000E+00  0.00000000000E+00 -0.14856614866E+04  0.14856614866E+04  0.50400001928E-02 0.  1.
    10030    2    1    2    0    0  0.00000000000E+00  0.00000000000E+00 -0.17909104370E+03  0.27922319296E+04  0.27864826478E+04 0.  0.
        4    1    3    3  502    0 -0.20705198990E+03  0.11276972596E+04 -0.88272664128E+03  0.14469898313E+04  0.12699999809E+01 0.  1.
       -4    1    3    3    0  502  0.20705198990E+03 -0.11276972596E+04  0.70363559757E+03  0.13452420982E+04  0.12699999809E+01 0. -1.
</event>
<event>
 5   0  0.3371603E-06  0.2340381E+04  0.7818609E-02  0.8462167E-01
       -1   -1    0    0    0  501  0.00000000000E+00  0.00000000000E+00  0.18494882508E+04  0.18494882508E+04  0.50400001928E-02 0. -1.
        1   -1    0    0  501    0  0.00000000000E+00  0.00000000000E+00 -0.74039198627E+03  0.74039198629E+03  0.50400001928E-02 0.  1.
    10030    2    1    2    0    0  0.00000000000E+00  0.00000000000E+00  0.11090962645E+04  0.25898802371E+04  0.23403814045E+04 0.  0.
        1    1    3    3  502    0  0.65229341293E+03  0.94700500769E+03  0.31453678759E+03  0.11921571087E+04  0.50400001928E-02 0.  1.
       -1    1    3    3    0  502 -0.65229341293E+03 -0.94700500769E+03  0.79455947691E+03  0.13977231283E+04  0.50400001928E-02 0. -1.
</event>
<event>
 5   0  0.3600963E-06  0.2809745E+04  0.7818609E-02  0.8300249E-01
       -1   -1    0    0    0  501  0.00000000000E+00  0.00000000000E+00  0.16247719345E+04  0.16247719345E+04  0.50400001928E-02 0. -1.
        1   -1    0    0  501    0  0.00000000000E+00  0.00000000000E+00 -0.12147348828E+04  0.12147348828E+04  0.50400001928E-02 0.  1.
    10030    2    1    2    0    0  0.00000000000E+00  0.00000000000E+00  0.41003705171E+03  0.28395068173E+04  0.28097452877E+04 0.  0.
        5    1    3    3  502    0 -0.11382954664E+04 -0.82314063349E+03  0.18563242727E+03  0.14169539722E+04  0.46999998093E+01 0. -1.
       -5    1    3    3    0  502  0.11382954664E+04  0.82314063349E+03  0.22440462444E+03  0.14225528450E+04  0.46999998093E+01 0.  1.
</event>
<event>
 5   0  0.3438130E-06  0.2482698E+04  0.7818609E-02  0.8409175E-01
        1   -1    0    0  501    0  0.00000000000E+00  0.00000000000E+00  0.13176882210E+04  0.13176882210E+04  0.50400001928E-02 0. -1.
       -1   -1    0    0    0  501  0.00000000000E+00  0.00000000000E+00 -0.11694328270E+04  0.11694328270E+04  0.50400001928E-02 0.  1.
    10030    2    1    2    0    0  0.00000000000E+00  0.00000000000E+00  0.14825539400E+03  0.24871210481E+04  0.24826984202E+04 0.  0.
        3    1    3    3  502    0  0.47241834498E+03 -0.10862487543E+04 -0.29779151928E+03  0.12213907024E+04  0.10100000352E+00 0.  1.
       -3    1    3    3    0  502 -0.47241834498E+03  0.10862487543E+04  0.44604691328E+03  0.12657303456E+04  0.10100000352E+00 0. -1.
</event>
<event>
 5   0  0.9342133E-06  0.2788958E+04  0.7818609E-02  0.8306705E-01
        2   -1    0    0  501    0  0.00000000000E+00  0.00000000000E+00  0.92084564900E+03  0.92084564901E+03  0.25500000920E-02 0.  1.
       -2   -1    0    0    0  501  0.00000000000E+00  0.00000000000E+00 -0.21117231489E+04  0.21117231489E+04  0.25500000920E-02 0. -1.
    10030    2    1    2    0    0  0.00000000000E+00  0.00000000000E+00 -0.11908774999E+04  0.30325687979E+04  0.27889575641E+04 0.  0.
        2    1    3    3  502    0 -0.64762706383E+03 -0.12314669389E+04 -0.69650624562E+03  0.15559731957E+04  0.25500000920E-02 0. -1.
       -2    1    3    3    0  502  0.64762706383E+03  0.12314669389E+04 -0.49437125431E+03  0.14765956023E+04  0.25500000920E-02 0.  1.
</event>
<event>
 5   0  0.3357244E-06  0.2777659E+04  0.7818609E-02  0.8310238E-01
        1   -1    0    0  501    0  0.00000000000E+00  0.00000000000E+00  0.17184891842E+04  0.17184891843E+04  0.50400001928E-02 0.  1.
       -1   -1    0    0    0  501  0.00000000000E+00  0.00000000000E+00 -0.11224084856E+04  0.11224084856E+04  0.50400001928E-02 0. -1.
    10030    2    1    2    0    0  0.00000000000E+00  0.00000000000E+00  0.59608069865E+03  0.28408976699E+04  0.27776586132E+04 0.  0.
        4    1    3    3  502    0 -0.42405765395E+03  0.65710343915E+03  0.14718790410E+04  0.16667451359E+04  0.12699999809E+01 0.  1.
       -4    1    3    3    0  502  0.42405765395E+03 -0.65710343915E+03 -0.87579834239E+03  0.11741525340E+04  0.12699999809E+01 0. -1.
</event>
<event>
 5   0  0.9252359E-06  0.2774860E+04  0.7818609E-02  0.8311116E-01
       -2   -1    0    0    0  501  0.00000000000E+00  0.00000000000E+00  0.12901775771E+04  0.12901775771E+04  0.25500000920E-02 0.  1.
        2   -1    0    0  501    0  0.00000000000E+00  0.00000000000E+00 -0.14920131633E+04  0.14920131633E+04  0.25500000920E-02 0. -1.
    10030    2    1    2    0    0  0.00000000000E+00  0.00000000000E+00 -0.20183558617E+03  0.27821907404E+04  0.27748599446E+04 0.  0.
        5    1    3    3  502    0 -0.34834186685E+03  0.32341497381E+03  0.12059829082E+04  0.12962855266E+04  0.46999998093E+01 0.  1.
       -5    1    3    3    0  502  0.34834186685E+03 -0.32341497381E+03 -0.14078184944E+04  0.14859052139E+04  0.46999998093E+01 0. -1.
</event>
<event>
 5   0  0.9426937E-06  0.2801622E+04  0.7818609E-02  0.8302765E-01
        2   -1    0    0  501    0  0.00000000000E+00  0.00000000000E+00  0.22396194146E+04  0.22396194146E+04  0.25500000920E-02 0. -1.
       -2   -1    0    0    0  501  0.00000000000E+00  0.00000000000E+00 -0.87616277015E+03  0.87616277016E+03  0.25500000920E-02 0.  1.
    10030    2    1    2    0    0  0.00000000000E+00  0.00000000000E+00  0.13634566444E+04  0.31157821848E+04  0.28016217806E+04 0.  0.
        4    1    3    3  502    0 -0.33769021379E+02 -0.13353804024E+04  0.11507915249E+04  0.17631516987E+04  0.12699999809E+01 0.  1.
       -4    1    3    3    0  502  0.33769021379E+02  0.13353804024E+04  0.21266511949E+03  0.13526304861E+04  0.12699999809E+01 0. -1.
</event>
<event>
 5   0  0.3371603E-06  0.2790324E+04  0.7818609E-02  0.8306279E-01
        1   -1    0    0  501    0  0.00000000000E+00  0.00000000000E+00  0.16642323620E+04  0.16642323620E+04  0.50400001928E-02 0.  1.
       -1   -1    0    0    0  501  0.00000000000E+00  0.00000000000E+00 -0.11695948085E+04  0.11695948086E+04  0.50400001928E-02 0. -1.
    10030    2    1    2    0    0  0.00000000000E+00  0.00000000000E+00  0.49463755347E+03  0.28338271706E+04  0.27903243760E+04 0.  0.
        1    1    3    3  502    0  0.85411666006E+03  0.92868791666E+03 -0.35736373525E+03  0.13113677420E+04  0.50400001928E-02 0. -1.
       -1    1    3    3    0  502 -0.85411666006E+03 -0.92868791666E+03  0.85200128872E+03  0.15224594285E+04  0.50400001928E-02 0.  1.
</event>
<event>
 5   0  0.9252359E-06  0.2753404E+04  0.7818609E-02  0.8317882E-01
       -2   -1    0    0    0  501  0.00000000000E+00  0.00000000000E+00  0.12759213915E+04  0.12759213915E+04  0.25500000920E-02 0. -1.
        2   -1    0    0  501    0  0.00000000000E+00  0.00000000000E+00 -0.14854429602E+04  0.14854429602E+04  0.25500000920E-02 0.  1.
    10030    2    1    2    0    0  0.00000000000E+00  0.00000000000E+00 -0.20952156875E+03  0.27613643517E+04  0.27534040378E+04 0.  0.
        5    1    3    3  502    0  0.40359340910E+03 -0.10634890003E+04 -0.88249610270E+03  0.14396937018E+04  0.46999998093E+01 0.  1.
       -5    1    3    3    0  502 -0.40359340910E+03  0.10634890003E+04  0.67297453395E+03  0.13216706500E+04  0.46999998093E+01 0. -1.
</event>
<event>
 5   0  0.9260173E-06  0.2756087E+04  0.7818609E-02  0.8317033E-01
        2   -1    0    0  501    0  0.00000000000E+00  0.00000000000E+00  0.14189435198E+04  0.14189435198E+04  0.25500000920E-02 0. -1.
       -2   -1    0    0    0  501  0.00000000000E+00  0.00000000000E+00 -0.13383220173E+04  0.13383220173E+04  0.25500000920E-02 0.  1.
    10030    2    1    2    0    0  0.00000000000E+00  0.00000000000E+00  0.80621502484E+02  0.27572655372E+04  0.27560866125E+04 0.  0.
        1    1    3    3  502    0 -0.53448592323E+03  0.99802559287E+03  0.82631409834E+03  0.14016152380E+04  0.50400001928E-02 0. -1.
       -1    1    3    3    0  502  0.53448592323E+03 -0.99802559287E+03 -0.74569259585E+03  0.13556502992E+04  0.50400001928E-02 0.  1.
</event>
<event>
 5   0  0.9065579E-06  0.2801322E+04  0.7818609E-02  0.8302858E-01
       -2   -1    0    0    0  501  0.00000000000E+00  0.00000000000E+00  0.84804495586E+03  0.84804495587E+03  0.25500000920E-02 0. -1.
        2   -1    0    0  501    0  0.00000000000E+00  0.00000000000E+00 -0.23133819075E+04  0.23133819075E+04  0.25500000920E-02 0.  1.
    10030    2    1    2    0    0  0.00000000000E+00  0.00000000000E+00 -0.14653369516E+04  0.31614268634E+04  0.28013224432E+04 0.  0.
        3    1    3    3  502    0 -0.78256424659E+02  0.92196346618E+03 -0.19193683120E+04  0.21307546617E+04  0.10100000352E+00 0.  1.
       -3    1    3    3    0  502  0.78256424659E+02 -0.92196346618E+03  0.45403136035E+03  0.10306722017E+04  0.10100000352E+00 0. -1.
</event>
<event>
 5   0  0.3371603E-06  0.2802313E+04  0.7818609E-02  0.8302550E-01
        1   -1    0    0  501    0  0.00000000000E+00  0.00000000000E+00  0.18945109298E+04  0.18945109298E+04  0.50400001928E-02 0. -1.
       -1   -1    0    0    0  501  0.00000000000E+00  0.00000000000E+00 -0.10362780673E+04  0.10362780674E+04  0.50400001928E-02 0.  1.
    10030    2    1    2    0    0  0.00000000000E+00  0.00000000000E+00  0.85823286247E+03  0.29307889972E+04  0.28023134193E+04 0.  0.
        1    1    3    3  502    0 -0.46877705434E+03 -0.96849780878E+03  0.13677599165E+04  0.17402606476E+04  0.50400001928E-02 0. -1.
       -1    1    3    3    0  502  0.46877705434E+03  0.96849780878E+03 -0.50952705406E+03  0.11905283496E+04  0.50400001928E-02 0.  1.
</event>
<event>
 5   0  0.3397882E-06  0.2706463E+04  0.7818609E-02  0.8332911E-01
       -1   -1    0    0    0  501  0.00000000000E+00  0.00000000000E+00  0.14699258179E+04  0.14699258179E+04  0.50400001928E-02 0. -1.
        1   -1    0    0  501    0  0.00000000000E+00  0.00000000000E+00 -0.12458008650E+04  0.12458008650E+04  0.50400001928E-02 0.  1.
    10030    2    1    2    0    0  0.00000000000E+00  0.00000000000E+00  0.22412495287E+03  0.27157266829E+04  0.27064625292E+04 0.  0.
        2    1    3    3  502    0  0.28629250326E+03 -0.21134309386E+03 -0.11980120145E+04  0.12497448090E+04  0.25500000920E-02 0.  1.
       -2    1    3    3    0  502 -0.28629250326E+03  0.21134309386E+03  0.14221369674E+04  0.14659818739E+04  0.25500000920E-02 0. -1.
</event>
<event>
 5   0  0.9260173E-06  0.2795922E+04  0.7818609E-02  0.8304535E-01
        2   -1    0    0  501    0  0.00000000000E+00  0.00000000000E+00  0.21303752844E+04  0.21303752844E+04  0.25500000920E-02 0.  1.
       -2   -1    0    0    0  501  0.00000000000E+00  0.00000000000E+00 -0.91734801417E+03  0.91734801417E+03  0.25500000920E-02 0. -1.
    10030    2    1    2    0    0  0.00000000000E+00  0.00000000000E+00  0.12130272702E+04  0.30477232985E+04  0.27959224142E+04 0.  0.
        1    1    3    3  502    0  0.38950872559E+03 -0.71991563852E+03  0.18418455292E+04  0.20155372800E+04  0.50400001928E-02 0.  1.
       -1    1    3    3    0  502 -0.38950872559E+03  0.71991563852E+03 -0.62881825898E+03  0.10321860185E+04  0.50400001928E-02 0. -1.
</event>
<event>
 5   0  0.9065579E-06  0.2789699E+04  0.7818609E-02  0.8306473E-01
        2   -1    0    0  501    0  0.00000000000E+00  0.00000000000E+00  0.15018390045E+04  0.15018390045E+04  0.25500000920E-02 0. -1.
       -2   -1    0    0    0  501  0.00000000000E+00  0.00000000000E+00 -0.12954820969E+04  0.12954820969E+04  0.25500000920E-02 0.  1.
    10030    2    1    2    0    0  0.00000000000E+00  0.00000000000E+00  0.20635690757E+03  0.27973211015E+04  0.27896992977E+04 0.  0.
        3    1    3    3  502    0 -0.12192080149E+04  0.44102114543E+03  0.61901342712E+03  0.14367134256E+04  0.10100000352E+00 0. -1.
       -3    1    3    3    0  502  0.12192080149E+04 -0.44102114543E+03 -0.41265651955E+03  0.13606076758E+04  0.10100000352E+00 0.  1.
</event>
<event>
 5   0  0.3600963E-06  0.2802070E+04  0.7818609E-02  0.8302626E-01
        1   -1    0    0  501    0  0.00000000000E+00  0.00000000000E+00  0.16004963129E+04  0.16004963130E+04  0.50400001928E-02 0.  1.
       -1   -1    0    0    0  501  0.00000000000E+00  0.00000000000E+00 -0.12264313562E+04  0.12264313562E+04  0.50400001928E-02 0. -1.
    10030    2    1    2    0    0  0.00000000000E+00  0.00000000000E+00  0.37406495678E+03  0.28269276691E+04  0.28020698518E+04 0.  0.
        5    1    3    3  502    0  0.11773255286E+04 -0.33976132098E+03  0.87228082725E+03  0.15041373232E+04  0.46999998093E+01 0.  1.
       -5    1    3    3    0  502 -0.11773255286E+04  0.33976132098E+03 -0.49821587047E+03  0.13227903459E+04  0.46999998093E+01 0. -1.
</event>
<event>
 5   0  0.9065579E-06  0.2792872E+04  0.7818609E-02  0.8305485E-01
       -2   -1    0    0    0  501  0.00000000000E+00  0.00000000000E+00  0.98029924387E+03  0.98029924387E+03  0.25500000920E-02 0.  1.
        2   -1    0    0  501    0  0.00000000000E+00  0.00000000000E+00 -0.19892223021E+04  0.19892223021E+04  0.25500000920E-02 0. -1.
    10030    2    1    2    0    0  0.00000000000E+00  0.00000000000E+00 -0.10089230582E+04  0.29695215460E+04  0.27928717254E+04 0.  0.
        3    1    3    3  502    0  0.24077664801E+03  0.37437014947E+02  0.95752038774E+03  0.98803857589E+03  0.10100000352E+00 0.  1.
       -3    1    3    3    0  502 -0.24077664801E+03 -0.37437014947E+02 -0.19664434460E+04  0.19814829701E+04  0.10100000352E+00 0. -1.
</event>
<event>
 5   0  0.3357244E-06  0.2844212E+04  0.7818609E-02  0.8289672E-01
        1   -1    0    0  501    0  0.00000000000E+00  0.00000000000E+00  0.10180168088E+04  0.10180168088E+04  0.50400001928E-02 0. -1.
       -1   -1    0    0    0  501  0.00000000000E+00  0.00000000000E+00 -0.19865937417E+04  0.19865937417E+04  0.50400001928E-02 0.  1.
    10030    2    1    2    0    0  0.00000000000E+00  0.00000000000E+00 -0.96857693298E+03  0.30046105505E+04  0.28442122433E+04 0.  0.
        4    1    3    3  502    0  0.12535988060E+04 -0.34246899759E+03 -0.10944322563E+04  0.16989933953E+04  0.12699999809E+01 0.  1.
       -4    1    3    3    0  502 -0.12535988060E+04  0.34246899759E+03  0.12585532337E+03  0.13056171552E+04  0.12699999809E+01 0. -1.
</event>
<event>
 5   0  0.3357244E-06  0.2809863E+04  0.7818609E-02  0.8300213E-01
       -1   -1    0    0    0  501  0.00000000000E+00  0.00000000000E+00  0.13173096466E+04  0.13173096466E+04  0.50400001928E-02 0.  1.
        1   -1    0    0  501    0  0.00000000000E+00  0.00000000000E+00 -0.14983814580E+04  0.14983814580E+04  0.50400001928E-02 0. -1.
    10030    2    1    2    0    0  0.00000000000E+00  0.00000000000E+00 -0.18107181143E+03  0.28156911046E+04  0.28098628784E+04 0.  0.
        4    1    3    3  502    0  0.64257302742E+03 -0.62227025030E+03  0.99509038956E+03  0.13380309624E+04  0.12699999809E+01 0.  1.
       -4    1    3    3    0  502 -0.64257302742E+03  0.62227025030E+03 -0.11761622010E+04  0.14776601422E+04  0.12699999809E+01 0. -1.
</event>
<event>
 5   0  0.9065579E-06  0.2790890E+04  0.7818609E-02  0.8306102E-01
       -2   -1    0    0    0  501  0.00000000000E+00  0.00000000000E+00  0.87264663344E+03  0.87264663344E+03  0.25500000920E-02 0.  1.
        2   -1    0    0  501    0  0.00000000000E+00  0.00000000000E+00 -0.22314485808E+04  0.22314485808E+04  0.25500000920E-02 0. -1.
    10030    2    1    2    0    0  0.00000000000E+00  0.00000000000E+00 -0.13588019474E+04  0.31040952143E+04  0.27908895297E+04 0.  0.
        3    1    3    3  502    0 -0.72540814776E+03  0.10431541400E+04 -0.37696174385E+02  0.12711445836E+04  0.10100000352E+00 0. -1.
       -3    1    3    3    0  502  0.72540814776E+03 -0.10431541400E+04 -0.13211057730E+04  0.18329506306E+04  0.10100000352E+00 0.  1.
</event>
<event>
 5   0  0.3600963E-06  0.2787786E+04  0.7818609E-02  0.8307070E-01
        1   -1    0    0  501    0  0.00000000000E+00  0.00000000000E+00  0.12699493419E+04  0.12699493419E+04  0.50400001928E-02 0.  1.
       -1   -1    0    0    0  501  0.00000000000E+00  0.00000000000E+00 -0.15299332586E+04  0.15299332586E+04  0.50400001928E-02 0. -1.
    10030    2    1    2    0    0  0.00000000000E+00  0.00000000000E+00 -0.25998391663E+03  0.27998826005E+04  0.27877860283E+04 0.  0.
        5    1    3    3  502    0 -0.31437907950E+03  0.13556741392E+04 -0.20925886408E+03  0.14073016519E+04  0.46999998093E+01 0.  1.
       -5    1    3    3    0  502  0.31437907950E+03 -0.13556741392E+04 -0.50725052557E+02  0.13925809486E+04  0.46999998093E+01 0. -1.
</event>
<event>
 5   0  0.3371603E-06  0.2791875E+04  0.7818609E-02  0.8305795E-01
        1   -1    0    0  501    0  0.00000000000E+00  0.00000000000E+00  0.19304078805E+04  0.19304078805E+04  0.50400001928E-02 0. -1.
       -1   -1    0    0    0  501  0.00000000000E+00  0.00000000000E+00 -0.10094453568E+04  0.10094453568E+04  0.50400001928E-02 0.  1.
    10030    2    1    2    0    0  0.00000000000E+00  0.00000000000E+00  0.92096252374E+03  0.29398532373E+04  0.27918748337E+04 0.  0.
        1    1    3    3  502    0 -0.52895326964E+03  0.11923819490E+04  0.98389378152E+03  0.16338951151E+04  0.50400001928E-02 0.  1.
       -1    1    3    3    0  502  0.52895326964E+03 -0.11923819490E+04 -0.62931257772E+02  0.13059581222E+04  0.50400001928E-02 0. -1.
</event>
<event>
 5   0  0.3357244E-06  0.2575466E+04  0.7818609E-02  0.8376583E-01
       -1   -1    0    0    0  501  0.00000000000E+00  0.00000000000E+00  0.10173012252E+04  0.10173012252E+04  0.50400001928E-02 0. -1.
        1   -1    0    0  501    0  0.00000000000E+00  0.00000000000E+00 -0.16300538461E+04  0.16300538461E+04  0.50400001928E-02 0.  1.
    10030    2    1    2    0    0  0.00000000000E+00  0.00000000000E+00 -0.61275262089E+03  0.26473550713E+04  0.25754656083E+04 0.  0.
        4    1    3    3  502    0  0.66633725777E+03  0.86838155936E+03  0.39091130416E+03  0.11622844464E+04  0.12699999809E+01 0. -1.
       -4    1    3    3    0  502 -0.66633725777E+03 -0.86838155936E+03 -0.10036639251E+04  0.14850706249E+04  0.12699999809E+01 0.  1.
</event>
<event>
 5   0  0.9342133E-06  0.2787046E+04  0.7818609E-02  0.8307301E-01
        2   -1    0    0  501    0  0.00000000000E+00  0.00000000000E+00  0.18301725224E+04  0.18301725224E+04  0.25500000920E-02 0.  1.
       -2   -1    0    0    0  501  0.00000000000E+00  0.00000000000E+00 -0.10610507179E+04  0.10610507179E+04  0.25500000920E-02 0. -1.
    10030    2    1    2    0    0  0.00000000000E+00  0.00000000000E+00  0.76912180453E+03  0.28912232402E+04  0.27870456535E+04 0.  0.
        2    1    3    3  502    0  0.57654141684E+03 -0.77088773045E+03  0.14298140149E+04  0.17236693463E+04  0.25500000920E-02 0.  1.
       -2    1    3    3    0  502 -0.57654141684E+03  0.77088773045E+03 -0.66069221038E+03  0.11675538939E+04  0.25500000920E-02 0. -1.
</event>
<event>
 5   0  0.9342133E-06  0.2769742E+04  0.7818609E-02  0.8312724E-01
        2   -1    0    0  501    0  0.00000000000E+00  0.00000000000E+00  0.18505368518E+04  0.18505368518E+04  0.25500000920E-02 0. -1.
       -2   -1    0    0    0  501  0.00000000000E+00  0.00000000000E+00 -0.10363843003E+04  0.10363843003E+04  0.25500000920E-02 0.  1.
    10030    2    1    2    0    0  0.00000000000E+00  0.00000000000E+00  0.81415255150E+03  0.28869211521E+04  0.27697417499E+04 0.  0.
        2    1    3    3  502    0  0.85734600625E+03  0.23401943238E+03  0.15141123131E+04  0.17556603789E+04  0.25500000920E-02 0. -1.
       -2    1    3    3    0  502 -0.85734600625E+03 -0.23401943238E+03 -0.69995976163E+03  0.11312607732E+04  0.25500000920E-02 0.  1.
</event>
<event>
 5   0  0.9342133E-06  0.2796381E+04  0.7818609E-02  0.8304393E-01
       -2   -1    0    0    0  501  0.00000000000E+00  0.00000000000E+00  0.13172536429E+04  0.13172536429E+04  0.25500000920E-02 0. -1.
        2   -1    0    0  501    0  0.00000000000E+00  0.00000000000E+00 -0.14841001807E+04  0.14841001807E+04  0.25500000920E-02 0.  1.
    10030    2    1    2    0    0  0.00000000000E+00  0.00000000000E+00 -0.16684653784E+03  0.28013538236E+04  0.27963807820E+04 0.  0.
        2    1    3    3  502    0  0.26079358268E+03  0.85166158414E+03  0.99626688340E+03  0.13363713741E+04  0.25500000920E-02 0. -1.
       -2    1    3    3    0  502 -0.26079358268E+03 -0.85166158414E+03 -0.11631134212E+04  0.14649824495E+04  0.25500000920E-02 0.  1.
</event>
<event>
 5   0  0.3397882E-06  0.2802795E+04  0.7818609E-02  0.8302401E-01
       -1   -1    0    0    0  501  0.00000000000E+00  0.00000000000E+00  0.14642149609E+04  0.14642149609E+04  0.50400001928E-02 0.  1.
        1   -1    0    0  501    0  0.00000000000E+00  0.00000000000E+00 -0.13412747865E+04  0.13412747865E+04  0.50400001928E-02 0. -1.
    10030    2    1    2    0    0  0.00000000000E+00  0.00000000000E+00  0.12294017440E+03  0.28054897473E+04  0.28027947545E+04 0.  0.
        2    1    3    3  502    0 -0.41570131398E+03 -0.11468648256E+04 -0.62898161495E+03  0.13724883907E+04  0.25500000920E-02 0.  1.
       -2    1    3    3    0  502  0.41570131398E+03  0.11468648256E+04  0.75192178935E+03  0.14330013566E+04  0.25500000920E-02 0. -1.
</event>
<event>
 5   0  0.3357244E-06  0.3015002E+04  0.7818609E-02  0.8239460E-01
        1   -1    0    0  501    0  0.00000000000E+00  0.00000000000E+00  0.18198552099E+04  0.18198552099E+04  0.50400001928E-02 0. -1.
       -1   -1    0    0    0  501  0.00000000000E+00  0.00000000000E+00 -0.12487585119E+04  0.12487585120E+04  0.50400001928E-02 0.  1.
    10030    2    1    2    0    0  0.00000000000E+00  0.00000000000E+00  0.57109669796E+03  0.30686137219E+04  0.30150022779E+04 0.  0.
        4    1    3    3  502    0 -0.11421513943E+04  0.96954576400E+03  0.11515191144E+03  0.15025945466E+04  0.12699999809E+01 0.  1.
       -4    1    3    3    0  502  0.11421513943E+04 -0.96954576400E+03  0.45594478652E+03  0.15660191752E+04  0.12699999809E+01 0. -1.
</event>
<event>
 5   0  0.3438130E-06  0.2813743E+04  0.7818609E-02  0.8299014E-01
       -1   -1    0    0    0  501  0.00000000000E+00  0.00000000000E+00  0.24800200055E+04  0.24800200055E+04  0.50400001928E-02 0.  1.
        1   -1    0    0  501    0  0.00000000000E+00  0.00000000000E+00 -0.79809359579E+03  0.79809359581E+03  0.50400001928E-02 0. -1.
    10030    2    1    2    0    0  0.00000000000E+00  0.00000000000E+00  0.16819264097E+04  0.32781136013E+04  0.28137434736E+04 0.  0.
        3    1    3    3  502    0  0.50311293371E+03 -0.78609009860E+03  0.20674249892E+04  0.22683267761E+04  0.10100000352E+00 0.  1.
       -3    1    3    3    0  502 -0.50311293371E+03  0.78609009860E+03 -0.38549857954E+03  0.10097868251E+04  0.10100000352E+00 0. -1.
</event>
<event>
 5   0  0.9252359E-06  0.2802083E+04  0.7818609E-02  0.8302622E-01
        2   -1    0    0  501    0  0.00000000000E+00  0.00000000000E+00  0.20027648671E+04  0.20027648671E+04  0.25500000920E-02 0. -1.
       -2   -1    0    0    0  501  0.00000000000E+00  0.00000000000E+00 -0.98010402852E+03  0.98010402852E+03  0.25500000920E-02 0.  1.
    10030    2    1    2    0    0  0.00000000000E+00  0.00000000000E+00  0.10226608386E+04  0.29828688957E+04  0.28020834495E+04 0.  0.
        5    1    3    3  502    0 -0.28774344697E+01  0.13404608202E+04  0.77544357618E+02  0.13427131888E+04  0.46999998093E+01 0.  1.
       -5    1    3    3    0  502  0.28774344697E+01 -0.13404608202E+04  0.94511648099E+03  0.16401557068E+04  0.46999998093E+01 0. -1.
</event>
<event>
 5   0  0.3357244E-06  0.2928375E+04  0.7818609E-02  0.8264485E-01
       -1   -1    0    0    0  501  0.00000000000E+00  0.00000000000E+00  0.13786899649E+04  0.13786899649E+04  0.50400001928E-02 0. -1.
        1   -1    0    0  501    0  0.00000000000E+00  0.00000000000E+00 -0.15549873212E+04  0.15549873212E+04  0.50400001928E-02 0.  1.
    10030    2    1    2    0    0  0.00000000000E+00  0.00000000000E+00 -0.17629735631E+03  0.29336772862E+04  0.29283752597E+04 0.  0.
        4    1    3    3  502    0  0.99293687821E+03  0.67046858343E+03 -0.93133284847E+03  0.15175092267E+04  0.12699999809E+01 0.  1.
       -4    1    3    3    0  502 -0.99293687821E+03 -0.67046858343E+03  0.75503549216E+03  0.14161680595E+04  0.12699999809E+01 0. -1.
</event>
<event>
 5   0  0.9252359E-06  0.2348248E+04  0.7818609E-02  0.8459137E-01
       -2   -1    0    0    0  501  0.00000000000E+00  0.00000000000E+00  0.13783192039E+04  0.13783192039E+04  0.25500000920E-02 0.  1.
        2   -1    0    0  501    0  0.00000000000E+00  0.00000000000E+00 -0.10001799388E+04  0.10001799389E+04  0.25500000920E-02 0. -1.
    10030    2    1    2    0    0  0.00000000000E+00  0.00000000000E+00  0.37813926504E+03  0.23784991427E+04  0.23482480423E+04 0.  0.
        5    1    3    3  502    0 -0.53890881953E+03 -0.25066871273E+03 -0.83653951193E+03  0.10261958704E+04  0.46999998093E+01 0. -1.
       -5    1    3    3    0  502  0.53890881953E+03  0.25066871273E+03  0.12146787770E+04  0.13523032724E+04  0.46999998093E+01 0.  1.
</event>
<event>
 5   0  0.3357244E-06  0.2839017E+04  0.7818609E-02  0.8291257E-01
        1   -1    0    0  501    0  0.00000000000E+00  0.00000000000E+00  0.21714137926E+04  0.21714137926E+04  0.50400001928E-02 0.  1.
       -1   -1    0    0    0  501  0.00000000000E+00  0.00000000000E+00 -0.92796864013E+03  0.92796864014E+03  0.50400001928E-02 0. -1.
    10030    2    1    2    0    0  0.00000000000E+00  0.00000000000E+00  0.12434451524E+04  0.30993824327E+04  0.28390166638E+04 0.  0.
        4    1    3    3  502    0 -0.58123499254E+03 -0.16953175963E+03  0.20233807239E+04  0.21120242188E+04  0.12699999809E+01 0.  1.
       -4    1    3    3    0  502  0.58123499254E+03  0.16953175963E+03 -0.77993557145E+03  0.98735821392E+03  0.12699999809E+01 0. -1.
</event>
<event>
 5   0  0.3006875E-06  0.2717959E+04  0.7818609E-02  0.8329201E-01
        3   -1    0    0  501    0  0.00000000000E+00  0.00000000000E+00  0.16475196416E+04  0.16475196446E+04  0.10100000352E+00 0. -1.
       -3   -1    0    0    0  501  0.00000000000E+00  0.00000000000E+00 -0.11209729664E+04  0.11209729709E+04  0.10100000352E+00 0.  1.
    10030    2    1    2    0    0  0.00000000000E+00  0.00000000000E+00  0.52654667517E+03  0.27684926156E+04  0.27179587858E+04 0.  0.
        4    1    3    3  502    0 -0.88982485945E+03  0.41409543545E+02 -0.78212243415E+03  0.11854198183E+04  0.12699999809E+01 0.  1.
       -4    1    3    3    0  502  0.88982485945E+03 -0.41409543545E+02  0.13086691093E+04  0.15830727972E+04  0.12699999809E+01 0. -1.
</event>
<event>
 5   0  0.3438130E-06  0.2787808E+04  0.7818609E-02  0.8307063E-01
       -1   -1    0    0    0  501  0.00000000000E+00  0.00000000000E+00  0.14497524652E+04  0.14497524652E+04  0.50400001928E-02 0.  1.
        1   -1    0    0  501    0  0.00000000000E+00  0.00000000000E+00 -0.13402072312E+04  0.13402072312E+04  0.50400001928E-02 0. -1.
    10030    2    1    2    0    0  0.00000000000E+00  0.00000000000E+00  0.10954523405E+03  0.27899596964E+04  0.27878082698E+04 0.  0.
        3    1    3    3  502    0 -0.55598345456E+02 -0.12481493452E+04 -0.56376646104E+03  0.13706934730E+04  0.10100000352E+00 0. -1.
       -3    1    3    3    0  502  0.55598345456E+02  0.12481493452E+04  0.67331169510E+03  0.14192662234E+04  0.10100000352E+00 0.  1.
</event>
<event>
 5   0  0.3438130E-06  0.2866253E+04  0.7818609E-02  0.8282989E-01
       -1   -1    0    0    0  501  0.00000000000E+00  0.00000000000E+00  0.14072689658E+04  0.14072689658E+04  0.50400001928E-02 0. -1.
        1   -1    0    0  501    0  0.00000000000E+00  0.00000000000E+00 -0.14594594898E+04  0.14594594898E+04  0.50400001928E-02 0.  1.
    10030    2    1    2    0    0  0.00000000000E+00  0.00000000000E+00 -0.52190523947E+02  0.28667284556E+04  0.28662533362E+04 0.  0.
        3    1    3    3  502    0  0.35199811887E+03 -0.11901208060E+04 -0.74284633554E+03  0.14464131142E+04  0.10100000352E+00 0.  1.
       -3    1    3    3    0  502 -0.35199811887E+03  0.11901208060E+04  0.69065581159E+03  0.14203153414E+04  0.10100000352E+00 0. -1.
</event>
<event>
 5   0  0.9426937E-06  0.2754391E+04  0.7818609E-02  0.8317570E-01
        2   -1    0    0  501    0  0.00000000000E+00  0.00000000000E+00  0.26160599569E+04  0.26160599569E+04  0.25500000920E-02 0.  1.
       -2   -1    0    0    0  501  0.00000000000E+00  0.00000000000E+00 -0.72500932148E+03  0.72500932148E+03  0.25500000920E-02 0. -1.
    10030    2    1    2    0    0  0.00000000000E+00  0.00000000000E+00  0.18910506355E+04  0.33410692784E+04  0.27543912971E+04 0.  0.
        4    1    3    3  502    0  0.45122579891E+03 -0.77783313753E+03 -0.31974028521E+03  0.95439225392E+03  0.12699999809E+01 0. -1.
       -4    1    3    3    0  502 -0.45122579891E+03  0.77783313753E+03  0.22107909207E+04  0.23866770245E+04  0.12699999809E+01 0.  1.
</event>
<event>
 5   0  0.9342133E-06  0.2923371E+04  0.7818609E-02  0.8265958E-01
       -2   -1    0    0    0  501  0.00000000000E+00  0.00000000000E+00  0.11477549091E+04  0.11477549091E+04  0.25500000920E-02 0.  1.
        2   -1    0    0  501    0  0.00000000000E+00  0.00000000000E+00 -0.18614818879E+04  0.18614818879E+04  0.25500000920E-02 0. -1.
    10030    2    1    2    0    0  0.00000000000E+00  0.00000000000E+00 -0.71372697876E+03  0.30092367970E+04  0.29233713244E+04 0.  0.
        2    1    3    3  502    0 -0.13075113863E+04 -0.63427815229E+03 -0.51841318098E+03  0.15429345501E+04  0.25500000920E-02 0.  1.
       -2    1    3    3    0  502  0.13075113863E+04  0.63427815229E+03 -0.19531379778E+03  0.14663022469E+04  0.25500000920E-02 0. -1.
</event>
<event>
 5   0  0.3438130E-06  0.2843751E+04  0.7818609E-02  0.8289813E-01
       -1   -1    0    0    0  501  0.00000000000E+00  0.00000000000E+00  0.18426529763E+04  0.18426529763E+04  0.50400001928E-02 0. -1.
        1   -1    0    0  501    0  0.00000000000E+00  0.00000000000E+00 -0.10971840221E+04  0.10971840221E+04  0.50400001928E-02 0.  1.
    10030    2    1    2    0    0  0.00000000000E+00  0.00000000000E+00  0.74546895416E+03  0.29398369984E+04  0.28437506247E+04 0.  0.
        3    1    3    3  502    0 -0.28322997382E+03  0.15616563001E+03 -0.10586512118E+04  0.11069549767E+04  0.10100000352E+00 0.  1.
       -3    1    3    3    0  502  0.28322997382E+03 -0.15616563001E+03  0.18041201659E+04  0.18328820217E+04  0.10100000352E+00 0. -1.
</event>
<event>
 5   0  0.9065579E-06  0.2754013E+04  0.7818609E-02  0.8317689E-01
        2   -1    0    0  501    0  0.00000000000E+00  0.00000000000E+00  0.20709517435E+04  0.20709517435E+04  0.25500000920E-02 0.  1.
       -2   -1    0    0    0  501  0.00000000000E+00  0.00000000000E+00 -0.91559202753E+03  0.91559202753E+03  0.25500000920E-02 0. -1.
    10030    2    1    2    0    0  0.00000000000E+00  0.00000000000E+00  0.11553597160E+04  0.29865437711E+04  0.27540130034E+04 0.  0.
        3    1    3    3  502    0  0.93004829113E+03 -0.90520987074E+03  0.10766985620E+04  0.16863198206E+04  0.10100000352E+00 0.  1.
       -3    1    3    3    0  502 -0.93004829113E+03  0.90520987074E+03  0.78661154023E+02  0.13002239504E+04  0.10100000352E+00 0. -1.
</event>
<event>
 5   0  0.3371603E-06  0.2813182E+04  0.7818609E-02  0.8299188E-01
       -1   -1    0    0    0  501  0.00000000000E+00  0.00000000000E+00  0.85028398034E+03  0.85028398035E+03  0.50400001928E-02 0. -1.
        1   -1    0    0  501    0  0.00000000000E+00  0.00000000000E+00 -0.23268673169E+04  0.23268673169E+04  0.50400001928E-02 0.  1.
    10030    2    1    2    0    0  0.00000000000E+00  0.00000000000E+00 -0.14765833366E+04  0.31771512973E+04  0.28131818313E+04 0.  0.
        1    1    3    3  502    0  0.31197155227E+02  0.16555139974E+02  0.84978314621E+03  0.85051674337E+03  0.50400001928E-02 0. -1.
       -1    1    3    3    0  502 -0.31197155227E+02 -0.16555139974E+02 -0.23263664828E+04  0.23266345539E+04  0.50400001928E-02 0.  1.
</event>
<event>
 5   0  0.3357244E-06  0.2790428E+04  0.7818609E-02  0.8306246E-01
       -1   -1    0    0    0  501  0.00000000000E+00  0.00000000000E+00  0.12132490252E+04  0.12132490252E+04  0.50400001928E-02 0.  1.
        1   -1    0    0  501    0  0.00000000000E+00  0.00000000000E+00 -0.16044709016E+04  0.16044709016E+04  0.50400001928E-02 0. -1.
    10030    2    1    2    0    0  0.00000000000E+00  0.00000000000E+00 -0.39122187638E+03  0.28177199269E+04  0.27904284670E+04 0.  0.
        4    1    3    3  502    0 -0.91988109530E+03  0.10484004293E+04 -0.23196941160E+03  0.14139080983E+04  0.12699999809E+01 0.  1.
       -4    1    3    3    0  502  0.91988109530E+03 -0.10484004293E+04 -0.15925246478E+03  0.14038118286E+04  0.12699999809E+01 0. -1.
</event>
<event>
 5   0  0.3600963E-06  0.2335855E+04  0.7818609E-02  0.8463917E-01
       -1   -1    0    0    0  501  0.00000000000E+00  0.00000000000E+00  0.17338024814E+04  0.17338024814E+04  0.50400001928E-02 0.  1.
        1   -1    0    0  501    0  0.00000000000E+00  0.00000000000E+00 -0.78674153081E+03  0.78674153083E+03  0.50400001928E-02 0. -1.
    10030    2    1    2    0    0  0.00000000000E+00  0.00000000000E+00  0.94706095058E+03  0.25205440122E+04  0.23358548057E+04 0.  0.
        5    1    3    3  502    0 -0.58489268434E+03 -0.26162587379E+03  0.15272021938E+04  0.16561751661E+04  0.46999998093E+01 0.  1.
       -5    1    3    3    0  502  0.58489268434E+03  0.26162587379E+03 -0.58014124324E+03  0.86436884612E+03  0.46999998093E+01 0. -1.
</event>
<event>
 5   0  0.9065579E-06  0.2807128E+04  0.7818609E-02  0.8301059E-01
       -2   -1    0    0    0  501  0.00000000000E+00  0.00000000000E+00  0.16688199710E+04  0.16688199710E+04  0.25500000920E-02 0.  1.
        2   -1    0    0  501    0  0.00000000000E+00  0.00000000000E+00 -0.11804699854E+04  0.11804699854E+04  0.25500000920E-02 0. -1.
    10030    2    1    2    0    0  0.00000000000E+00  0.00000000000E+00  0.48834998558E+03  0.28492899564E+04  0.28071279892E+04 0.  0.
        3    1    3    3  502    0  0.33097342459E+03  0.36117357491E+03  0.15792256661E+04  0.16534640830E+04  0.10100000352E+00 0.  1.
       -3    1    3    3    0  502 -0.33097342459E+03 -0.36117357491E+03 -0.10908756806E+04  0.11958258735E+04  0.10100000352E+00 0. -1.
</event>
<event>
 5   0  0.3371603E-06  0.2775774E+04  0.7818609E-02  0.8310829E-01
       -1   -1    0    0    0  501  0.00000000000E+00  0.00000000000E+00  0.18428962535E+04  0.18428962535E+04  0.50400001928E-02 0.  1.
        1   -1    0    0  501    0  0.00000000000E+00  0.00000000000E+00 -0.10452192685E+04  0.10452192685E+04  0.50400001928E-02 0. -1.
    10030    2    1    2    0    0  0.00000000000E+00  0.00000000000E+00  0.79767698501E+03  0.28881155221E+04  0.27757742517E+04 0.  0.
        1    1    3    3  502    0  0.95515526658E+03 -0.94329732774E+03  0.76537309705E+03  0.15452920143E+04  0.50400001928E-02 0. -1.
       -1    1    3    3    0  502 -0.95515526658E+03  0.94329732774E+03  0.32303887957E+02  0.13428235078E+04  0.50400001928E-02 0.  1.
</event>
<event>
 5   0  0.9260173E-06  0.2754292E+04  0.7818609E-02  0.8317601E-01
       -2   -1    0    0    0  501  0.00000000000E+00  0.00000000000E+00  0.85762783117E+03  0.85762783118E+03  0.25500000920E-02 0.  1.
        2   -1    0    0  501    0  0.00000000000E+00  0.00000000000E+00 -0.22113677237E+04  0.22113677237E+04  0.25500000920E-02 0. -1.
    10030    2    1    2    0    0  0.00000000000E+00  0.00000000000E+00 -0.13537398925E+04  0.30689955548E+04  0.27542915639E+04 0.  0.
        1    1    3    3  502    0 -0.58812101200E+03  0.22418882415E+03 -0.20417280246E+04  0.21365393233E+04  0.50400001928E-02 0. -1.
       -1    1    3    3    0  502  0.58812101200E+03 -0.22418882415E+03  0.68798813215E+03  0.93245623148E+03  0.50400001928E-02 0.  1.
</event>
<event>
 5   0  0.3357244E-06  0.2641461E+04  0.7818609E-02  0.8354253E-01
       -1   -1    0    0    0  501  0.00000000000E+00  0.00000000000E+00  0.10019915947E+04  0.10019915948E+04  0.50400001928E-02 0. -1.
        1   -1    0    0  501    0  0.00000000000E+00  0.00000000000E+00 -0.17408623280E+04  0.17408623280E+04  0.50400001928E-02 0.  1.
    10030    2    1    2    0    0  0.00000000000E+00  0.00000000000E+00 -0.73887073321E+03  0.27428539227E+04  0.26414612776E+04 0.  0.
        4    1    3    3  502    0 -0.82085932211E+03  0.83920329663E+03  0.25898546289E+03  0.12021427880E+04  0.12699999809E+01 0. -1.
       -4    1    3    3    0  502  0.82085932211E+03 -0.83920329663E+03 -0.99785619610E+03  0.15407111348E+04  0.12699999809E+01 0.  1.
</event>
<event>
 5   0  0.3600963E-06  0.2799000E+04  0.7818609E-02  0.8303579E-01
        1   -1    0    0  501    0  0.00000000000E+00  0.00000000000E+00  0.18982255106E+04  0.18982255106E+04  0.50400001928E-02 0. -1.
       -1   -1    0    0    0  501  0.00000000000E+00  0.00000000000E+00 -0.10318059488E+04  0.10318059488E+04  0.50400001928E-02 0.  1.
    10030    2    1    2    0    0  0.00000000000E+00  0.00000000000E+00  0.86641956179E+03  0.29300314593E+04  0.27990000885E+04 0.  0.
        5    1    3    3  502    0  0.59947739830E+03  0.33631650802E+03 -0.84291415100E+03  0.10876618503E+04  0.46999998093E+01 0.  1.
       -5    1    3    3    0  502 -0.59947739830E+03 -0.33631650802E+03  0.17093337128E+04  0.18423696090E+04  0.46999998093E+01 0. -1.
</event>
<event>
 5   0  0.3397882E-06  0.2857760E+04  0.7818609E-02  0.8285557E-01
       -1   -1    0    0    0  501  0.00000000000E+00  0.00000000000E+00  0.97128302435E+03  0.97128302437E+03  0.50400001928E-02 0. -1.
        1   -1    0    0  501    0  0.00000000000E+00  0.00000000000E+00 -0.21020628172E+04  0.21020628172E+04  0.50400001928E-02 0.  1.
    10030    2    1    2    0    0  0.00000000000E+00  0.00000000000E+00 -0.11307797929E+04  0.30733458416E+04  0.28577599133E+04 0.  0.
        2    1    3    3  502    0  0.33808510172E+03  0.13151167069E+04 -0.10437661033E+04  0.17126824479E+04  0.25500000920E-02 0.  1.
       -2    1    3    3    0  502 -0.33808510172E+03 -0.13151167069E+04 -0.87013689591E+02  0.13606633937E+04  0.25500000920E-02 0. -1.
</event>
<event>
 5   0  0.3357244E-06  0.2813003E+04  0.7818609E-02  0.8299243E-01
       -1   -1    0    0    0  501  0.00000000000E+00  0.00000000000E+00  0.14252444828E+04  0.14252444828E+04  0.50400001928E-02 0. -1.
        1   -1    0    0  501    0  0.00000000000E+00  0.00000000000E+00 -0.13880052551E+04  0.13880052552E+04  0.50400001928E-02 0.  1.
    10030    2    1    2    0    0  0.00000000000E+00  0.00000000000E+00  0.37239227609E+02  0.28132497379E+04  0.28130032577E+04 0.  0.
        4    1    3    3  502    0 -0.24118055684E+03 -0.88812250702E+03 -0.10451067772E+04  0.13925442317E+04  0.12699999809E+01 0.  1.
       -4    1    3    3    0  502  0.24118055684E+03  0.88812250702E+03  0.10823460048E+04  0.14207055063E+04  0.12699999809E+01 0. -1.
</event>
<event>
 5   0  0.3600963E-06  0.2808396E+04  0.7818609E-02  0.8300666E-01
       -1   -1    0    0    0  501  0.00000000000E+00  0.00000000000E+00  0.10582671226E+04  0.10582671226E+04  0.50400001928E-02 0.  1.
        1   -1    0    0  501    0  0.00000000000E+00  0.00000000000E+00 -0.18632082056E+04  0.18632082056E+04  0.50400001928E-02 0. -1.
    10030    2    1    2    0    0  0.00000000000E+00  0.00000000000E+00 -0.80494108305E+03  0.29214753282E+04  0.28083959739E+04 0.  0.
        5    1    3    3  502    0 -0.76460921175E+03 -0.18873597101E+03 -0.16118208746E+04  0.17939445741E+04  0.46999998093E+01 0. -1.
       -5    1    3    3    0  502  0.76460921175E+03  0.18873597101E+03  0.80687979151E+03  0.11275307541E+04  0.46999998093E+01 0.  1.
</event>
<event>
 5   0  0.9342133E-06  0.2815376E+04  0.7818609E-02  0.8298511E-01
        2   -1    0    0  501    0  0.00000000000E+00  0.00000000000E+00  0.15319300055E+04  0.15319300055E+04  0.25500000920E-02 0. -1.
       -2   -1    0    0    0  501  0.00000000000E+00  0.00000000000E+00 -0.12935219743E+04  0.12935219743E+04  0.25500000920E-02 0.  1.
    10030    2    1    2    0    0  0.00000000000E+00  0.00000000000E+00  0.23840803125E+03  0.28254519799E+04  0.28153757300E+04 0.  0.
        2    1    3    3  502    0  0.11034771507E+04 -0.78515566980E+03  0.50457558071E+03  0.14452431506E+04  0.25500000920E-02 0. -1.
       -2    1    3    3    0  502 -0.11034771507E+04  0.78515566980E+03 -0.26616754946E+03  0.13802088292E+04  0.25500000920E-02 0.  1.
</event>
<event>
 5   0  0.3371603E-06  0.2618228E+04  0.7818609E-02  0.8362036E-01
       -1   -1    0    0    0  501  0.00000000000E+00  0.00000000000E+00  0.81100535915E+03  0.81100535916E+03  0.50400001928E-02 0.  1.
        1   -1    0    0  501    0  0.00000000000E+00  0.00000000000E+00 -0.21131535157E+04  0.21131535157E+04  0.50400001928E-02 0. -1.
    10030    2    1    2    0    0  0.00000000000E+00  0.00000000000E+00 -0.13021481565E+04  0.29241588748E+04  0.26182275118E+04 0.  0.
        1    1    3    3  502    0  0.61630043398E+03  0.31273391331E+03  0.59066167847E+03  0.90912592302E+03  0.50400001928E-02 0.  1.
       -1    1    3    3    0  502 -0.61630043398E+03 -0.31273391331E+03 -0.18928098350E+04  0.20150329518E+04  0.50400001928E-02 0. -1.
</event>
<event>
 5   0  0.3371603E-06  0.2805551E+04  0.7818609E-02  0.8301547E-01
        1   -1    0    0  501    0  0.00000000000E+00  0.00000000000E+00  0.17191062029E+04  0.17191062029E+04  0.50400001928E-02 0.  1.
       -1   -1    0    0    0  501  0.00000000000E+00  0.00000000000E+00 -0.11446522094E+04  0.11446522094E+04  0.50400001928E-02 0. -1.
    10030    2    1    2    0    0  0.00000000000E+00  0.00000000000E+00  0.57445399346E+03  0.28637584123E+04  0.28055507220E+04 0.  0.
        1    1    3    3  502    0 -0.41048070958E+03  0.24351059777E+03 -0.10592261360E+04  0.11617882042E+04  0.50400001928E-02 0. -1.
       -1    1    3    3    0  502  0.41048070958E+03 -0.24351059777E+03  0.16336801294E+04  0.17019702082E+04  0.50400001928E-02 0.  1.
</event>
<event>
 5   0  0.3371603E-06  0.2560506E+04  0.7818609E-02  0.8381742E-01
        1   -1    0    0  501    0  0.00000000000E+00  0.00000000000E+00  0.19670274089E+04  0.19670274089E+04  0.50400001928E-02 0.  1.
       -1   -1    0    0    0  501  0.00000000000E+00  0.00000000000E+00 -0.83326117214E+03  0.83326117216E+03  0.50400001928E-02 0. -1.
    10030    2    1    2    0    0  0.00000000000E+00  0.00000000000E+00  0.11337662368E+04  0.28002885811E+04  0.25605058597E+04 0.  0.
        1    1    3    3  502    0  0.43911666784E+03  0.76047113036E+03  0.15857414594E+04  0.18126543421E+04  0.50400001928E-02 0.  1.
       -1    1    3    3    0  502 -0.43911666784E+03 -0.76047113036E+03 -0.45197522258E+03  0.98763423895E+03  0.50400001928E-02 0. -1.
</event>
<event>
 5   0  0.9426937E-06  0.2810151E+04  0.7818609E-02  0.8300124E-01
       -2   -1    0    0    0  501  0.00000000000E+00  0.00000000000E+00  0.15048502352E+04  0.15048502352E+04  0.25500000920E-02 0. -1.
        2   -1    0    0  501    0  0.00000000000E+00  0.00000000000E+00 -0.13119160395E+04  0.13119160395E+04  0.25500000920E-02 0.  1.
    10030    2    1    2    0    0  0.00000000000E+00  0.00000000000E+00  0.19293419572E+03  0.28167662747E+04  0.28101509999E+04 0.  0.
        4    1    3    3  502    0 -0.67285405084E+03 -0.91227938249E+03 -0.73569766678E+03  0.13513840739E+04  0.12699999809E+01 0.  1.
       -4    1    3    3    0  502  0.67285405084E+03  0.91227938249E+03  0.92863186250E+03  0.14653822008E+04  0.12699999809E+01 0. -1.
</event>
<event>
 5   0  0.3438130E-06  0.2805103E+04  0.7818609E-02  0.8301686E-01
        1   -1    0    0  501    0  0.00000000000E+00  0.00000000000E+00  0.24309965598E+04  0.24309965598E+04  0.50400001928E-02 0.  1.
       -1   -1    0    0    0  501  0.00000000000E+00  0.00000000000E+00 -0.80919496854E+03  0.80919496856E+03  0.50400001928E-02 0. -1.
    10030    2    1    2    0    0  0.00000000000E+00  0.00000000000E+00  0.16218015913E+04  0.32401915284E+04  0.28051026254E+04 0.  0.
        3    1    3    3  502    0  0.39349516498E+03  0.63746072044E+03 -0.55874328297E+03  0.93455266381E+03  0.10100000352E+00 0. -1.
       -3    1    3    3    0  502 -0.39349516498E+03 -0.63746072044E+03  0.21805448742E+04  0.23056388646E+04  0.10100000352E+00 0.  1.
</event>
<event>
 5   0  0.9426937E-06  0.2789653E+04  0.7818609E-02  0.8306488E-01
        2   -1    0    0  501    0  0.00000000000E+00  0.00000000000E+00  0.20206664758E+04  0.20206664758E+04  0.25500000920E-02 0. -1.
       -2   -1    0    0    0  501  0.00000000000E+00  0.00000000000E+00 -0.96282168716E+03  0.96282168717E+03  0.25500000920E-02 0.  1.
    10030    2    1    2    0    0  0.00000000000E+00  0.00000000000E+00  0.10578447886E+04  0.29834881629E+04  0.27896533873E+04 0.  0.
        4    1    3    3  502    0 -0.78027098627E+03 -0.47694520771E+02 -0.70652419698E+03  0.10536961769E+04  0.12699999809E+01 0.  1.
       -4    1    3    3    0  502  0.78027098627E+03  0.47694520771E+02  0.17643689856E+04  0.19297919861E+04  0.12699999809E+01 0. -1.
</event>
<event>
 5   0  0.9065579E-06  0.2789435E+04  0.7818609E-02  0.8306556E-01
       -2   -1    0    0    0  501  0.00000000000E+00  0.00000000000E+00  0.95803969568E+03  0.95803969568E+03  0.25500000920E-02 0. -1.
        2   -1    0    0  501    0  0.00000000000E+00  0.00000000000E+00 -0.20304339372E+04  0.20304339372E+04  0.25500000920E-02 0.  1.
    10030    2    1    2    0    0  0.00000000000E+00  0.00000000000E+00 -0.10723942416E+04  0.29884736329E+04  0.27894345745E+04 0.  0.
        3    1    3    3  502    0  0.31389775194E+03 -0.39064743962E+03  0.85825193384E+03  0.99384788217E+03  0.10100000352E+00 0. -1.
       -3    1    3    3    0  502 -0.31389775194E+03  0.39064743962E+03 -0.19306461754E+04  0.19946257507E+04  0.10100000352E+00 0.  1.
</event>
<event>
 5   0  0.9260173E-06  0.2690522E+04  0.7818609E-02  0.8338087E-01
       -2   -1    0    0    0  501  0.00000000000E+00  0.00000000000E+00  0.17911485978E+04  0.17911485978E+04  0.25500000920E-02 0.  1.
        2   -1    0    0  501    0  0.00000000000E+00  0.00000000000E+00 -0.10103721258E+04  0.10103721258E+04  0.25500000920E-02 0. -1.
    10030    2    1    2    0    0  0.00000000000E+00  0.00000000000E+00  0.78077647201E+03  0.28015207235E+04  0.26905215972E+04 0.  0.
        1    1    3    3  502    0 -0.55710919602E+03 -0.11222949871E+04 -0.11951871306E+03  0.12586506335E+04  0.50400001928E-02 0. -1.
       -1    1    3    3    0  502  0.55710919602E+03  0.11222949871E+04  0.90029518507E+03  0.15428700900E+04  0.50400001928E-02 0.  1.
</event>
<event>
 5   0  0.9426937E-06  0.2776659E+04  0.7818609E-02  0.8310552E-01
       -2   -1    0    0    0  501  0.00000000000E+00  0.00000000000E+00  0.92968923252E+03  0.92968923252E+03  0.25500000920E-02 0. -1.
        2   -1    0    0  501    0  0.00000000000E+00  0.00000000000E+00 -0.20732296451E+04  0.20732296451E+04  0.25500000920E-02 0.  1.
    10030    2    1    2    0    0  0.00000000000E+00  0.00000000000E+00 -0.11435404126E+04  0.30029188776E+04  0.27766593436E+04 0.  0.
        4    1    3    3  502    0  0.11723253442E+04 -0.29521594938E+03  0.16646476724E+03  0.12203324552E+04  0.12699999809E+01 0. -1.
       -4    1    3    3    0  502 -0.11723253442E+04  0.29521594938E+03 -0.13100051798E+04  0.17825864225E+04  0.12699999809E+01 0.  1.
</event>
<event>
 5   0  0.3438130E-06  0.2847551E+04  0.7818609E-02  0.8288656E-01
        1   -1    0    0  501    0  0.00000000000E+00  0.00000000000E+00  0.19927576944E+04  0.19927576945E+04  0.50400001928E-02 0. -1.
       -1   -1    0    0    0  501  0.00000000000E+00  0.00000000000E+00 -0.10172519999E+04  0.10172519999E+04  0.50400001928E-02 0.  1.
    10030    2    1    2    0    0  0.00000000000E+00  0.00000000000E+00  0.97550569455E+03  0.30100096944E+04  0.28475510531E+04 0.  0.
        3    1    3    3  502    0  0.47141132178E+03 -0.13391660938E+04  0.37418846239E+03  0.14682000806E+04  0.10100000352E+00 0. -1.
       -3    1    3    3    0  502 -0.47141132178E+03  0.13391660938E+04  0.60131723216E+03  0.15418096137E+04  0.10100000352E+00 0.  1.
</event>
<event>
 5   0  0.9065579E-06  0.2760765E+04  0.7818609E-02  0.8315554E-01
        2   -1    0    0  501    0  0.00000000000E+00  0.00000000000E+00  0.86700997122E+03  0.86700997122E+03  0.25500000920E-02 0. -1.
       -2   -1    0    0    0  501  0.00000000000E+00  0.00000000000E+00 -0.21977328520E+04  0.21977328520E+04  0.25500000920E-02 0.  1.
    10030    2    1    2    0    0  0.00000000000E+00  0.00000000000E+00 -0.13307228808E+04  0.30647428232E+04  0.27607653263E+04 0.  0.
        3    1    3    3  502    0 -0.97832236666E+03  0.62726949188E+03 -0.14922785433E+04  0.18914219332E+04  0.10100000352E+00 0.  1.
       -3    1    3    3    0  502  0.97832236666E+03 -0.62726949188E+03  0.16155566253E+03  0.11733208900E+04  0.10100000352E+00 0. -1.
</event>
<event>
 5   0  0.3438130E-06  0.2500720E+04  0.7818609E-02  0.8402729E-01
       -1   -1    0    0    0  501  0.00000000000E+00  0.00000000000E+00  0.11083696582E+04  0.11083696582E+04  0.50400001928E-02 0. -1.
        1   -1    0    0  501    0  0.00000000000E+00  0.00000000000E+00 -0.14105403256E+04  0.14105403256E+04  0.50400001928E-02 0.  1.
    10030    2    1    2    0    0  0.00000000000E+00  0.00000000000E+00 -0.30217066739E+03  0.25189099838E+04  0.25007199752E+04 0.  0.
        3    1    3    3  502    0  0.16723797394E+03  0.99196944417E+03 -0.89906890469E+03  0.13491837620E+04  0.10100000352E+00 0.  1.
       -3    1    3    3    0  502 -0.16723797394E+03 -0.99196944417E+03  0.59689823730E+03  0.11697262218E+04  0.10100000352E+00 0. -1.
</event>
<event>
 5   0  0.9426937E-06  0.2512984E+04  0.7818609E-02  0.8398374E-01
        2   -1    0    0  501    0  0.00000000000E+00  0.00000000000E+00  0.20837702452E+04  0.20837702452E+04  0.25500000920E-02 0. -1.
       -2   -1    0    0    0  501  0.00000000000E+00  0.00000000000E+00 -0.75765180180E+03  0.75765180181E+03  0.25500000920E-02 0.  1.
    10030    2    1    2    0    0  0.00000000000E+00  0.00000000000E+00  0.13261184434E+04  0.28414220470E+04  0.25129841072E+04 0.  0.
        4    1    3    3  502    0  0.94244062532E+03 -0.82313428088E+03  0.53400970069E+03  0.13604823960E+04  0.12699999809E+01 0. -1.
       -4    1    3    3    0  502 -0.94244062532E+03  0.82313428088E+03  0.79210874269E+03  0.14809396510E+04  0.12699999809E+01 0.  1.
</event>
<event>
 5   0  0.9342133E-06  0.2960554E+04  0.7818609E-02  0.8255086E-01
        2   -1    0    0  501    0  0.00000000000E+00  0.00000000000E+00  0.20440849914E+04  0.20440849914E+04  0.25500000920E-02 0.  1.
       -2   -1    0    0    0  501  0.00000000000E+00  0.00000000000E+00 -0.10719806585E+04  0.10719806585E+04  0.25500000920E-02 0. -1.
    10030    2    1    2    0    0  0.00000000000E+00  0.00000000000E+00  0.97210433298E+03  0.31160656499E+04  0.29605537152E+04 0.  0.
        2    1    3    3  502    0  0.17685332948E+03 -0.49773182650E+03 -0.96941004984E+03  0.11039791284E+04  0.25500000920E-02 0. -1.
       -2    1    3    3    0  502 -0.17685332948E+03  0.49773182650E+03  0.19415143828E+04  0.20120865215E+04  0.25500000920E-02 0.  1.
</event>
<event>
 5   0  0.9260173E-06  0.2816557E+04  0.7818609E-02  0.8298146E-01
        2   -1    0    0  501    0  0.00000000000E+00  0.00000000000E+00  0.19645298808E+04  0.19645298808E+04  0.25500000920E-02 0.  1.
       -2   -1    0    0    0  501  0.00000000000E+00  0.00000000000E+00 -0.10095285324E+04  0.10095285324E+04  0.25500000920E-02 0. -1.
    10030    2    1    2    0    0  0.00000000000E+00  0.00000000000E+00  0.95500134842E+03  0.29740584133E+04  0.28165574502E+04 0.  0.
        1    1    3    3  502    0 -0.38701592758E+03  0.79216022590E+03 -0.68206539279E+03  0.11146803810E+04  0.50400001928E-02 0. -1.
       -1    1    3    3    0  502  0.38701592758E+03 -0.79216022590E+03  0.16370667412E+04  0.18593780323E+04  0.50400001928E-02 0.  1.
</event>
<event>
 5   0  0.9065579E-06  0.2821350E+04  0.7818609E-02  0.8296671E-01
        2   -1    0    0  501    0  0.00000000000E+00  0.00000000000E+00  0.21969830727E+04  0.21969830727E+04  0.25500000920E-02 0.  1.
       -2   -1    0    0    0  501  0.00000000000E+00  0.00000000000E+00 -0.90578935741E+03  0.90578935742E+03  0.25500000920E-02 0. -1.
    10030    2    1    2    0    0  0.00000000000E+00  0.00000000000E+00  0.12911937153E+04  0.31027724301E+04  0.28213499504E+04 0.  0.
        3    1    3    3  502    0  0.10315541842E+04  0.15969504663E+03  0.16891391767E+04  0.19856479324E+04  0.10100000352E+00 0.  1.
       -3    1    3    3    0  502 -0.10315541842E+04 -0.15969504663E+03 -0.39794546147E+03  0.11171244977E+04  0.10100000352E+00 0. -1.
</event>
<event>
 5   0  0.9342133E-06  0.2820405E+04  0.7818609E-02  0.8296961E-01
        2   -1    0    0  501    0  0.00000000000E+00  0.00000000000E+00  0.18933064455E+04  0.18933064455E+04  0.25500000920E-02 0.  1.
       -2   -1    0    0    0  501  0.00000000000E+00  0.00000000000E+00 -0.10503697014E+04  0.10503697014E+04  0.25500000920E-02 0. -1.
    10030    2    1    2    0    0  0.00000000000E+00  0.00000000000E+00  0.84293674404E+03  0.29436761469E+04  0.28204054502E+04 0.  0.
        2    1    3    3  502    0 -0.12658139689E+04 -0.62140177781E+03  0.40508009899E+03  0.14671452075E+04  0.25500000920E-02 0. -1.
       -2    1    3    3    0  502  0.12658139689E+04  0.62140177781E+03  0.43785664504E+03  0.14765309394E+04  0.25500000920E-02 0.  1.
</event>
<event>
 5   0  0.3357244E-06  0.2738290E+04  0.7818609E-02  0.8322687E-01
        1   -1    0    0  501    0  0.00000000000E+00  0.00000000000E+00  0.19498638421E+04  0.19498638422E+04  0.50400001928E-02 0. -1.
       -1   -1    0    0    0  501  0.00000000000E+00  0.00000000000E+00 -0.96137920106E+03  0.96137920108E+03  0.50400001928E-02 0.  1.
    10030    2    1    2    0    0  0.00000000000E+00  0.00000000000E+00  0.98848464108E+03  0.29112430432E+04  0.27382903738E+04 0.  0.
        4    1    3    3  502    0  0.12855565192E+04  0.18770610268E+03  0.34902971087E+02  0.12996572530E+04  0.12699999809E+01 0. -1.
       -4    1    3    3    0  502 -0.12855565192E+04 -0.18770610268E+03  0.95358166999E+03  0.16115857902E+04  0.12699999809E+01 0.  1.
</event>
<event>
 5   0  0.3397882E-06  0.2761925E+04  0.7818609E-02  0.8315188E-01
        1   -1    0    0  501    0  0.00000000000E+00  0.00000000000E+00  0.12125281719E+04  0.12125281719E+04  0.50400001928E-02 0. -1.
       -1   -1    0    0    0  501  0.00000000000E+00  0.00000000000E+00 -0.15727941333E+04  0.15727941333E+04  0.50400001928E-02 0.  1.
    10030    2    1    2    0    0  0.00000000000E+00  0.00000000000E+00 -0.36026596142E+03  0.27853223053E+04  0.27619248327E+04 0.  0.
        2    1    3    3  502    0 -0.82647663367E+03 -0.11057830958E+04 -0.21560644704E+03  0.13972494484E+04  0.25500000920E-02 0.  1.
       -2    1    3    3    0  502  0.82647663367E+03  0.11057830958E+04 -0.14465951438E+03  0.13880728569E+04  0.25500000920E-02 0. -1.
</event>
<event>
 5   0  0.3357244E-06  0.2740608E+04  0.7818609E-02  0.8321948E-01
       -1   -1    0    0    0  501  0.00000000000E+00  0.00000000000E+00  0.15104879976E+04  0.15104879976E+04  0.50400001928E-02 0. -1.
        1   -1    0    0  501    0  0.00000000000E+00  0.00000000000E+00 -0.12431300033E+04  0.12431300033E+04  0.50400001928E-02 0.  1.
    10030    2    1    2    0    0  0.00000000000E+00  0.00000000000E+00  0.26735799427E+03  0.27536180009E+04  0.27406079249E+04 0.  0.
        4    1    3    3  502    0  0.12932148308E+04  0.45282158730E+03  0.15047204642E+03  0.13784394939E+04  0.12699999809E+01 0.  1.
       -4    1    3    3    0  502 -0.12932148308E+04 -0.45282158730E+03  0.11688594786E+03  0.13751785071E+04  0.12699999809E+01 0. -1.
</event>
<event>
 5   0  0.3600963E-06  0.2795575E+04  0.7818609E-02  0.8304643E-01
        1   -1    0    0  501    0  0.00000000000E+00  0.00000000000E+00  0.19128995702E+04  0.19128995703E+04  0.50400001928E-02 0. -1.
       -1   -1    0    0    0  501  0.00000000000E+00  0.00000000000E+00 -0.10213867429E+04  0.10213867429E+04  0.50400001928E-02 0.  1.
    10030    2    1    2    0    0  0.00000000000E+00  0.00000000000E+00  0.89151282737E+03  0.29342863132E+04  0.27955752621E+04 0.  0.
        5    1    3    3  502    0 -0.74617159086E+03  0.11745605809E+03  0.16802162396E+04  0.18422042966E+04  0.46999998093E+01 0. -1.
       -5    1    3    3    0  502  0.74617159086E+03 -0.11745605809E+03 -0.78870341219E+03  0.10920820166E+04  0.46999998093E+01 0.  1.
</event>
<event>
 5   0  0.3600963E-06  0.2808871E+04  0.7818609E-02  0.8300520E-01
       -1   -1    0    0    0  501  0.00000000000E+00  0.00000000000E+00  0.10705536191E+04  0.10705536191E+04  0.50400001928E-02 0. -1.
        1   -1    0    0  501    0  0.00000000000E+00  0.00000000000E+00 -0.18424471779E+04  0.18424471779E+04  0.50400001928E-02 0.  1.
    10030    2    1    2    0    0  0.00000000000E+00  0.00000000000E+00 -0.77189355878E+03  0.29130007970E+04  0.28088705875E+04 0.  0.
        5    1    3    3  502    0 -0.12830672072E+04 -0.18151177029E+03  0.17561442189E+03  0.13076966376E+04  0.46999998093E+01 0. -1.
       -5    1    3    3    0  502  0.12830672072E+04  0.18151177029E+03 -0.94750798067E+03  0.16053041594E+04  0.46999998093E+01 0.  1.
</event>
<event>
 5   0  0.9065579E-06  0.2773203E+04  0.7818609E-02  0.8311636E-01
       -2   -1    0    0    0  501  0.00000000000E+00  0.00000000000E+00  0.12337159535E+04  0.12337159535E+04  0.25500000920E-02 0.  1.
        2   -1    0    0  501    0  0.00000000000E+00  0.00000000000E+00 -0.15584328600E+04  0.15584328600E+04  0.25500000920E-02 0. -1.
    10030    2    1    2    0    0  0.00000000000E+00  0.00000000000E+00 -0.32471690651E+03  0.27921488136E+04  0.27732028285E+04 0.  0.
        3    1    3    3  502    0  0.97184394593E+03 -0.89965176678E+03 -0.57602975016E+03  0.14441828970E+04  0.10100000352E+00 0. -1.
       -3    1    3    3    0  502 -0.97184394593E+03  0.89965176678E+03  0.25131284365E+03  0.13479659166E+04  0.10100000352E+00 0.  1.
</event>
<event>
 5   0  0.9065579E-06  0.2803045E+04  0.7818609E-02  0.8302324E-01
        2   -1    0    0  501    0  0.00000000000E+00  0.00000000000E+00  0.17847966509E+04  0.17847966509E+04  0.25500000920E-02 0.  1.
       -2   -1    0    0    0  501  0.00000000000E+00  0.00000000000E+00 -0.11005539889E+04  0.11005539889E+04  0.25500000920E-02 0. -1.
    10030    2    1    2    0    0  0.00000000000E+00  0.00000000000E+00  0.68424266192E+03  0.28853506398E+04  0.28030448256E+04 0.  0.
        3    1    3    3  502    0  0.72570020284E+03  0.12315098551E+03  0.15698101439E+04  0.17338139600E+04  0.10100000352E+00 0.  1.
       -3    1    3    3    0  502 -0.72570020284E+03 -0.12315098551E+03 -0.88556748199E+03  0.11515366798E+04  0.10100000352E+00 0. -1.
</event>
<event>
 5   0  0.3006875E-06  0.2800375E+04  0.7818609E-02  0.8303152E-01
       -3   -1    0    0    0  501  0.00000000000E+00  0.00000000000E+00  0.85215954765E+03  0.85215955364E+03  0.10100000352E+00 0. -1.
        3   -1    0    0  501    0  0.00000000000E+00  0.00000000000E+00 -0.23006547536E+04  0.23006547558E+04  0.10100000352E+00 0.  1.
    10030    2    1    2    0    0  0.00000000000E+00  0.00000000000E+00 -0.14484952060E+04  0.31528143095E+04  0.28003749228E+04 0.  0.
        4    1    3    3  502    0 -0.51104648833E+03 -0.37934034991E+03 -0.21283896239E+04  0.22215111114E+04  0.12699999809E+01 0.  1.
       -4    1    3    3    0  502  0.51104648833E+03  0.37934034991E+03  0.67989441790E+03  0.93130319805E+03  0.12699999809E+01 0. -1.
</event>
<event>
 5   0  0.9260173E-06  0.2819921E+04  0.7818609E-02  0.8297110E-01
        2   -1    0    0  501    0  0.00000000000E+00  0.00000000000E+00  0.22688607930E+04  0.22688607930E+04  0.25500000920E-02 0.  1.
       -2   -1    0    0    0  501  0.00000000000E+00  0.00000000000E+00 -0.87620580807E+03  0.87620580808E+03  0.25500000920E-02 0. -1.
    10030    2    1    2    0    0  0.00000000000E+00  0.00000000000E+00  0.13926549849E+04  0.31450666011E+04  0.28199212787E+04 0.  0.
        1    1    3    3  502    0  0.88106274980E+03 -0.10950553952E+04  0.82137636876E+03  0.16279057181E+04  0.50400001928E-02 0.  1.
       -1    1    3    3    0  502 -0.88106274980E+03  0.10950553952E+04  0.57127861618E+03  0.15171608830E+04  0.50400001928E-02 0. -1.
</event>
<event>
 5   0  0.3397882E-06  0.2729804E+04  0.7818609E-02  0.8325399E-01
       -1   -1    0    0    0  501  0.00000000000E+00  0.00000000000E+00  0.14349834101E+04  0.14349834102E+04  0.50400001928E-02 0. -1.
        1   -1    0    0  501    0  0.00000000000E+00  0.00000000000E+00 -0.12982432633E+04  0.12982432634E+04  0.50400001928E-02 0.  1.
    10030    2    1    2    0    0  0.00000000000E+00  0.00000000000E+00  0.13674014681E+03  0.27332266735E+04  0.27298040554E+04 0.  0.
        2    1    3    3  502    0  0.78541540613E+03 -0.49996898764E+03  0.10676751336E+04  0.14166074049E+04  0.25500000920E-02 0. -1.
       -2    1    3    3    0  502 -0.78541540613E+03  0.49996898764E+03 -0.93093498678E+03  0.13166192686E+04  0.25500000920E-02 0.  1.
</event>
<event>
 5   0  0.9065579E-06  0.2774838E+04  0.7818609E-02  0.8311123E-01
       -2   -1    0    0    0  501  0.00000000000E+00  0.00000000000E+00  0.19089958841E+04  0.19089958841E+04  0.25500000920E-02 0. -1.
        2   -1    0    0  501    0  0.00000000000E+00  0.00000000000E+00 -0.10083476770E+04  0.10083476770E+04  0.25500000920E-02 0.  1.
    10030    2    1    2    0    0  0.00000000000E+00  0.00000000000E+00  0.90064820713E+03  0.29173435611E+04  0.27748380602E+04 0.  0.
        3    1    3    3  502    0 -0.56974268339E+03 -0.52295367434E+03 -0.76071987053E+03  0.10847958344E+04  0.10100000352E+00 0.  1.
       -3    1    3    3    0  502  0.56974268339E+03  0.52295367434E+03  0.16613680777E+04  0.18325477267E+04  0.10100000352E+00 0. -1.
</event>
<event>
 5   0  0.9426937E-06  0.2856861E+04  0.7818609E-02  0.8285829E-01
        2   -1    0    0  501    0  0.00000000000E+00  0.00000000000E+00  0.15642331782E+04  0.15642331782E+04  0.25500000920E-02 0.  1.
       -2   -1    0    0    0  501  0.00000000000E+00  0.00000000000E+00 -0.13044179365E+04  0.13044179365E+04  0.25500000920E-02 0. -1.
    10030    2    1    2    0    0  0.00000000000E+00  0.00000000000E+00  0.25981524166E+03  0.28686511147E+04  0.28568610849E+04 0.  0.
        4    1    3    3  502    0 -0.67026028993E+03  0.10626092661E+04 -0.55262167462E+03  0.13725085198E+04  0.12699999809E+01 0. -1.
       -4    1    3    3    0  502  0.67026028993E+03 -0.10626092661E+04  0.81243691628E+03  0.14961425950E+04  0.12699999809E+01 0.  1.
</event>
<event>
 5   0  0.9252359E-06  0.2790343E+04  0.7818609E-02  0.8306273E-01
       -2   -1    0    0    0  501  0.00000000000E+00  0.00000000000E+00  0.92646841986E+03  0.92646841986E+03  0.25500000920E-02 0. -1.
        2   -1    0    0  501    0  0.00000000000E+00  0.00000000000E+00 -0.21009933514E+04  0.21009933514E+04  0.25500000920E-02 0.  1.
    10030    2    1    2    0    0  0.00000000000E+00  0.00000000000E+00 -0.11745249316E+04  0.30274617713E+04  0.27903433412E+04 0.  0.
        5    1    3    3  502    0 -0.10213178466E+04  0.52214412936E+03  0.27442971817E+03  0.11794313866E+04  0.46999998093E+01 0. -1.
       -5    1    3    3    0  502  0.10213178466E+04 -0.52214412936E+03 -0.14489546498E+04  0.18480303847E+04  0.46999998093E+01 0.  1.
</event>
<event>
 5   0  0.3371603E-06  0.2815416E+04  0.7818609E-02  0.8298498E-01
       -1   -1    0    0    0  501  0.00000000000E+00  0.00000000000E+00  0.15110616292E+04  0.15110616292E+04  0.50400001928E-02 0.  1.
        1   -1    0    0  501    0  0.00000000000E+00  0.00000000000E+00 -0.13114230960E+04  0.13114230960E+04  0.50400001928E-02 0. -1.
    10030    2    1    2    0    0  0.00000000000E+00  0.00000000000E+00  0.19963853316E+03  0.28224847252E+04  0.28154155075E+04 0.  0.
        1    1    3    3  502    0  0.53375802848E+03 -0.52590977696E+03  0.12945171821E+04  0.14957451191E+04  0.50400001928E-02 0.  1.
       -1    1    3    3    0  502 -0.53375802848E+03  0.52590977696E+03 -0.10948786489E+04  0.13267396061E+04  0.50400001928E-02 0. -1.
</event>
<event>
 5   0  0.3438130E-06  0.2731755E+04  0.7818609E-02  0.8324775E-01
       -1   -1    0    0    0  501  0.00000000000E+00  0.00000000000E+00  0.96287654592E+03  0.96287654593E+03  0.50400001928E-02 0.  1.
        1   -1    0    0  501    0  0.00000000000E+00  0.00000000000E+00 -0.19375496354E+04  0.19375496354E+04  0.50400001928E-02 0. -1.
    10030    2    1    2    0    0  0.00000000000E+00  0.00000000000E+00 -0.97467308947E+03  0.29004261813E+04  0.27317548210E+04 0.  0.
        3    1    3    3  502    0 -0.28142121655E+03 -0.97060842891E+03 -0.14629536701E+04  0.17780641368E+04  0.10100000352E+00 0. -1.
       -3    1    3    3    0  502  0.28142121655E+03  0.97060842891E+03  0.48828058065E+03  0.11223620445E+04  0.10100000352E+00 0.  1.
</event>
<event>
 5   0  0.3357244E-06  0.2792704E+04  0.7818609E-02  0.8305537E-01
       -1   -1    0    0    0  501  0.00000000000E+00  0.00000000000E+00  0.14971713462E+04  0.14971713462E+04  0.50400001928E-02 0. -1.
        1   -1    0    0  501    0  0.00000000000E+00  0.00000000000E+00 -0.13023221442E+04  0.13023221442E+04  0.50400001928E-02 0.  1.
    10030    2    1    2    0    0  0.00000000000E+00  0.00000000000E+00  0.19484920199E+03  0.27994934904E+04  0.27927043509E+04 0.  0.
        4    1    3    3  502    0 -0.94682871226E+03 -0.22350957631E+03  0.11015366205E+04  0.14696345397E+04  0.12699999809E+01 0. -1.
       -4    1    3    3    0  502  0.94682871226E+03  0.22350957631E+03 -0.90668741851E+03  0.13298589507E+04  0.12699999809E+01 0.  1.
</event>
<event>
 5   0  0.3600963E-06  0.2773434E+04  0.7818609E-02  0.8311564E-01
        1   -1    0    0  501    0  0.00000000000E+00  0.00000000000E+00  0.15264429039E+04  0.15264429039E+04  0.50400001928E-02 0.  1.
       -1   -1    0    0    0  501  0.00000000000E+00  0.00000000000E+00 -0.12597812411E+04  0.12597812411E+04  0.50400001928E-02 0. -1.
    10030    2    1    2    0    0  0.00000000000E+00  0.00000000000E+00  0.26666166276E+03  0.27862241450E+04  0.27734340706E+04 0.  0.
        5    1    3    3  502    0 -0.89709659571E+03  0.72681334450E+02  0.11931352444E+04  0.14945429669E+04  0.46999998093E+01 0.  1.
       -5    1    3    3    0  502  0.89709659571E+03 -0.72681334450E+02 -0.92647358166E+03  0.12916811781E+04  0.46999998093E+01 0. -1.
</event>
<event>
 5   0  0.9065579E-06  0.2828701E+04  0.7818609E-02  0.8294413E-01
        2   -1    0    0  501    0  0.00000000000E+00  0.00000000000E+00  0.15297599485E+04  0.15297599485E+04  0.25500000920E-02 0. -1.
       -2   -1    0    0    0  501  0.00000000000E+00  0.00000000000E+00 -0.13076482001E+04  0.13076482001E+04  0.25500000920E-02 0.  1.
    10030    2    1    2    0    0  0.00000000000E+00  0.00000000000E+00  0.22211174839E+03  0.28374081485E+04  0.28287013580E+04 0.  0.
        3    1    3    3  502    0 -0.47908517806E+03 -0.73780323684E+03  0.12219445617E+04  0.15056642209E+04  0.10100000352E+00 0. -1.
       -3    1    3    3    0  502  0.47908517806E+03  0.73780323684E+03 -0.99983281326E+03  0.13317439276E+04  0.10100000352E+00 0.  1.
</event>
<event>
 5   0  0.3397882E-06  0.2751780E+04  0.7818609E-02  0.8318397E-01
       -1   -1    0    0    0  501  0.00000000000E+00  0.00000000000E+00  0.11379304377E+04  0.11379304377E+04  0.50400001928E-02 0. -1.
        1   -1    0    0  501    0  0.00000000000E+00  0.00000000000E+00 -0.16636108869E+04  0.16636108869E+04  0.50400001928E-02 0.  1.
    10030    2    1    2    0    0  0.00000000000E+00  0.00000000000E+00 -0.52568044915E+03  0.28015413246E+04  0.27517801254E+04 0.  0.
        2    1    3    3  502    0  0.91622791272E+03 -0.31042155945E+03 -0.12589182152E+04  0.15876744645E+04  0.25500000920E-02 0.  1.
       -2    1    3    3    0  502 -0.91622791272E+03  0.31042155945E+03  0.73323776601E+03  0.12138668601E+04  0.25500000920E-02 0. -1.
</event>
<event>
 5   0  0.3357244E-06  0.2781483E+04  0.7818609E-02  0.8309040E-01
        1   -1    0    0  501    0  0.00000000000E+00  0.00000000000E+00  0.19175879493E+04  0.19175879493E+04  0.50400001928E-02 0. -1.
       -1   -1    0    0    0  501  0.00000000000E+00  0.00000000000E+00 -0.10086429103E+04  0.10086429103E+04  0.50400001928E-02 0.  1.
    10030    2    1    2    0    0  0.00000000000E+00  0.00000000000E+00  0.90894503905E+03  0.29262308596E+04  0.27814826909E+04 0.  0.
        4    1    3    3  502    0  0.43841063097E+03 -0.40419553663E+03  0.17762726565E+04  0.18736926312E+04  0.12699999809E+01 0. -1.
       -4    1    3    3    0  502 -0.43841063097E+03  0.40419553663E+03 -0.86732761747E+03  0.10525382283E+04  0.12699999809E+01 0.  1.
</event>
<event>
 5   0  0.3438130E-06  0.2902952E+04  0.7818609E-02  0.8272000E-01
        1   -1    0    0  501    0  0.00000000000E+00  0.00000000000E+00  0.10026228277E+04  0.10026228277E+04  0.50400001928E-02 0. -1.
       -1   -1    0    0    0  501  0.00000000000E+00  0.00000000000E+00 -0.21012715515E+04  0.21012715515E+04  0.50400001928E-02 0.  1.
    10030    2    1    2    0    0  0.00000000000E+00  0.00000000000E+00 -0.10986487238E+04  0.31038943792E+04  0.29029521696E+04 0.  0.
        3    1    3    3  502    0  0.12769818774E+04  0.28845533334E+03  0.12087582161E+03  0.13147243700E+04  0.10100000352E+00 0. -1.
       -3    1    3    3    0  502 -0.12769818774E+04 -0.28845533334E+03 -0.12195245454E+04  0.17891700092E+04  0.10100000352E+00 0.  1.
</event>
<event>
 5   0  0.3357244E-06  0.2822691E+04  0.7818609E-02  0.8296258E-01
        1   -1    0    0  501    0  0.00000000000E+00  0.00000000000E+00  0.16177112501E+04  0.16177112501E+04  0.50400001928E-02 0.  1.
       -1   -1    0    0    0  501  0.00000000000E+00  0.00000000000E+00 -0.12313049107E+04  0.12313049107E+04  0.50400001928E-02 0. -1.
    10030    2    1    2    0    0  0.00000000000E+00  0.00000000000E+00  0.38640633940E+03  0.28490161608E+04  0.28226907775E+04 0.  0.
        4    1    3    3  502    0 -0.28406109737E+03 -0.66324892401E+03  0.14174891270E+04  0.15905555257E+04  0.12699999809E+01 0.  1.
       -4    1    3    3    0  502  0.28406109737E+03  0.66324892401E+03 -0.10310827876E+04  0.12584606351E+04  0.12699999809E+01 0. -1.
</event>
<event>
 5   0  0.9342133E-06  0.2813910E+04  0.7818609E-02  0.8298963E-01
        2   -1    0    0  501    0  0.00000000000E+00  0.00000000000E+00  0.18344712257E+04  0.18344712257E+04  0.25500000920E-02 0. -1.
       -2   -1    0    0    0  501  0.00000000000E+00  0.00000000000E+00 -0.10790697063E+04  0.10790697063E+04  0.25500000920E-02 0.  1.
    10030    2    1    2    0    0  0.00000000000E+00  0.00000000000E+00  0.75540151935E+03  0.29135409320E+04  0.28139099678E+04 0.  0.
        2    1    3    3  502    0  0.70886153019E+02  0.75205327733E+03  0.16067041127E+04  0.17754174395E+04  0.25500000920E-02 0. -1.
       -2    1    3    3    0  502 -0.70886153019E+02 -0.75205327733E+03 -0.85130259339E+03  0.11381234925E+04  0.25500000920E-02 0.  1.
</event>
<event>
 5   0  0.9252359E-06  0.2798474E+04  0.7818609E-02  0.8303742E-01
        2   -1    0    0  501    0  0.00000000000E+00  0.00000000000E+00  0.14357795236E+04  0.14357795236E+04  0.25500000920E-02 0.  1.
       -2   -1    0    0    0  501  0.00000000000E+00  0.00000000000E+00 -0.13636248102E+04  0.13636248102E+04  0.25500000920E-02 0. -1.
    10030    2    1    2    0    0  0.00000000000E+00  0.00000000000E+00  0.72154713410E+02  0.27994043338E+04  0.27984742846E+04 0.  0.
        5    1    3    3  502    0  0.48005574912E+03  0.13036041614E+04 -0.13132567839E+03  0.13953873497E+04  0.46999998093E+01 0. -1.
       -5    1    3    3    0  502 -0.48005574912E+03 -0.13036041614E+04  0.20348039180E+03  0.14040169841E+04  0.46999998093E+01 0.  1.
</event>
<event>
 5   0  0.9065579E-06  0.2823093E+04  0.7818609E-02  0.8296134E-01
        2   -1    0    0  501    0  0.00000000000E+00  0.00000000000E+00  0.15525964028E+04  0.15525964028E+04  0.25500000920E-02 0. -1.
       -2   -1    0    0    0  501  0.00000000000E+00  0.00000000000E+00 -0.12833109074E+04  0.12833109074E+04  0.25500000920E-02 0.  1.
    10030    2    1    2    0    0  0.00000000000E+00  0.00000000000E+00  0.26928549536E+03  0.28359073102E+04  0.28230932670E+04 0.  0.
        3    1    3    3  502    0 -0.46226324678E+03  0.28786259870E+03 -0.11735400214E+04  0.12937342761E+04  0.10100000352E+00 0.  1.
       -3    1    3    3    0  502  0.46226324678E+03 -0.28786259870E+03  0.14428255168E+04  0.15421730341E+04  0.10100000352E+00 0. -1.
</event>
<event>
 5   0  0.9252359E-06  0.2809138E+04  0.7818609E-02  0.8300437E-01
        2   -1    0    0  501    0  0.00000000000E+00  0.00000000000E+00  0.17420266502E+04  0.17420266502E+04  0.25500000920E-02 0.  1.
       -2   -1    0    0    0  501  0.00000000000E+00  0.00000000000E+00 -0.11324821606E+04  0.11324821606E+04  0.25500000920E-02 0. -1.
    10030    2    1    2    0    0  0.00000000000E+00  0.00000000000E+00  0.60954448960E+03  0.28745088109E+04  0.28091380206E+04 0.  0.
        5    1    3    3  502    0 -0.50312852598E+03 -0.55494385315E+03  0.15205673556E+04  0.16950658296E+04  0.46999998093E+01 0.  1.
       -5    1    3    3    0  502  0.50312852598E+03  0.55494385315E+03 -0.91102286597E+03  0.11794429813E+04  0.46999998093E+01 0. -1.
</event>
<event>
 5   0  0.3357244E-06  0.2736140E+04  0.7818609E-02  0.8323373E-01
        1   -1    0    0  501    0  0.00000000000E+00  0.00000000000E+00  0.19680894069E+04  0.19680894069E+04  0.50400001928E-02 0. -1.
       -1   -1    0    0    0  501  0.00000000000E+00  0.00000000000E+00 -0.95098091403E+03  0.95098091404E+03  0.50400001928E-02 0.  1.
    10030    2    1    2    0    0  0.00000000000E+00  0.00000000000E+00  0.10171084929E+04  0.29190703209E+04  0.27361399548E+04 0.  0.
        4    1    3    3  502    0  0.10165365355E+03 -0.11674917759E+04 -0.24450127932E+03  0.11971436842E+04  0.12699999809E+01 0.  1.
       -4    1    3    3    0  502 -0.10165365355E+03  0.11674917759E+04  0.12616097722E+04  0.17219266367E+04  0.12699999809E+01 0. -1.
</event>
<event>
 5   0  0.3600963E-06  0.2829513E+04  0.7818609E-02  0.8294164E-01
        1   -1    0    0  501    0  0.00000000000E+00  0.00000000000E+00  0.13952134555E+04  0.13952134555E+04  0.50400001928E-02 0. -1.
       -1   -1    0    0    0  501  0.00000000000E+00  0.00000000000E+00 -0.14345730418E+04  0.14345730418E+04  0.50400001928E-02 0.  1.
    10030    2    1    2    0    0  0.00000000000E+00  0.00000000000E+00 -0.39359586265E+02  0.28297864973E+04  0.28295127572E+04 0.  0.
        5    1    3    3  502    0  0.22796056777E+03 -0.42234582285E+03 -0.13506622218E+04  0.14334059236E+04  0.46999998093E+01 0.  1.
       -5    1    3    3    0  502 -0.22796056777E+03  0.42234582285E+03  0.13113026355E+04  0.13963805737E+04  0.46999998093E+01 0. -1.
</event>
<event>
 5   0  0.3438130E-06  0.2805564E+04  0.7818609E-02  0.8301543E-01
        1   -1    0    0  501    0  0.00000000000E+00  0.00000000000E+00  0.95908419224E+03  0.95908419225E+03  0.50400001928E-02 0.  1.
       -1   -1    0    0    0  501  0.00000000000E+00  0.00000000000E+00 -0.20517457378E+04  0.20517457378E+04  0.50400001928E-02 0. -1.
    10030    2    1    2    0    0  0.00000000000E+00  0.00000000000E+00 -0.10926615456E+04  0.30108299301E+04  0.28055636893E+04 0.  0.
        3    1    3    3  502    0  0.10545632492E+04 -0.91427214273E+03 -0.69733717268E+03  0.15602167606E+04  0.10100000352E+00 0. -1.
       -3    1    3    3    0  502 -0.10545632492E+04  0.91427214273E+03 -0.39532437291E+03  0.14506131695E+04  0.10100000352E+00 0.  1.
</event>
<event>
 5   0  0.3600963E-06  0.2838695E+04  0.7818609E-02  0.8291355E-01
       -1   -1    0    0    0  501  0.00000000000E+00  0.00000000000E+00  0.10277845049E+04  0.10277845050E+04  0.50400001928E-02 0. -1.
        1   -1    0    0  501    0  0.00000000000E+00  0.00000000000E+00 -0.19600876491E+04  0.19600876491E+04  0.50400001928E-02 0.  1.
    10030    2    1    2    0    0  0.00000000000E+00  0.00000000000E+00 -0.93230314413E+03  0.29878721540E+04  0.28386952736E+04 0.  0.
        5    1    3    3  502    0 -0.79576215274E+03  0.89856950819E+03  0.33119404994E+03  0.12451410175E+04  0.46999998093E+01 0. -1.
       -5    1    3    3    0  502  0.79576215274E+03 -0.89856950819E+03 -0.12634971941E+04  0.17427311365E+04  0.46999998093E+01 0.  1.
</event>
<event>
 5   0  0.9342133E-06  0.2796566E+04  0.7818609E-02  0.8304335E-01
       -2   -1    0    0    0  501  0.00000000000E+00  0.00000000000E+00  0.11482851025E+04  0.11482851025E+04  0.25500000920E-02 0.  1.
        2   -1    0    0  501    0  0.00000000000E+00  0.00000000000E+00 -0.17027090977E+04  0.17027090977E+04  0.25500000920E-02 0. -1.
    10030    2    1    2    0    0  0.00000000000E+00  0.00000000000E+00 -0.55442399525E+03  0.28509942002E+04  0.27965661020E+04 0.  0.
        2    1    3    3  502    0  0.11617115299E+04  0.32127424008E+03  0.44538820758E+03  0.12849752805E+04  0.25500000920E-02 0.  1.
       -2    1    3    3    0  502 -0.11617115299E+04 -0.32127424008E+03 -0.99981220283E+03  0.15660189197E+04  0.25500000920E-02 0. -1.
</event>
<event>
 5   0  0.9065579E-06  0.2739793E+04  0.7818609E-02  0.8322208E-01
       -2   -1    0    0    0  501  0.00000000000E+00  0.00000000000E+00  0.15850008717E+04  0.15850008717E+04  0.25500000920E-02 0. -1.
        2   -1    0    0  501    0  0.00000000000E+00  0.00000000000E+00 -0.11839843010E+04  0.11839843010E+04  0.25500000920E-02 0.  1.
    10030    2    1    2    0    0  0.00000000000E+00  0.00000000000E+00  0.40101657066E+03  0.27689851726E+04  0.27397928017E+04 0.  0.
        3    1    3    3  502    0  0.10089471178E+04 -0.75736879755E+03 -0.33906633706E+03  0.13063490243E+04  0.10100000352E+00 0.  1.
       -3    1    3    3    0  502 -0.10089471178E+04  0.75736879755E+03  0.74008290772E+03  0.14626361484E+04  0.10100000352E+00 0. -1.
</event>
<event>
 5   0  0.9065579E-06  0.2799648E+04  0.7818609E-02  0.8303378E-01
       -2   -1    0    0    0  501  0.00000000000E+00  0.00000000000E+00  0.20646983050E+04  0.20646983050E+04  0.25500000920E-02 0. -1.
        2   -1    0    0  501    0  0.00000000000E+00  0.00000000000E+00 -0.94905274292E+03  0.94905274293E+03  0.25500000920E-02 0.  1.
    10030    2    1    2    0    0  0.00000000000E+00  0.00000000000E+00  0.11156455621E+04  0.30137510480E+04  0.27996482563E+04 0.  0.
        3    1    3    3  502    0  0.51155754239E+03  0.43811518266E+03  0.18788077244E+04  0.19958843924E+04  0.10100000352E+00 0. -1.
       -3    1    3    3    0  502 -0.51155754239E+03 -0.43811518266E+03 -0.76316216225E+03  0.10178666556E+04  0.10100000352E+00 0.  1.
</event>
<event>
 5   0  0.3397882E-06  0.2787825E+04  0.7818609E-02  0.8307058E-01
        1   -1    0    0  501    0  0.00000000000E+00  0.00000000000E+00  0.18887788779E+04  0.18887788779E+04  0.50400001928E-02 0. -1.
       -1   -1    0    0    0  501  0.00000000000E+00  0.00000000000E+00 -0.10287028673E+04  0.10287028673E+04  0.50400001928E-02 0.  1.
    10030    2    1    2    0    0  0.00000000000E+00  0.00000000000E+00  0.86007601060E+03  0.29174817452E+04  0.27878251361E+04 0.  0.
        2    1    3    3  502    0  0.70286746648E+03 -0.85526034875E+03 -0.45641019169E+03  0.11974152173E+04  0.25500000920E-02 0.  1.
       -2    1    3    3    0  502 -0.70286746648E+03  0.85526034875E+03  0.13164862023E+04  0.17200665279E+04  0.25500000920E-02 0. -1.
</event>
<event>
 5   0  0.9426937E-06  0.2709692E+04  0.7818609E-02  0.8331867E-01
        2   -1    0    0  501    0  0.00000000000E+00  0.00000000000E+00  0.93707307241E+03  0.93707307242E+03  0.25500000920E-02 0.  1.
       -2   -1    0    0    0  501  0.00000000000E+00  0.00000000000E+00 -0.19588734273E+04  0.19588734273E+04  0.25500000920E-02 0. -1.
    10030    2    1    2    0    0  0.00000000000E+00  0.00000000000E+00 -0.10218003549E+04  0.28959464997E+04  0.27096918946E+04 0.  0.
        4    1    3    3  502    0  0.11853023512E+04 -0.57424942711E+03 -0.17141547612E+03  0.13281901018E+04  0.12699999809E+01 0.  1.
       -4    1    3    3    0  502 -0.11853023512E+04  0.57424942711E+03 -0.85038487875E+03  0.15677563979E+04  0.12699999809E+01 0. -1.
</event>
<event>
 5   0  0.9065579E-06  0.2891948E+04  0.7818609E-02  0.8275277E-01
        2   -1    0    0  501    0  0.00000000000E+00  0.00000000000E+00  0.13642425133E+04  0.13642425133E+04  0.25500000920E-02 0. -1.
       -2   -1    0    0    0  501  0.00000000000E+00  0.00000000000E+00 -0.15326014910E+04  0.15326014910E+04  0.25500000920E-02 0.  1.
    10030    2    1    2    0    0  0.00000000000E+00  0.00000000000E+00 -0.16835897768E+03  0.28968440044E+04  0.28919475169E+04 0.  0.
        3    1    3    3  502    0 -0.38733114719E+03 -0.39882992778E+03 -0.14212613862E+04  0.15261306192E+04  0.10100000352E+00 0.  1.
       -3    1    3    3    0  502  0.38733114719E+03  0.39882992778E+03  0.12529024085E+04  0.13707133852E+04  0.10100000352E+00 0. -1.
</event>
<event>
 5   0  0.9065579E-06  0.2804243E+04  0.7818609E-02  0.8301952E-01
        2   -1    0    0  501    0  0.00000000000E+00  0.00000000000E+00  0.17654141414E+04  0.17654141414E+04  0.25500000920E-02 0.  1.
       -2   -1    0    0    0  501  0.00000000000E+00  0.00000000000E+00 -0.11135887769E+04  0.11135887769E+04  0.25500000920E-02 0. -1.
    10030    2    1    2    0    0  0.00000000000E+00  0.00000000000E+00  0.65182536450E+03  0.28790029182E+04  0.28042434804E+04 0.  0.
        3    1    3    3  502    0  0.11805178485E+04 -0.42428200014E+03  0.96895541484E+03  0.15850906007E+04  0.10100000352E+00 0.  1.
       -3    1    3    3    0  502 -0.11805178485E+04  0.42428200014E+03 -0.31713005034E+03  0.12939123175E+04  0.10100000352E+00 0. -1.
</event>
<event>
 5   0  0.9065579E-06  0.2786197E+04  0.7818609E-02  0.8307566E-01
       -2   -1    0    0    0  501  0.00000000000E+00  0.00000000000E+00  0.11882476370E+04  0.11882476370E+04  0.25500000920E-02 0. -1.
        2   -1    0    0  501    0  0.00000000000E+00  0.00000000000E+00 -0.16332651056E+04  0.16332651056E+04  0.25500000920E-02 0.  1.
    10030    2    1    2    0    0  0.00000000000E+00  0.00000000000E+00 -0.44501746861E+03  0.28215127426E+04  0.27861969796E+04 0.  0.
        3    1    3    3  502    0 -0.64852924979E+03 -0.12269153017E+04 -0.34575612535E+03  0.14301953202E+04  0.10100000352E+00 0.  1.
       -3    1    3    3    0  502  0.64852924979E+03  0.12269153017E+04 -0.99261343258E+02  0.13913174224E+04  0.10100000352E+00 0. -1.
</event>
<event>
 5   0  0.9252359E-06  0.2741585E+04  0.7818609E-02  0.8321637E-01
       -2   -1    0    0    0  501  0.00000000000E+00  0.00000000000E+00  0.91174840242E+03  0.91174840243E+03  0.25500000920E-02 0.  1.
        2   -1    0    0  501    0  0.00000000000E+00  0.00000000000E+00 -0.20609551082E+04  0.20609551082E+04  0.25500000920E-02 0. -1.
    10030    2    1    2    0    0  0.00000000000E+00  0.00000000000E+00 -0.11492067057E+04  0.29727035106E+04  0.27415853278E+04 0.  0.
        5    1    3    3  502    0  0.10391841733E+04 -0.67556391589E+03 -0.12094150944E+04  0.17317613320E+04  0.46999998093E+01 0. -1.
       -5    1    3    3    0  502 -0.10391841733E+04  0.67556391589E+03  0.60208388697E+02  0.12409421786E+04  0.46999998093E+01 0.  1.
</event>
<event>
 5   0  0.3438130E-06  0.2784970E+04  0.7818609E-02  0.8307950E-01
       -1   -1    0    0    0  501  0.00000000000E+00  0.00000000000E+00  0.14486383519E+04  0.14486383519E+04  0.50400001928E-02 0. -1.
        1   -1    0    0  501    0  0.00000000000E+00  0.00000000000E+00 -0.13385084039E+04  0.13385084039E+04  0.50400001928E-02 0.  1.
    10030    2    1    2    0    0  0.00000000000E+00  0.00000000000E+00  0.11012994805E+03  0.27871467558E+04  0.27849700955E+04 0.  0.
        3    1    3    3  502    0 -0.49998349145E+03  0.12132626440E+04 -0.41115840332E+03  0.13751512563E+04  0.10100000352E+00 0.  1.
       -3    1    3    3    0  502  0.49998349145E+03 -0.12132626440E+04  0.52128835137E+03  0.14119954995E+04  0.10100000352E+00 0. -1.
</event>
<event>
 5   0  0.3397882E-06  0.2813911E+04  0.7818609E-02  0.8298962E-01
       -1   -1    0    0    0  501  0.00000000000E+00  0.00000000000E+00  0.19993273996E+04  0.19993273996E+04  0.50400001928E-02 0. -1.
        1   -1    0    0  501    0  0.00000000000E+00  0.00000000000E+00 -0.99009498186E+03  0.99009498187E+03  0.50400001928E-02 0.  1.
    10030    2    1    2    0    0  0.00000000000E+00  0.00000000000E+00  0.10092324178E+04  0.29894223815E+04  0.28139111752E+04 0.  0.
        2    1    3    3  502    0  0.12977231105E+03  0.61653934457E+02  0.19915137093E+04  0.19966894888E+04  0.25500000920E-02 0. -1.
       -2    1    3    3    0  502 -0.12977231105E+03 -0.61653934457E+02 -0.98228129158E+03  0.99273289265E+03  0.25500000920E-02 0.  1.
</event>
<event>
 5   0  0.3357244E-06  0.2973847E+04  0.7818609E-02  0.8251239E-01
       -1   -1    0    0    0  501  0.00000000000E+00  0.00000000000E+00  0.10658059445E+04  0.10658059445E+04  0.50400001928E-02 0.  1.
        1   -1    0    0  501    0  0.00000000000E+00  0.00000000000E+00 -0.20744318293E+04  0.20744318293E+04  0.50400001928E-02 0. -1.
    10030    2    1    2    0    0  0.00000000000E+00  0.00000000000E+00 -0.10086258848E+04  0.31402377738E+04  0.29738471885E+04 0.  0.
        4    1    3    3  502    0  0.14680163511E+04  0.74367312535E+02 -0.26739912643E+03  0.14940235640E+04  0.12699999809E+01 0. -1.
       -4    1    3    3    0  502 -0.14680163511E+04 -0.74367312535E+02 -0.74122675839E+03  0.16462142098E+04  0.12699999809E+01 0.  1.
</event>
<event>
 5   0  0.9065579E-06  0.2322102E+04  0.7818609E-02  0.8469257E-01
       -2   -1    0    0    0  501  0.00000000000E+00  0.00000000000E+00  0.98767312818E+03  0.98767312818E+03  0.25500000920E-02 0. -1.
        2   -1    0    0  501    0  0.00000000000E+00  0.00000000000E+00 -0.13648634013E+04  0.13648634013E+04  0.25500000920E-02 0.  1.
    10030    2    1    2    0    0  0.00000000000E+00  0.00000000000E+00 -0.37719027311E+03  0.23525365295E+04  0.23221015525E+04 0.  0.
        3    1    3    3  502    0 -0.79069203082E+03 -0.70807077982E+03 -0.66538079901E+03  0.12527129499E+04  0.10100000352E+00 0.  1.
       -3    1    3    3    0  502  0.79069203082E+03  0.70807077982E+03  0.28819052590E+03  0.10998235796E+04  0.10100000352E+00 0. -1.
</event>
<event>
 5   0  0.9065579E-06  0.2811455E+04  0.7818609E-02  0.8299721E-01
       -2   -1    0    0    0  501  0.00000000000E+00  0.00000000000E+00  0.14302182782E+04  0.14302182782E+04  0.25500000920E-02 0.  1.
        2   -1    0    0  501    0  0.00000000000E+00  0.00000000000E+00 -0.13816558722E+04  0.13816558722E+04  0.25500000920E-02 0. -1.
    10030    2    1    2    0    0  0.00000000000E+00  0.00000000000E+00  0.48562406063E+02  0.28118741504E+04  0.28114547712E+04 0.  0.
        3    1    3    3  502    0  0.38974394131E+02 -0.11925567266E+04 -0.71903819254E+03  0.13930995952E+04  0.10100000352E+00 0. -1.
       -3    1    3    3    0  502 -0.38974394131E+02  0.11925567266E+04  0.76760059860E+03  0.14187745553E+04  0.10100000352E+00 0.  1.
</event>
<event>
 5   0  0.9260173E-06  0.2542349E+04  0.7818609E-02  0.8388052E-01
        2   -1    0    0  501    0  0.00000000000E+00  0.00000000000E+00  0.15232576859E+04  0.15232576859E+04  0.25500000920E-02 0. -1.
       -2   -1    0    0    0  501  0.00000000000E+00  0.00000000000E+00 -0.10608081715E+04  0.10608081715E+04  0.25500000920E-02 0.  1.
    10030    2    1    2    0    0  0.00000000000E+00  0.00000000000E+00  0.46244951433E+03  0.25840658574E+04  0.25423486783E+04 0.  0.
        1    1    3    3  502    0 -0.57326794145E+03 -0.75518761832E+03 -0.62939198126E+03  0.11380152625E+04  0.50400001928E-02 0.  1.
       -1    1    3    3    0  502  0.57326794145E+03  0.75518761832E+03  0.10918414956E+04  0.14460505949E+04  0.50400001928E-02 0. -1.
</event>
<event>
 5   0  0.3371603E-06  0.2803458E+04  0.7818609E-02  0.8302196E-01
       -1   -1    0    0    0  501  0.00000000000E+00  0.00000000000E+00  0.17321689843E+04  0.17321689843E+04  0.50400001928E-02 0.  1.
        1   -1    0    0  501    0  0.00000000000E+00  0.00000000000E+00 -0.11343257396E+04  0.11343257396E+04  0.50400001928E-02 0. -1.
    10030    2    1    2    0    0  0.00000000000E+00  0.00000000000E+00  0.59784324471E+03  0.28664947238E+04  0.28034577679E+04 0.  0.
        1    1    3    3  502    0 -0.27949077557E+03 -0.11697247401E+04  0.10351628251E+04  0.15867996521E+04  0.50400001928E-02 0.  1.
       -1    1    3    3    0  502  0.27949077557E+03  0.11697247401E+04 -0.43731958043E+03  0.12796950718E+04  0.50400001928E-02 0. -1.
</event>
<event>
 5   0  0.9342133E-06  0.2752553E+04  0.7818609E-02  0.8318152E-01
        2   -1    0    0  501    0  0.00000000000E+00  0.00000000000E+00  0.14836743380E+04  0.14836743380E+04  0.25500000920E-02 0.  1.
       -2   -1    0    0    0  501  0.00000000000E+00  0.00000000000E+00 -0.12766528059E+04  0.12766528059E+04  0.25500000920E-02 0. -1.
    10030    2    1    2    0    0  0.00000000000E+00  0.00000000000E+00  0.20702153211E+03  0.27603271438E+04  0.27525530015E+04 0.  0.
        2    1    3    3  502    0  0.78463606217E+03  0.44244011583E+03  0.11469927400E+04  0.14584235845E+04  0.25500000920E-02 0.  1.
       -2    1    3    3    0  502 -0.78463606217E+03 -0.44244011583E+03 -0.93997120789E+03  0.13019035593E+04  0.25500000920E-02 0. -1.
</event>
<event>
 5   0  0.9065579E-06  0.2779996E+04  0.7818609E-02  0.8309506E-01
       -2   -1    0    0    0  501  0.00000000000E+00  0.00000000000E+00  0.69619911719E+03  0.69619911719E+03  0.25500000920E-02 0.  1.
        2   -1    0    0  501    0  0.00000000000E+00  0.00000000000E+00 -0.27752039344E+04  0.27752039344E+04  0.25500000920E-02 0. -1.
    10030    2    1    2    0    0  0.00000000000E+00  0.00000000000E+00 -0.20790048173E+04  0.34714030516E+04  0.27799960642E+04 0.  0.
        3    1    3    3  502    0 -0.40834568144E+03  0.43047871612E+03 -0.26091219816E+04  0.26757383366E+04  0.10100000352E+00 0. -1.
       -3    1    3    3    0  502  0.40834568144E+03 -0.43047871612E+03  0.53011716439E+03  0.79566471504E+03  0.10100000352E+00 0.  1.
</event>
<event>
 5   0  0.3371603E-06  0.2831176E+04  0.7818609E-02  0.8293654E-01
        1   -1    0    0  501    0  0.00000000000E+00  0.00000000000E+00  0.18506912755E+04  0.18506912755E+04  0.50400001928E-02 0.  1.
       -1   -1    0    0    0  501  0.00000000000E+00  0.00000000000E+00 -0.10827784877E+04  0.10827784877E+04  0.50400001928E-02 0. -1.
    10030    2    1    2    0    0  0.00000000000E+00  0.00000000000E+00  0.76791278774E+03  0.29334697632E+04  0.28311755160E+04 0.  0.
        1    1    3    3  502    0 -0.57239651961E+03  0.11300690723E+04 -0.27069073735E+03  0.12953637941E+04  0.50400001928E-02 0. -1.
       -1    1    3    3    0  502  0.57239651961E+03 -0.11300690723E+04  0.10386035251E+04  0.16381059691E+04  0.50400001928E-02 0.  1.
</event>
<event>
 5   0  0.9426937E-06  0.2822852E+04  0.7818609E-02  0.8296209E-01
        2   -1    0    0  501    0  0.00000000000E+00  0.00000000000E+00  0.14374426659E+04  0.14374426659E+04  0.25500000920E-02 0.  1.
       -2   -1    0    0    0  501  0.00000000000E+00  0.00000000000E+00 -0.13858801886E+04  0.13858801886E+04  0.25500000920E-02 0. -1.
    10030    2    1    2    0    0  0.00000000000E+00  0.00000000000E+00  0.51562477300E+02  0.28233228546E+04  0.28228519713E+04 0.  0.
        4    1    3    3  502    0  0.10858834134E+04 -0.45220266226E+03  0.80597011853E+03  0.14259100533E+04  0.12699999809E+01 0.  1.
       -4    1    3    3    0  502 -0.10858834134E+04  0.45220266226E+03 -0.75440764123E+03  0.13974128013E+04  0.12699999809E+01 0. -1.
</event>
<event>
 5   0  0.3006875E-06  0.2816909E+04  0.7818609E-02  0.8298038E-01
       -3   -1    0    0    0  501  0.00000000000E+00  0.00000000000E+00  0.21482723611E+04  0.21482723635E+04  0.10100000352E+00 0.  1.
        3   -1    0    0  501    0  0.00000000000E+00  0.00000000000E+00 -0.92341395244E+03  0.92341395797E+03  0.10100000352E+00 0. -1.
    10030    2    1    2    0    0  0.00000000000E+00  0.00000000000E+00  0.12248584087E+04  0.30716863215E+04  0.28169094299E+04 0.  0.
        1    1    3    3  502    0 -0.64616271596E+03  0.78139106840E+03  0.16784179026E+04  0.19609143054E+04  0.50400001928E-02 0.  1.
       -1    1    3    3    0  502  0.64616271596E+03 -0.78139106840E+03 -0.45355949388E+03  0.11107720161E+04  0.50400001928E-02 0. -1.
</event>
<event>
 5   0  0.9252359E-06  0.2822038E+04  0.7818609E-02  0.8296459E-01
        2   -1    0    0  501    0  0.00000000000E+00  0.00000000000E+00  0.22778368851E+04  0.22778368851E+04  0.25500000920E-02 0.  1.
       -2   -1    0    0    0  501  0.00000000000E+00  0.00000000000E+00 -0.87406378045E+03  0.87406378046E+03  0.25500000920E-02 0. -1.
    10030    2    1    2    0    0  0.00000000000E+00  0.00000000000E+00  0.14037731047E+04  0.31519006656E+04  0.28220380714E+04 0.  0.
        5    1    3    3  502    0  0.10673069706E+04 -0.39638900400E+03  0.16327872795E+04  0.19905488695E+04  0.46999998093E+01 0.  1.
       -5    1    3    3    0  502 -0.10673069706E+04  0.39638900400E+03 -0.22901417482E+03  0.11613517961E+04  0.46999998093E+01 0. -1.
</event>
<event>
 5   0  0.9426937E-06  0.2258689E+04  0.7818609E-02  0.8494390E-01
       -2   -1    0    0    0  501  0.00000000000E+00  0.00000000000E+00  0.96852101871E+03  0.96852101871E+03  0.25500000920E-02 0.  1.
        2   -1    0    0  501    0  0.00000000000E+00  0.00000000000E+00 -0.13168730386E+04  0.13168730386E+04  0.25500000920E-02 0. -1.
    10030    2    1    2    0    0  0.00000000000E+00  0.00000000000E+00 -0.34835201993E+03  0.22853940574E+04  0.22586891923E+04 0.  0.
        4    1    3    3  502    0 -0.20895838593E+03  0.11090149311E+04 -0.13077505127E+03  0.11360816218E+04  0.12699999809E+01 0. -1.
       -4    1    3    3    0  502  0.20895838593E+03 -0.11090149311E+04 -0.21757696866E+03  0.11493124356E+04  0.12699999809E+01 0.  1.
</event>
<event>
 5   0  0.9065579E-06  0.2808469E+04  0.7818609E-02  0.8300644E-01
       -2   -1    0    0    0  501  0.00000000000E+00  0.00000000000E+00  0.12746813494E+04  0.12746813494E+04  0.25500000920E-02 0.  1.
        2   -1    0    0  501    0  0.00000000000E+00  0.00000000000E+00 -0.15469543291E+04  0.15469543291E+04  0.25500000920E-02 0. -1.
    10030    2    1    2    0    0  0.00000000000E+00  0.00000000000E+00 -0.27227297973E+03  0.28216356785E+04  0.28084685020E+04 0.  0.
        3    1    3    3  502    0  0.16374888805E+03 -0.11634304669E+04 -0.90882590605E+03  0.14853782977E+04  0.10100000352E+00 0. -1.
       -3    1    3    3    0  502 -0.16374888805E+03  0.11634304669E+04  0.63655292632E+03  0.13362573808E+04  0.10100000352E+00 0.  1.
</event>
<event>
 5   0  0.9252359E-06  0.2805961E+04  0.7818609E-02  0.8301420E-01
        2   -1    0    0  501    0  0.00000000000E+00  0.00000000000E+00  0.28599423362E+04  0.28599423362E+04  0.25500000920E-02 0. -1.
       -2   -1    0    0    0  501  0.00000000000E+00  0.00000000000E+00 -0.68824985160E+03  0.68824985160E+03  0.25500000920E-02 0.  1.
    10030    2    1    2    0    0  0.00000000000E+00  0.00000000000E+00  0.21716924846E+04  0.35481921878E+04  0.28059614313E+04 0.  0.
        5    1    3    3  502    0 -0.59215570563E+03 -0.12265126826E+04  0.15115801366E+04  0.20346690984E+04  0.46999998093E+01 0. -1.
       -5    1    3    3    0  502  0.59215570563E+03  0.12265126826E+04  0.66011234797E+03  0.15135230894E+04  0.46999998093E+01 0.  1.
</event>
<event>
 5   0  0.9426937E-06  0.2792384E+04  0.7818609E-02  0.8305637E-01
        2   -1    0    0  501    0  0.00000000000E+00  0.00000000000E+00  0.16248308263E+04  0.16248308263E+04  0.25500000920E-02 0.  1.
       -2   -1    0    0    0  501  0.00000000000E+00  0.00000000000E+00 -0.11997258633E+04  0.11997258633E+04  0.25500000920E-02 0. -1.
    10030    2    1    2    0    0  0.00000000000E+00  0.00000000000E+00  0.42510496298E+03  0.28245566896E+04  0.27923836168E+04 0.  0.
        4    1    3    3  502    0  0.56183063252E+03  0.12249621136E+04 -0.15656857105E+03  0.13567244266E+04  0.12699999809E+01 0. -1.
       -4    1    3    3    0  502 -0.56183063252E+03 -0.12249621136E+04  0.58167353403E+03  0.14678322630E+04  0.12699999809E+01 0.  1.
</event>
<event>
 5   0  0.9065579E-06  0.2793518E+04  0.7818609E-02  0.8305284E-01
        2   -1    0    0  501    0  0.00000000000E+00  0.00000000000E+00  0.16817492895E+04  0.16817492895E+04  0.25500000920E-02 0.  1.
       -2   -1    0    0    0  501  0.00000000000E+00  0.00000000000E+00 -0.11600635160E+04  0.11600635161E+04  0.25500000920E-02 0. -1.
    10030    2    1    2    0    0  0.00000000000E+00  0.00000000000E+00  0.52168577345E+03  0.28418128055E+04  0.27935182075E+04 0.  0.
        3    1    3    3  502    0 -0.73033083632E+03 -0.10930886750E+04 -0.21923734273E+03  0.13327756767E+04  0.10100000352E+00 0. -1.
       -3    1    3    3    0  502  0.73033083632E+03  0.10930886750E+04  0.74092311618E+03  0.15090371288E+04  0.10100000352E+00 0.  1.
</event>
<event>
 5   0  0.3600963E-06  0.2794991E+04  0.7818609E-02  0.8304825E-01
        1   -1    0    0  501    0  0.00000000000E+00  0.00000000000E+00  0.17864294560E+04  0.17864294560E+04  0.50400001928E-02 0. -1.
       -1   -1    0    0    0  501  0.00000000000E+00  0.00000000000E+00 -0.10932385316E+04  0.10932385316E+04  0.50400001928E-02 0.  1.
    10030    2    1    2    0    0  0.00000000000E+00  0.00000000000E+00  0.69319092438E+03  0.28796679877E+04  0.27949908875E+04 0.  0.
        5    1    3    3  502    0 -0.11624444772E+04 -0.55869672160E+03 -0.20780742557E+03  0.13063786608E+04  0.46999998093E+01 0.  1.
       -5    1    3    3    0  502  0.11624444772E+04  0.55869672160E+03  0.90099834995E+03  0.15732893268E+04  0.46999998093E+01 0. -1.
</event>
<event>
 5   0  0.9260173E-06  0.2825415E+04  0.7818609E-02  0.8295421E-01
        2   -1    0    0  501    0  0.00000000000E+00  0.00000000000E+00  0.21076699197E+04  0.21076699197E+04  0.25500000920E-02 0.  1.
       -2   -1    0    0    0  501  0.00000000000E+00  0.00000000000E+00 -0.94689531714E+03  0.94689531715E+03  0.25500000920E-02 0. -1.
    10030    2    1    2    0    0  0.00000000000E+00  0.00000000000E+00  0.11607746026E+04  0.30545652369E+04  0.28254152099E+04 0.  0.
        1    1    3    3  502    0  0.28289770751E+03  0.11464334433E+03  0.20715920736E+04  0.20939598680E+04  0.50400001928E-02 0.  1.
       -1    1    3    3    0  502 -0.28289770751E+03 -0.11464334433E+03 -0.91081747099E+03  0.96060536892E+03  0.50400001928E-02 0. -1.
</event>
<event>
 5   0  0.3438130E-06  0.2797405E+04  0.7818609E-02  0.8304074E-01
       -1   -1    0    0    0  501  0.00000000000E+00  0.00000000000E+00  0.94126298295E+03  0.94126298296E+03  0.50400001928E-02 0. -1.
        1   -1    0    0  501    0  0.00000000000E+00  0.00000000000E+00 -0.20784511571E+04  0.20784511571E+04  0.50400001928E-02 0.  1.
    10030    2    1    2    0    0  0.00000000000E+00  0.00000000000E+00 -0.11371881741E+04  0.30197141401E+04  0.27974053236E+04 0.  0.
        3    1    3    3  502    0 -0.10488980914E+04  0.78713743339E+03 -0.43527155547E+02  0.13121231530E+04  0.10100000352E+00 0. -1.
       -3    1    3    3    0  502  0.10488980914E+04 -0.78713743339E+03 -0.10936610186E+04  0.17075909870E+04  0.10100000352E+00 0.  1.
</event>
<event>
 5   0  0.9426937E-06  0.2809186E+04  0.7818609E-02  0.8300422E-01
        2   -1    0    0  501    0  0.00000000000E+00  0.00000000000E+00  0.21400005256E+04  0.21400005256E+04  0.25500000920E-02 0.  1.
       -2   -1    0    0    0  501  0.00000000000E+00  0.00000000000E+00 -0.92190675968E+03  0.92190675969E+03  0.25500000920E-02 0. -1.
    10030    2    1    2    0    0  0.00000000000E+00  0.00000000000E+00  0.12180937659E+04  0.30619072853E+04  0.28091856117E+04 0.  0.
        4    1    3    3  502    0 -0.77133036242E+02 -0.73989466156E+03  0.19076520153E+04  0.20475672004E+04  0.12699999809E+01 0.  1.
       -4    1    3    3    0  502  0.77133036242E+02  0.73989466156E+03 -0.68955824947E+03  0.10143400849E+04  0.12699999809E+01 0. -1.
</event>
<event>
 5   0  0.9260173E-06  0.2821470E+04  0.7818609E-02  0.8296634E-01
        2   -1    0    0  501    0  0.00000000000E+00  0.00000000000E+00  0.23844186325E+04  0.23844186325E+04  0.25500000920E-02 0. -1.
       -2   -1    0    0    0  501  0.00000000000E+00  0.00000000000E+00 -0.83465745203E+03  0.83465745203E+03  0.25500000920E-02 0.  1.
    10030    2    1    2    0    0  0.00000000000E+00  0.00000000000E+00  0.15497611804E+04  0.32190760845E+04  0.28214696740E+04 0.  0.
        1    1    3    3  502    0 -0.81582800857E+03 -0.81963452813E+03 -0.14693664471E+03  0.11657471754E+04  0.50400001928E-02 0.  1.
       -1    1    3    3    0  502  0.81582800857E+03  0.81963452813E+03  0.16966978252E+04  0.20533289092E+04  0.50400001928E-02 0. -1.
</event>
<event>
 5   0  0.9426937E-06  0.2841393E+04  0.7818609E-02  0.8290532E-01
       -2   -1    0    0    0  501  0.00000000000E+00  0.00000000000E+00  0.10135068539E+04  0.10135068539E+04  0.25500000920E-02 0. -1.
        2   -1    0    0  501    0  0.00000000000E+00  0.00000000000E+00 -0.19914795185E+04  0.19914795185E+04  0.25500000920E-02 0.  1.
    10030    2    1    2    0    0  0.00000000000E+00  0.00000000000E+00 -0.97797266463E+03  0.30049863724E+04  0.28413927158E+04 0.  0.
        4    1    3    3  502    0 -0.12977770621E+04  0.68131393019E+02 -0.10960651896E+04  0.17000669699E+04  0.12699999809E+01 0.  1.
       -4    1    3    3    0  502  0.12977770621E+04 -0.68131393019E+02  0.11809252493E+03  0.13049194025E+04  0.12699999809E+01 0. -1.
</event>
<event>
 5   0  0.9260173E-06  0.2816866E+04  0.7818609E-02  0.8298051E-01
       -2   -1    0    0    0  501  0.00000000000E+00  0.00000000000E+00  0.10545273846E+04  0.10545273846E+04  0.25500000920E-02 0.  1.
        2   -1    0    0  501    0  0.00000000000E+00  0.00000000000E+00 -0.18811118585E+04  0.18811118585E+04  0.25500000920E-02 0. -1.
    10030    2    1    2    0    0  0.00000000000E+00  0.00000000000E+00 -0.82658447389E+03  0.29356392432E+04  0.28168663216E+04 0.  0.
        1    1    3    3  502    0 -0.99308202267E+03  0.97718212248E+03 -0.62836024266E+03  0.15283760659E+04  0.50400001928E-02 0. -1.
       -1    1    3    3    0  502  0.99308202267E+03 -0.97718212248E+03 -0.19822423123E+03  0.14072631773E+04  0.50400001928E-02 0.  1.
</event>
<event>
 5   0  0.3357244E-06  0.2858652E+04  0.7818609E-02  0.8285287E-01
        1   -1    0    0  501    0  0.00000000000E+00  0.00000000000E+00  0.10370701801E+04  0.10370701801E+04  0.50400001928E-02 0. -1.
       -1   -1    0    0    0  501  0.00000000000E+00  0.00000000000E+00 -0.19699471738E+04  0.19699471738E+04  0.50400001928E-02 0.  1.
    10030    2    1    2    0    0  0.00000000000E+00  0.00000000000E+00 -0.93287699377E+03  0.30070173539E+04  0.28586524590E+04 0.  0.
        4    1    3    3  502    0 -0.15700453727E+03 -0.67905874054E+03 -0.17790822159E+04  0.19107345032E+04  0.12699999809E+01 0.  1.
       -4    1    3    3    0  502  0.15700453727E+03  0.67905874054E+03  0.84620522217E+03  0.10962828507E+04  0.12699999809E+01 0. -1.
</event>
<event>
 5   0  0.3600963E-06  0.2795196E+04  0.7818609E-02  0.8304761E-01
       -1   -1    0    0    0  501  0.00000000000E+00  0.00000000000E+00  0.14325891370E+04  0.14325891371E+04  0.50400001928E-02 0.  1.
        1   -1    0    0  501    0  0.00000000000E+00  0.00000000000E+00 -0.13634617797E+04  0.13634617797E+04  0.50400001928E-02 0. -1.
    10030    2    1    2    0    0  0.00000000000E+00  0.00000000000E+00  0.69127357323E+02  0.27960509168E+04  0.27951962610E+04 0.  0.
        5    1    3    3  502    0  0.11875077532E+02  0.13971318200E+04  0.68339438228E+02  0.13988605036E+04  0.46999998093E+01 0. -1.
       -5    1    3    3    0  502 -0.11875077532E+02 -0.13971318200E+04  0.78791909533E+00  0.13971904132E+04  0.46999998093E+01 0.  1.
</event>
<event>
 5   0  0.9426937E-06  0.2808732E+04  0.7818609E-02  0.8300563E-01
        2   -1    0    0  501    0  0.00000000000E+00  0.00000000000E+00  0.15861300869E+04  0.15861300869E+04  0.25500000920E-02 0. -1.
       -2   -1    0    0    0  501  0.00000000000E+00  0.00000000000E+00 -0.12434310281E+04  0.12434310281E+04  0.25500000920E-02 0.  1.
    10030    2    1    2    0    0  0.00000000000E+00  0.00000000000E+00  0.34269905886E+03  0.28295611150E+04  0.28087316459E+04 0.  0.
        4    1    3    3  502    0 -0.10257804705E+04 -0.80073274526E+03  0.70332168125E+03  0.14792097564E+04  0.12699999809E+01 0. -1.
       -4    1    3    3    0  502  0.10257804705E+04  0.80073274526E+03 -0.36062262239E+03  0.13503513586E+04  0.12699999809E+01 0.  1.
</event>
<event>
 5   0  0.9065579E-06  0.2943272E+04  0.7818609E-02  0.8260118E-01
        2   -1    0    0  501    0  0.00000000000E+00  0.00000000000E+00  0.16433248400E+04  0.16433248400E+04  0.25500000920E-02 0.  1.
       -2   -1    0    0    0  501  0.00000000000E+00  0.00000000000E+00 -0.13178846252E+04  0.13178846252E+04  0.25500000920E-02 0. -1.
    10030    2    1    2    0    0  0.00000000000E+00  0.00000000000E+00  0.32544021482E+03  0.29612094652E+04  0.29432720165E+04 0.  0.
        3    1    3    3  502    0 -0.45489640126E+02  0.14664873754E+04  0.27768813463E+03  0.14932398467E+04  0.10100000352E+00 0.  1.
       -3    1    3    3    0  502  0.45489640126E+02 -0.14664873754E+04  0.47752080198E+02  0.14679696185E+04  0.10100000352E+00 0. -1.
</event>
<event>
 5   0  0.9426937E-06  0.2650950E+04  0.7818609E-02  0.8351098E-01
       -2   -1    0    0    0  501  0.00000000000E+00  0.00000000000E+00  0.11076980308E+04  0.11076980308E+04  0.25500000920E-02 0. -1.
        2   -1    0    0  501    0  0.00000000000E+00  0.00000000000E+00 -0.15860673197E+04  0.15860673197E+04  0.25500000920E-02 0.  1.
    10030    2    1    2    0    0  0.00000000000E+00  0.00000000000E+00 -0.47836928892E+03  0.26937653505E+04  0.26509497519E+04 0.  0.
        4    1    3    3  502    0  0.46043667072E+01  0.74708407046E+03 -0.13517313957E+04  0.15444530383E+04  0.12699999809E+01 0.  1.
       -4    1    3    3    0  502 -0.46043667072E+01 -0.74708407046E+03  0.87336210680E+03  0.11493123122E+04  0.12699999809E+01 0. -1.
</event>
<event>
 5   0  0.9252359E-06  0.2847095E+04  0.7818609E-02  0.8288795E-01
        2   -1    0    0  501    0  0.00000000000E+00  0.00000000000E+00  0.22107472646E+04  0.22107472646E+04  0.25500000920E-02 0.  1.
       -2   -1    0    0    0  501  0.00000000000E+00  0.00000000000E+00 -0.91665285521E+03  0.91665285521E+03  0.25500000920E-02 0. -1.
    10030    2    1    2    0    0  0.00000000000E+00  0.00000000000E+00  0.12940944094E+04  0.31274001198E+04  0.28470952160E+04 0.  0.
        5    1    3    3  502    0 -0.43869501344E+03 -0.13384640751E+04  0.87356915544E+03  0.16574331222E+04  0.46999998093E+01 0.  1.
       -5    1    3    3    0  502  0.43869501344E+03  0.13384640751E+04  0.42052525399E+03  0.14699669977E+04  0.46999998093E+01 0. -1.
</event>
<event>
 5   0  0.9342133E-06  0.2773130E+04  0.7818609E-02  0.8311659E-01
       -2   -1    0    0    0  501  0.00000000000E+00  0.00000000000E+00  0.18005464655E+04  0.18005464655E+04  0.25500000920E-02 0.  1.
        2   -1    0    0  501    0  0.00000000000E+00  0.00000000000E+00 -0.10677664052E+04  0.10677664052E+04  0.25500000920E-02 0. -1.
    10030    2    1    2    0    0  0.00000000000E+00  0.00000000000E+00  0.73278006027E+03  0.28683128707E+04  0.27731303805E+04 0.  0.
        2    1    3    3  502    0 -0.33961067121E+03 -0.48385942043E+03  0.16636752157E+04  0.17655793865E+04  0.25500000920E-02 0.  1.
       -2    1    3    3    0  502  0.33961067121E+03  0.48385942043E+03 -0.93089515543E+03  0.11027334842E+04  0.25500000920E-02 0. -1.
</event>
<event>
 5   0  0.3438130E-06  0.2845908E+04  0.7818609E-02  0.8289156E-01
        1   -1    0    0  501    0  0.00000000000E+00  0.00000000000E+00  0.18336585219E+04  0.18336585219E+04  0.50400001928E-02 0. -1.
       -1   -1    0    0    0  501  0.00000000000E+00  0.00000000000E+00 -0.11042398228E+04  0.11042398228E+04  0.50400001928E-02 0.  1.
    10030    2    1    2    0    0  0.00000000000E+00  0.00000000000E+00  0.72941869910E+03  0.29378983446E+04  0.28459084744E+04 0.  0.
        3    1    3    3  502    0 -0.79314076084E+03 -0.86880402941E+03  0.11911525652E+04  0.16741377338E+04  0.10100000352E+00 0. -1.
       -3    1    3    3    0  502  0.79314076084E+03  0.86880402941E+03 -0.46173386613E+03  0.12637606108E+04  0.10100000352E+00 0.  1.
</event>
<event>
 5   0  0.9260173E-06  0.2789134E+04  0.7818609E-02  0.8306650E-01
        2   -1    0    0  501    0  0.00000000000E+00  0.00000000000E+00  0.14763587032E+04  0.14763587032E+04  0.25500000920E-02 0. -1.
       -2   -1    0    0    0  501  0.00000000000E+00  0.00000000000E+00 -0.13173069520E+04  0.13173069520E+04  0.25500000920E-02 0.  1.
    10030    2    1    2    0    0  0.00000000000E+00  0.00000000000E+00  0.15905175121E+03  0.27936656551E+04  0.27891343340E+04 0.  0.
        1    1    3    3  502    0  0.92504072605E+03  0.60171084064E+03  0.93359006406E+03  0.14454572593E+04  0.50400001928E-02 0. -1.
       -1    1    3    3    0  502 -0.92504072605E+03 -0.60171084064E+03 -0.77453831285E+03  0.13482083959E+04  0.50400001928E-02 0.  1.
</event>
<event>
 5   0  0.3357244E-06  0.2781341E+04  0.7818609E-02  0.8309085E-01
       -1   -1    0    0    0  501  0.00000000000E+00  0.00000000000E+00  0.20903817798E+04  0.20903817798E+04  0.50400001928E-02 0.  1.
        1   -1    0    0  501    0  0.00000000000E+00  0.00000000000E+00 -0.92517292899E+03  0.92517292901E+03  0.50400001928E-02 0. -1.
    10030    2    1    2    0    0  0.00000000000E+00  0.00000000000E+00  0.11652088508E+04  0.30155547088E+04  0.27813411398E+04 0.  0.
        4    1    3    3  502    0  0.61815068485E+03 -0.10874240084E+04  0.12415338906E+04  0.17623873745E+04  0.12699999809E+01 0.  1.
       -4    1    3    3    0  502 -0.61815068485E+03  0.10874240084E+04 -0.76325039831E+02  0.12531673343E+04  0.12699999809E+01 0. -1.
</event>
<event>
 5   0  0.3357244E-06  0.2777221E+04  0.7818609E-02  0.8310375E-01
       -1   -1    0    0    0  501  0.00000000000E+00  0.00000000000E+00  0.12927770605E+04  0.12927770605E+04  0.50400001928E-02 0. -1.
        1   -1    0    0  501    0  0.00000000000E+00  0.00000000000E+00 -0.14915478653E+04  0.14915478653E+04  0.50400001928E-02 0.  1.
    10030    2    1    2    0    0  0.00000000000E+00  0.00000000000E+00 -0.19877080482E+03  0.27843249258E+04  0.27772208158E+04 0.  0.
        4    1    3    3  502    0  0.63185491378E+02 -0.84474893622E+03 -0.12024926679E+04  0.14709124382E+04  0.12699999809E+01 0.  1.
       -4    1    3    3    0  502 -0.63185491378E+02  0.84474893622E+03  0.10037218630E+04  0.13134124877E+04  0.12699999809E+01 0. -1.
</event>
<event>
 5   0  0.9065579E-06  0.2813074E+04  0.7818609E-02  0.8299221E-01
       -2   -1    0    0    0  501  0.00000000000E+00  0.00000000000E+00  0.93011436737E+03  0.93011436737E+03  0.25500000920E-02 0.  1.
        2   -1    0    0  501    0  0.00000000000E+00  0.00000000000E+00 -0.21269930492E+04  0.21269930492E+04  0.25500000920E-02 0. -1.
    10030    2    1    2    0    0  0.00000000000E+00  0.00000000000E+00 -0.11968786818E+04  0.30571074166E+04  0.28130743285E+04 0.  0.
        3    1    3    3  502    0  0.73548480514E+03 -0.21977155515E+03  0.68240899483E+03  0.10270927327E+04  0.10100000352E+00 0.  1.
       -3    1    3    3    0  502 -0.73548480514E+03  0.21977155515E+03 -0.18792876767E+04  0.20300146839E+04  0.10100000352E+00 0. -1.
</event>
<event>
 5   0  0.9252359E-06  0.2804740E+04  0.7818609E-02  0.8301798E-01
       -2   -1    0    0    0  501  0.00000000000E+00  0.00000000000E+00  0.11179791069E+04  0.11179791069E+04  0.25500000920E-02 0. -1.
        2   -1    0    0  501    0  0.00000000000E+00  0.00000000000E+00 -0.17591039594E+04  0.17591039594E+04  0.25500000920E-02 0.  1.
    10030    2    1    2    0    0  0.00000000000E+00  0.00000000000E+00 -0.64112485255E+03  0.28770830663E+04  0.28047398977E+04 0.  0.
        5    1    3    3  502    0 -0.25644554502E+03  0.15824492138E+03 -0.17254923085E+04  0.17516139898E+04  0.46999998093E+01 0.  1.
       -5    1    3    3    0  502  0.25644554502E+03 -0.15824492138E+03  0.10843674559E+04  0.11254690765E+04  0.46999998093E+01 0. -1.
</event>
<event>
 5   0  0.9252359E-06  0.2813587E+04  0.7818609E-02  0.8299063E-01
        2   -1    0    0  501    0  0.00000000000E+00  0.00000000000E+00  0.14810703222E+04  0.14810703222E+04  0.25500000920E-02 0. -1.
       -2   -1    0    0    0  501  0.00000000000E+00  0.00000000000E+00 -0.13362413170E+04  0.13362413170E+04  0.25500000920E-02 0.  1.
    10030    2    1    2    0    0  0.00000000000E+00  0.00000000000E+00  0.14482900525E+03  0.28173116392E+04  0.28135865779E+04 0.  0.
        5    1    3    3  502    0  0.69713474158E+03  0.48713538743E+03  0.11944995445E+04  0.14663386326E+04  0.46999998093E+01 0. -1.
       -5    1    3    3    0  502 -0.69713474158E+03 -0.48713538743E+03 -0.10496705393E+04  0.13509730066E+04  0.46999998093E+01 0.  1.
</event>
<event>
 5   0  0.9260173E-06  0.2778763E+04  0.7818609E-02  0.8309892E-01
       -2   -1    0    0    0  501  0.00000000000E+00  0.00000000000E+00  0.64194023147E+03  0.64194023147E+03  0.25500000920E-02 0.  1.
        2   -1    0    0  501    0  0.00000000000E+00  0.00000000000E+00 -0.30071038572E+04  0.30071038572E+04  0.25500000920E-02 0. -1.
    10030    2    1    2    0    0  0.00000000000E+00  0.00000000000E+00 -0.23651636257E+04  0.36490440886E+04  0.27787629954E+04 0.  0.
        1    1    3    3  502    0  0.77180086267E+02 -0.37024672234E+03  0.57304166091E+03  0.68659751404E+03  0.50400001928E-02 0.  1.
       -1    1    3    3    0  502 -0.77180086267E+02  0.37024672234E+03 -0.29382052866E+04  0.29624465746E+04  0.50400001928E-02 0. -1.
</event>
<event>
 5   0  0.3371603E-06  0.2410395E+04  0.7818609E-02  0.8435622E-01
       -1   -1    0    0    0  501  0.00000000000E+00  0.00000000000E+00  0.10415232988E+04  0.10415232988E+04  0.50400001928E-02 0.  1.
        1   -1    0    0  501    0  0.00000000000E+00  0.00000000000E+00 -0.13945930889E+04  0.13945930890E+04  0.50400001928E-02 0. -1.
    10030    2    1    2    0    0  0.00000000000E+00  0.00000000000E+00 -0.35306979013E+03  0.24361163878E+04  0.24103951498E+04 0.  0.
        1    1    3    3  502    0 -0.98270391730E+02 -0.42749028661E+03  0.95798374555E+03  0.10536308043E+04  0.50400001928E-02 0.  1.
       -1    1    3    3    0  502  0.98270391730E+02  0.42749028661E+03 -0.13110535357E+04  0.13824855835E+04  0.50400001928E-02 0. -1.
</event>
<event>
 5   0  0.3006875E-06  0.2799163E+04  0.7818609E-02  0.8303528E-01
        3   -1    0    0  501    0  0.00000000000E+00  0.00000000000E+00  0.20488849926E+04  0.20488849951E+04  0.10100000352E+00 0.  1.
       -3   -1    0    0    0  501  0.00000000000E+00  0.00000000000E+00 -0.95604592958E+03  0.95604593491E+03  0.10100000352E+00 0. -1.
    10030    2    1    2    0    0  0.00000000000E+00  0.00000000000E+00  0.10928390631E+04  0.30049309300E+04  0.27991628528E+04 0.  0.
        1    1    3    3  502    0  0.13411865352E+04 -0.17555940536E+03  0.93232492248E+03  0.16428122802E+04  0.50400001928E-02 0.  1.
       -1    1    3    3    0  502 -0.13411865352E+04  0.17555940536E+03  0.16051414059E+03  0.13621186498E+04  0.50400001928E-02 0. -1.
</event>
<event>
 5   0  0.9252359E-06  0.2785372E+04  0.7818609E-02  0.8307824E-01
       -2   -1    0    0    0  501  0.00000000000E+00  0.00000000000E+00  0.64177392158E+03  0.64177392159E+03  0.25500000920E-02 0. -1.
        2   -1    0    0  501    0  0.00000000000E+00  0.00000000000E+00 -0.30222069427E+04  0.30222069427E+04  0.25500000920E-02 0.  1.
    10030    2    1    2    0    0  0.00000000000E+00  0.00000000000E+00 -0.23804330211E+04  0.36639808643E+04  0.27853715023E+04 0.  0.
        5    1    3    3  502    0  0.10468287876E+04  0.44242767703E+03 -0.13134381677E+03  0.11440568378E+04  0.46999998093E+01 0. -1.
       -5    1    3    3    0  502 -0.10468287876E+04 -0.44242767703E+03 -0.22490892043E+04  0.25199240264E+04  0.46999998093E+01 0.  1.
</event>
<event>
 5   0  0.9342133E-06  0.2794435E+04  0.7818609E-02  0.8304998E-01
       -2   -1    0    0    0  501  0.00000000000E+00  0.00000000000E+00  0.10759603949E+04  0.10759603949E+04  0.25500000920E-02 0. -1.
        2   -1    0    0  501    0  0.00000000000E+00  0.00000000000E+00 -0.18143942619E+04  0.18143942619E+04  0.25500000920E-02 0.  1.
    10030    2    1    2    0    0  0.00000000000E+00  0.00000000000E+00 -0.73843386697E+03  0.28903546568E+04  0.27944347311E+04 0.  0.
        2    1    3    3  502    0 -0.25525479779E+03 -0.54288204614E+03  0.93597724304E+03  0.11117235840E+04  0.25500000920E-02 0. -1.
       -2    1    3    3    0  502  0.25525479779E+03  0.54288204614E+03 -0.16744111100E+04  0.17786310728E+04  0.25500000920E-02 0.  1.
</event>
<event>
 5   0  0.9065579E-06  0.2812971E+04  0.7818609E-02  0.8299253E-01
        2   -1    0    0  501    0  0.00000000000E+00  0.00000000000E+00  0.17737066576E+04  0.17737066576E+04  0.25500000920E-02 0. -1.
       -2   -1    0    0    0  501  0.00000000000E+00  0.00000000000E+00 -0.11152920054E+04  0.11152920054E+04  0.25500000920E-02 0.  1.
    10030    2    1    2    0    0  0.00000000000E+00  0.00000000000E+00  0.65841465224E+03  0.28889986630E+04  0.28129705687E+04 0.  0.
        3    1    3    3  502    0  0.25528067001E+02 -0.64821747605E+03 -0.95246532114E+03  0.11524008750E+04  0.10100000352E+00 0.  1.
       -3    1    3    3    0  502 -0.25528067001E+02  0.64821747605E+03  0.16108799734E+04  0.17365977880E+04  0.10100000352E+00 0. -1.
</event>
<event>
 5   0  0.3371603E-06  0.2862462E+04  0.7818609E-02  0.8284134E-01
       -1   -1    0    0    0  501  0.00000000000E+00  0.00000000000E+00  0.21528902679E+04  0.21528902679E+04  0.50400001928E-02 0.  1.
        1   -1    0    0  501    0  0.00000000000E+00  0.00000000000E+00 -0.95147564078E+03  0.95147564080E+03  0.50400001928E-02 0. -1.
    10030    2    1    2    0    0  0.00000000000E+00  0.00000000000E+00  0.12014146271E+04  0.31043659087E+04  0.28624623297E+04 0.  0.
        1    1    3    3  502    0 -0.28069492030E+03  0.13866430716E+04  0.36595684585E+03  0.14613326313E+04  0.50400001928E-02 0. -1.
       -1    1    3    3    0  502  0.28069492030E+03 -0.13866430716E+04  0.83545778124E+03  0.16430332774E+04  0.50400001928E-02 0.  1.
</event>
<event>
 5   0  0.9065579E-06  0.2755428E+04  0.7818609E-02  0.8317241E-01
        2   -1    0    0  501    0  0.00000000000E+00  0.00000000000E+00  0.21056742061E+04  0.21056742061E+04  0.25500000920E-02 0. -1.
       -2   -1    0    0    0  501  0.00000000000E+00  0.00000000000E+00 -0.90141975916E+03  0.90141975917E+03  0.25500000920E-02 0.  1.
    10030    2    1    2    0    0  0.00000000000E+00  0.00000000000E+00  0.12042544470E+04  0.30070939653E+04  0.27554283411E+04 0.  0.
        3    1    3    3  502    0 -0.93812918412E+03 -0.90481527356E+03  0.11489889282E+03  0.13084260817E+04  0.10100000352E+00 0.  1.
       -3    1    3    3    0  502  0.93812918412E+03  0.90481527356E+03  0.10893555542E+04  0.16986678836E+04  0.10100000352E+00 0. -1.
</event>
<event>
 5   0  0.3006875E-06  0.2778852E+04  0.7818609E-02  0.8309864E-01
       -4   -1    0    0    0  501  0.00000000000E+00  0.00000000000E+00  0.93203505891E+03  0.93203592417E+03  0.12699999809E+01 0.  1.
        4   -1    0    0  501    0  0.00000000000E+00  0.00000000000E+00 -0.20712774209E+04  0.20712778102E+04  0.12699999809E+01 0. -1.
    10030    2    1    2    0    0  0.00000000000E+00  0.00000000000E+00 -0.11392423620E+04  0.30033137344E+04  0.27788523221E+04 0.  0.
        1    1    3    3  502    0  0.20602849117E+03  0.34989629171E+03 -0.20057224713E+04  0.20464109524E+04  0.50400001928E-02 0. -1.
       -1    1    3    3    0  502 -0.20602849117E+03 -0.34989629171E+03  0.86648010939E+03  0.95690278196E+03  0.50400001928E-02 0.  1.
</event>
<event>
 5   0  0.3371603E-06  0.2800332E+04  0.7818609E-02  0.8303165E-01
       -1   -1    0    0    0  501  0.00000000000E+00  0.00000000000E+00  0.11841321850E+04  0.11841321851E+04  0.50400001928E-02 0. -1.
        1   -1    0    0  501    0  0.00000000000E+00  0.00000000000E+00 -0.16556125704E+04  0.16556125704E+04  0.50400001928E-02 0.  1.
    10030    2    1    2    0    0  0.00000000000E+00  0.00000000000E+00 -0.47148038531E+03  0.28397447554E+04  0.28003315022E+04 0.  0.
        1    1    3    3  502    0 -0.10448129764E+04 -0.61664412222E+02  0.70741858528E+03  0.12632805350E+04  0.50400001928E-02 0. -1.
       -1    1    3    3    0  502  0.10448129764E+04  0.61664412222E+02 -0.11788989706E+04  0.15764642204E+04  0.50400001928E-02 0.  1.
</event>
<event>
 5   0  0.3397882E-06  0.2829175E+04  0.7818609E-02  0.8294267E-01
        1   -1    0    0  501    0  0.00000000000E+00  0.00000000000E+00  0.15419168327E+04  0.15419168328E+04  0.50400001928E-02 0.  1.
       -1   -1    0    0    0  501  0.00000000000E+00  0.00000000000E+00 -0.12977730315E+04  0.12977730315E+04  0.50400001928E-02 0. -1.
    10030    2    1    2    0    0  0.00000000000E+00  0.00000000000E+00  0.24414380129E+03  0.28396898642E+04  0.28291752030E+04 0.  0.
        2    1    3    3  502    0  0.63633014944E+03  0.20091449365E+03  0.13740147874E+04  0.15274813678E+04  0.25500000920E-02 0.  1.
       -2    1    3    3    0  502 -0.63633014944E+03 -0.20091449365E+03 -0.11298709861E+04  0.13122084964E+04  0.25500000920E-02 0. -1.
</event>
<event>
 5   0  0.9426937E-06  0.2788801E+04  0.7818609E-02  0.8306754E-01
       -2   -1    0    0    0  501  0.00000000000E+00  0.00000000000E+00  0.72406110660E+03  0.72406110661E+03  0.25500000920E-02 0.  1.
        2   -1    0    0  501    0  0.00000000000E+00  0.00000000000E+00 -0.26853442063E+04  0.26853442063E+04  0.25500000920E-02 0. -1.
    10030    2    1    2    0    0  0.00000000000E+00  0.00000000000E+00 -0.19612830997E+04  0.34094053129E+04  0.27888013896E+04 0.  0.
        4    1    3    3  502    0 -0.81147412046E+02 -0.10826543366E+04  0.89076906374E+02  0.10893399943E+04  0.12699999809E+01 0.  1.
       -4    1    3    3    0  502  0.81147412046E+02  0.10826543366E+04 -0.20503600061E+04  0.23200653186E+04  0.12699999809E+01 0. -1.
</event>
<event>
 5   0  0.9426937E-06  0.2792073E+04  0.7818609E-02  0.8305734E-01
        2   -1    0    0  501    0  0.00000000000E+00  0.00000000000E+00  0.11792762522E+04  0.11792762522E+04  0.25500000920E-02 0.  1.
       -2   -1    0    0    0  501  0.00000000000E+00  0.00000000000E+00 -0.16526388549E+04  0.16526388549E+04  0.25500000920E-02 0. -1.
    10030    2    1    2    0    0  0.00000000000E+00  0.00000000000E+00 -0.47336260270E+03  0.28319151071E+04  0.27920728895E+04 0.  0.
        4    1    3    3  502    0  0.98078441410E+03  0.68731363359E+02 -0.12419112018E+04  0.15839845685E+04  0.12699999809E+01 0. -1.
       -4    1    3    3    0  502 -0.98078441410E+03 -0.68731363359E+02  0.76854859906E+03  0.12479305386E+04  0.12699999809E+01 0.  1.
</event>
<event>
 5   0  0.9342133E-06  0.2777711E+04  0.7818609E-02  0.8310222E-01
       -2   -1    0    0    0  501  0.00000000000E+00  0.00000000000E+00  0.68323841031E+03  0.68323841031E+03  0.25500000920E-02 0. -1.
        2   -1    0    0  501    0  0.00000000000E+00  0.00000000000E+00 -0.28232007475E+04  0.28232007475E+04  0.25500000920E-02 0.  1.
    10030    2    1    2    0    0  0.00000000000E+00  0.00000000000E+00 -0.21399623372E+04  0.35064391579E+04  0.27777107054E+04 0.  0.
        2    1    3    3  502    0 -0.99119745056E+03 -0.37683616609E+03  0.62227503255E+02  0.10622382709E+04  0.25500000920E-02 0. -1.
       -2    1    3    3    0  502  0.99119745056E+03  0.37683616609E+03 -0.22021898405E+04  0.24442008869E+04  0.25500000920E-02 0.  1.
</event>
<event>
 5   0  0.9260173E-06  0.2793793E+04  0.7818609E-02  0.8305198E-01
       -2   -1    0    0    0  501  0.00000000000E+00  0.00000000000E+00  0.11271218534E+04  0.11271218534E+04  0.25500000920E-02 0.  1.
        2   -1    0    0  501    0  0.00000000000E+00  0.00000000000E+00 -0.17312417854E+04  0.17312417855E+04  0.25500000920E-02 0. -1.
    10030    2    1    2    0    0  0.00000000000E+00  0.00000000000E+00 -0.60411993201E+03  0.28583636389E+04  0.27937934426E+04 0.  0.
        1    1    3    3  502    0  0.87573903799E+03  0.39865934199E+03 -0.13381205585E+04  0.16481549572E+04  0.50400001928E-02 0. -1.
       -1    1    3    3    0  502 -0.87573903799E+03 -0.39865934199E+03  0.73400062651E+03  0.12102086817E+04  0.50400001928E-02 0.  1.
</event>
<event>
 5   0  0.9426937E-06  0.2685338E+04  0.7818609E-02  0.8339778E-01
        2   -1    0    0  501    0  0.00000000000E+00  0.00000000000E+00  0.16785075517E+04  0.16785075517E+04  0.25500000920E-02 0. -1.
       -2   -1    0    0    0  501  0.00000000000E+00  0.00000000000E+00 -0.10740259314E+04  0.10740259314E+04  0.25500000920E-02 0.  1.
    10030    2    1    2    0    0  0.00000000000E+00  0.00000000000E+00  0.60448162027E+03  0.27525334832E+04  0.26853384417E+04 0.  0.
        4    1    3    3  502    0 -0.18842619659E+03 -0.12289601808E+04 -0.21730676886E+03  0.12621693239E+04  0.12699999809E+01 0.  1.
       -4    1    3    3    0  502  0.18842619659E+03  0.12289601808E+04  0.82178838914E+03  0.14903641592E+04  0.12699999809E+01 0. -1.
</event>
<event>
 5   0  0.9252359E-06  0.2776216E+04  0.7818609E-02  0.8310691E-01
       -2   -1    0    0    0  501  0.00000000000E+00  0.00000000000E+00  0.58490486657E+03  0.58490486657E+03  0.25500000920E-02 0. -1.
        2   -1    0    0  501    0  0.00000000000E+00  0.00000000000E+00 -0.32942847207E+04  0.32942847207E+04  0.25500000920E-02 0.  1.
    10030    2    1    2    0    0  0.00000000000E+00  0.00000000000E+00 -0.27093798542E+04  0.38791895873E+04  0.27762155284E+04 0.  0.
        5    1    3    3  502    0  0.83707858349E+03 -0.11071434273E+04 -0.13809780560E+04  0.19579554654E+04  0.46999998093E+01 0. -1.
       -5    1    3    3    0  502 -0.83707858349E+03  0.11071434273E+04 -0.13284017982E+04  0.19212341219E+04  0.46999998093E+01 0.  1.
</event>
<event>
 5   0  0.3438130E-06  0.2797223E+04  0.7818609E-02  0.8304131E-01
        1   -1    0    0  501    0  0.00000000000E+00  0.00000000000E+00  0.19372607303E+04  0.19372607303E+04  0.50400001928E-02 0. -1.
       -1   -1    0    0    0  501  0.00000000000E+00  0.00000000000E+00 -0.10097322102E+04  0.10097322102E+04  0.50400001928E-02 0.  1.
    10030    2    1    2    0    0  0.00000000000E+00  0.00000000000E+00  0.92752852005E+03  0.29469929405E+04  0.27972233082E+04 0.  0.
        3    1    3    3  502    0 -0.40201840311E+03 -0.21509312583E+03 -0.92923641951E+03  0.10350672359E+04  0.10100000352E+00 0.  1.
       -3    1    3    3    0  502  0.40201840311E+03  0.21509312583E+03  0.18567649396E+04  0.19119257047E+04  0.10100000352E+00 0. -1.
</event>
<event>
 5   0  0.3438130E-06  0.2786197E+04  0.7818609E-02  0.8307566E-01
        1   -1    0    0  501    0  0.00000000000E+00  0.00000000000E+00  0.25979963875E+04  0.25979963875E+04  0.50400001928E-02 0. -1.
       -1   -1    0    0    0  501  0.00000000000E+00  0.00000000000E+00 -0.74700793672E+03  0.74700793673E+03  0.50400001928E-02 0.  1.
    10030    2    1    2    0    0  0.00000000000E+00  0.00000000000E+00  0.18509884508E+04  0.33450043242E+04  0.27861973520E+04 0.  0.
        3    1    3    3  502    0 -0.58746762183E+03 -0.11739021660E+04  0.36551264298E+03  0.13626312797E+04  0.10100000352E+00 0.  1.
       -3    1    3    3    0  502  0.58746762183E+03  0.11739021660E+04  0.14854758078E+04  0.19823730445E+04  0.10100000352E+00 0. -1.
</event>
<event>
 5   0  0.3357244E-06  0.2784378E+04  0.7818609E-02  0.8308135E-01
       -1   -1    0    0    0  501  0.00000000000E+00  0.00000000000E+00  0.76773612563E+03  0.76773612565E+03  0.50400001928E-02 0.  1.
        1   -1    0    0  501    0  0.00000000000E+00  0.00000000000E+00 -0.25245520532E+04  0.25245520532E+04  0.50400001928E-02 0. -1.
    10030    2    1    2    0    0  0.00000000000E+00  0.00000000000E+00 -0.17568159276E+04  0.32922881788E+04  0.27843777131E+04 0.  0.
        4    1    3    3  502    0 -0.29729008754E+03  0.11673129427E+04 -0.53096891331E+02  0.12057453277E+04  0.12699999809E+01 0.  1.
       -4    1    3    3    0  502  0.29729008754E+03 -0.11673129427E+04 -0.17037190362E+04  0.20865428512E+04  0.12699999809E+01 0. -1.
</event>
<event>
 5   0  0.3371603E-06  0.2841272E+04  0.7818609E-02  0.8290568E-01
        1   -1    0    0  501    0  0.00000000000E+00  0.00000000000E+00  0.23830772798E+04  0.23830772798E+04  0.50400001928E-02 0.  1.
       -1   -1    0    0    0  501  0.00000000000E+00  0.00000000000E+00 -0.84689105631E+03  0.84689105632E+03  0.50400001928E-02 0. -1.
    10030    2    1    2    0    0  0.00000000000E+00  0.00000000000E+00  0.15361862235E+04  0.32299683361E+04  0.28412721340E+04 0.  0.
        1    1    3    3  502    0 -0.85249697702E+03  0.20776085555E+01 -0.52379371685E+03  0.10005574797E+04  0.50400001928E-02 0. -1.
       -1    1    3    3    0  502  0.85249697702E+03 -0.20776085555E+01  0.20599799403E+04  0.22294108565E+04  0.50400001928E-02 0.  1.
</event>
<event>
 5   0  0.9260173E-06  0.2808398E+04  0.7818609E-02  0.8300666E-01
       -2   -1    0    0    0  501  0.00000000000E+00  0.00000000000E+00  0.79699021165E+03  0.79699021165E+03  0.25500000920E-02 0.  1.
        2   -1    0    0  501    0  0.00000000000E+00  0.00000000000E+00 -0.24740259546E+04  0.24740259546E+04  0.25500000920E-02 0. -1.
    10030    2    1    2    0    0  0.00000000000E+00  0.00000000000E+00 -0.16770357430E+04  0.32710161663E+04  0.28083977419E+04 0.  0.
        1    1    3    3  502    0 -0.98578636249E+03 -0.33205579022E+03  0.26012187866E+03  0.10722402679E+04  0.50400001928E-02 0.  1.
       -1    1    3    3    0  502  0.98578636249E+03  0.33205579022E+03 -0.19371576216E+04  0.21987758984E+04  0.50400001928E-02 0. -1.
</event>
<event>
 5   0  0.9426937E-06  0.2787683E+04  0.7818609E-02  0.8307103E-01
        2   -1    0    0  501    0  0.00000000000E+00  0.00000000000E+00  0.19160713920E+04  0.19160713920E+04  0.25500000920E-02 0.  1.
       -2   -1    0    0    0  501  0.00000000000E+00  0.00000000000E+00 -0.10139465520E+04  0.10139465520E+04  0.25500000920E-02 0. -1.
    10030    2    1    2    0    0  0.00000000000E+00  0.00000000000E+00  0.90212484007E+03  0.29300179440E+04  0.27876828953E+04 0.  0.
        4    1    3    3  502    0  0.57040241602E+03 -0.79943036208E+03  0.14906781078E+04  0.17850968192E+04  0.12699999809E+01 0.  1.
       -4    1    3    3    0  502 -0.57040241602E+03  0.79943036208E+03 -0.58855326775E+03  0.11449211247E+04  0.12699999809E+01 0. -1.
</event>
<event>
 5   0  0.9342133E-06  0.2761749E+04  0.7818609E-02  0.8315243E-01
       -2   -1    0    0    0  501  0.00000000000E+00  0.00000000000E+00  0.10780403565E+04  0.10780403565E+04  0.25500000920E-02 0.  1.
        2   -1    0    0  501    0  0.00000000000E+00  0.00000000000E+00 -0.17687780906E+04  0.17687780906E+04  0.25500000920E-02 0. -1.
    10030    2    1    2    0    0  0.00000000000E+00  0.00000000000E+00 -0.69073773410E+03  0.28468184471E+04  0.27617488397E+04 0.  0.
        2    1    3    3  502    0 -0.64712889730E+03 -0.50723538276E+03  0.79819552183E+03  0.11459405021E+04  0.25500000920E-02 0.  1.
       -2    1    3    3    0  502  0.64712889730E+03  0.50723538276E+03 -0.14889332559E+04  0.17008779450E+04  0.25500000920E-02 0. -1.
</event>
<event>
 5   0  0.3006875E-06  0.2800046E+04  0.7818609E-02  0.8303254E-01
        3   -1    0    0  501    0  0.00000000000E+00  0.00000000000E+00  0.13095918193E+04  0.13095918232E+04  0.10100000352E+00 0. -1.
       -3   -1    0    0    0  501  0.00000000000E+00  0.00000000000E+00 -0.14966986130E+04  0.14966986164E+04  0.10100000352E+00 0.  1.
    10030    2    1    2    0    0  0.00000000000E+00  0.00000000000E+00 -0.18710679362E+03  0.28062904396E+04  0.28000459066E+04 0.  0.
        2    1    3    3  502    0 -0.57563075707E+02  0.13130439910E+04  0.38987721875E+03  0.13709129351E+04  0.25500000920E-02 0. -1.
       -2    1    3    3    0  502  0.57563075707E+02 -0.13130439910E+04 -0.57698401237E+03  0.14353775045E+04  0.25500000920E-02 0.  1.
</event>
<event>
 5   0  0.3438130E-06  0.2728453E+04  0.7818609E-02  0.8325832E-01
        1   -1    0    0  501    0  0.00000000000E+00  0.00000000000E+00  0.17740863641E+04  0.17740863641E+04  0.50400001928E-02 0.  1.
       -1   -1    0    0    0  501  0.00000000000E+00  0.00000000000E+00 -0.10490549487E+04  0.10490549487E+04  0.50400001928E-02 0. -1.
    10030    2    1    2    0    0  0.00000000000E+00  0.00000000000E+00  0.72503141542E+03  0.28231413128E+04  0.27284531000E+04 0.  0.
        3    1    3    3  502    0 -0.30730047642E+03 -0.67752780232E+03  0.15457197705E+04  0.17154378813E+04  0.10100000352E+00 0.  1.
       -3    1    3    3    0  502  0.30730047642E+03  0.67752780232E+03 -0.82068835505E+03  0.11077034314E+04  0.10100000352E+00 0. -1.
</event>
<event>
 5   0  0.9260173E-06  0.2806200E+04  0.7818609E-02  0.8301346E-01
        2   -1    0    0  501    0  0.00000000000E+00  0.00000000000E+00  0.14855129569E+04  0.14855129569E+04  0.25500000920E-02 0. -1.
       -2   -1    0    0    0  501  0.00000000000E+00  0.00000000000E+00 -0.13252586815E+04  0.13252586815E+04  0.25500000920E-02 0.  1.
    10030    2    1    2    0    0  0.00000000000E+00  0.00000000000E+00  0.16025427535E+03  0.28107716384E+04  0.28061995244E+04 0.  0.
        1    1    3    3  502    0 -0.13587001367E+04 -0.33092767661E+03  0.19481152247E+03  0.14119244731E+04  0.50400001928E-02 0. -1.
       -1    1    3    3    0  502  0.13587001367E+04  0.33092767661E+03 -0.34557247113E+02  0.13988471653E+04  0.50400001928E-02 0.  1.
</event>
<event>
 5   0  0.3357244E-06  0.2818415E+04  0.7818609E-02  0.8297574E-01
       -1   -1    0    0    0  501  0.00000000000E+00  0.00000000000E+00  0.11389601394E+04  0.11389601394E+04  0.50400001928E-02 0. -1.
        1   -1    0    0  501    0  0.00000000000E+00  0.00000000000E+00 -0.17435776091E+04  0.17435776091E+04  0.50400001928E-02 0.  1.
    10030    2    1    2    0    0  0.00000000000E+00  0.00000000000E+00 -0.60461746967E+03  0.28825377485E+04  0.28184147294E+04 0.  0.
        4    1    3    3  502    0 -0.10580610696E+04 -0.72437254741E+03 -0.90011983450E+03  0.15666608261E+04  0.12699999809E+01 0.  1.
       -4    1    3    3    0  502  0.10580610696E+04  0.72437254741E+03  0.29550236483E+03  0.13158769225E+04  0.12699999809E+01 0. -1.
</event>
<event>
 5   0  0.3438130E-06  0.2797538E+04  0.7818609E-02  0.8304033E-01
       -1   -1    0    0    0  501  0.00000000000E+00  0.00000000000E+00  0.78420201122E+03  0.78420201124E+03  0.50400001928E-02 0.  1.
        1   -1    0    0  501    0  0.00000000000E+00  0.00000000000E+00 -0.24949628114E+04  0.24949628114E+04  0.50400001928E-02 0. -1.
    10030    2    1    2    0    0  0.00000000000E+00  0.00000000000E+00 -0.17107608002E+04  0.32791648227E+04  0.27975380996E+04 0.  0.
        3    1    3    3  502    0  0.11159203150E+03  0.11989320739E+04 -0.16897284146E+04  0.20748669896E+04  0.10100000352E+00 0. -1.
       -3    1    3    3    0  502 -0.11159203150E+03 -0.11989320739E+04 -0.21032385608E+02  0.12042978331E+04  0.10100000352E+00 0.  1.
</event>
<event>
 5   0  0.3371603E-06  0.2780040E+04  0.7818609E-02  0.8309492E-01
       -1   -1    0    0    0  501  0.00000000000E+00  0.00000000000E+00  0.77822177518E+03  0.77822177520E+03  0.50400001928E-02 0.  1.
        1   -1    0    0  501    0  0.00000000000E+00  0.00000000000E+00 -0.24827819741E+04  0.24827819741E+04  0.50400001928E-02 0. -1.
    10030    2    1    2    0    0  0.00000000000E+00  0.00000000000E+00 -0.17045601989E+04  0.32610037493E+04  0.27800395647E+04 0.  0.
        1    1    3    3  502    0 -0.91844421125E+03 -0.68651535647E+03 -0.17739016956E+04  0.21122429618E+04  0.50400001928E-02 0. -1.
       -1    1    3    3    0  502  0.91844421125E+03  0.68651535647E+03  0.69341496659E+02  0.11487607876E+04  0.50400001928E-02 0.  1.
</event>
<event>
 5   0  0.3006875E-06  0.2874054E+04  0.7818609E-02  0.8280639E-01
       -3   -1    0    0    0  501  0.00000000000E+00  0.00000000000E+00  0.80280809000E+03  0.80280809635E+03  0.10100000352E+00 0.  1.
        3   -1    0    0  501    0  0.00000000000E+00  0.00000000000E+00 -0.25722784338E+04  0.25722784358E+04  0.10100000352E+00 0. -1.
    10030    2    1    2    0    0  0.00000000000E+00  0.00000000000E+00 -0.17694703438E+04  0.33750865321E+04  0.28740535489E+04 0.  0.
        2    1    3    3  502    0  0.63397297919E+03  0.53212347346E+02  0.62841621458E+03  0.89423723419E+03  0.25500000920E-02 0.  1.
       -2    1    3    3    0  502 -0.63397297919E+03 -0.53212347346E+02 -0.23978865584E+04  0.24808492979E+04  0.25500000920E-02 0. -1.
</event>
<event>
 5   0  0.3438130E-06  0.2853102E+04  0.7818609E-02  0.8286969E-01
       -1   -1    0    0    0  501  0.00000000000E+00  0.00000000000E+00  0.12893794192E+04  0.12893794192E+04  0.50400001928E-02 0.  1.
        1   -1    0    0  501    0  0.00000000000E+00  0.00000000000E+00 -0.15783157008E+04  0.15783157008E+04  0.50400001928E-02 0. -1.
    10030    2    1    2    0    0  0.00000000000E+00  0.00000000000E+00 -0.28893628161E+03  0.28676951200E+04  0.28531020182E+04 0.  0.
        3    1    3    3  502    0  0.12187186041E+04  0.63378222253E+03  0.24232849883E+03  0.13948756407E+04  0.10100000352E+00 0.  1.
       -3    1    3    3    0  502 -0.12187186041E+04 -0.63378222253E+03 -0.53126478044E+03  0.14728194793E+04  0.10100000352E+00 0. -1.
</event>
<event>
 5   0  0.9426937E-06  0.2856108E+04  0.7818609E-02  0.8286058E-01
       -2   -1    0    0    0  501  0.00000000000E+00  0.00000000000E+00  0.16873218054E+04  0.16873218054E+04  0.25500000920E-02 0. -1.
        2   -1    0    0  501    0  0.00000000000E+00  0.00000000000E+00 -0.12086241035E+04  0.12086241035E+04  0.25500000920E-02 0.  1.
    10030    2    1    2    0    0  0.00000000000E+00  0.00000000000E+00  0.47869770184E+03  0.28959459089E+04  0.28561077041E+04 0.  0.
        4    1    3    3  502    0  0.87132378109E+02  0.92958268510E+03 -0.85628807232E+03  0.12668649871E+04  0.12699999809E+01 0.  1.
       -4    1    3    3    0  502 -0.87132378109E+02 -0.92958268510E+03  0.13349857742E+04  0.16290809218E+04  0.12699999809E+01 0. -1.
</event>
<event>
 5   0  0.9260173E-06  0.2795837E+04  0.7818609E-02  0.8304562E-01
        2   -1    0    0  501    0  0.00000000000E+00  0.00000000000E+00  0.25896477503E+04  0.25896477503E+04  0.25500000920E-02 0. -1.
       -2   -1    0    0    0  501  0.00000000000E+00  0.00000000000E+00 -0.75461072160E+03  0.75461072160E+03  0.25500000920E-02 0.  1.
    10030    2    1    2    0    0  0.00000000000E+00  0.00000000000E+00  0.18350370287E+04  0.33442584719E+04  0.27958368747E+04 0.  0.
        1    1    3    3  502    0  0.36328208910E+03 -0.65839164352E+03  0.23271180476E+04  0.24455943735E+04  0.50400001928E-02 0. -1.
       -1    1    3    3    0  502 -0.36328208910E+03  0.65839164352E+03 -0.49208101887E+03  0.89866409836E+03  0.50400001928E-02 0.  1.
</event>
<event>
 5   0  0.3357244E-06  0.2790133E+04  0.7818609E-02  0.8306338E-01
       -1   -1    0    0    0  501  0.00000000000E+00  0.00000000000E+00  0.12534325932E+04  0.12534325932E+04  0.50400001928E-02 0. -1.
        1   -1    0    0  501    0  0.00000000000E+00  0.00000000000E+00 -0.15527043244E+04  0.15527043245E+04  0.50400001928E-02 0.  1.
    10030    2    1    2    0    0  0.00000000000E+00  0.00000000000E+00 -0.29927173129E+03  0.28061369176E+04  0.27901327623E+04 0.  0.
        4    1    3    3  502    0  0.44145231778E+03  0.13194976027E+04 -0.25148133397E+03  0.14139301774E+04  0.12699999809E+01 0. -1.
       -4    1    3    3    0  502 -0.44145231778E+03 -0.13194976027E+04 -0.47790397329E+02  0.13922067402E+04  0.12699999809E+01 0.  1.
</event>
<event>
 5   0  0.9252359E-06  0.2787201E+04  0.7818609E-02  0.8307253E-01
        2   -1    0    0  501    0  0.00000000000E+00  0.00000000000E+00  0.22614380593E+04  0.22614380593E+04  0.25500000920E-02 0. -1.
       -2   -1    0    0    0  501  0.00000000000E+00  0.00000000000E+00 -0.85879996115E+03  0.85879996116E+03  0.25500000920E-02 0.  1.
    10030    2    1    2    0    0  0.00000000000E+00  0.00000000000E+00  0.14026380982E+04  0.31202380205E+04  0.27872014046E+04 0.  0.
        5    1    3    3  502    0  0.54281586738E+03 -0.11931229020E+04  0.12310503491E+04  0.17982486972E+04  0.46999998093E+01 0.  1.
       -5    1    3    3    0  502 -0.54281586738E+03  0.11931229020E+04  0.17158774910E+03  0.13219893233E+04  0.46999998093E+01 0. -1.
</event>
<event>
 5   0  0.3357244E-06  0.2732413E+04  0.7818609E-02  0.8324564E-01
       -1   -1    0    0    0  501  0.00000000000E+00  0.00000000000E+00  0.11466954082E+04  0.11466954082E+04  0.50400001928E-02 0.  1.
        1   -1    0    0  501    0  0.00000000000E+00  0.00000000000E+00 -0.16277380283E+04  0.16277380283E+04  0.50400001928E-02 0. -1.
    10030    2    1    2    0    0  0.00000000000E+00  0.00000000000E+00 -0.48104262011E+03  0.27744334365E+04  0.27324126503E+04 0.  0.
        4    1    3    3  502    0  0.29541712576E+02 -0.32142767017E+03 -0.15884645234E+04  0.16209286274E+04  0.12699999809E+01 0. -1.
       -4    1    3    3    0  502 -0.29541712576E+02  0.32142767017E+03  0.11074219033E+04  0.11535048092E+04  0.12699999809E+01 0.  1.
</event>
<event>
 5   0  0.3371603E-06  0.2752029E+04  0.7818609E-02  0.8318318E-01
        1   -1    0    0  501    0  0.00000000000E+00  0.00000000000E+00  0.11586796991E+04  0.11586796991E+04  0.50400001928E-02 0.  1.
       -1   -1    0    0    0  501  0.00000000000E+00  0.00000000000E+00 -0.16341155896E+04  0.16341155896E+04  0.50400001928E-02 0. -1.
    10030    2    1    2    0    0  0.00000000000E+00  0.00000000000E+00 -0.47543589052E+03  0.27927952888E+04  0.27520294764E+04 0.  0.
        1    1    3    3  502    0 -0.12729430247E+04 -0.51434267271E+03 -0.33119225267E+03  0.14123103898E+04  0.50400001928E-02 0.  1.
       -1    1    3    3    0  502  0.12729430247E+04  0.51434267271E+03 -0.14424363785E+03  0.13804848989E+04  0.50400001928E-02 0. -1.
</event>
<event>
 5   0  0.3371603E-06  0.2775887E+04  0.7818609E-02  0.8310794E-01
        1   -1    0    0  501    0  0.00000000000E+00  0.00000000000E+00  0.16097504106E+04  0.16097504106E+04  0.50400001928E-02 0. -1.
       -1   -1    0    0    0  501  0.00000000000E+00  0.00000000000E+00 -0.11966994838E+04  0.11966994838E+04  0.50400001928E-02 0.  1.
    10030    2    1    2    0    0  0.00000000000E+00  0.00000000000E+00  0.41305092682E+03  0.28064498944E+04  0.27758872351E+04 0.  0.
        1    1    3    3  502    0  0.93597056867E+03 -0.53429091753E+03 -0.67767770661E+03  0.12730886709E+04  0.50400001928E-02 0.  1.
       -1    1    3    3    0  502 -0.93597056867E+03  0.53429091753E+03  0.10907286334E+04  0.15333612235E+04  0.50400001928E-02 0. -1.
</event>
<event>
 5   0  0.3438130E-06  0.2932719E+04  0.7818609E-02  0.8263209E-01
       -1   -1    0    0    0  501  0.00000000000E+00  0.00000000000E+00  0.17895518944E+04  0.17895518945E+04  0.50400001928E-02 0.  1.
        1   -1    0    0  501    0  0.00000000000E+00  0.00000000000E+00 -0.12015355155E+04  0.12015355155E+04  0.50400001928E-02 0. -1.
    10030    2    1    2    0    0  0.00000000000E+00  0.00000000000E+00  0.58801637893E+03  0.29910874100E+04  0.29327189828E+04 0.  0.
        3    1    3    3  502    0  0.37578398491E+03 -0.12569515194E+04  0.96207890836E+03  0.16268793937E+04  0.10100000352E+00 0.  1.
       -3    1    3    3    0  502 -0.37578398491E+03  0.12569515194E+04 -0.37406252943E+03  0.13642080163E+04  0.10100000352E+00 0. -1.
</event>
<event>
 5   0  0.9252359E-06  0.2789414E+04  0.7818609E-02  0.8306562E-01
        2   -1    0    0  501    0  0.00000000000E+00  0.00000000000E+00  0.11535754342E+04  0.11535754342E+04  0.25500000920E-02 0. -1.
       -2   -1    0    0    0  501  0.00000000000E+00  0.00000000000E+00 -0.16862426391E+04  0.16862426391E+04  0.25500000920E-02 0.  1.
    10030    2    1    2    0    0  0.00000000000E+00  0.00000000000E+00 -0.53266720485E+03  0.28398180733E+04  0.27894143361E+04 0.  0.
        5    1    3    3  502    0  0.12515869224E+04  0.21132447139E+03  0.32208787794E+03  0.13095382956E+04  0.46999998093E+01 0.  1.
       -5    1    3    3    0  502 -0.12515869224E+04 -0.21132447139E+03 -0.85475508279E+03  0.15302797777E+04  0.46999998093E+01 0. -1.
</event>
<event>
 5   0  0.9260173E-06  0.2742313E+04  0.7818609E-02  0.8321405E-01
       -2   -1    0    0    0  501  0.00000000000E+00  0.00000000000E+00  0.75741853272E+03  0.75741853273E+03  0.25500000920E-02 0. -1.
        2   -1    0    0  501    0  0.00000000000E+00  0.00000000000E+00 -0.24822071557E+04  0.24822071557E+04  0.25500000920E-02 0.  1.
    10030    2    1    2    0    0  0.00000000000E+00  0.00000000000E+00 -0.17247886230E+04  0.32396256884E+04  0.27423126749E+04 0.  0.
        1    1    3    3  502    0 -0.80238104655E+03 -0.10596989139E+04 -0.12600237930E+04  0.18315122416E+04  0.50400001928E-02 0. -1.
       -1    1    3    3    0  502  0.80238104655E+03  0.10596989139E+04 -0.46476482995E+03  0.14081134469E+04  0.50400001928E-02 0.  1.
</event>
<event>
 5   0  0.3357244E-06  0.2527141E+04  0.7818609E-02  0.8393380E-01
        1   -1    0    0  501    0  0.00000000000E+00  0.00000000000E+00  0.13481720085E+04  0.13481720085E+04  0.50400001928E-02 0.  1.
       -1   -1    0    0    0  501  0.00000000000E+00  0.00000000000E+00 -0.11842780531E+04  0.11842780531E+04  0.50400001928E-02 0. -1.
    10030    2    1    2    0    0  0.00000000000E+00  0.00000000000E+00  0.16389395541E+03  0.25324500616E+04  0.25271410894E+04 0.  0.
        4    1    3    3  502    0  0.50199008466E+03  0.87033416825E+03 -0.68590897766E+03  0.12165312771E+04  0.12699999809E+01 0. -1.
       -4    1    3    3    0  502 -0.50199008466E+03 -0.87033416825E+03  0.84980293308E+03  0.13159187845E+04  0.12699999809E+01 0.  1.
</event>
<event>
 5   0  0.3438130E-06  0.2824002E+04  0.7818609E-02  0.8295855E-01
        1   -1    0    0  501    0  0.00000000000E+00  0.00000000000E+00  0.13553229023E+04  0.13553229023E+04  0.50400001928E-02 0. -1.
       -1   -1    0    0    0  501  0.00000000000E+00  0.00000000000E+00 -0.14710497070E+04  0.14710497070E+04  0.50400001928E-02 0.  1.
    10030    2    1    2    0    0  0.00000000000E+00  0.00000000000E+00 -0.11572680467E+03  0.28263726093E+04  0.28240023784E+04 0.  0.
        3    1    3    3  502    0  0.12069491591E+04  0.63609558097E+03  0.30631490194E+03  0.13982748979E+04  0.10100000352E+00 0. -1.
       -3    1    3    3    0  502 -0.12069491591E+04 -0.63609558097E+03 -0.42204170661E+03  0.14280977114E+04  0.10100000352E+00 0.  1.
</event>
<event>
 5   0  0.9252359E-06  0.2807908E+04  0.7818609E-02  0.8300817E-01
       -2   -1    0    0    0  501  0.00000000000E+00  0.00000000000E+00  0.73286336855E+03  0.73286336856E+03  0.25500000920E-02 0.  1.
        2   -1    0    0  501    0  0.00000000000E+00  0.00000000000E+00 -0.26895702362E+04  0.26895702362E+04  0.25500000920E-02 0. -1.
    10030    2    1    2    0    0  0.00000000000E+00  0.00000000000E+00 -0.19567068677E+04  0.34224336048E+04  0.28079084766E+04 0.  0.
        5    1    3    3  502    0  0.13931894581E+02  0.11263492764E+04 -0.19997282910E+04  0.22951671221E+04  0.46999998093E+01 0. -1.
       -5    1    3    3    0  502 -0.13931894581E+02 -0.11263492764E+04  0.43021423389E+02  0.11272664827E+04  0.46999998093E+01 0.  1.
</event>
<event>
 5   0  0.3438130E-06  0.2791678E+04  0.7818609E-02  0.8305857E-01
       -1   -1    0    0    0  501  0.00000000000E+00  0.00000000000E+00  0.14874849876E+04  0.14874849876E+04  0.50400001928E-02 0. -1.
        1   -1    0    0  501    0  0.00000000000E+00  0.00000000000E+00 -0.13098393341E+04  0.13098393341E+04  0.50400001928E-02 0.  1.
    10030    2    1    2    0    0  0.00000000000E+00  0.00000000000E+00  0.17764565353E+03  0.27973243217E+04  0.27916778794E+04 0.  0.
        3    1    3    3  502    0 -0.12143926560E+04 -0.56209270976E+03  0.48670100344E+03  0.14239296381E+04  0.10100000352E+00 0. -1.
       -3    1    3    3    0  502  0.12143926560E+04  0.56209270976E+03 -0.30905534991E+03  0.13733946836E+04  0.10100000352E+00 0.  1.
</event>
<event>
 5   0  0.3438130E-06  0.2612324E+04  0.7818609E-02  0.8364027E-01
        1   -1    0    0  501    0  0.00000000000E+00  0.00000000000E+00  0.17449330504E+04  0.17449330504E+04  0.50400001928E-02 0.  1.
       -1   -1    0    0    0  501  0.00000000000E+00  0.00000000000E+00 -0.97772153015E+03  0.97772153016E+03  0.50400001928E-02 0. -1.
    10030    2    1    2    0    0  0.00000000000E+00  0.00000000000E+00  0.76721152024E+03  0.27226545806E+04  0.26123235727E+04 0.  0.
        3    1    3    3  502    0  0.17061443620E+03 -0.11931815105E+03 -0.96031653059E+03  0.98262605102E+03  0.10100000352E+00 0. -1.
       -3    1    3    3    0  502 -0.17061443620E+03  0.11931815105E+03  0.17275280508E+04  0.17400285295E+04  0.10100000352E+00 0.  1.
</event>
<event>
 5   0  0.9426937E-06  0.2823463E+04  0.7818609E-02  0.8296021E-01
        2   -1    0    0  501    0  0.00000000000E+00  0.00000000000E+00  0.16468850150E+04  0.16468850150E+04  0.25500000920E-02 0. -1.
       -2   -1    0    0    0  501  0.00000000000E+00  0.00000000000E+00 -0.12101551709E+04  0.12101551709E+04  0.25500000920E-02 0.  1.
    10030    2    1    2    0    0  0.00000000000E+00  0.00000000000E+00  0.43672984413E+03  0.28570401859E+04  0.28234634170E+04 0.  0.
        4    1    3    3  502    0 -0.81408494593E+03  0.41800631575E+03  0.13061000334E+04  0.15947923029E+04  0.12699999809E+01 0. -1.
       -4    1    3    3    0  502  0.81408494593E+03 -0.41800631575E+03 -0.86937018929E+03  0.12622478830E+04  0.12699999809E+01 0.  1.
</event>
<event>
 5   0  0.9342133E-06  0.2801810E+04  0.7818609E-02  0.8302707E-01
       -2   -1    0    0    0  501  0.00000000000E+00  0.00000000000E+00  0.85837787448E+03  0.85837787448E+03  0.25500000920E-02 0.  1.
        2   -1    0    0  501    0  0.00000000000E+00  0.00000000000E+00 -0.22863304424E+04  0.22863304424E+04  0.25500000920E-02 0. -1.
    10030    2    1    2    0    0  0.00000000000E+00  0.00000000000E+00 -0.14279525679E+04  0.31447083168E+04  0.28018104615E+04 0.  0.
        2    1    3    3  502    0  0.24044195816E+03  0.13768459419E+04 -0.82056370224E+03  0.16207534891E+04  0.25500000920E-02 0.  1.
       -2    1    3    3    0  502 -0.24044195816E+03 -0.13768459419E+04 -0.60738886564E+03  0.15239548278E+04  0.25500000920E-02 0. -1.
</event>
<event>
 5   0  0.3397882E-06  0.2814097E+04  0.7818609E-02  0.8298905E-01
        1   -1    0    0  501    0  0.00000000000E+00  0.00000000000E+00  0.17649650630E+04  0.17649650631E+04  0.50400001928E-02 0.  1.
       -1   -1    0    0    0  501  0.00000000000E+00  0.00000000000E+00 -0.11217138222E+04  0.11217138222E+04  0.50400001928E-02 0. -1.
    10030    2    1    2    0    0  0.00000000000E+00  0.00000000000E+00  0.64325124081E+03  0.28866788853E+04  0.28140971604E+04 0.  0.
        2    1    3    3  502    0  0.79332845728E+03 -0.36860868239E+03  0.14521134463E+04  0.16952509734E+04  0.25500000920E-02 0.  1.
       -2    1    3    3    0  502 -0.79332845728E+03  0.36860868239E+03 -0.80886220547E+03  0.11914279119E+04  0.25500000920E-02 0. -1.
</event>
<event>
 5   0  0.9342133E-06  0.2767492E+04  0.7818609E-02  0.8313432E-01
       -2   -1    0    0    0  501  0.00000000000E+00  0.00000000000E+00  0.18789412717E+04  0.18789412717E+04  0.25500000920E-02 0. -1.
        2   -1    0    0  501    0  0.00000000000E+00  0.00000000000E+00 -0.10190595523E+04  0.10190595523E+04  0.25500000920E-02 0.  1.
    10030    2    1    2    0    0  0.00000000000E+00  0.00000000000E+00  0.85988171941E+03  0.28980008240E+04  0.27674920424E+04 0.  0.
        2    1    3    3  502    0  0.10191099884E+04  0.59199270111E+03  0.11891934561E+04  0.16742824142E+04  0.25500000920E-02 0. -1.
       -2    1    3    3    0  502 -0.10191099884E+04 -0.59199270111E+03 -0.32931173668E+03  0.12237184098E+04  0.25500000920E-02 0.  1.
</event>
<event>
 5   0  0.3397882E-06  0.2807147E+04  0.7818609E-02  0.8301053E-01
        1   -1    0    0  501    0  0.00000000000E+00  0.00000000000E+00  0.20647497601E+04  0.20647497601E+04  0.50400001928E-02 0.  1.
       -1   -1    0    0    0  501  0.00000000000E+00  0.00000000000E+00 -0.95411979485E+03  0.95411979486E+03  0.50400001928E-02 0. -1.
    10030    2    1    2    0    0  0.00000000000E+00  0.00000000000E+00  0.11106299653E+04  0.30188695550E+04  0.28071470340E+04 0.  0.
        2    1    3    3  502    0  0.61543714469E+03 -0.62301109961E+03  0.17349085075E+04  0.19434024901E+04  0.25500000920E-02 0.  1.
       -2    1    3    3    0  502 -0.61543714469E+03  0.62301109961E+03 -0.62427854222E+03  0.10754670649E+04  0.25500000920E-02 0. -1.
</event>
<event>
 5   0  0.3371603E-06  0.2769367E+04  0.7818609E-02  0.8312842E-01
        1   -1    0    0  501    0  0.00000000000E+00  0.00000000000E+00  0.76851507344E+03  0.76851507345E+03  0.50400001928E-02 0.  1.
       -1   -1    0    0    0  501  0.00000000000E+00  0.00000000000E+00 -0.24948744895E+04  0.24948744896E+04  0.50400001928E-02 0. -1.
    10030    2    1    2    0    0  0.00000000000E+00  0.00000000000E+00 -0.17263594161E+04  0.32633895630E+04  0.27693671852E+04 0.  0.
        1    1    3    3  502    0  0.13531169627E+04 -0.12500382386E+03 -0.54963724869E+03  0.14658282900E+04  0.50400001928E-02 0.  1.
       -1    1    3    3    0  502 -0.13531169627E+04  0.12500382386E+03 -0.11767221674E+04  0.17975612730E+04  0.50400001928E-02 0. -1.
</event>
<event>
 5   0  0.9342133E-06  0.2794329E+04  0.7818609E-02  0.8305031E-01
        2   -1    0    0  501    0  0.00000000000E+00  0.00000000000E+00  0.14995952821E+04  0.14995952821E+04  0.25500000920E-02 0. -1.
       -2   -1    0    0    0  501  0.00000000000E+00  0.00000000000E+00 -0.13017303532E+04  0.13017303532E+04  0.25500000920E-02 0.  1.
    10030    2    1    2    0    0  0.00000000000E+00  0.00000000000E+00  0.19786492895E+03  0.28013256353E+04  0.27943290402E+04 0.  0.
        2    1    3    3  502    0  0.74682301744E+03  0.32298801779E+03 -0.10396942808E+04  0.13202386438E+04  0.25500000920E-02 0.  1.
       -2    1    3    3    0  502 -0.74682301744E+03 -0.32298801779E+03  0.12375592097E+04  0.14810869916E+04  0.25500000920E-02 0. -1.
</event>
<event>
 5   0  0.9426937E-06  0.2838040E+04  0.7818609E-02  0.8291555E-01
       -2   -1    0    0    0  501  0.00000000000E+00  0.00000000000E+00  0.13776545239E+04  0.13776545239E+04  0.25500000920E-02 0. -1.
        2   -1    0    0  501    0  0.00000000000E+00  0.00000000000E+00 -0.14616273491E+04  0.14616273491E+04  0.25500000920E-02 0.  1.
    10030    2    1    2    0    0  0.00000000000E+00  0.00000000000E+00 -0.83972825178E+02  0.28392818730E+04  0.28380398374E+04 0.  0.
        4    1    3    3  502    0  0.28571696855E+03 -0.11256525691E+04 -0.85774992796E+03  0.14437674481E+04  0.12699999809E+01 0.  1.
       -4    1    3    3    0  502 -0.28571696855E+03  0.11256525691E+04  0.77377710279E+03  0.13955144249E+04  0.12699999809E+01 0. -1.
</event>
<event>
 5   0  0.9260173E-06  0.2861346E+04  0.7818609E-02  0.8284472E-01
        2   -1    0    0  501    0  0.00000000000E+00  0.00000000000E+00  0.15969236118E+04  0.15969236119E+04  0.25500000920E-02 0.  1.
       -2   -1    0    0    0  501  0.00000000000E+00  0.00000000000E+00 -0.12817304178E+04  0.12817304178E+04  0.25500000920E-02 0. -1.
    10030    2    1    2    0    0  0.00000000000E+00  0.00000000000E+00  0.31519319402E+03  0.28786540297E+04  0.28613462344E+04 0.  0.
        1    1    3    3  502    0  0.11402817093E+04  0.44747205522E+03 -0.58603067591E+03  0.13579048457E+04  0.50400001928E-02 0. -1.
       -1    1    3    3    0  502 -0.11402817093E+04 -0.44747205522E+03  0.90122386993E+03  0.15207491840E+04  0.50400001928E-02 0.  1.
</event>
<event>
 5   0  0.9260173E-06  0.2775058E+04  0.7818609E-02  0.8311054E-01
        2   -1    0    0  501    0  0.00000000000E+00  0.00000000000E+00  0.12034522910E+04  0.12034522910E+04  0.25500000920E-02 0.  1.
       -2   -1    0    0    0  501  0.00000000000E+00  0.00000000000E+00 -0.15997610172E+04  0.15997610172E+04  0.25500000920E-02 0. -1.
    10030    2    1    2    0    0  0.00000000000E+00  0.00000000000E+00 -0.39630872619E+03  0.28032133082E+04  0.27750575210E+04 0.  0.
        1    1    3    3  502    0 -0.22694012682E+03 -0.11859277629E+04 -0.88869064085E+03  0.14992323153E+04  0.50400001928E-02 0. -1.
       -1    1    3    3    0  502  0.22694012682E+03  0.11859277629E+04  0.49238191466E+03  0.13039809929E+04  0.50400001928E-02 0.  1.
</event>
<event>
 5   0  0.3397882E-06  0.2604148E+04  0.7818609E-02  0.8366793E-01
        1   -1    0    0  501    0  0.00000000000E+00  0.00000000000E+00  0.15259148038E+04  0.15259148038E+04  0.50400001928E-02 0.  1.
       -1   -1    0    0    0  501  0.00000000000E+00  0.00000000000E+00 -0.11110693637E+04  0.11110693637E+04  0.50400001928E-02 0. -1.
    10030    2    1    2    0    0  0.00000000000E+00  0.00000000000E+00  0.41484544003E+03  0.26369841675E+04  0.26041483753E+04 0.  0.
        2    1    3    3  502    0 -0.10548277890E+04 -0.58612201281E+03  0.70266671495E+03  0.13964029471E+04  0.25500000920E-02 0.  1.
       -2    1    3    3    0  502  0.10548277890E+04  0.58612201281E+03 -0.28782127492E+03  0.12405812205E+04  0.25500000920E-02 0. -1.
</event>
<event>
 5   0  0.3397882E-06  0.2801511E+04  0.7818609E-02  0.8302799E-01
        1   -1    0    0  501    0  0.00000000000E+00  0.00000000000E+00  0.18870406476E+04  0.18870406476E+04  0.50400001928E-02 0. -1.
       -1   -1    0    0    0  501  0.00000000000E+00  0.00000000000E+00 -0.10397848543E+04  0.10397848543E+04  0.50400001928E-02 0.  1.
    10030    2    1    2    0    0  0.00000000000E+00  0.00000000000E+00  0.84725579334E+03  0.29268255020E+04  0.28015112242E+04 0.  0.
        2    1    3    3  502    0 -0.84359068418E+03  0.37680569926E+03 -0.67631480153E+03  0.11450019599E+04  0.25500000920E-02 0.  1.
       -2    1    3    3    0  502  0.84359068418E+03 -0.37680569926E+03  0.15235705949E+04  0.17818235420E+04  0.25500000920E-02 0. -1.
</event>
<event>
 5   0  0.9260173E-06  0.2806166E+04  0.7818609E-02  0.8301357E-01
       -2   -1    0    0    0  501  0.00000000000E+00  0.00000000000E+00  0.94985763251E+03  0.94985763251E+03  0.25500000920E-02 0. -1.
        2   -1    0    0  501    0  0.00000000000E+00  0.00000000000E+00 -0.20725649004E+04  0.20725649004E+04  0.25500000920E-02 0.  1.
    10030    2    1    2    0    0  0.00000000000E+00  0.00000000000E+00 -0.11227072679E+04  0.30224225329E+04  0.28061657752E+04 0.  0.
        1    1    3    3  502    0  0.13197091932E+04 -0.17269370625E+03 -0.10396312152E+04  0.16888719710E+04  0.50400001928E-02 0.  1.
       -1    1    3    3    0  502 -0.13197091932E+04  0.17269370625E+03 -0.83076052695E+02  0.13335505619E+04  0.50400001928E-02 0. -1.
</event>
<event>
 5   0  0.9252359E-06  0.2809970E+04  0.7818609E-02  0.8300180E-01
        2   -1    0    0  501    0  0.00000000000E+00  0.00000000000E+00  0.27579904398E+04  0.27579904398E+04  0.25500000920E-02 0.  1.
       -2   -1    0    0    0  501  0.00000000000E+00  0.00000000000E+00 -0.71573253469E+03  0.71573253469E+03  0.25500000920E-02 0. -1.
    10030    2    1    2    0    0  0.00000000000E+00  0.00000000000E+00  0.20422579051E+04  0.34737229745E+04  0.28099704540E+04 0.  0.
        5    1    3    3  502    0  0.91312582606E+03 -0.91464069537E+03  0.17022757999E+04  0.21373187326E+04  0.46999998093E+01 0.  1.
       -5    1    3    3    0  502 -0.91312582606E+03  0.91464069537E+03  0.33998210518E+03  0.13364042419E+04  0.46999998093E+01 0. -1.
</event>
<event>
 5   0  0.9260173E-06  0.2786039E+04  0.7818609E-02  0.8307616E-01
       -2   -1    0    0    0  501  0.00000000000E+00  0.00000000000E+00  0.14761915412E+04  0.14761915412E+04  0.25500000920E-02 0. -1.
        2   -1    0    0  501    0  0.00000000000E+00  0.00000000000E+00 -0.13145333702E+04  0.13145333702E+04  0.25500000920E-02 0.  1.
    10030    2    1    2    0    0  0.00000000000E+00  0.00000000000E+00  0.16165817099E+03  0.27907249114E+04  0.27860387949E+04 0.  0.
        1    1    3    3  502    0 -0.76668203601E+03 -0.11453674590E+04 -0.12158772676E+03  0.13836370680E+04  0.50400001928E-02 0.  1.
       -1    1    3    3    0  502  0.76668203601E+03  0.11453674590E+04  0.28324589775E+03  0.14070878434E+04  0.50400001928E-02 0. -1.
</event>
<event>
 5   0  0.3371603E-06  0.2805197E+04  0.7818609E-02  0.8301657E-01
        1   -1    0    0  501    0  0.00000000000E+00  0.00000000000E+00  0.21330092695E+04  0.21330092695E+04  0.50400001928E-02 0. -1.
       -1   -1    0    0    0  501  0.00000000000E+00  0.00000000000E+00 -0.92230407339E+03  0.92230407340E+03  0.50400001928E-02 0.  1.
    10030    2    1    2    0    0  0.00000000000E+00  0.00000000000E+00  0.12107051961E+04  0.30553133429E+04  0.28051974176E+04 0.  0.
        1    1    3    3  502    0 -0.43727852967E+02  0.68882352005E+03 -0.72453699958E+03  0.10006716898E+04  0.50400001928E-02 0.  1.
       -1    1    3    3    0  502  0.43727852967E+02 -0.68882352005E+03  0.19352421957E+04  0.20546416532E+04  0.50400001928E-02 0. -1.
</event>
<event>
 5   0  0.9065579E-06  0.2828546E+04  0.7818609E-02  0.8294460E-01
        2   -1    0    0  501    0  0.00000000000E+00  0.00000000000E+00  0.15537801744E+04  0.15537801744E+04  0.25500000920E-02 0. -1.
       -2   -1    0    0    0  501  0.00000000000E+00  0.00000000000E+00 -0.12872913604E+04  0.12872913604E+04  0.25500000920E-02 0.  1.
    10030    2    1    2    0    0  0.00000000000E+00  0.00000000000E+00  0.26648881392E+03  0.28410715348E+04  0.28285457709E+04 0.  0.
        3    1    3    3  502    0 -0.40083661139E+03 -0.26062322248E+03  0.14701431810E+04  0.15459351332E+04  0.10100000352E+00 0. -1.
       -3    1    3    3    0  502  0.40083661139E+03  0.26062322248E+03 -0.12036543671E+04  0.12951364016E+04  0.10100000352E+00 0.  1.
</event>
<event>
 5   0  0.9260173E-06  0.2813159E+04  0.7818609E-02  0.8299195E-01
        2   -1    0    0  501    0  0.00000000000E+00  0.00000000000E+00  0.15702019009E+04  0.15702019009E+04  0.25500000920E-02 0.  1.
       -2   -1    0    0    0  501  0.00000000000E+00  0.00000000000E+00 -0.12600072089E+04  0.12600072089E+04  0.25500000920E-02 0. -1.
    10030    2    1    2    0    0  0.00000000000E+00  0.00000000000E+00  0.31019469192E+03  0.28302091098E+04  0.28131588754E+04 0.  0.
        1    1    3    3  502    0  0.11521058721E+04 -0.42234826198E+03  0.84682527531E+03  0.14909188582E+04  0.50400001928E-02 0.  1.
       -1    1    3    3    0  502 -0.11521058721E+04  0.42234826198E+03 -0.53663058339E+03  0.13392902516E+04  0.50400001928E-02 0. -1.
</event>
<event>
 5   0  0.3357244E-06  0.2781816E+04  0.7818609E-02  0.8308936E-01
       -1   -1    0    0    0  501  0.00000000000E+00  0.00000000000E+00  0.10043158219E+04  0.10043158219E+04  0.50400001928E-02 0.  1.
        1   -1    0    0  501    0  0.00000000000E+00  0.00000000000E+00 -0.19263121327E+04  0.19263121327E+04  0.50400001928E-02 0. -1.
    10030    2    1    2    0    0  0.00000000000E+00  0.00000000000E+00 -0.92199631083E+03  0.29306279546E+04  0.27818164949E+04 0.  0.
        4    1    3    3  502    0 -0.66414879061E+03  0.11508094768E+04 -0.27695440914E+02  0.13289938744E+04  0.12699999809E+01 0.  1.
       -4    1    3    3    0  502  0.66414879061E+03 -0.11508094768E+04 -0.89430086991E+03  0.16016340802E+04  0.12699999809E+01 0. -1.
</event>
<event>
 5   0  0.9065579E-06  0.2778001E+04  0.7818609E-02  0.8310131E-01
        2   -1    0    0  501    0  0.00000000000E+00  0.00000000000E+00  0.19204801705E+04  0.19204801705E+04  0.25500000920E-02 0.  1.
       -2   -1    0    0    0  501  0.00000000000E+00  0.00000000000E+00 -0.10046041082E+04  0.10046041082E+04  0.25500000920E-02 0. -1.
    10030    2    1    2    0    0  0.00000000000E+00  0.00000000000E+00  0.91587606224E+03  0.29250842787E+04  0.27780009136E+04 0.  0.
        3    1    3    3  502    0 -0.10094293235E+04  0.24158507237E+03  0.14298539383E+04  0.17668597005E+04  0.10100000352E+00 0.  1.
       -3    1    3    3    0  502  0.10094293235E+04 -0.24158507237E+03 -0.51397787607E+03  0.11582245782E+04  0.10100000352E+00 0. -1.
</event>
<event>
 5   0  0.9260173E-06  0.2739461E+04  0.7818609E-02  0.8322314E-01
        2   -1    0    0  501    0  0.00000000000E+00  0.00000000000E+00  0.10015011473E+04  0.10015011473E+04  0.25500000920E-02 0. -1.
       -2   -1    0    0    0  501  0.00000000000E+00  0.00000000000E+00 -0.18733490476E+04  0.18733490476E+04  0.25500000920E-02 0.  1.
    10030    2    1    2    0    0  0.00000000000E+00  0.00000000000E+00 -0.87184790030E+03  0.28748501950E+04  0.27394606919E+04 0.  0.
        1    1    3    3  502    0  0.17085028715E+03  0.44465653642E+03  0.91177736105E+03  0.10287114329E+04  0.50400001928E-02 0. -1.
       -1    1    3    3    0  502 -0.17085028715E+03 -0.44465653642E+03 -0.17836252613E+04  0.18461387621E+04  0.50400001928E-02 0.  1.
</event>
<event>
 5   0  0.3397882E-06  0.2808124E+04  0.7818609E-02  0.8300751E-01
       -1   -1    0    0    0  501  0.00000000000E+00  0.00000000000E+00  0.12835304427E+04  0.12835304427E+04  0.50400001928E-02 0.  1.
        1   -1    0    0  501    0  0.00000000000E+00  0.00000000000E+00 -0.15359119428E+04  0.15359119428E+04  0.50400001928E-02 0. -1.
    10030    2    1    2    0    0  0.00000000000E+00  0.00000000000E+00 -0.25238150012E+03  0.28194423856E+04  0.28081237408E+04 0.  0.
        2    1    3    3  502    0  0.65843466626E+03 -0.10921873256E+04  0.46352696784E+03  0.13569327964E+04  0.25500000920E-02 0.  1.
       -2    1    3    3    0  502 -0.65843466626E+03  0.10921873256E+04 -0.71590846796E+03  0.14625095892E+04  0.25500000920E-02 0. -1.
</event>
<event>
 5   0  0.9252359E-06  0.2738451E+04  0.7818609E-02  0.8322636E-01
       -2   -1    0    0    0  501  0.00000000000E+00  0.00000000000E+00  0.17632494832E+04  0.17632494832E+04  0.25500000920E-02 0.  1.
        2   -1    0    0  501    0  0.00000000000E+00  0.00000000000E+00 -0.10632518960E+04  0.10632518960E+04  0.25500000920E-02 0. -1.
    10030    2    1    2    0    0  0.00000000000E+00  0.00000000000E+00  0.69999758726E+03  0.28265013792E+04  0.27384509169E+04 0.  0.
        5    1    3    3  502    0 -0.30718341049E+03  0.12006255712E+04  0.95086177390E+03  0.15620574935E+04  0.46999998093E+01 0.  1.
       -5    1    3    3    0  502  0.30718341049E+03 -0.12006255712E+04 -0.25086418665E+03  0.12644438857E+04  0.46999998093E+01 0. -1.
</event>
<event>
 5   0  0.3371603E-06  0.2783923E+04  0.7818609E-02  0.8308277E-01
        1   -1    0    0  501    0  0.00000000000E+00  0.00000000000E+00  0.22639136932E+04  0.22639136932E+04  0.50400001928E-02 0.  1.
       -1   -1    0    0    0  501  0.00000000000E+00  0.00000000000E+00 -0.85584400339E+03  0.85584400340E+03  0.50400001928E-02 0. -1.
    10030    2    1    2    0    0  0.00000000000E+00  0.00000000000E+00  0.14080696898E+04  0.31197576966E+04  0.27839231013E+04 0.  0.
        1    1    3    3  502    0 -0.12984110306E+04 -0.19326394856E+03  0.18522288958E+03  0.13257185512E+04  0.50400001928E-02 0. -1.
       -1    1    3    3    0  502  0.12984110306E+04  0.19326394856E+03  0.12228468002E+04  0.17940391454E+04  0.50400001928E-02 0.  1.
</event>
<event>
 5   0  0.9065579E-06  0.2807034E+04  0.7818609E-02  0.8301088E-01
       -2   -1    0    0    0  501  0.00000000000E+00  0.00000000000E+00  0.12041061602E+04  0.12041061602E+04  0.25500000920E-02 0.  1.
        2   -1    0    0  501    0  0.00000000000E+00  0.00000000000E+00 -0.16359525965E+04  0.16359525966E+04  0.25500000920E-02 0. -1.
    10030    2    1    2    0    0  0.00000000000E+00  0.00000000000E+00 -0.43184643631E+03  0.28400587568E+04  0.28070344489E+04 0.  0.
        3    1    3    3  502    0 -0.31240534369E+03  0.31219040316E+03 -0.15638129697E+04  0.16249833725E+04  0.10100000352E+00 0. -1.
       -3    1    3    3    0  502  0.31240534369E+03 -0.31219040316E+03  0.11319665334E+04  0.12150753843E+04  0.10100000352E+00 0.  1.
</event>
<event>
 5   0  0.9342133E-06  0.2793868E+04  0.7818609E-02  0.8305175E-01
        2   -1    0    0  501    0  0.00000000000E+00  0.00000000000E+00  0.16521342245E+04  0.16521342245E+04  0.25500000920E-02 0. -1.
       -2   -1    0    0    0  501  0.00000000000E+00  0.00000000000E+00 -0.11811534296E+04  0.11811534296E+04  0.25500000920E-02 0.  1.
    10030    2    1    2    0    0  0.00000000000E+00  0.00000000000E+00  0.47098079493E+03  0.28332876542E+04  0.27938675742E+04 0.  0.
        2    1    3    3  502    0 -0.45180353090E+03 -0.10831079319E+04  0.10039249938E+04  0.15443816290E+04  0.25500000920E-02 0.  1.
       -2    1    3    3    0  502  0.45180353090E+03  0.10831079319E+04 -0.53294419884E+03  0.12889060252E+04  0.25500000920E-02 0. -1.
</event>
<event>
 5   0  0.3006875E-06  0.3075673E+04  0.7818609E-02  0.8222446E-01
       -3   -1    0    0    0  501  0.00000000000E+00  0.00000000000E+00  0.14511669070E+04  0.14511669105E+04  0.10100000352E+00 0.  1.
        3   -1    0    0  501    0  0.00000000000E+00  0.00000000000E+00 -0.16296828107E+04  0.16296828138E+04  0.10100000352E+00 0. -1.
    10030    2    1    2    0    0  0.00000000000E+00  0.00000000000E+00 -0.17851590368E+03  0.30808497244E+04  0.30756734378E+04 0.  0.
        2    1    3    3  502    0  0.15333784295E+04 -0.91427638397E+02 -0.16105236663E+02  0.15361861215E+04  0.25500000920E-02 0. -1.
       -2    1    3    3    0  502 -0.15333784295E+04  0.91427638397E+02 -0.16241066702E+03  0.15446636029E+04  0.25500000920E-02 0.  1.
</event>
<event>
 5   0  0.3438130E-06  0.2787724E+04  0.7818609E-02  0.8307090E-01
        1   -1    0    0  501    0  0.00000000000E+00  0.00000000000E+00  0.15060333263E+04  0.15060333263E+04  0.50400001928E-02 0.  1.
       -1   -1    0    0    0  501  0.00000000000E+00  0.00000000000E+00 -0.12900454610E+04  0.12900454610E+04  0.50400001928E-02 0. -1.
    10030    2    1    2    0    0  0.00000000000E+00  0.00000000000E+00  0.21598786524E+03  0.27960787873E+04  0.27877241303E+04 0.  0.
        3    1    3    3  502    0 -0.74455762261E+03  0.10777609346E+04  0.58577935875E+03  0.14349467421E+04  0.10100000352E+00 0.  1.
       -3    1    3    3    0  502  0.74455762261E+03 -0.10777609346E+04 -0.36979149350E+03  0.13611320451E+04  0.10100000352E+00 0. -1.
</event>
<event>
 5   0  0.9065579E-06  0.2813898E+04  0.7818609E-02  0.8298967E-01
        2   -1    0    0  501    0  0.00000000000E+00  0.00000000000E+00  0.12537264976E+04  0.12537264976E+04  0.25500000920E-02 0. -1.
       -2   -1    0    0    0  501  0.00000000000E+00  0.00000000000E+00 -0.15788968807E+04  0.15788968807E+04  0.25500000920E-02 0.  1.
    10030    2    1    2    0    0  0.00000000000E+00  0.00000000000E+00 -0.32517038312E+03  0.28326233783E+04  0.28138975505E+04 0.  0.
        3    1    3    3  502    0  0.93524135379E+03 -0.50993596031E+03  0.76265801623E+03  0.13100985968E+04  0.10100000352E+00 0. -1.
       -3    1    3    3    0  502 -0.93524135379E+03  0.50993596031E+03 -0.10878283993E+04  0.15225247814E+04  0.10100000352E+00 0.  1.
</event>
<event>
 5   0  0.9252359E-06  0.2541286E+04  0.7818609E-02  0.8388423E-01
        2   -1    0    0  501    0  0.00000000000E+00  0.00000000000E+00  0.13715356164E+04  0.13715356164E+04  0.25500000920E-02 0. -1.
       -2   -1    0    0    0  501  0.00000000000E+00  0.00000000000E+00 -0.11771726353E+04  0.11771726353E+04  0.25500000920E-02 0.  1.
    10030    2    1    2    0    0  0.00000000000E+00  0.00000000000E+00  0.19436298112E+03  0.25487082516E+04  0.25412864426E+04 0.  0.
        5    1    3    3  502    0 -0.83119790820E+03 -0.63751559387E+03 -0.62408223146E+03  0.12193509817E+04  0.46999998093E+01 0.  1.
       -5    1    3    3    0  502  0.83119790820E+03  0.63751559387E+03  0.81844521258E+03  0.13293572699E+04  0.46999998093E+01 0. -1.
</event>
<event>
 5   0  0.3006875E-06  0.2747741E+04  0.7818609E-02  0.8319679E-01
       -3   -1    0    0    0  501  0.00000000000E+00  0.00000000000E+00  0.11932045857E+04  0.11932045900E+04  0.10100000352E+00 0.  1.
        3   -1    0    0  501    0  0.00000000000E+00  0.00000000000E+00 -0.15818909569E+04  0.15818909601E+04  0.10100000352E+00 0. -1.
    10030    2    1    2    0    0  0.00000000000E+00  0.00000000000E+00 -0.38868637118E+03  0.27750955501E+04  0.27477405659E+04 0.  0.
        2    1    3    3  502    0  0.45724135921E+03 -0.12954250745E+04 -0.21251593044E+03  0.13900930922E+04  0.25500000920E-02 0. -1.
       -2    1    3    3    0  502 -0.45724135921E+03  0.12954250745E+04 -0.17617044073E+03  0.13850024579E+04  0.25500000920E-02 0.  1.
</event>
<event>
 5   0  0.9260173E-06  0.2862798E+04  0.7818609E-02  0.8284033E-01
        2   -1    0    0  501    0  0.00000000000E+00  0.00000000000E+00  0.15379049316E+04  0.15379049316E+04  0.25500000920E-02 0.  1.
       -2   -1    0    0    0  501  0.00000000000E+00  0.00000000000E+00 -0.13322690627E+04  0.13322690627E+04  0.25500000920E-02 0. -1.
    10030    2    1    2    0    0  0.00000000000E+00  0.00000000000E+00  0.20563586897E+03  0.28701739943E+04  0.28627980451E+04 0.  0.
        1    1    3    3  502    0 -0.40617110503E+03 -0.13383528224E+04  0.40813485036E+03  0.14569616673E+04  0.50400001928E-02 0.  1.
       -1    1    3    3    0  502  0.40617110503E+03  0.13383528224E+04 -0.20249898139E+03  0.14132123270E+04  0.50400001928E-02 0. -1.
</event>
<event>
 5   0  0.3371603E-06  0.2721331E+04  0.7818609E-02  0.8328117E-01
        1   -1    0    0  501    0  0.00000000000E+00  0.00000000000E+00  0.12810712584E+04  0.12810712584E+04  0.50400001928E-02 0.  1.
       -1   -1    0    0    0  501  0.00000000000E+00  0.00000000000E+00 -0.14452050730E+04  0.14452050730E+04  0.50400001928E-02 0. -1.
    10030    2    1    2    0    0  0.00000000000E+00  0.00000000000E+00 -0.16413381464E+03  0.27262763314E+04  0.27213310577E+04 0.  0.
        1    1    3    3  502    0 -0.11368802397E+03  0.13432861821E+04  0.10284355321E+03  0.13520057434E+04  0.50400001928E-02 0.  1.
       -1    1    3    3    0  502  0.11368802397E+03 -0.13432861821E+04 -0.26697736785E+03  0.13742705879E+04  0.50400001928E-02 0. -1.
</event>
<event>
 5   0  0.9065579E-06  0.2777446E+04  0.7818609E-02  0.8310305E-01
       -2   -1    0    0    0  501  0.00000000000E+00  0.00000000000E+00  0.15949621977E+04  0.15949621977E+04  0.25500000920E-02 0. -1.
        2   -1    0    0  501    0  0.00000000000E+00  0.00000000000E+00 -0.12091516500E+04  0.12091516500E+04  0.25500000920E-02 0.  1.
    10030    2    1    2    0    0  0.00000000000E+00  0.00000000000E+00  0.38581054775E+03  0.28041138477E+04  0.27774457136E+04 0.  0.
        3    1    3    3  502    0 -0.87048031054E+03 -0.77515891050E+03  0.95510028320E+03  0.15069253030E+04  0.10100000352E+00 0.  1.
       -3    1    3    3    0  502  0.87048031054E+03  0.77515891050E+03 -0.56928973546E+03  0.12971885448E+04  0.10100000352E+00 0. -1.
</event>
<event>
 5   0  0.9426937E-06  0.2785217E+04  0.7818609E-02  0.8307873E-01
        2   -1    0    0  501    0  0.00000000000E+00  0.00000000000E+00  0.15485349481E+04  0.15485349481E+04  0.25500000920E-02 0.  1.
       -2   -1    0    0    0  501  0.00000000000E+00  0.00000000000E+00 -0.12523825675E+04  0.12523825675E+04  0.25500000920E-02 0. -1.
    10030    2    1    2    0    0  0.00000000000E+00  0.00000000000E+00  0.29615238060E+03  0.28009175156E+04  0.27852168132E+04 0.  0.
        4    1    3    3  502    0  0.23080782779E+03 -0.74506172778E+03  0.13082552136E+04  0.15231291962E+04  0.12699999809E+01 0.  1.
       -4    1    3    3    0  502 -0.23080782779E+03  0.74506172778E+03 -0.10121028330E+04  0.12777883193E+04  0.12699999809E+01 0. -1.
</event>
<event>
 5   0  0.9342133E-06  0.2784216E+04  0.7818609E-02  0.8308186E-01
        2   -1    0    0  501    0  0.00000000000E+00  0.00000000000E+00  0.16666615883E+04  0.16666615883E+04  0.25500000920E-02 0.  1.
       -2   -1    0    0    0  501  0.00000000000E+00  0.00000000000E+00 -0.11627819433E+04  0.11627819433E+04  0.25500000920E-02 0. -1.
    10030    2    1    2    0    0  0.00000000000E+00  0.00000000000E+00  0.50387964499E+03  0.28294435316E+04  0.27842155092E+04 0.  0.
        2    1    3    3  502    0 -0.88879474573E+02  0.36144245590E+03  0.16151565661E+04  0.16574893493E+04  0.25500000920E-02 0.  1.
       -2    1    3    3    0  502  0.88879474573E+02 -0.36144245590E+03 -0.11112769211E+04  0.11719541823E+04  0.25500000920E-02 0. -1.
</event>
<event>
 5   0  0.9426937E-06  0.2794062E+04  0.7818609E-02  0.8305114E-01
        2   -1    0    0  501    0  0.00000000000E+00  0.00000000000E+00  0.21792207339E+04  0.21792207339E+04  0.25500000920E-02 0.  1.
       -2   -1    0    0    0  501  0.00000000000E+00  0.00000000000E+00 -0.89559355036E+03  0.89559355036E+03  0.25500000920E-02 0. -1.
    10030    2    1    2    0    0  0.00000000000E+00  0.00000000000E+00  0.12836271835E+04  0.30748142842E+04  0.27940623000E+04 0.  0.
        4    1    3    3  502    0  0.31369435626E+03  0.98726085143E+03 -0.38971188056E+03  0.11067814150E+04  0.12699999809E+01 0. -1.
       -4    1    3    3    0  502 -0.31369435626E+03 -0.98726085143E+03  0.16733390641E+04  0.19680328692E+04  0.12699999809E+01 0.  1.
</event>
<event>
 5   0  0.9260173E-06  0.2812867E+04  0.7818609E-02  0.8299285E-01
       -2   -1    0    0    0  501  0.00000000000E+00  0.00000000000E+00  0.15854994907E+04  0.15854994907E+04  0.25500000920E-02 0. -1.
        2   -1    0    0  501    0  0.00000000000E+00  0.00000000000E+00 -0.12475909245E+04  0.12475909245E+04  0.25500000920E-02 0.  1.
    10030    2    1    2    0    0  0.00000000000E+00  0.00000000000E+00  0.33790856620E+03  0.28330904152E+04  0.28128667053E+04 0.  0.
        1    1    3    3  502    0 -0.26173823319E+03  0.16746098929E+03  0.15504957821E+04  0.15813245258E+04  0.50400001928E-02 0. -1.
       -1    1    3    3    0  502  0.26173823319E+03 -0.16746098929E+03 -0.12125872159E+04  0.12517658894E+04  0.50400001928E-02 0.  1.
</event>
<event>
 5   0  0.3006875E-06  0.2830039E+04  0.7818609E-02  0.8294003E-01
       -3   -1    0    0    0  501  0.00000000000E+00  0.00000000000E+00  0.20933532410E+04  0.20933532434E+04  0.10100000352E+00 0. -1.
        3   -1    0    0  501    0  0.00000000000E+00  0.00000000000E+00 -0.95649419551E+03  0.95649420084E+03  0.10100000352E+00 0.  1.
    10030    2    1    2    0    0  0.00000000000E+00  0.00000000000E+00  0.11368590455E+04  0.30498474442E+04  0.28300390358E+04 0.  0.
        2    1    3    3  502    0  0.67582113065E+03  0.11153265823E+04 -0.23399238589E+02  0.13043140382E+04  0.25500000920E-02 0.  1.
       -2    1    3    3    0  502 -0.67582113065E+03 -0.11153265823E+04  0.11602582840E+04  0.17455334060E+04  0.25500000920E-02 0. -1.
</event>
<event>
 5   0  0.3371603E-06  0.2843801E+04  0.7818609E-02  0.8289798E-01
        1   -1    0    0  501    0  0.00000000000E+00  0.00000000000E+00  0.31139335746E+04  0.31139335746E+04  0.50400001928E-02 0.  1.
       -1   -1    0    0    0  501  0.00000000000E+00  0.00000000000E+00 -0.64927541926E+03  0.64927541928E+03  0.50400001928E-02 0. -1.
    10030    2    1    2    0    0  0.00000000000E+00  0.00000000000E+00  0.24646581553E+04  0.37632089938E+04  0.28438006451E+04 0.  0.
        1    1    3    3  502    0  0.80169396024E+03 -0.11213756333E+04  0.77087005869E+03  0.15793787273E+04  0.50400001928E-02 0. -1.
       -1    1    3    3    0  502 -0.80169396024E+03  0.11213756333E+04  0.16937880966E+04  0.21838302666E+04  0.50400001928E-02 0.  1.
</event>
<event>
 5   0  0.9260173E-06  0.2803382E+04  0.7818609E-02  0.8302219E-01
       -2   -1    0    0    0  501  0.00000000000E+00  0.00000000000E+00  0.11605301512E+04  0.11605301512E+04  0.25500000920E-02 0.  1.
        2   -1    0    0  501    0  0.00000000000E+00  0.00000000000E+00 -0.16929654334E+04  0.16929654334E+04  0.25500000920E-02 0. -1.
    10030    2    1    2    0    0  0.00000000000E+00  0.00000000000E+00 -0.53243528227E+03  0.28534955846E+04  0.28033818366E+04 0.  0.
        1    1    3    3  502    0 -0.69089298517E+03  0.76472655390E+03 -0.12332522999E+04  0.16071873116E+04  0.50400001928E-02 0. -1.
       -1    1    3    3    0  502  0.69089298517E+03 -0.76472655390E+03  0.70081701766E+03  0.12463082730E+04  0.50400001928E-02 0.  1.
</event>
<event>
 5   0  0.3397882E-06  0.2805470E+04  0.7818609E-02  0.8301572E-01
        1   -1    0    0  501    0  0.00000000000E+00  0.00000000000E+00  0.24658830598E+04  0.24658830598E+04  0.50400001928E-02 0.  1.
       -1   -1    0    0    0  501  0.00000000000E+00  0.00000000000E+00 -0.79795589127E+03  0.79795589129E+03  0.50400001928E-02 0. -1.
    10030    2    1    2    0    0  0.00000000000E+00  0.00000000000E+00  0.16679271686E+04  0.32638389511E+04  0.28054703098E+04 0.  0.
        2    1    3    3  502    0  0.53336087863E+03 -0.86624499656E+03  0.19575850697E+04  0.22061263622E+04  0.25500000920E-02 0.  1.
       -2    1    3    3    0  502 -0.53336087863E+03  0.86624499656E+03 -0.28965790119E+03  0.10577125889E+04  0.25500000920E-02 0. -1.
</event>
<event>
 5   0  0.3438130E-06  0.2800485E+04  0.7818609E-02  0.8303118E-01
        1   -1    0    0  501    0  0.00000000000E+00  0.00000000000E+00  0.12553166231E+04  0.12553166231E+04  0.50400001928E-02 0.  1.
       -1   -1    0    0    0  501  0.00000000000E+00  0.00000000000E+00 -0.15618998957E+04  0.15618998958E+04  0.50400001928E-02 0. -1.
    10030    2    1    2    0    0  0.00000000000E+00  0.00000000000E+00 -0.30658327269E+03  0.28172165188E+04  0.28004848885E+04 0.  0.
        3    1    3    3  502    0  0.21433548813E+03  0.12435855965E+04  0.45715677531E+03  0.13421762793E+04  0.10100000352E+00 0.  1.
       -3    1    3    3    0  502 -0.21433548813E+03 -0.12435855965E+04 -0.76374004799E+03  0.14750402396E+04  0.10100000352E+00 0. -1.
</event>
<event>
 5   0  0.3357244E-06  0.2808343E+04  0.7818609E-02  0.8300683E-01
        1   -1    0    0  501    0  0.00000000000E+00  0.00000000000E+00  0.11318335378E+04  0.11318335378E+04  0.50400001928E-02 0.  1.
       -1   -1    0    0    0  501  0.00000000000E+00  0.00000000000E+00 -0.17420389413E+04  0.17420389413E+04  0.50400001928E-02 0. -1.
    10030    2    1    2    0    0  0.00000000000E+00  0.00000000000E+00 -0.61020540349E+03  0.28738724792E+04  0.28083433537E+04 0.  0.
        4    1    3    3  502    0 -0.38153042574E+03 -0.11355089898E+04  0.44462482863E+03  0.12777476209E+04  0.12699999809E+01 0.  1.
       -4    1    3    3    0  502  0.38153042574E+03  0.11355089898E+04 -0.10548302321E+04  0.15961248583E+04  0.12699999809E+01 0. -1.
</event>
<event>
 5   0  0.9260173E-06  0.2800432E+04  0.7818609E-02  0.8303134E-01
        2   -1    0    0  501    0  0.00000000000E+00  0.00000000000E+00  0.10879501212E+04  0.10879501212E+04  0.25500000920E-02 0.  1.
       -2   -1    0    0    0  501  0.00000000000E+00  0.00000000000E+00 -0.18021096692E+04  0.18021096692E+04  0.25500000920E-02 0. -1.
    10030    2    1    2    0    0  0.00000000000E+00  0.00000000000E+00 -0.71415954798E+03  0.28900597905E+04  0.28004324188E+04 0.  0.
        1    1    3    3  502    0  0.71956021123E+03  0.30590256878E+03 -0.15558333080E+04  0.17412525841E+04  0.50400001928E-02 0. -1.
       -1    1    3    3    0  502 -0.71956021123E+03 -0.30590256878E+03  0.84167376001E+03  0.11488072064E+04  0.50400001928E-02 0.  1.
</event>
<event>
 5   0  0.3397882E-06  0.2496870E+04  0.7818609E-02  0.8404102E-01
        1   -1    0    0  501    0  0.00000000000E+00  0.00000000000E+00  0.20451395379E+04  0.20451395379E+04  0.50400001928E-02 0.  1.
       -1   -1    0    0    0  501  0.00000000000E+00  0.00000000000E+00 -0.76209450869E+03  0.76209450871E+03  0.50400001928E-02 0. -1.
    10030    2    1    2    0    0  0.00000000000E+00  0.00000000000E+00  0.12830450292E+04  0.28072340466E+04  0.24968697294E+04 0.  0.
        2    1    3    3  502    0  0.10318463679E+03  0.12441426563E+04  0.64959816063E+03  0.14073079936E+04  0.25500000920E-02 0. -1.
       -2    1    3    3    0  502 -0.10318463679E+03 -0.12441426563E+04  0.63344686858E+03  0.13999260530E+04  0.25500000920E-02 0.  1.
</event>
<event>
 5   0  0.3600963E-06  0.2806872E+04  0.7818609E-02  0.8301138E-01
        1   -1    0    0  501    0  0.00000000000E+00  0.00000000000E+00  0.20188496480E+04  0.20188496480E+04  0.50400001928E-02 0.  1.
       -1   -1    0    0    0  501  0.00000000000E+00  0.00000000000E+00 -0.97562132372E+03  0.97562132374E+03  0.50400001928E-02 0. -1.
    10030    2    1    2    0    0  0.00000000000E+00  0.00000000000E+00  0.10432283243E+04  0.29944709717E+04  0.28068721139E+04 0.  0.
        5    1    3    3  502    0  0.12021496185E+04  0.17676587343E+03 -0.22760584511E+03  0.12362185850E+04  0.46999998093E+01 0. -1.
       -5    1    3    3    0  502 -0.12021496185E+04 -0.17676587343E+03  0.12708341694E+04  0.17582523867E+04  0.46999998093E+01 0.  1.
</event>
<event>
 5   0  0.3600963E-06  0.2761359E+04  0.7818609E-02  0.8315366E-01
       -1   -1    0    0    0  501  0.00000000000E+00  0.00000000000E+00  0.12806265907E+04  0.12806265907E+04  0.50400001928E-02 0.  1.
        1   -1    0    0  501    0  0.00000000000E+00  0.00000000000E+00 -0.14885492510E+04  0.14885492510E+04  0.50400001928E-02 0. -1.
    10030    2    1    2    0    0  0.00000000000E+00  0.00000000000E+00 -0.20792266032E+03  0.27691758417E+04  0.27613589064E+04 0.  0.
        5    1    3    3  502    0  0.34028803539E+03  0.11109393378E+04  0.64398611449E+03  0.13284285322E+04  0.46999998093E+01 0.  1.
       -5    1    3    3    0  502 -0.34028803539E+03 -0.11109393378E+04 -0.85190877481E+03  0.14407473096E+04  0.46999998093E+01 0. -1.
</event>
<event>
 5   0  0.9260173E-06  0.2809212E+04  0.7818609E-02  0.8300414E-01
        2   -1    0    0  501    0  0.00000000000E+00  0.00000000000E+00  0.90689816395E+03  0.90689816395E+03  0.25500000920E-02 0.  1.
       -2   -1    0    0    0  501  0.00000000000E+00  0.00000000000E+00 -0.21754566177E+04  0.21754566177E+04  0.25500000920E-02 0. -1.
    10030    2    1    2    0    0  0.00000000000E+00  0.00000000000E+00 -0.12685584538E+04  0.30823547817E+04  0.28092117132E+04 0.  0.
        1    1    3    3  502    0  0.79328102674E+02  0.57473854922E+03 -0.20378349347E+04  0.21188177290E+04  0.50400001928E-02 0. -1.
       -1    1    3    3    0  502 -0.79328102674E+02 -0.57473854922E+03  0.76927648087E+03  0.96353705267E+03  0.50400001928E-02 0.  1.
</event>
<event>
 5   0  0.3600963E-06  0.2780381E+04  0.7818609E-02  0.8309385E-01
        1   -1    0    0  501    0  0.00000000000E+00  0.00000000000E+00  0.18247976426E+04  0.18247976426E+04  0.50400001928E-02 0.  1.
       -1   -1    0    0    0  501  0.00000000000E+00  0.00000000000E+00 -0.10590923237E+04  0.10590923238E+04  0.50400001928E-02 0. -1.
    10030    2    1    2    0    0  0.00000000000E+00  0.00000000000E+00  0.76570531889E+03  0.28838899664E+04  0.27803806759E+04 0.  0.
        5    1    3    3  502    0  0.85608925686E+03  0.69527754431E+03 -0.49500508624E+03  0.12088638487E+04  0.46999998093E+01 0. -1.
       -5    1    3    3    0  502 -0.85608925686E+03 -0.69527754431E+03  0.12607104051E+04  0.16750261177E+04  0.46999998093E+01 0.  1.
</event>
<event>
 5   0  0.9342133E-06  0.2781039E+04  0.7818609E-02  0.8309179E-01
        2   -1    0    0  501    0  0.00000000000E+00  0.00000000000E+00  0.15856681534E+04  0.15856681534E+04  0.25500000920E-02 0. -1.
       -2   -1    0    0    0  501  0.00000000000E+00  0.00000000000E+00 -0.12193879021E+04  0.12193879021E+04  0.25500000920E-02 0.  1.
    10030    2    1    2    0    0  0.00000000000E+00  0.00000000000E+00  0.36628025132E+03  0.28050560554E+04  0.27810390597E+04 0.  0.
        2    1    3    3  502    0  0.10478377934E+04  0.36839039028E+03  0.10269465889E+04  0.15127110819E+04  0.25500000920E-02 0.  1.
       -2    1    3    3    0  502 -0.10478377934E+04 -0.36839039028E+03 -0.66066633755E+03  0.12923449735E+04  0.25500000920E-02 0. -1.
</event>
<event>
 5   0  0.3397882E-06  0.2291043E+04  0.7818609E-02  0.8481461E-01
        1   -1    0    0  501    0  0.00000000000E+00  0.00000000000E+00  0.22978749828E+04  0.22978749828E+04  0.50400001928E-02 0.  1.
       -1   -1    0    0    0  501  0.00000000000E+00  0.00000000000E+00 -0.57105778977E+03  0.57105778979E+03  0.50400001928E-02 0. -1.
    10030    2    1    2    0    0  0.00000000000E+00  0.00000000000E+00  0.17268171930E+04  0.28689327726E+04  0.22910429144E+04 0.  0.
        2    1    3    3  502    0 -0.23102409992E+03 -0.51568914275E+03 -0.38438434106E+03  0.68341696522E+03  0.25500000920E-02 0. -1.
       -2    1    3    3    0  502  0.23102409992E+03  0.51568914275E+03  0.21112015341E+04  0.21855158074E+04  0.25500000920E-02 0.  1.
</event>
<event>
 5   0  0.9252359E-06  0.2753518E+04  0.7818609E-02  0.8317846E-01
       -2   -1    0    0    0  501  0.00000000000E+00  0.00000000000E+00  0.74422072397E+03  0.74422072398E+03  0.25500000920E-02 0. -1.
        2   -1    0    0  501    0  0.00000000000E+00  0.00000000000E+00 -0.25469136765E+04  0.25469136765E+04  0.25500000920E-02 0.  1.
    10030    2    1    2    0    0  0.00000000000E+00  0.00000000000E+00 -0.18026929525E+04  0.32911344005E+04  0.27535184330E+04 0.  0.
        5    1    3    3  502    0 -0.39424488878E+03  0.12764793732E+04 -0.12988720642E+04  0.18633087108E+04  0.46999998093E+01 0.  1.
       -5    1    3    3    0  502  0.39424488878E+03 -0.12764793732E+04 -0.50382088832E+03  0.14278256897E+04  0.46999998093E+01 0. -1.
</event>
<event>
 5   0  0.9426937E-06  0.2820017E+04  0.7818609E-02  0.8297081E-01
       -2   -1    0    0    0  501  0.00000000000E+00  0.00000000000E+00  0.82190482406E+03  0.82190482406E+03  0.25500000920E-02 0.  1.
        2   -1    0    0  501    0  0.00000000000E+00  0.00000000000E+00 -0.24189223984E+04  0.24189223984E+04  0.25500000920E-02 0. -1.
    10030    2    1    2    0    0  0.00000000000E+00  0.00000000000E+00 -0.15970175743E+04  0.32408272224E+04  0.28200170129E+04 0.  0.
        4    1    3    3  502    0 -0.87048545185E+03  0.11999141596E+03  0.46875574136E+03  0.99592992713E+03  0.12699999809E+01 0.  1.
       -4    1    3    3    0  502  0.87048545185E+03 -0.11999141596E+03 -0.20657733157E+04  0.22448972953E+04  0.12699999809E+01 0. -1.
</event>
<event>
 5   0  0.9426937E-06  0.2791562E+04  0.7818609E-02  0.8305893E-01
       -2   -1    0    0    0  501  0.00000000000E+00  0.00000000000E+00  0.11500831059E+04  0.11500831059E+04  0.25500000920E-02 0.  1.
        2   -1    0    0  501    0  0.00000000000E+00  0.00000000000E+00 -0.16939686038E+04  0.16939686038E+04  0.25500000920E-02 0. -1.
    10030    2    1    2    0    0  0.00000000000E+00  0.00000000000E+00 -0.54388549792E+03  0.28440517097E+04  0.27915620524E+04 0.  0.
        4    1    3    3  502    0 -0.85745992936E+03 -0.11013059486E+04 -0.26223802718E+03  0.14201699612E+04  0.12699999809E+01 0.  1.
       -4    1    3    3    0  502  0.85745992936E+03  0.11013059486E+04 -0.28164747074E+03  0.14238817485E+04  0.12699999809E+01 0. -1.
</event>
<event>
 5   0  0.3006875E-06  0.2795544E+04  0.7818609E-02  0.8304653E-01
       -3   -1    0    0    0  501  0.00000000000E+00  0.00000000000E+00  0.10564686383E+04  0.10564686431E+04  0.10100000352E+00 0.  1.
        3   -1    0    0  501    0  0.00000000000E+00  0.00000000000E+00 -0.18493376182E+04  0.18493376210E+04  0.10100000352E+00 0. -1.
    10030    2    1    2    0    0  0.00000000000E+00  0.00000000000E+00 -0.79286897993E+03  0.29058062641E+04  0.27955444595E+04 0.  0.
        4    1    3    3  502    0 -0.60483451655E+03  0.22324706882E+03  0.89268375969E+03  0.11011584599E+04  0.12699999809E+01 0.  1.
       -4    1    3    3    0  502  0.60483451655E+03 -0.22324706882E+03 -0.16855527396E+04  0.18046478042E+04  0.12699999809E+01 0. -1.
</event>
<event>
 5   0  0.3006875E-06  0.2777539E+04  0.7818609E-02  0.8310276E-01
        3   -1    0    0  501    0  0.00000000000E+00  0.00000000000E+00  0.20246373839E+04  0.20246373865E+04  0.10100000352E+00 0.  1.
       -3   -1    0    0    0  501  0.00000000000E+00  0.00000000000E+00 -0.95260531761E+03  0.95260532296E+03  0.10100000352E+00 0. -1.
    10030    2    1    2    0    0  0.00000000000E+00  0.00000000000E+00  0.10720320663E+04  0.29772427094E+04  0.27775387305E+04 0.  0.
        3    1    3    3  502    0 -0.10910077023E+04 -0.74995773140E+03  0.98563408004E+03  0.16505177840E+04  0.10100000352E+00 0.  1.
       -3    1    3    3    0  502  0.10910077023E+04  0.74995773140E+03  0.86397986304E+02  0.13267249254E+04  0.10100000352E+00 0. -1.
</event>
<event>
 5   0  0.3600963E-06  0.2564163E+04  0.7818609E-02  0.8380477E-01
       -1   -1    0    0    0  501  0.00000000000E+00  0.00000000000E+00  0.13380016214E+04  0.13380016214E+04  0.50400001928E-02 0. -1.
        1   -1    0    0  501    0  0.00000000000E+00  0.00000000000E+00 -0.12284981419E+04  0.12284981419E+04  0.50400001928E-02 0.  1.
    10030    2    1    2    0    0  0.00000000000E+00  0.00000000000E+00  0.10950347945E+03  0.25664997633E+04  0.25641626359E+04 0.  0.
        5    1    3    3  502    0  0.65256751223E+03  0.17447469560E+03  0.11454351040E+04  0.13297854883E+04  0.46999998093E+01 0. -1.
       -5    1    3    3    0  502 -0.65256751223E+03 -0.17447469560E+03 -0.10359316245E+04  0.12367142750E+04  0.46999998093E+01 0.  1.
</event>
<event>
 5   0  0.9260173E-06  0.2406942E+04  0.7818609E-02  0.8436909E-01
       -2   -1    0    0    0  501  0.00000000000E+00  0.00000000000E+00  0.59768809850E+03  0.59768809851E+03  0.25500000920E-02 0. -1.
        2   -1    0    0  501    0  0.00000000000E+00  0.00000000000E+00 -0.24232418232E+04  0.24232418232E+04  0.25500000920E-02 0.  1.
    10030    2    1    2    0    0  0.00000000000E+00  0.00000000000E+00 -0.18255537247E+04  0.30209299217E+04  0.24069422906E+04 0.  0.
        1    1    3    3  502    0  0.51130404903E+03  0.10687852493E+04 -0.64769104162E+03  0.13502730928E+04  0.50400001928E-02 0.  1.
       -1    1    3    3    0  502 -0.51130404903E+03 -0.10687852493E+04 -0.11778626831E+04  0.16706568289E+04  0.50400001928E-02 0. -1.
</event>
<event>
 5   0  0.9252359E-06  0.2805519E+04  0.7818609E-02  0.8301557E-01
        2   -1    0    0  501    0  0.00000000000E+00  0.00000000000E+00  0.15381543366E+04  0.15381543366E+04  0.25500000920E-02 0.  1.
       -2   -1    0    0    0  501  0.00000000000E+00  0.00000000000E+00 -0.12792829616E+04  0.12792829616E+04  0.25500000920E-02 0. -1.
    10030    2    1    2    0    0  0.00000000000E+00  0.00000000000E+00  0.25887137503E+03  0.28174372982E+04  0.28055192996E+04 0.  0.
        5    1    3    3  502    0 -0.52914085488E+02 -0.12685431042E+04  0.72838444690E+03  0.14637511742E+04  0.46999998093E+01 0. -1.
       -5    1    3    3    0  502  0.52914085488E+02  0.12685431042E+04 -0.46951307186E+03  0.13536861240E+04  0.46999998093E+01 0.  1.
</event>
<event>
 5   0  0.3600963E-06  0.2799272E+04  0.7818609E-02  0.8303494E-01
        1   -1    0    0  501    0  0.00000000000E+00  0.00000000000E+00  0.20069961530E+04  0.20069961530E+04  0.50400001928E-02 0.  1.
       -1   -1    0    0    0  501  0.00000000000E+00  0.00000000000E+00 -0.97607599522E+03  0.97607599523E+03  0.50400001928E-02 0. -1.
    10030    2    1    2    0    0  0.00000000000E+00  0.00000000000E+00  0.10309201578E+04  0.29830721482E+04  0.27992718821E+04 0.  0.
        5    1    3    3  502    0  0.50386280722E+03  0.12524412118E+04  0.12178276397E+03  0.13554850973E+04  0.46999998093E+01 0. -1.
       -5    1    3    3    0  502 -0.50386280722E+03 -0.12524412118E+04  0.90913739380E+03  0.16275870509E+04  0.46999998093E+01 0.  1.
</event>
<event>
 5   0  0.9426937E-06  0.2798429E+04  0.7818609E-02  0.8303756E-01
        2   -1    0    0  501    0  0.00000000000E+00  0.00000000000E+00  0.99730506833E+03  0.99730506833E+03  0.25500000920E-02 0. -1.
       -2   -1    0    0    0  501  0.00000000000E+00  0.00000000000E+00 -0.19630917651E+04  0.19630917651E+04  0.25500000920E-02 0.  1.
    10030    2    1    2    0    0  0.00000000000E+00  0.00000000000E+00 -0.96578669674E+03  0.29603968334E+04  0.27984291071E+04 0.  0.
        4    1    3    3  502    0 -0.12836890062E+04 -0.48951189106E+03 -0.76342139107E+03  0.15717166377E+04  0.12699999809E+01 0.  1.
       -4    1    3    3    0  502  0.12836890062E+04  0.48951189106E+03 -0.20236530567E+03  0.13886801957E+04  0.12699999809E+01 0. -1.
</event>
<event>
 5   0  0.9260173E-06  0.2827580E+04  0.7818609E-02  0.8294757E-01
       -2   -1    0    0    0  501  0.00000000000E+00  0.00000000000E+00  0.66723114995E+03  0.66723114996E+03  0.25500000920E-02 0. -1.
        2   -1    0    0  501    0  0.00000000000E+00  0.00000000000E+00 -0.29956673990E+04  0.29956673990E+04  0.25500000920E-02 0.  1.
    10030    2    1    2    0    0  0.00000000000E+00  0.00000000000E+00 -0.23284362490E+04  0.36628985490E+04  0.28275803108E+04 0.  0.
        1    1    3    3  502    0  0.64927044796E+03  0.31431154461E+03  0.41090514003E+03  0.83017281081E+03  0.50400001928E-02 0. -1.
       -1    1    3    3    0  502 -0.64927044796E+03 -0.31431154461E+03 -0.27393413891E+04  0.28327257382E+04  0.50400001928E-02 0.  1.
</event>
<event>
 5   0  0.3438130E-06  0.2843439E+04  0.7818609E-02  0.8289908E-01
       -1   -1    0    0    0  501  0.00000000000E+00  0.00000000000E+00  0.98630920173E+03  0.98630920175E+03  0.50400001928E-02 0.  1.
        1   -1    0    0  501    0  0.00000000000E+00  0.00000000000E+00 -0.20493440289E+04  0.20493440289E+04  0.50400001928E-02 0. -1.
    10030    2    1    2    0    0  0.00000000000E+00  0.00000000000E+00 -0.10630348271E+04  0.30356532306E+04  0.28434393774E+04 0.  0.
        3    1    3    3  502    0 -0.10304335453E+04 -0.14880838755E+03 -0.15651328666E+04  0.18797814043E+04  0.10100000352E+00 0.  1.
       -3    1    3    3    0  502  0.10304335453E+04  0.14880838755E+03  0.50209803948E+03  0.11558718263E+04  0.10100000352E+00 0. -1.
</event>
<event>
 5   0  0.9065579E-06  0.2821737E+04  0.7818609E-02  0.8296552E-01
        2   -1    0    0  501    0  0.00000000000E+00  0.00000000000E+00  0.16814058721E+04  0.16814058721E+04  0.25500000920E-02 0. -1.
       -2   -1    0    0    0  501  0.00000000000E+00  0.00000000000E+00 -0.11838600454E+04  0.11838600454E+04  0.25500000920E-02 0.  1.
    10030    2    1    2    0    0  0.00000000000E+00  0.00000000000E+00  0.49754582672E+03  0.28652659175E+04  0.28217365093E+04 0.  0.
        3    1    3    3  502    0 -0.48305889629E+03  0.54311011983E+02  0.15936873935E+04  0.16661737910E+04  0.10100000352E+00 0. -1.
       -3    1    3    3    0  502  0.48305889629E+03 -0.54311011983E+02 -0.10961415668E+04  0.11990921265E+04  0.10100000352E+00 0.  1.
</event>
<event>
 5   0  0.3438130E-06  0.2846241E+04  0.7818609E-02  0.8289054E-01
        1   -1    0    0  501    0  0.00000000000E+00  0.00000000000E+00  0.12354247764E+04  0.12354247764E+04  0.50400001928E-02 0. -1.
       -1   -1    0    0    0  501  0.00000000000E+00  0.00000000000E+00 -0.16393329753E+04  0.16393329754E+04  0.50400001928E-02 0.  1.
    10030    2    1    2    0    0  0.00000000000E+00  0.00000000000E+00 -0.40390819895E+03  0.28747577518E+04  0.28462414336E+04 0.  0.
        3    1    3    3  502    0  0.10248014549E+04 -0.68531445175E+02 -0.11968909322E+04  0.15771691396E+04  0.10100000352E+00 0.  1.
       -3    1    3    3    0  502 -0.10248014549E+04  0.68531445175E+02  0.79298273327E+03  0.12975886122E+04  0.10100000352E+00 0. -1.
</event>
<event>
 5   0  0.3600963E-06  0.2808477E+04  0.7818609E-02  0.8300642E-01
       -1   -1    0    0    0  501  0.00000000000E+00  0.00000000000E+00  0.92976123179E+03  0.92976123180E+03  0.50400001928E-02 0.  1.
        1   -1    0    0  501    0  0.00000000000E+00  0.00000000000E+00 -0.21208513524E+04  0.21208513524E+04  0.50400001928E-02 0. -1.
    10030    2    1    2    0    0  0.00000000000E+00  0.00000000000E+00 -0.11910901206E+04  0.30506125842E+04  0.28084767158E+04 0.  0.
        5    1    3    3  502    0  0.12570362005E+04 -0.60562294849E+03 -0.76709882089E+03  0.15922882453E+04  0.46999998093E+01 0.  1.
       -5    1    3    3    0  502 -0.12570362005E+04  0.60562294849E+03 -0.42399129968E+03  0.14583243389E+04  0.46999998093E+01 0. -1.
</event>
<event>
 5   0  0.3371603E-06  0.2799412E+04  0.7818609E-02  0.8303451E-01
       -1   -1    0    0    0  501  0.00000000000E+00  0.00000000000E+00  0.16393734564E+04  0.16393734564E+04  0.50400001928E-02 0.  1.
        1   -1    0    0  501    0  0.00000000000E+00  0.00000000000E+00 -0.11950766665E+04  0.11950766665E+04  0.50400001928E-02 0. -1.
    10030    2    1    2    0    0  0.00000000000E+00  0.00000000000E+00  0.44429678984E+03  0.28344501229E+04  0.27994120564E+04 0.  0.
        1    1    3    3  502    0  0.93826305690E+03  0.31599452680E+03 -0.77967327626E+03  0.12601906692E+04  0.50400001928E-02 0. -1.
       -1    1    3    3    0  502 -0.93826305690E+03 -0.31599452680E+03  0.12239700661E+04  0.15742594537E+04  0.50400001928E-02 0.  1.
</event>
<event>
 5   0  0.3371603E-06  0.2795322E+04  0.7818609E-02  0.8304722E-01
       -1   -1    0    0    0  501  0.00000000000E+00  0.00000000000E+00  0.10335892568E+04  0.10335892568E+04  0.50400001928E-02 0.  1.
        1   -1    0    0  501    0  0.00000000000E+00  0.00000000000E+00 -0.18899735506E+04  0.18899735506E+04  0.50400001928E-02 0. -1.
    10030    2    1    2    0    0  0.00000000000E+00  0.00000000000E+00 -0.85638429377E+03  0.29235628074E+04  0.27953220619E+04 0.  0.
        1    1    3    3  502    0 -0.12491273874E+04  0.59237462499E+03 -0.64311776876E+03  0.15247384664E+04  0.50400001928E-02 0. -1.
       -1    1    3    3    0  502  0.12491273874E+04 -0.59237462499E+03 -0.21326652501E+03  0.13988243410E+04  0.50400001928E-02 0.  1.
</event>
<event>
 5   0  0.9065579E-06  0.2792695E+04  0.7818609E-02  0.8305540E-01
        2   -1    0    0  501    0  0.00000000000E+00  0.00000000000E+00  0.88386994855E+03  0.88386994855E+03  0.25500000920E-02 0. -1.
       -2   -1    0    0    0  501  0.00000000000E+00  0.00000000000E+00 -0.22059656143E+04  0.22059656143E+04  0.25500000920E-02 0.  1.
    10030    2    1    2    0    0  0.00000000000E+00  0.00000000000E+00 -0.13220956658E+04  0.30898355629E+04  0.27926952673E+04 0.  0.
        3    1    3    3  502    0 -0.29306778672E+03 -0.81621102059E+03 -0.18718840380E+04  0.20630169703E+04  0.10100000352E+00 0.  1.
       -3    1    3    3    0  502  0.29306778672E+03  0.81621102059E+03  0.54978837220E+03  0.10268185926E+04  0.10100000352E+00 0. -1.
</event>
<event>
 5   0  0.3371603E-06  0.2787970E+04  0.7818609E-02  0.8307013E-01
        1   -1    0    0  501    0  0.00000000000E+00  0.00000000000E+00  0.19228156681E+04  0.19228156681E+04  0.50400001928E-02 0. -1.
       -1   -1    0    0    0  501  0.00000000000E+00  0.00000000000E+00 -0.10105984045E+04  0.10105984045E+04  0.50400001928E-02 0.  1.
    10030    2    1    2    0    0  0.00000000000E+00  0.00000000000E+00  0.91221726362E+03  0.29334140726E+04  0.27879701909E+04 0.  0.
        1    1    3    3  502    0  0.97107576866E+03 -0.81300714588E+03 -0.15670667580E+03  0.12761370420E+04  0.50400001928E-02 0.  1.
       -1    1    3    3    0  502 -0.97107576866E+03  0.81300714588E+03  0.10689239394E+04  0.16572770306E+04  0.50400001928E-02 0. -1.
</event>
<event>
 5   0  0.3397882E-06  0.2803467E+04  0.7818609E-02  0.8302193E-01
        1   -1    0    0  501    0  0.00000000000E+00  0.00000000000E+00  0.18050324418E+04  0.18050324418E+04  0.50400001928E-02 0. -1.
       -1   -1    0    0    0  501  0.00000000000E+00  0.00000000000E+00 -0.10885437085E+04  0.10885437085E+04  0.50400001928E-02 0.  1.
    10030    2    1    2    0    0  0.00000000000E+00  0.00000000000E+00  0.71648873337E+03  0.28935761503E+04  0.28034669309E+04 0.  0.
        2    1    3    3  502    0  0.68979526313E+02  0.12364095898E+04  0.10361581194E+04  0.16146487226E+04  0.25500000920E-02 0. -1.
       -2    1    3    3    0  502 -0.68979526313E+02 -0.12364095898E+04 -0.31966938606E+03  0.12789274277E+04  0.25500000920E-02 0.  1.
</event>
<event>
 5   0  0.3600963E-06  0.2817416E+04  0.7818609E-02  0.8297882E-01
       -1   -1    0    0    0  501  0.00000000000E+00  0.00000000000E+00  0.15223768410E+04  0.15223768410E+04  0.50400001928E-02 0. -1.
        1   -1    0    0  501    0  0.00000000000E+00  0.00000000000E+00 -0.13035266337E+04  0.13035266338E+04  0.50400001928E-02 0.  1.
    10030    2    1    2    0    0  0.00000000000E+00  0.00000000000E+00  0.21885020727E+03  0.28259034748E+04  0.28174163760E+04 0.  0.
        5    1    3    3  502    0  0.46162461585E+03 -0.11015881395E+04 -0.63971365124E+03  0.13549351868E+04  0.46999998093E+01 0. -1.
       -5    1    3    3    0  502 -0.46162461585E+03  0.11015881395E+04  0.85856385851E+03  0.14709682879E+04  0.46999998093E+01 0.  1.
</event>
<event>
 5   0  0.9260173E-06  0.2803474E+04  0.7818609E-02  0.8302191E-01
       -2   -1    0    0    0  501  0.00000000000E+00  0.00000000000E+00  0.12185701907E+04  0.12185701907E+04  0.25500000920E-02 0. -1.
        2   -1    0    0  501    0  0.00000000000E+00  0.00000000000E+00 -0.16124359091E+04  0.16124359091E+04  0.25500000920E-02 0.  1.
    10030    2    1    2    0    0  0.00000000000E+00  0.00000000000E+00 -0.39386571840E+03  0.28310060998E+04  0.28034737974E+04 0.  0.
        1    1    3    3  502    0 -0.54121812969E+03 -0.12807138210E+04 -0.37678695247E+03  0.14405253773E+04  0.50400001928E-02 0. -1.
       -1    1    3    3    0  502  0.54121812969E+03  0.12807138210E+04 -0.17078765925E+02  0.13904807224E+04  0.50400001928E-02 0.  1.
</event>
<event>
 5   0  0.9065579E-06  0.2830796E+04  0.7818609E-02  0.8293771E-01
       -2   -1    0    0    0  501  0.00000000000E+00  0.00000000000E+00  0.16034139796E+04  0.16034139796E+04  0.25500000920E-02 0. -1.
        2   -1    0    0  501    0  0.00000000000E+00  0.00000000000E+00 -0.12494290571E+04  0.12494290571E+04  0.25500000920E-02 0.  1.
    10030    2    1    2    0    0  0.00000000000E+00  0.00000000000E+00  0.35398492242E+03  0.28528430367E+04  0.28307963662E+04 0.  0.
        3    1    3    3  502    0  0.14006933445E+04 -0.19440689540E+03  0.11638994356E+03  0.14189018696E+04  0.10100000352E+00 0.  1.
       -3    1    3    3    0  502 -0.14006933445E+04  0.19440689540E+03  0.23759497887E+03  0.14339411671E+04  0.10100000352E+00 0. -1.
</event>
<event>
 5   0  0.3371603E-06  0.2795528E+04  0.7818609E-02  0.8304658E-01
       -1   -1    0    0    0  501  0.00000000000E+00  0.00000000000E+00  0.15624483400E+04  0.15624483400E+04  0.50400001928E-02 0. -1.
        1   -1    0    0  501    0  0.00000000000E+00  0.00000000000E+00 -0.12504377683E+04  0.12504377683E+04  0.50400001928E-02 0.  1.
    10030    2    1    2    0    0  0.00000000000E+00  0.00000000000E+00  0.31201057175E+03  0.28128861084E+04  0.27955281543E+04 0.  0.
        1    1    3    3  502    0  0.19657059877E+03  0.53530764433E+03 -0.11280651442E+04  0.12640115679E+04  0.50400001928E-02 0.  1.
       -1    1    3    3    0  502 -0.19657059877E+03 -0.53530764433E+03  0.14400757159E+04  0.15488745404E+04  0.50400001928E-02 0. -1.
</event>
<event>
 5   0  0.3397882E-06  0.2794350E+04  0.7818609E-02  0.8305025E-01
        1   -1    0    0  501    0  0.00000000000E+00  0.00000000000E+00  0.16664934874E+04  0.16664934875E+04  0.50400001928E-02 0.  1.
       -1   -1    0    0    0  501  0.00000000000E+00  0.00000000000E+00 -0.11713803130E+04  0.11713803130E+04  0.50400001928E-02 0. -1.
    10030    2    1    2    0    0  0.00000000000E+00  0.00000000000E+00  0.49511317444E+03  0.28378738005E+04  0.27943497726E+04 0.  0.
        2    1    3    3  502    0  0.33672566593E+03  0.20373105750E+03  0.16090369460E+04  0.16564692606E+04  0.25500000920E-02 0.  1.
       -2    1    3    3    0  502 -0.33672566593E+03 -0.20373105750E+03 -0.11139237716E+04  0.11814045398E+04  0.25500000920E-02 0. -1.
</event>
<event>
 5   0  0.3357244E-06  0.2822800E+04  0.7818609E-02  0.8296225E-01
       -1   -1    0    0    0  501  0.00000000000E+00  0.00000000000E+00  0.89783034335E+03  0.89783034337E+03  0.50400001928E-02 0.  1.
        1   -1    0    0  501    0  0.00000000000E+00  0.00000000000E+00 -0.22187369537E+04  0.22187369537E+04  0.50400001928E-02 0. -1.
    10030    2    1    2    0    0  0.00000000000E+00  0.00000000000E+00 -0.13209066103E+04  0.31165672970E+04  0.28227995756E+04 0.  0.
        4    1    3    3  502    0 -0.13698738705E+04 -0.14511130814E+03 -0.99973883560E+03  0.17020843296E+04  0.12699999809E+01 0. -1.
       -4    1    3    3    0  502  0.13698738705E+04  0.14511130814E+03 -0.32116777471E+03  0.14144829674E+04  0.12699999809E+01 0.  1.
</event>
<event>
 5   0  0.3438130E-06  0.2953422E+04  0.7818609E-02  0.8257158E-01
       -1   -1    0    0    0  501  0.00000000000E+00  0.00000000000E+00  0.15753047722E+04  0.15753047722E+04  0.50400001928E-02 0.  1.
        1   -1    0    0  501    0  0.00000000000E+00  0.00000000000E+00 -0.13842883581E+04  0.13842883582E+04  0.50400001928E-02 0. -1.
    10030    2    1    2    0    0  0.00000000000E+00  0.00000000000E+00  0.19101641403E+03  0.29595931303E+04  0.29534224599E+04 0.  0.
        3    1    3    3  502    0  0.20992598454E+03 -0.30071572437E+01  0.15602728717E+04  0.15743345916E+04  0.10100000352E+00 0.  1.
       -3    1    3    3    0  502 -0.20992598454E+03  0.30071572437E+01 -0.13692564577E+04  0.13852585387E+04  0.10100000352E+00 0. -1.
</event>
<event>
 5   0  0.3371603E-06  0.2793225E+04  0.7818609E-02  0.8305375E-01
        1   -1    0    0  501    0  0.00000000000E+00  0.00000000000E+00  0.22949746948E+04  0.22949746948E+04  0.50400001928E-02 0. -1.
       -1   -1    0    0    0  501  0.00000000000E+00  0.00000000000E+00 -0.84991207742E+03  0.84991207743E+03  0.50400001928E-02 0.  1.
    10030    2    1    2    0    0  0.00000000000E+00  0.00000000000E+00  0.14450626174E+04  0.31448867722E+04  0.27932251685E+04 0.  0.
        1    1    3    3  502    0  0.76828034217E+03  0.10643397161E+04  0.18556764603E+03  0.13257107779E+04  0.50400001928E-02 0.  1.
       -1    1    3    3    0  502 -0.76828034217E+03 -0.10643397161E+04  0.12594949713E+04  0.18191759943E+04  0.50400001928E-02 0. -1.
</event>
<event>
 5   0  0.9426937E-06  0.2780420E+04  0.7818609E-02  0.8309373E-01
       -2   -1    0    0    0  501  0.00000000000E+00  0.00000000000E+00  0.11963023277E+04  0.11963023277E+04  0.25500000920E-02 0.  1.
        2   -1    0    0  501    0  0.00000000000E+00  0.00000000000E+00 -0.16155475835E+04  0.16155475835E+04  0.25500000920E-02 0. -1.
    10030    2    1    2    0    0  0.00000000000E+00  0.00000000000E+00 -0.41924525584E+03  0.28118499112E+04  0.27804196335E+04 0.  0.
        4    1    3    3  502    0  0.49385620110E+03  0.51452928284E+03 -0.14164468277E+04  0.15858617717E+04  0.12699999809E+01 0. -1.
       -4    1    3    3    0  502 -0.49385620110E+03 -0.51452928284E+03  0.99720157190E+03  0.12259881395E+04  0.12699999809E+01 0.  1.
</event>
<event>
 5   0  0.9426937E-06  0.2791678E+04  0.7818609E-02  0.8305857E-01
       -2   -1    0    0    0  501  0.00000000000E+00  0.00000000000E+00  0.22442014786E+04  0.22442014786E+04  0.25500000920E-02 0. -1.
        2   -1    0    0  501    0  0.00000000000E+00  0.00000000000E+00 -0.86817805183E+03  0.86817805184E+03  0.25500000920E-02 0.  1.
    10030    2    1    2    0    0  0.00000000000E+00  0.00000000000E+00  0.13760234267E+04  0.31123795304E+04  0.27916779668E+04 0.  0.
        4    1    3    3  502    0 -0.46967221830E+03  0.12178944890E+04  0.13673216458E+03  0.13124619144E+04  0.12699999809E+01 0.  1.
       -4    1    3    3    0  502  0.46967221830E+03 -0.12178944890E+04  0.12392912621E+04  0.17999176160E+04  0.12699999809E+01 0. -1.
</event>
<event>
 5   0  0.3371603E-06  0.2739199E+04  0.7818609E-02  0.8322397E-01
       -1   -1    0    0    0  501  0.00000000000E+00  0.00000000000E+00  0.91133285445E+03  0.91133285446E+03  0.50400001928E-02 0.  1.
        1   -1    0    0  501    0  0.00000000000E+00  0.00000000000E+00 -0.20583066654E+04  0.20583066654E+04  0.50400001928E-02 0. -1.
    10030    2    1    2    0    0  0.00000000000E+00  0.00000000000E+00 -0.11469738109E+04  0.29696395199E+04  0.27391987797E+04 0.  0.
        1    1    3    3  502    0  0.14050343679E+03 -0.11101230921E+04 -0.14296645352E+04  0.18155041114E+04  0.50400001928E-02 0. -1.
       -1    1    3    3    0  502 -0.14050343679E+03  0.11101230921E+04  0.28269072423E+03  0.11541354084E+04  0.50400001928E-02 0.  1.
</event>
<event>
 5   0  0.3357244E-06  0.2772662E+04  0.7818609E-02  0.8311806E-01
       -1   -1    0    0    0  501  0.00000000000E+00  0.00000000000E+00  0.25300455293E+04  0.25300455293E+04  0.50400001928E-02 0.  1.
        1   -1    0    0  501    0  0.00000000000E+00  0.00000000000E+00 -0.75963579407E+03  0.75963579409E+03  0.50400001928E-02 0. -1.
    10030    2    1    2    0    0  0.00000000000E+00  0.00000000000E+00  0.17704097352E+04  0.32896813234E+04  0.27726616416E+04 0.  0.
        4    1    3    3  502    0  0.12076695963E+04  0.60670940020E+03  0.12515714856E+04  0.18420084003E+04  0.12699999809E+01 0.  1.
       -4    1    3    3    0  502 -0.12076695963E+04 -0.60670940020E+03  0.51883824957E+03  0.14476729231E+04  0.12699999809E+01 0. -1.
</event>
<event>
 5   0  0.9426937E-06  0.2813400E+04  0.7818609E-02  0.8299120E-01
        2   -1    0    0  501    0  0.00000000000E+00  0.00000000000E+00  0.13313082574E+04  0.13313082574E+04  0.25500000920E-02 0. -1.
       -2   -1    0    0    0  501  0.00000000000E+00  0.00000000000E+00 -0.14863607042E+04  0.14863607042E+04  0.25500000920E-02 0.  1.
    10030    2    1    2    0    0  0.00000000000E+00  0.00000000000E+00 -0.15505244680E+03  0.28176689616E+04  0.28133995657E+04 0.  0.
        4    1    3    3  502    0  0.71144205669E+03  0.60887319017E+03 -0.11288459830E+04  0.14666871609E+04  0.12699999809E+01 0.  1.
       -4    1    3    3    0  502 -0.71144205669E+03 -0.60887319017E+03  0.97379353623E+03  0.13509818007E+04  0.12699999809E+01 0. -1.
</event>
<event>
 5   0  0.9260173E-06  0.2832982E+04  0.7818609E-02  0.8293101E-01
       -2   -1    0    0    0  501  0.00000000000E+00  0.00000000000E+00  0.10977033370E+04  0.10977033370E+04  0.25500000920E-02 0. -1.
        2   -1    0    0  501    0  0.00000000000E+00  0.00000000000E+00 -0.18278589109E+04  0.18278589109E+04  0.25500000920E-02 0.  1.
    10030    2    1    2    0    0  0.00000000000E+00  0.00000000000E+00 -0.73015557383E+03  0.29255622479E+04  0.28329820515E+04 0.  0.
        1    1    3    3  502    0  0.46355920000E+03 -0.13324012109E+04 -0.23336881916E+03  0.14299094812E+04  0.50400001928E-02 0. -1.
       -1    1    3    3    0  502 -0.46355920000E+03  0.13324012109E+04 -0.49678675467E+03  0.14956527667E+04  0.50400001928E-02 0.  1.
</event>
<event>
 5   0  0.9252359E-06  0.2812430E+04  0.7818609E-02  0.8299420E-01
        2   -1    0    0  501    0  0.00000000000E+00  0.00000000000E+00  0.19641933468E+04  0.19641933468E+04  0.25500000920E-02 0. -1.
       -2   -1    0    0    0  501  0.00000000000E+00  0.00000000000E+00 -0.10067444475E+04  0.10067444475E+04  0.25500000920E-02 0.  1.
    10030    2    1    2    0    0  0.00000000000E+00  0.00000000000E+00  0.95744889922E+03  0.29709377943E+04  0.28124300850E+04 0.  0.
        5    1    3    3  502    0 -0.76353471660E+03 -0.11538481476E+04  0.21343754185E+03  0.13999744589E+04  0.46999998093E+01 0.  1.
       -5    1    3    3    0  502  0.76353471660E+03  0.11538481476E+04  0.74401135737E+03  0.15709633354E+04  0.46999998093E+01 0. -1.
</event>
<event>
 5   0  0.9260173E-06  0.2844395E+04  0.7818609E-02  0.8289616E-01
       -2   -1    0    0    0  501  0.00000000000E+00  0.00000000000E+00  0.10639976734E+04  0.10639976734E+04  0.25500000920E-02 0. -1.
        2   -1    0    0  501    0  0.00000000000E+00  0.00000000000E+00 -0.19009873866E+04  0.19009873866E+04  0.25500000920E-02 0.  1.
    10030    2    1    2    0    0  0.00000000000E+00  0.00000000000E+00 -0.83698971326E+03  0.29649850600E+04  0.28443953006E+04 0.  0.
        1    1    3    3  502    0  0.86387743685E+03  0.88970402354E+03 -0.11442812008E+04  0.16873757560E+04  0.50400001928E-02 0.  1.
       -1    1    3    3    0  502 -0.86387743685E+03 -0.88970402354E+03  0.30729148751E+03  0.12776093040E+04  0.50400001928E-02 0. -1.
</event>
<event>
 5   0  0.3006875E-06  0.2777197E+04  0.7818609E-02  0.8310383E-01
        3   -1    0    0  501    0  0.00000000000E+00  0.00000000000E+00  0.27816978834E+04  0.27816978852E+04  0.10100000352E+00 0. -1.
       -3   -1    0    0    0  501  0.00000000000E+00  0.00000000000E+00 -0.69317577399E+03  0.69317578135E+03  0.10100000352E+00 0.  1.
    10030    2    1    2    0    0  0.00000000000E+00  0.00000000000E+00  0.20885221094E+04  0.34748736665E+04  0.27771968596E+04 0.  0.
        2    1    3    3  502    0  0.13154683599E+04  0.41246500283E+03  0.83631353602E+03  0.16124530117E+04  0.25500000920E-02 0.  1.
       -2    1    3    3    0  502 -0.13154683599E+04 -0.41246500283E+03  0.12522085733E+04  0.18624206548E+04  0.25500000920E-02 0. -1.
</event>
<event>
 5   0  0.9252359E-06  0.2711427E+04  0.7818609E-02  0.8331307E-01
        2   -1    0    0  501    0  0.00000000000E+00  0.00000000000E+00  0.15955062017E+04  0.15955062017E+04  0.25500000920E-02 0. -1.
       -2   -1    0    0    0  501  0.00000000000E+00  0.00000000000E+00 -0.11519597279E+04  0.11519597279E+04  0.25500000920E-02 0.  1.
    10030    2    1    2    0    0  0.00000000000E+00  0.00000000000E+00  0.44354647382E+03  0.27474659296E+04  0.27114268494E+04 0.  0.
        5    1    3    3  502    0  0.10919016941E+04 -0.30075145425E+03 -0.53327248734E+03  0.12518395994E+04  0.46999998093E+01 0.  1.
       -5    1    3    3    0  502 -0.10919016941E+04  0.30075145425E+03  0.97681896117E+03  0.14956263302E+04  0.46999998093E+01 0. -1.
</event>
<event>
 5   0  0.3397882E-06  0.2788116E+04  0.7818609E-02  0.8306967E-01
        1   -1    0    0  501    0  0.00000000000E+00  0.00000000000E+00  0.24531117255E+04  0.24531117255E+04  0.50400001928E-02 0.  1.
       -1   -1    0    0    0  501  0.00000000000E+00  0.00000000000E+00 -0.79221717561E+03  0.79221717563E+03  0.50400001928E-02 0. -1.
    10030    2    1    2    0    0  0.00000000000E+00  0.00000000000E+00  0.16608945499E+04  0.32453289011E+04  0.27881156666E+04 0.  0.
        2    1    3    3  502    0 -0.12124112908E+04 -0.11599775233E+03  0.16199018429E+04  0.20266915397E+04  0.25500000920E-02 0.  1.
       -2    1    3    3    0  502  0.12124112908E+04  0.11599775233E+03  0.40992706998E+02  0.12186373614E+04  0.25500000920E-02 0. -1.
</event>
<event>
 5   0  0.9252359E-06  0.2790267E+04  0.7818609E-02  0.8306296E-01
       -2   -1    0    0    0  501  0.00000000000E+00  0.00000000000E+00  0.15276801962E+04  0.15276801962E+04  0.25500000920E-02 0. -1.
        2   -1    0    0  501    0  0.00000000000E+00  0.00000000000E+00 -0.12740868473E+04  0.12740868473E+04  0.25500000920E-02 0.  1.
    10030    2    1    2    0    0  0.00000000000E+00  0.00000000000E+00  0.25359334887E+03  0.28017670435E+04  0.27902668295E+04 0.  0.
        5    1    3    3  502    0  0.68006372070E+03 -0.11220638131E+04 -0.34935315716E+03  0.13577862805E+04  0.46999998093E+01 0.  1.
       -5    1    3    3    0  502 -0.68006372070E+03  0.11220638131E+04  0.60294650603E+03  0.14439807631E+04  0.46999998093E+01 0. -1.
</event>
<event>
 5   0  0.3438130E-06  0.2795930E+04  0.7818609E-02  0.8304533E-01
        1   -1    0    0  501    0  0.00000000000E+00  0.00000000000E+00  0.15383816142E+04  0.15383816142E+04  0.50400001928E-02 0. -1.
       -1   -1    0    0    0  501  0.00000000000E+00  0.00000000000E+00 -0.12703650668E+04  0.12703650668E+04  0.50400001928E-02 0.  1.
    10030    2    1    2    0    0  0.00000000000E+00  0.00000000000E+00  0.26801654740E+03  0.28087466810E+04  0.27959300864E+04 0.  0.
        3    1    3    3  502    0 -0.14545503866E+03 -0.93586618688E+03 -0.89895793042E+03  0.13058055211E+04  0.10100000352E+00 0.  1.
       -3    1    3    3    0  502  0.14545503866E+03  0.93586618688E+03  0.11669744778E+04  0.15029411599E+04  0.10100000352E+00 0. -1.
</event>
<event>
 5   0  0.3357244E-06  0.2866306E+04  0.7818609E-02  0.8282974E-01
        1   -1    0    0  501    0  0.00000000000E+00  0.00000000000E+00  0.19120578857E+04  0.19120578857E+04  0.50400001928E-02 0. -1.
       -1   -1    0    0    0  501  0.00000000000E+00  0.00000000000E+00 -0.10741973505E+04  0.10741973506E+04  0.50400001928E-02 0.  1.
    10030    2    1    2    0    0  0.00000000000E+00  0.00000000000E+00  0.83786053512E+03  0.29862552362E+04  0.28663059954E+04 0.  0.
        4    1    3    3  502    0  0.78346866418E+03 -0.51357198023E+03 -0.71105301505E+03  0.11760855963E+04  0.12699999809E+01 0. -1.
       -4    1    3    3    0  502 -0.78346866418E+03  0.51357198023E+03  0.15489135502E+04  0.18101696400E+04  0.12699999809E+01 0.  1.
</event>
<event>
 5   0  0.3438130E-06  0.2872464E+04  0.7818609E-02  0.8281118E-01
       -1   -1    0    0    0  501  0.00000000000E+00  0.00000000000E+00  0.12875098420E+04  0.12875098420E+04  0.50400001928E-02 0. -1.
        1   -1    0    0  501    0  0.00000000000E+00  0.00000000000E+00 -0.16021329475E+04  0.16021329475E+04  0.50400001928E-02 0.  1.
    10030    2    1    2    0    0  0.00000000000E+00  0.00000000000E+00 -0.31462310545E+03  0.28896427895E+04  0.28724637078E+04 0.  0.
        3    1    3    3  502    0  0.46733696669E+03 -0.29989607373E+03 -0.14897785086E+04  0.15898998429E+04  0.10100000352E+00 0.  1.
       -3    1    3    3    0  502 -0.46733696669E+03  0.29989607373E+03  0.11751554032E+04  0.12997429466E+04  0.10100000352E+00 0. -1.
</event>
<event>
 5   0  0.3438130E-06  0.2779524E+04  0.7818609E-02  0.8309654E-01
        1   -1    0    0  501    0  0.00000000000E+00  0.00000000000E+00  0.16352526209E+04  0.16352526209E+04  0.50400001928E-02 0. -1.
       -1   -1    0    0    0  501  0.00000000000E+00  0.00000000000E+00 -0.11811254785E+04  0.11811254785E+04  0.50400001928E-02 0.  1.
    10030    2    1    2    0    0  0.00000000000E+00  0.00000000000E+00  0.45412714239E+03  0.28163780995E+04  0.27795240847E+04 0.  0.
        3    1    3    3  502    0 -0.43606345013E+03 -0.21431770041E+03  0.15463857320E+04  0.16209232714E+04  0.10100000352E+00 0. -1.
       -3    1    3    3    0  502  0.43606345013E+03  0.21431770041E+03 -0.10922585896E+04  0.11954548281E+04  0.10100000352E+00 0.  1.
</event>
<event>
 5   0  0.9342133E-06  0.2788611E+04  0.7818609E-02  0.8306813E-01
        2   -1    0    0  501    0  0.00000000000E+00  0.00000000000E+00  0.17115119440E+04  0.17115119440E+04  0.25500000920E-02 0.  1.
       -2   -1    0    0    0  501  0.00000000000E+00  0.00000000000E+00 -0.11358893919E+04  0.11358893919E+04  0.25500000920E-02 0. -1.
    10030    2    1    2    0    0  0.00000000000E+00  0.00000000000E+00  0.57562255204E+03  0.28474013359E+04  0.27886113113E+04 0.  0.
        2    1    3    3  502    0  0.97864518537E+03 -0.73053290418E+03 -0.39917562570E+03  0.12848213507E+04  0.25500000920E-02 0. -1.
       -2    1    3    3    0  502 -0.97864518537E+03  0.73053290418E+03  0.97479817773E+03  0.15625799852E+04  0.25500000920E-02 0.  1.
</event>
<event>
 5   0  0.3600963E-06  0.2840279E+04  0.7818609E-02  0.8290871E-01
        1   -1    0    0  501    0  0.00000000000E+00  0.00000000000E+00  0.12314452916E+04  0.12314452916E+04  0.50400001928E-02 0. -1.
       -1   -1    0    0    0  501  0.00000000000E+00  0.00000000000E+00 -0.16377469605E+04  0.16377469605E+04  0.50400001928E-02 0.  1.
    10030    2    1    2    0    0  0.00000000000E+00  0.00000000000E+00 -0.40630166890E+03  0.28691922522E+04  0.28402787070E+04 0.  0.
        5    1    3    3  502    0  0.53993466062E+03  0.12821721488E+04  0.84845811792E+02  0.13938133873E+04  0.46999998093E+01 0.  1.
       -5    1    3    3    0  502 -0.53993466062E+03 -0.12821721488E+04 -0.49114748070E+03  0.14753788648E+04  0.46999998093E+01 0. -1.
</event>
<event>
 5   0  0.3397882E-06  0.2806601E+04  0.7818609E-02  0.8301222E-01
        1   -1    0    0  501    0  0.00000000000E+00  0.00000000000E+00  0.15775407988E+04  0.15775407988E+04  0.50400001928E-02 0.  1.
       -1   -1    0    0    0  501  0.00000000000E+00  0.00000000000E+00 -0.12483048797E+04  0.12483048797E+04  0.50400001928E-02 0. -1.
    10030    2    1    2    0    0  0.00000000000E+00  0.00000000000E+00  0.32923591911E+03  0.28258456785E+04  0.28066007034E+04 0.  0.
        2    1    3    3  502    0  0.20323682878E+03  0.23025835594E+03  0.15432871827E+04  0.15735499507E+04  0.25500000920E-02 0.  1.
       -2    1    3    3    0  502 -0.20323682878E+03 -0.23025835594E+03 -0.12140512636E+04  0.12522957278E+04  0.25500000920E-02 0. -1.
</event>
<event>
 5   0  0.3438130E-06  0.2773124E+04  0.7818609E-02  0.8311661E-01
        1   -1    0    0  501    0  0.00000000000E+00  0.00000000000E+00  0.17074598817E+04  0.17074598817E+04  0.50400001928E-02 0. -1.
       -1   -1    0    0    0  501  0.00000000000E+00  0.00000000000E+00 -0.11259729062E+04  0.11259729062E+04  0.50400001928E-02 0.  1.
    10030    2    1    2    0    0  0.00000000000E+00  0.00000000000E+00  0.58148697545E+03  0.28334327879E+04  0.27731235568E+04 0.  0.
        3    1    3    3  502    0  0.10943212726E+03  0.87605025998E+03  0.13831605815E+04  0.16409060464E+04  0.10100000352E+00 0. -1.
       -3    1    3    3    0  502 -0.10943212726E+03 -0.87605025998E+03 -0.80167360608E+03  0.11925267416E+04  0.10100000352E+00 0.  1.
</event>
<event>
 5   0  0.9260173E-06  0.2791106E+04  0.7818609E-02  0.8306035E-01
       -2   -1    0    0    0  501  0.00000000000E+00  0.00000000000E+00  0.15956266088E+04  0.15956266088E+04  0.25500000920E-02 0.  1.
        2   -1    0    0  501    0  0.00000000000E+00  0.00000000000E+00 -0.12205661852E+04  0.12205661852E+04  0.25500000920E-02 0. -1.
    10030    2    1    2    0    0  0.00000000000E+00  0.00000000000E+00  0.37506042364E+03  0.28161927940E+04  0.27911057901E+04 0.  0.
        1    1    3    3  502    0 -0.12230410302E+04  0.64763136838E+03  0.36890164791E+03  0.14322514363E+04  0.50400001928E-02 0.  1.
       -1    1    3    3    0  502  0.12230410302E+04 -0.64763136838E+03  0.61587757317E+01  0.13839413577E+04  0.50400001928E-02 0. -1.
</event>
<event>
 5   0  0.9342133E-06  0.2779746E+04  0.7818609E-02  0.8309584E-01
        2   -1    0    0  501    0  0.00000000000E+00  0.00000000000E+00  0.65907822946E+03  0.65907822947E+03  0.25500000920E-02 0.  1.
       -2   -1    0    0    0  501  0.00000000000E+00  0.00000000000E+00 -0.29309833809E+04  0.29309833809E+04  0.25500000920E-02 0. -1.
    10030    2    1    2    0    0  0.00000000000E+00  0.00000000000E+00 -0.22719051514E+04  0.35900616104E+04  0.27797462742E+04 0.  0.
        2    1    3    3  502    0 -0.11399016777E+04 -0.12409250952E+03 -0.12150486474E+03  0.11530560341E+04  0.25500000920E-02 0.  1.
       -2    1    3    3    0  502  0.11399016777E+04  0.12409250952E+03 -0.21504002867E+04  0.24370055762E+04  0.25500000920E-02 0. -1.
</event>
<event>
 5   0  0.3438130E-06  0.2755395E+04  0.7818609E-02  0.8317252E-01
       -1   -1    0    0    0  501  0.00000000000E+00  0.00000000000E+00  0.18302793313E+04  0.18302793313E+04  0.50400001928E-02 0.  1.
        1   -1    0    0  501    0  0.00000000000E+00  0.00000000000E+00 -0.10370278097E+04  0.10370278097E+04  0.50400001928E-02 0. -1.
    10030    2    1    2    0    0  0.00000000000E+00  0.00000000000E+00  0.79325152159E+03  0.28673071410E+04  0.27553951195E+04 0.  0.
        3    1    3    3  502    0  0.49355727782E+03 -0.63150354137E+03 -0.76944660876E+03  0.11110551756E+04  0.10100000352E+00 0. -1.
       -3    1    3    3    0  502 -0.49355727782E+03  0.63150354137E+03  0.15626981304E+04  0.17562519654E+04  0.10100000352E+00 0.  1.
</event>
<event>
 5   0  0.9260173E-06  0.2702871E+04  0.7818609E-02  0.8334074E-01
        2   -1    0    0  501    0  0.00000000000E+00  0.00000000000E+00  0.14360448211E+04  0.14360448211E+04  0.25500000920E-02 0. -1.
       -2   -1    0    0    0  501  0.00000000000E+00  0.00000000000E+00 -0.12718108796E+04  0.12718108796E+04  0.25500000920E-02 0.  1.
    10030    2    1    2    0    0  0.00000000000E+00  0.00000000000E+00  0.16423394146E+03  0.27078557007E+04  0.27028706422E+04 0.  0.
        1    1    3    3  502    0 -0.55680533172E+03 -0.11842210271E+03  0.13100698200E+04  0.14284043213E+04  0.50400001928E-02 0. -1.
       -1    1    3    3    0  502  0.55680533172E+03  0.11842210271E+03 -0.11458358785E+04  0.12794513794E+04  0.50400001928E-02 0.  1.
</event>
<event>
 5   0  0.3371603E-06  0.2811363E+04  0.7818609E-02  0.8299749E-01
        1   -1    0    0  501    0  0.00000000000E+00  0.00000000000E+00  0.22923241800E+04  0.22923241800E+04  0.50400001928E-02 0.  1.
       -1   -1    0    0    0  501  0.00000000000E+00  0.00000000000E+00 -0.86198117395E+03  0.86198117397E+03  0.50400001928E-02 0. -1.
    10030    2    1    2    0    0  0.00000000000E+00  0.00000000000E+00  0.14303430061E+04  0.31543053540E+04  0.28113628637E+04 0.  0.
        1    1    3    3  502    0 -0.49440575578E+03  0.87531678277E+03 -0.38718819875E+03  0.10772795472E+04  0.50400001928E-02 0. -1.
       -1    1    3    3    0  502  0.49440575578E+03 -0.87531678277E+03  0.18175312048E+04  0.20770258068E+04  0.50400001928E-02 0.  1.
</event>
<event>
 5   0  0.3438130E-06  0.2597308E+04  0.7818609E-02  0.8369116E-01
       -1   -1    0    0    0  501  0.00000000000E+00  0.00000000000E+00  0.98046671705E+03  0.98046671706E+03  0.50400001928E-02 0. -1.
        1   -1    0    0  501    0  0.00000000000E+00  0.00000000000E+00 -0.17201009187E+04  0.17201009187E+04  0.50400001928E-02 0.  1.
    10030    2    1    2    0    0  0.00000000000E+00  0.00000000000E+00 -0.73963420162E+03  0.27005676357E+04  0.25973076065E+04 0.  0.
        3    1    3    3  502    0  0.37881321769E+03  0.88840913122E+03 -0.12725099255E+04  0.15975142437E+04  0.10100000352E+00 0.  1.
       -3    1    3    3    0  502 -0.37881321769E+03 -0.88840913122E+03  0.53287572384E+03  0.11030533920E+04  0.10100000352E+00 0. -1.
</event>
<event>
 5   0  0.9260173E-06  0.2801181E+04  0.7818609E-02  0.8302902E-01
       -2   -1    0    0    0  501  0.00000000000E+00  0.00000000000E+00  0.12226644276E+04  0.12226644276E+04  0.25500000920E-02 0.  1.
        2   -1    0    0  501    0  0.00000000000E+00  0.00000000000E+00 -0.16044084984E+04  0.16044084984E+04  0.25500000920E-02 0. -1.
    10030    2    1    2    0    0  0.00000000000E+00  0.00000000000E+00 -0.38174407081E+03  0.28270729260E+04  0.28011806071E+04 0.  0.
        1    1    3    3  502    0 -0.11348631227E+04 -0.75290068410E+03  0.13907407092E+03  0.13689833252E+04  0.50400001928E-02 0.  1.
       -1    1    3    3    0  502  0.11348631227E+04  0.75290068410E+03 -0.52081814173E+03  0.14580896009E+04  0.50400001928E-02 0. -1.
</event>
<event>
 5   0  0.3397882E-06  0.2793997E+04  0.7818609E-02  0.8305134E-01
        1   -1    0    0  501    0  0.00000000000E+00  0.00000000000E+00  0.15861678608E+04  0.15861678608E+04  0.50400001928E-02 0. -1.
       -1   -1    0    0    0  501  0.00000000000E+00  0.00000000000E+00 -0.12303898789E+04  0.12303898789E+04  0.50400001928E-02 0.  1.
    10030    2    1    2    0    0  0.00000000000E+00  0.00000000000E+00  0.35577798196E+03  0.28165577397E+04  0.27939970524E+04 0.  0.
        2    1    3    3  502    0 -0.66790294147E+03 -0.11371529180E+04  0.64247231440E+03  0.14669634532E+04  0.25500000920E-02 0. -1.
       -2    1    3    3    0  502  0.66790294147E+03  0.11371529180E+04 -0.28669433244E+03  0.13495942866E+04  0.25500000920E-02 0.  1.
</event>
<event>
 5   0  0.9260173E-06  0.2802558E+04  0.7818609E-02  0.8302475E-01
        2   -1    0    0  501    0  0.00000000000E+00  0.00000000000E+00  0.19783736862E+04  0.19783736862E+04  0.25500000920E-02 0.  1.
       -2   -1    0    0    0  501  0.00000000000E+00  0.00000000000E+00 -0.99252357298E+03  0.99252357298E+03  0.25500000920E-02 0. -1.
    10030    2    1    2    0    0  0.00000000000E+00  0.00000000000E+00  0.98585011324E+03  0.29708972592E+04  0.28025577744E+04 0.  0.
        1    1    3    3  502    0 -0.28374371662E+03  0.24774751371E+03  0.19236978606E+04  0.19602302891E+04  0.50400001928E-02 0.  1.
       -1    1    3    3    0  502  0.28374371662E+03 -0.24774751371E+03 -0.93784774736E+03  0.10106669701E+04  0.50400001928E-02 0. -1.
</event>
<event>
 5   0  0.9252359E-06  0.2919680E+04  0.7818609E-02  0.8267046E-01
        2   -1    0    0  501    0  0.00000000000E+00  0.00000000000E+00  0.12927128061E+04  0.12927128061E+04  0.25500000920E-02 0. -1.
       -2   -1    0    0    0  501  0.00000000000E+00  0.00000000000E+00 -0.16485738222E+04  0.16485738222E+04  0.25500000920E-02 0.  1.
    10030    2    1    2    0    0  0.00000000000E+00  0.00000000000E+00 -0.35586101606E+03  0.29412866283E+04  0.29196797714E+04 0.  0.
        5    1    3    3  502    0 -0.43621840185E+03  0.72651299089E+03  0.10195642916E+04  0.13257605571E+04  0.46999998093E+01 0. -1.
       -5    1    3    3    0  502  0.43621840185E+03 -0.72651299089E+03 -0.13754253076E+04  0.16155260713E+04  0.46999998093E+01 0.  1.
</event>
<event>
 5   0  0.9426937E-06  0.2770108E+04  0.7818609E-02  0.8312609E-01
       -2   -1    0    0    0  501  0.00000000000E+00  0.00000000000E+00  0.75335398170E+03  0.75335398171E+03  0.25500000920E-02 0. -1.
        2   -1    0    0  501    0  0.00000000000E+00  0.00000000000E+00 -0.25464454042E+04  0.25464454042E+04  0.25500000920E-02 0.  1.
    10030    2    1    2    0    0  0.00000000000E+00  0.00000000000E+00 -0.17930914225E+04  0.32997993859E+04  0.27701081455E+04 0.  0.
        4    1    3    3  502    0  0.71043318923E+03  0.28148447148E+03 -0.22726070452E+04  0.23976432634E+04  0.12699999809E+01 0.  1.
       -4    1    3    3    0  502 -0.71043318923E+03 -0.28148447148E+03  0.47951562267E+03  0.90215612248E+03  0.12699999809E+01 0. -1.
</event>
<event>
 5   0  0.3438130E-06  0.2785527E+04  0.7818609E-02  0.8307776E-01
        1   -1    0    0  501    0  0.00000000000E+00  0.00000000000E+00  0.17058879083E+04  0.17058879083E+04  0.50400001928E-02 0.  1.
       -1   -1    0    0    0  501  0.00000000000E+00  0.00000000000E+00 -0.11371150718E+04  0.11371150718E+04  0.50400001928E-02 0. -1.
    10030    2    1    2    0    0  0.00000000000E+00  0.00000000000E+00  0.56877283650E+03  0.28430029802E+04  0.27855274915E+04 0.  0.
        3    1    3    3  502    0 -0.14109899206E+03  0.13275712716E+04 -0.12058324290E+03  0.13404830232E+04  0.10100000352E+00 0.  1.
       -3    1    3    3    0  502  0.14109899206E+03 -0.13275712716E+04  0.68935607940E+03  0.15025199570E+04  0.10100000352E+00 0. -1.
</event>
<event>
 5   0  0.3438130E-06  0.2831361E+04  0.7818609E-02  0.8293598E-01
       -1   -1    0    0    0  501  0.00000000000E+00  0.00000000000E+00  0.92299230229E+03  0.92299230230E+03  0.50400001928E-02 0. -1.
        1   -1    0    0  501    0  0.00000000000E+00  0.00000000000E+00 -0.21713624471E+04  0.21713624471E+04  0.50400001928E-02 0.  1.
    10030    2    1    2    0    0  0.00000000000E+00  0.00000000000E+00 -0.12483701448E+04  0.30943547494E+04  0.28313606794E+04 0.  0.
        3    1    3    3  502    0 -0.10469466806E+04  0.90865566168E+03 -0.31047088203E+03  0.14206141779E+04  0.10100000352E+00 0. -1.
       -3    1    3    3    0  502  0.10469466806E+04 -0.90865566168E+03 -0.93789926280E+03  0.16737405716E+04  0.10100000352E+00 0.  1.
</event>
<event>
 5   0  0.9065579E-06  0.2794585E+04  0.7818609E-02  0.8304951E-01
        2   -1    0    0  501    0  0.00000000000E+00  0.00000000000E+00  0.19644910127E+04  0.19644910127E+04  0.25500000920E-02 0. -1.
       -2   -1    0    0    0  501  0.00000000000E+00  0.00000000000E+00 -0.99385862996E+03  0.99385862997E+03  0.25500000920E-02 0.  1.
    10030    2    1    2    0    0  0.00000000000E+00  0.00000000000E+00  0.97063238278E+03  0.29583496427E+04  0.27945850114E+04 0.  0.
        3    1    3    3  502    0  0.76824422448E+02 -0.70801946342E+03 -0.78731064801E+03  0.10616268738E+04  0.10100000352E+00 0.  1.
       -3    1    3    3    0  502 -0.76824422448E+02  0.70801946342E+03  0.17579430308E+04  0.18967227689E+04  0.10100000352E+00 0. -1.
</event>
<event>
 5   0  0.9426937E-06  0.2735029E+04  0.7818609E-02  0.8323728E-01
       -2   -1    0    0    0  501  0.00000000000E+00  0.00000000000E+00  0.13543417467E+04  0.13543417467E+04  0.25500000920E-02 0.  1.
        2   -1    0    0  501    0  0.00000000000E+00  0.00000000000E+00 -0.13808151247E+04  0.13808151247E+04  0.25500000920E-02 0. -1.
    10030    2    1    2    0    0  0.00000000000E+00  0.00000000000E+00 -0.26473377962E+02  0.27351568714E+04  0.27350287515E+04 0.  0.
        4    1    3    3  502    0 -0.38366851218E+03  0.23906405856E+03 -0.13039329613E+04  0.13800709880E+04  0.12699999809E+01 0. -1.
       -4    1    3    3    0  502  0.38366851218E+03 -0.23906405856E+03  0.12774595834E+04  0.13550858834E+04  0.12699999809E+01 0.  1.
</event>
<event>
 5   0  0.3357244E-06  0.2702949E+04  0.7818609E-02  0.8334049E-01
       -1   -1    0    0    0  501  0.00000000000E+00  0.00000000000E+00  0.78929688071E+03  0.78929688072E+03  0.50400001928E-02 0.  1.
        1   -1    0    0  501    0  0.00000000000E+00  0.00000000000E+00 -0.23140638308E+04  0.23140638308E+04  0.50400001928E-02 0. -1.
    10030    2    1    2    0    0  0.00000000000E+00  0.00000000000E+00 -0.15247669501E+04  0.31033607115E+04  0.27029490291E+04 0.  0.
        4    1    3    3  502    0 -0.67743167613E+03 -0.28604947927E+03 -0.20642654557E+04  0.21913309802E+04  0.12699999809E+01 0. -1.
       -4    1    3    3    0  502  0.67743167613E+03  0.28604947927E+03  0.53949850557E+03  0.91202973133E+03  0.12699999809E+01 0.  1.
</event>
<event>
 5   0  0.3371603E-06  0.2728344E+04  0.7818609E-02  0.8325866E-01
        1   -1    0    0  501    0  0.00000000000E+00  0.00000000000E+00  0.12311255681E+04  0.12311255681E+04  0.50400001928E-02 0.  1.
       -1   -1    0    0    0  501  0.00000000000E+00  0.00000000000E+00 -0.15115969732E+04  0.15115969732E+04  0.50400001928E-02 0. -1.
    10030    2    1    2    0    0  0.00000000000E+00  0.00000000000E+00 -0.28047140515E+03  0.27427225413E+04  0.27283443202E+04 0.  0.
        1    1    3    3  502    0  0.72490736272E+03  0.15106854229E+03  0.10115129535E+04  0.12535832019E+04  0.50400001928E-02 0.  1.
       -1    1    3    3    0  502 -0.72490736272E+03 -0.15106854229E+03 -0.12919843587E+04  0.14891393394E+04  0.50400001928E-02 0. -1.
</event>
<event>
 5   0  0.3397882E-06  0.2883915E+04  0.7818609E-02  0.8277679E-01
        1   -1    0    0  501    0  0.00000000000E+00  0.00000000000E+00  0.17157820459E+04  0.17157820459E+04  0.50400001928E-02 0.  1.
       -1   -1    0    0    0  501  0.00000000000E+00  0.00000000000E+00 -0.12118327914E+04  0.12118327914E+04  0.50400001928E-02 0. -1.
    10030    2    1    2    0    0  0.00000000000E+00  0.00000000000E+00  0.50394925454E+03  0.29276148373E+04  0.28839146632E+04 0.  0.
        2    1    3    3  502    0 -0.61902877682E+03 -0.10783866495E+04  0.99319388013E+03  0.15913982770E+04  0.25500000920E-02 0.  1.
       -2    1    3    3    0  502  0.61902877682E+03  0.10783866495E+04 -0.48924462559E+03  0.13362165603E+04  0.25500000920E-02 0. -1.
</event>
<event>
 5   0  0.9426937E-06  0.2793357E+04  0.7818609E-02  0.8305334E-01
       -2   -1    0    0    0  501  0.00000000000E+00  0.00000000000E+00  0.14674001782E+04  0.14674001782E+04  0.25500000920E-02 0. -1.
        2   -1    0    0  501    0  0.00000000000E+00  0.00000000000E+00 -0.13293652075E+04  0.13293652076E+04  0.25500000920E-02 0.  1.
    10030    2    1    2    0    0  0.00000000000E+00  0.00000000000E+00  0.13803497068E+03  0.27967653858E+04  0.27933569357E+04 0.  0.
        4    1    3    3  502    0 -0.58766945392E+02 -0.72972480781E+03 -0.11218695608E+04  0.13396062008E+04  0.12699999809E+01 0.  1.
       -4    1    3    3    0  502  0.58766945392E+02  0.72972480781E+03  0.12599045315E+04  0.14571591849E+04  0.12699999809E+01 0. -1.
</event>
<event>
 5   0  0.9426937E-06  0.2755413E+04  0.7818609E-02  0.8317246E-01
        2   -1    0    0  501    0  0.00000000000E+00  0.00000000000E+00  0.18511359181E+04  0.18511359181E+04  0.25500000920E-02 0. -1.
       -2   -1    0    0    0  501  0.00000000000E+00  0.00000000000E+00 -0.10253570216E+04  0.10253570216E+04  0.25500000920E-02 0.  1.
    10030    2    1    2    0    0  0.00000000000E+00  0.00000000000E+00  0.82577889656E+03  0.28764929397E+04  0.27554130083E+04 0.  0.
        4    1    3    3  502    0 -0.71385527022E+03 -0.90272798401E+03 -0.37773178488E+03  0.12112762171E+04  0.12699999809E+01 0.  1.
       -4    1    3    3    0  502  0.71385527022E+03  0.90272798401E+03  0.12035106814E+04  0.16652167226E+04  0.12699999809E+01 0. -1.
</event>
<event>
 5   0  0.9252359E-06  0.2888719E+04  0.7818609E-02  0.8276242E-01
       -2   -1    0    0    0  501  0.00000000000E+00  0.00000000000E+00  0.11175014491E+04  0.11175014491E+04  0.25500000920E-02 0.  1.
        2   -1    0    0  501    0  0.00000000000E+00  0.00000000000E+00 -0.18668202977E+04  0.18668202977E+04  0.25500000920E-02 0. -1.
    10030    2    1    2    0    0  0.00000000000E+00  0.00000000000E+00 -0.74931884867E+03  0.29843217468E+04  0.28887190157E+04 0.  0.
        5    1    3    3  502    0 -0.12288170073E+04 -0.75400871908E+03 -0.28440738531E+03  0.14694999274E+04  0.46999998093E+01 0.  1.
       -5    1    3    3    0  502  0.12288170073E+04  0.75400871908E+03 -0.46491146336E+03  0.15148218194E+04  0.46999998093E+01 0. -1.
</event>
<event>
 5   0  0.3438130E-06  0.2768514E+04  0.7818609E-02  0.8313111E-01
        1   -1    0    0  501    0  0.00000000000E+00  0.00000000000E+00  0.13517560149E+04  0.13517560149E+04  0.50400001928E-02 0. -1.
       -1   -1    0    0    0  501  0.00000000000E+00  0.00000000000E+00 -0.14175396048E+04  0.14175396048E+04  0.50400001928E-02 0.  1.
    10030    2    1    2    0    0  0.00000000000E+00  0.00000000000E+00 -0.65783589920E+02  0.27692956198E+04  0.27685141771E+04 0.  0.
        3    1    3    3  502    0 -0.61239460997E+03 -0.82592534837E+03 -0.95996936615E+03  0.14066701936E+04  0.10100000352E+00 0.  1.
       -3    1    3    3    0  502  0.61239460997E+03  0.82592534837E+03  0.89418577623E+03  0.13626254262E+04  0.10100000352E+00 0. -1.
</event>
<event>
 5   0  0.3397882E-06  0.2801717E+04  0.7818609E-02  0.8302736E-01
       -1   -1    0    0    0  501  0.00000000000E+00  0.00000000000E+00  0.18031433832E+04  0.18031433832E+04  0.50400001928E-02 0. -1.
        1   -1    0    0  501    0  0.00000000000E+00  0.00000000000E+00 -0.10883241301E+04  0.10883241301E+04  0.50400001928E-02 0.  1.
    10030    2    1    2    0    0  0.00000000000E+00  0.00000000000E+00  0.71481925306E+03  0.28914675133E+04  0.28017169407E+04 0.  0.
        2    1    3    3  502    0  0.98147260748E+03 -0.54548628436E+03  0.12218333631E+04  0.16594337989E+04  0.25500000920E-02 0. -1.
       -2    1    3    3    0  502 -0.98147260748E+03  0.54548628436E+03 -0.50701411006E+03  0.12320337144E+04  0.25500000920E-02 0.  1.
</event>
<event>
 5   0  0.9260173E-06  0.2876851E+04  0.7818609E-02  0.8279799E-01
       -2   -1    0    0    0  501  0.00000000000E+00  0.00000000000E+00  0.69892278905E+03  0.69892278905E+03  0.25500000920E-02 0.  1.
        2   -1    0    0  501    0  0.00000000000E+00  0.00000000000E+00 -0.29603662875E+04  0.29603662875E+04  0.25500000920E-02 0. -1.
    10030    2    1    2    0    0  0.00000000000E+00  0.00000000000E+00 -0.22614434985E+04  0.36592890766E+04  0.28768506825E+04 0.  0.
        1    1    3    3  502    0 -0.10970612656E+04  0.90771953639E+02  0.46997795365E+02  0.11018129427E+04  0.50400001928E-02 0.  1.
       -1    1    3    3    0  502  0.10970612656E+04 -0.90771953639E+02 -0.23084412939E+04  0.25574761339E+04  0.50400001928E-02 0. -1.
</event>
<event>
 5   0  0.3357244E-06  0.2766975E+04  0.7818609E-02  0.8313595E-01
       -1   -1    0    0    0  501  0.00000000000E+00  0.00000000000E+00  0.13619322804E+04  0.13619322804E+04  0.50400001928E-02 0.  1.
        1   -1    0    0  501    0  0.00000000000E+00  0.00000000000E+00 -0.14053841311E+04  0.14053841311E+04  0.50400001928E-02 0. -1.
    10030    2    1    2    0    0  0.00000000000E+00  0.00000000000E+00 -0.43451850668E+02  0.27673164115E+04  0.27669752543E+04 0.  0.
        4    1    3    3  502    0 -0.11053191611E+04  0.84587666122E+02 -0.84956639531E+03  0.13966567918E+04  0.12699999809E+01 0. -1.
       -4    1    3    3    0  502  0.11053191611E+04 -0.84587666122E+02  0.80611454464E+03  0.13706596197E+04  0.12699999809E+01 0.  1.
</event>
<event>
 5   0  0.9260173E-06  0.2480712E+04  0.7818609E-02  0.8409889E-01
       -2   -1    0    0    0  501  0.00000000000E+00  0.00000000000E+00  0.16058006099E+04  0.16058006099E+04  0.25500000920E-02 0.  1.
        2   -1    0    0  501    0  0.00000000000E+00  0.00000000000E+00 -0.95807885002E+03  0.95807885002E+03  0.25500000920E-02 0. -1.
    10030    2    1    2    0    0  0.00000000000E+00  0.00000000000E+00  0.64772175984E+03  0.25638794599E+04  0.24807124796E+04 0.  0.
        1    1    3    3  502    0 -0.11230514575E+04  0.49617759206E+03  0.50596918491E+03  0.13279463826E+04  0.50400001928E-02 0. -1.
       -1    1    3    3    0  502  0.11230514575E+04 -0.49617759206E+03  0.14175257494E+03  0.12359330773E+04  0.50400001928E-02 0.  1.
</event>
<event>
 5   0  0.9342133E-06  0.2802618E+04  0.7818609E-02  0.8302456E-01
        2   -1    0    0  501    0  0.00000000000E+00  0.00000000000E+00  0.21451271402E+04  0.21451271402E+04  0.25500000920E-02 0. -1.
       -2   -1    0    0    0  501  0.00000000000E+00  0.00000000000E+00 -0.91540842356E+03  0.91540842356E+03  0.25500000920E-02 0.  1.
    10030    2    1    2    0    0  0.00000000000E+00  0.00000000000E+00  0.12297187166E+04  0.30605355637E+04  0.28026183855E+04 0.  0.
        2    1    3    3  502    0  0.54645494874E+03  0.65308450948E+03 -0.60045216908E+03  0.10419573863E+04  0.25500000920E-02 0.  1.
       -2    1    3    3    0  502 -0.54645494874E+03 -0.65308450948E+03  0.18301708857E+04  0.20185781774E+04  0.25500000920E-02 0. -1.
</event>
<event>
 5   0  0.3371603E-06  0.2789341E+04  0.7818609E-02  0.8306585E-01
       -1   -1    0    0    0  501  0.00000000000E+00  0.00000000000E+00  0.11875095587E+04  0.11875095587E+04  0.50400001928E-02 0. -1.
        1   -1    0    0  501    0  0.00000000000E+00  0.00000000000E+00 -0.16379711455E+04  0.16379711455E+04  0.50400001928E-02 0.  1.
    10030    2    1    2    0    0  0.00000000000E+00  0.00000000000E+00 -0.45046158679E+03  0.28254807043E+04  0.27893414221E+04 0.  0.
        1    1    3    3  502    0  0.52787633239E+03  0.62167480936E+02 -0.15313505933E+04  0.16209728121E+04  0.50400001928E-02 0.  1.
       -1    1    3    3    0  502 -0.52787633239E+03 -0.62167480936E+02  0.10808890065E+04  0.12045078922E+04  0.50400001928E-02 0. -1.
</event>
<event>
 5   0  0.9426937E-06  0.2825945E+04  0.7818609E-02  0.8295258E-01
       -2   -1    0    0    0  501  0.00000000000E+00  0.00000000000E+00  0.12732304956E+04  0.12732304956E+04  0.25500000920E-02 0.  1.
        2   -1    0    0  501    0  0.00000000000E+00  0.00000000000E+00 -0.15680518009E+04  0.15680518009E+04  0.25500000920E-02 0. -1.
    10030    2    1    2    0    0  0.00000000000E+00  0.00000000000E+00 -0.29482130529E+03  0.28412822964E+04  0.28259450607E+04 0.  0.
        4    1    3    3  502    0  0.54389666669E+03  0.12406729672E+04 -0.55133318543E+03  0.14625535511E+04  0.12699999809E+01 0. -1.
       -4    1    3    3    0  502 -0.54389666669E+03 -0.12406729672E+04  0.25651188014E+03  0.13787287453E+04  0.12699999809E+01 0.  1.
</event>
<event>
 5   0  0.3438130E-06  0.2786195E+04  0.7818609E-02  0.8307567E-01
       -1   -1    0    0    0  501  0.00000000000E+00  0.00000000000E+00  0.97521360689E+03  0.97521360690E+03  0.50400001928E-02 0. -1.
        1   -1    0    0  501    0  0.00000000000E+00  0.00000000000E+00 -0.19900462678E+04  0.19900462678E+04  0.50400001928E-02 0.  1.
    10030    2    1    2    0    0  0.00000000000E+00  0.00000000000E+00 -0.10148326609E+04  0.29652598747E+04  0.27861946800E+04 0.  0.
        3    1    3    3  502    0 -0.19623842523E+03 -0.13784084648E+04 -0.55734372972E+03  0.14997171262E+04  0.10100000352E+00 0. -1.
       -3    1    3    3    0  502  0.19623842523E+03  0.13784084648E+04 -0.45748893115E+03  0.14655427485E+04  0.10100000352E+00 0.  1.
</event>
<event>
 5   0  0.9252359E-06  0.2817409E+04  0.7818609E-02  0.8297884E-01
        2   -1    0    0  501    0  0.00000000000E+00  0.00000000000E+00  0.13251193931E+04  0.13251193931E+04  0.25500000920E-02 0. -1.
       -2   -1    0    0    0  501  0.00000000000E+00  0.00000000000E+00 -0.14975615983E+04  0.14975615983E+04  0.25500000920E-02 0.  1.
    10030    2    1    2    0    0  0.00000000000E+00  0.00000000000E+00 -0.17244220527E+03  0.28226809914E+04  0.28174086791E+04 0.  0.
        5    1    3    3  502    0  0.26182066244E+03 -0.62088600458E+03  0.11531776975E+04  0.13356235929E+04  0.46999998093E+01 0. -1.
       -5    1    3    3    0  502 -0.26182066244E+03  0.62088600458E+03 -0.13256199027E+04  0.14870573985E+04  0.46999998093E+01 0.  1.
</event>
<event>
 5   0  0.9252359E-06  0.2805911E+04  0.7818609E-02  0.8301436E-01
        2   -1    0    0  501    0  0.00000000000E+00  0.00000000000E+00  0.98214948932E+03  0.98214948932E+03  0.25500000920E-02 0. -1.
       -2   -1    0    0    0  501  0.00000000000E+00  0.00000000000E+00 -0.20040574328E+04  0.20040574328E+04  0.25500000920E-02 0.  1.
    10030    2    1    2    0    0  0.00000000000E+00  0.00000000000E+00 -0.10219079435E+04  0.29862069221E+04  0.28059108925E+04 0.  0.
        5    1    3    3  502    0  0.56363267736E+03 -0.11989567640E+04 -0.19684025129E+02  0.13249862897E+04  0.46999998093E+01 0.  1.
       -5    1    3    3    0  502 -0.56363267736E+03  0.11989567640E+04 -0.10022239183E+04  0.16612206324E+04  0.46999998093E+01 0. -1.
</event>
<event>
 5   0  0.9260173E-06  0.2790765E+04  0.7818609E-02  0.8306141E-01
       -2   -1    0    0    0  501  0.00000000000E+00  0.00000000000E+00  0.92512094853E+03  0.92512094853E+03  0.25500000920E-02 0.  1.
        2   -1    0    0  501    0  0.00000000000E+00  0.00000000000E+00 -0.21046892317E+04  0.21046892317E+04  0.25500000920E-02 0. -1.
    10030    2    1    2    0    0  0.00000000000E+00  0.00000000000E+00 -0.11795682832E+04  0.30298101803E+04  0.27907648403E+04 0.  0.
        1    1    3    3  502    0 -0.42963447293E+03  0.93816047727E+03  0.43001675177E+03  0.11178753366E+04  0.50400001928E-02 0.  1.
       -1    1    3    3    0  502  0.42963447293E+03 -0.93816047727E+03 -0.16095850350E+04  0.19119348436E+04  0.50400001928E-02 0. -1.
</event>
<event>
 5   0  0.3357244E-06  0.2755233E+04  0.7818609E-02  0.8317303E-01
        1   -1    0    0  501    0  0.00000000000E+00  0.00000000000E+00  0.13674698933E+04  0.13674698933E+04  0.50400001928E-02 0.  1.
       -1   -1    0    0    0  501  0.00000000000E+00  0.00000000000E+00 -0.13878381402E+04  0.13878381402E+04  0.50400001928E-02 0. -1.
    10030    2    1    2    0    0  0.00000000000E+00  0.00000000000E+00 -0.20368246880E+02  0.27553080335E+04  0.27552327477E+04 0.  0.
        4    1    3    3  502    0  0.88224312925E+03  0.94723141070E+03  0.46123619928E+03  0.13741691049E+04  0.12699999809E+01 0.  1.
       -4    1    3    3    0  502 -0.88224312925E+03 -0.94723141070E+03 -0.48160444616E+03  0.13811389286E+04  0.12699999809E+01 0. -1.
</event>
<event>
 5   0  0.3438130E-06  0.2811687E+04  0.7818609E-02  0.8299649E-01
        1   -1    0    0  501    0  0.00000000000E+00  0.00000000000E+00  0.16391816373E+04  0.16391816373E+04  0.50400001928E-02 0. -1.
       -1   -1    0    0    0  501  0.00000000000E+00  0.00000000000E+00 -0.12057215102E+04  0.12057215103E+04  0.50400001928E-02 0.  1.
    10030    2    1    2    0    0  0.00000000000E+00  0.00000000000E+00  0.43346012700E+03  0.28449031475E+04  0.28116874359E+04 0.  0.
        3    1    3    3  502    0 -0.40240848474E+03 -0.87027746183E+03  0.12570204844E+04  0.15809541289E+04  0.10100000352E+00 0. -1.
       -3    1    3    3    0  502  0.40240848474E+03  0.87027746183E+03 -0.82356035743E+03  0.12639490186E+04  0.10100000352E+00 0.  1.
</event>
<event>
 5   0  0.3438130E-06  0.2819594E+04  0.7818609E-02  0.8297211E-01
        1   -1    0    0  501    0  0.00000000000E+00  0.00000000000E+00  0.15129284310E+04  0.15129284310E+04  0.50400001928E-02 0. -1.
       -1   -1    0    0    0  501  0.00000000000E+00  0.00000000000E+00 -0.13136956774E+04  0.13136956774E+04  0.50400001928E-02 0.  1.
    10030    2    1    2    0    0  0.00000000000E+00  0.00000000000E+00  0.19923275363E+03  0.28266241084E+04  0.28195939708E+04 0.  0.
        3    1    3    3  502    0 -0.89887193588E+03 -0.40597728310E+03 -0.91023789822E+03  0.13421331354E+04  0.10100000352E+00 0.  1.
       -3    1    3    3    0  502  0.89887193588E+03  0.40597728310E+03  0.11094706519E+04  0.14844909730E+04  0.10100000352E+00 0. -1.
</event>
<event>
 5   0  0.9426937E-06  0.2763322E+04  0.7818609E-02  0.8314747E-01
       -2   -1    0    0    0  501  0.00000000000E+00  0.00000000000E+00  0.10470455235E+04  0.10470455235E+04  0.25500000920E-02 0.  1.
        2   -1    0    0  501    0  0.00000000000E+00  0.00000000000E+00 -0.18232127320E+04  0.18232127320E+04  0.25500000920E-02 0. -1.
    10030    2    1    2    0    0  0.00000000000E+00  0.00000000000E+00 -0.77616720849E+03  0.28702582556E+04  0.27633217182E+04 0.  0.
        4    1    3    3  502    0 -0.83754192224E+03 -0.81863422022E+02 -0.15263033998E+04  0.17429233409E+04  0.12699999809E+01 0. -1.
       -4    1    3    3    0  502  0.83754192224E+03  0.81863422022E+02  0.75013619128E+03  0.11273349146E+04  0.12699999809E+01 0.  1.
</event>
<event>
 5   0  0.3600963E-06  0.2753921E+04  0.7818609E-02  0.8317719E-01
        1   -1    0    0  501    0  0.00000000000E+00  0.00000000000E+00  0.20785593753E+04  0.20785593753E+04  0.50400001928E-02 0.  1.
       -1   -1    0    0    0  501  0.00000000000E+00  0.00000000000E+00 -0.91217991534E+03  0.91217991536E+03  0.50400001928E-02 0. -1.
    10030    2    1    2    0    0  0.00000000000E+00  0.00000000000E+00  0.11663794600E+04  0.29907392907E+04  0.27539209248E+04 0.  0.
        5    1    3    3  502    0 -0.53194958682E+03  0.36500999147E+03 -0.73788663318E+03  0.98015377886E+03  0.46999998093E+01 0. -1.
       -5    1    3    3    0  502  0.53194958682E+03 -0.36500999147E+03  0.19042660932E+04  0.20105855118E+04  0.46999998093E+01 0.  1.
</event>
<event>
 5   0  0.3371603E-06  0.2812999E+04  0.7818609E-02  0.8299244E-01
       -1   -1    0    0    0  501  0.00000000000E+00  0.00000000000E+00  0.11661955620E+04  0.11661955620E+04  0.50400001928E-02 0.  1.
        1   -1    0    0  501    0  0.00000000000E+00  0.00000000000E+00 -0.16963200200E+04  0.16963200200E+04  0.50400001928E-02 0. -1.
    10030    2    1    2    0    0  0.00000000000E+00  0.00000000000E+00 -0.53012445807E+03  0.28625155820E+04  0.28129990253E+04 0.  0.
        1    1    3    3  502    0  0.69312312116E+03 -0.41058980611E+03  0.90815795500E+03  0.12139829164E+04  0.50400001928E-02 0.  1.
       -1    1    3    3    0  502 -0.69312312116E+03  0.41058980611E+03 -0.14382824131E+04  0.16485326657E+04  0.50400001928E-02 0. -1.
</event>
<event>
 5   0  0.3397882E-06  0.2829472E+04  0.7818609E-02  0.8294177E-01
       -1   -1    0    0    0  501  0.00000000000E+00  0.00000000000E+00  0.12341922367E+04  0.12341922367E+04  0.50400001928E-02 0.  1.
        1   -1    0    0  501    0  0.00000000000E+00  0.00000000000E+00 -0.16216903951E+04  0.16216903951E+04  0.50400001928E-02 0. -1.
    10030    2    1    2    0    0  0.00000000000E+00  0.00000000000E+00 -0.38749815845E+03  0.28558826318E+04  0.28294718206E+04 0.  0.
        2    1    3    3  502    0  0.71968946222E+03  0.39059222212E+03 -0.13581911563E+04  0.15859377109E+04  0.25500000920E-02 0. -1.
       -2    1    3    3    0  502 -0.71968946222E+03 -0.39059222212E+03  0.97069299780E+03  0.12699449208E+04  0.25500000920E-02 0.  1.
</event>
<event>
 5   0  0.9065579E-06  0.2840435E+04  0.7818609E-02  0.8290824E-01
       -2   -1    0    0    0  501  0.00000000000E+00  0.00000000000E+00  0.18512409093E+04  0.18512409094E+04  0.25500000920E-02 0.  1.
        2   -1    0    0  501    0  0.00000000000E+00  0.00000000000E+00 -0.10895490149E+04  0.10895490149E+04  0.25500000920E-02 0. -1.
    10030    2    1    2    0    0  0.00000000000E+00  0.00000000000E+00  0.76169189446E+03  0.29407899242E+04  0.28404349731E+04 0.  0.
        3    1    3    3  502    0 -0.63002520443E+03  0.28595213447E+03  0.16649556129E+04  0.18029912880E+04  0.10100000352E+00 0.  1.
       -3    1    3    3    0  502  0.63002520443E+03 -0.28595213447E+03 -0.90326371844E+03  0.11377986363E+04  0.10100000352E+00 0. -1.
</event>
<event>
 5   0  0.9426937E-06  0.2936261E+04  0.7818609E-02  0.8262170E-01
       -2   -1    0    0    0  501  0.00000000000E+00  0.00000000000E+00  0.18202852532E+04  0.18202852532E+04  0.25500000920E-02 0.  1.
        2   -1    0    0  501    0  0.00000000000E+00  0.00000000000E+00 -0.11841040430E+04  0.11841040430E+04  0.25500000920E-02 0. -1.
    10030    2    1    2    0    0  0.00000000000E+00  0.00000000000E+00  0.63618121021E+03  0.30043892961E+04  0.29362609745E+04 0.  0.
        4    1    3    3  502    0  0.12716439294E+03 -0.12779462594E+04  0.10459954525E+04  0.16563289300E+04  0.12699999809E+01 0.  1.
       -4    1    3    3    0  502 -0.12716439294E+03  0.12779462594E+04 -0.40981424225E+03  0.13480603662E+04  0.12699999809E+01 0. -1.
</event>
<event>
 5   0  0.9065579E-06  0.2780343E+04  0.7818609E-02  0.8309397E-01
        2   -1    0    0  501    0  0.00000000000E+00  0.00000000000E+00  0.11594897575E+04  0.11594897575E+04  0.25500000920E-02 0.  1.
       -2   -1    0    0    0  501  0.00000000000E+00  0.00000000000E+00 -0.16667474179E+04  0.16667474179E+04  0.25500000920E-02 0. -1.
    10030    2    1    2    0    0  0.00000000000E+00  0.00000000000E+00 -0.50725766044E+03  0.28262371754E+04  0.27803428273E+04 0.  0.
        3    1    3    3  502    0  0.19324924840E+03 -0.91472666054E+03 -0.12994489728E+04  0.16008240936E+04  0.10100000352E+00 0. -1.
       -3    1    3    3    0  502 -0.19324924840E+03  0.91472666054E+03  0.79219131235E+03  0.12254130818E+04  0.10100000352E+00 0.  1.
</event>
<event>
 5   0  0.9065579E-06  0.2828715E+04  0.7818609E-02  0.8294409E-01
       -2   -1    0    0    0  501  0.00000000000E+00  0.00000000000E+00  0.10273552636E+04  0.10273552636E+04  0.25500000920E-02 0. -1.
        2   -1    0    0  501    0  0.00000000000E+00  0.00000000000E+00 -0.19471419691E+04  0.19471419691E+04  0.25500000920E-02 0.  1.
    10030    2    1    2    0    0  0.00000000000E+00  0.00000000000E+00 -0.91978670545E+03  0.29744972327E+04  0.28287145851E+04 0.  0.
        3    1    3    3  502    0 -0.64719248289E+03  0.18545079954E+03 -0.17678445901E+04  0.18916988698E+04  0.10100000352E+00 0.  1.
       -3    1    3    3    0  502  0.64719248289E+03 -0.18545079954E+03  0.84805788463E+03  0.10827983630E+04  0.10100000352E+00 0. -1.
</event>
<event>
 5   0  0.3600963E-06  0.2798825E+04  0.7818609E-02  0.8303633E-01
        1   -1    0    0  501    0  0.00000000000E+00  0.00000000000E+00  0.24797638406E+04  0.24797638406E+04  0.50400001928E-02 0. -1.
       -1   -1    0    0    0  501  0.00000000000E+00  0.00000000000E+00 -0.78973474052E+03  0.78973474054E+03  0.50400001928E-02 0.  1.
    10030    2    1    2    0    0  0.00000000000E+00  0.00000000000E+00  0.16900291000E+04  0.32694985811E+04  0.27988252201E+04 0.  0.
        5    1    3    3  502    0  0.12264876609E+04  0.25169488003E+02  0.58404339752E+02  0.12281443899E+04  0.46999998093E+01 0.  1.
       -5    1    3    3    0  502 -0.12264876609E+04 -0.25169488003E+02  0.16316247603E+04  0.20413541912E+04  0.46999998093E+01 0. -1.
</event>
<event>
 5   0  0.3357244E-06  0.2803588E+04  0.7818609E-02  0.8302155E-01
        1   -1    0    0  501    0  0.00000000000E+00  0.00000000000E+00  0.24540567560E+04  0.24540567560E+04  0.50400001928E-02 0.  1.
       -1   -1    0    0    0  501  0.00000000000E+00  0.00000000000E+00 -0.80072570092E+03  0.80072570094E+03  0.50400001928E-02 0. -1.
    10030    2    1    2    0    0  0.00000000000E+00  0.00000000000E+00  0.16533310551E+04  0.32547824569E+04  0.28035879270E+04 0.  0.
        4    1    3    3  502    0 -0.13547262855E+04  0.29278948028E+03  0.58310233087E+03  0.15036684905E+04  0.12699999809E+01 0. -1.
       -4    1    3    3    0  502  0.13547262855E+04 -0.29278948028E+03  0.10702287242E+04  0.17511139664E+04  0.12699999809E+01 0.  1.
</event>
<event>
 5   0  0.3600963E-06  0.2795354E+04  0.7818609E-02  0.8304712E-01
        1   -1    0    0  501    0  0.00000000000E+00  0.00000000000E+00  0.19005719070E+04  0.19005719070E+04  0.50400001928E-02 0.  1.
       -1   -1    0    0    0  501  0.00000000000E+00  0.00000000000E+00 -0.10278488834E+04  0.10278488834E+04  0.50400001928E-02 0. -1.
    10030    2    1    2    0    0  0.00000000000E+00  0.00000000000E+00  0.87272302358E+03  0.29284207904E+04  0.27953537969E+04 0.  0.
        5    1    3    3  502    0  0.87703604207E+03 -0.67031420090E+02 -0.70152681382E+03  0.11250988360E+04  0.46999998093E+01 0. -1.
       -5    1    3    3    0  502 -0.87703604207E+03  0.67031420090E+02  0.15742498374E+04  0.18033219543E+04  0.46999998093E+01 0.  1.
</event>
<event>
 5   0  0.3438130E-06  0.2579559E+04  0.7818609E-02  0.8375178E-01
       -1   -1    0    0    0  501  0.00000000000E+00  0.00000000000E+00  0.13661730914E+04  0.13661730914E+04  0.50400001928E-02 0. -1.
        1   -1    0    0  501    0  0.00000000000E+00  0.00000000000E+00 -0.12176580329E+04  0.12176580329E+04  0.50400001928E-02 0.  1.
    10030    2    1    2    0    0  0.00000000000E+00  0.00000000000E+00  0.14851505857E+03  0.25838311243E+04  0.25795593725E+04 0.  0.
        3    1    3    3  502    0  0.96982654161E+03 -0.61230137544E+03  0.66519648314E+03  0.13258819203E+04  0.10100000352E+00 0. -1.
       -3    1    3    3    0  502 -0.96982654161E+03  0.61230137544E+03 -0.51668142457E+03  0.12579492040E+04  0.10100000352E+00 0.  1.
</event>
<event>
 5   0  0.9426937E-06  0.2803992E+04  0.7818609E-02  0.8302030E-01
       -2   -1    0    0    0  501  0.00000000000E+00  0.00000000000E+00  0.80883546049E+03  0.80883546049E+03  0.25500000920E-02 0.  1.
        2   -1    0    0  501    0  0.00000000000E+00  0.00000000000E+00 -0.24301523318E+04  0.24301523318E+04  0.25500000920E-02 0. -1.
    10030    2    1    2    0    0  0.00000000000E+00  0.00000000000E+00 -0.16213168713E+04  0.32389877923E+04  0.28039924253E+04 0.  0.
        4    1    3    3  502    0  0.83900068605E+02  0.97942994533E+03 -0.19653707495E+04  0.21974999511E+04  0.12699999809E+01 0. -1.
       -4    1    3    3    0  502 -0.83900068605E+02 -0.97942994533E+03  0.34405387818E+03  0.10414878412E+04  0.12699999809E+01 0.  1.
</event>
<event>
 5   0  0.9260173E-06  0.2817583E+04  0.7818609E-02  0.8297830E-01
        2   -1    0    0  501    0  0.00000000000E+00  0.00000000000E+00  0.12380106762E+04  0.12380106762E+04  0.25500000920E-02 0. -1.
       -2   -1    0    0    0  501  0.00000000000E+00  0.00000000000E+00 -0.16031306811E+04  0.16031306811E+04  0.25500000920E-02 0.  1.
    10030    2    1    2    0    0  0.00000000000E+00  0.00000000000E+00 -0.36512000490E+03  0.28411413574E+04  0.28175825799E+04 0.  0.
        1    1    3    3  502    0  0.10052165284E+04  0.88368026501E+03  0.26082304957E+03  0.13635907534E+04  0.50400001928E-02 0. -1.
       -1    1    3    3    0  502 -0.10052165284E+04 -0.88368026501E+03 -0.62594305447E+03  0.14775506039E+04  0.50400001928E-02 0.  1.
</event>
<event>
 5   0  0.9342133E-06  0.2859334E+04  0.7818609E-02  0.8285081E-01
        2   -1    0    0  501    0  0.00000000000E+00  0.00000000000E+00  0.13695467495E+04  0.13695467495E+04  0.25500000920E-02 0. -1.
       -2   -1    0    0    0  501  0.00000000000E+00  0.00000000000E+00 -0.14924261217E+04  0.14924261217E+04  0.25500000920E-02 0.  1.
    10030    2    1    2    0    0  0.00000000000E+00  0.00000000000E+00 -0.12287937220E+03  0.28619728712E+04  0.28593337292E+04 0.  0.
        2    1    3    3  502    0  0.11043169876E+04 -0.84341795364E+03  0.27514065458E+03  0.14165352920E+04  0.25500000920E-02 0. -1.
       -2    1    3    3    0  502 -0.11043169876E+04  0.84341795364E+03 -0.39802002678E+03  0.14454375792E+04  0.25500000920E-02 0.  1.
</event>
<event>
 5   0  0.3438130E-06  0.2796983E+04  0.7818609E-02  0.8304206E-01
       -1   -1    0    0    0  501  0.00000000000E+00  0.00000000000E+00  0.14277926765E+04  0.14277926765E+04  0.50400001928E-02 0.  1.
        1   -1    0    0  501    0  0.00000000000E+00  0.00000000000E+00 -0.13697914021E+04  0.13697914022E+04  0.50400001928E-02 0. -1.
    10030    2    1    2    0    0  0.00000000000E+00  0.00000000000E+00  0.58001274303E+02  0.27975840786E+04  0.27969827545E+04 0.  0.
        3    1    3    3  502    0  0.44011602886E+03 -0.12153025688E+04 -0.50507639559E+03  0.13877192180E+04  0.10100000352E+00 0. -1.
       -3    1    3    3    0  502 -0.44011602886E+03  0.12153025688E+04  0.56307766989E+03  0.14098648606E+04  0.10100000352E+00 0.  1.
</event>
<event>
 5   0  0.9065579E-06  0.2757776E+04  0.7818609E-02  0.8316498E-01
        2   -1    0    0  501    0  0.00000000000E+00  0.00000000000E+00  0.22143649842E+04  0.22143649842E+04  0.25500000920E-02 0. -1.
       -2   -1    0    0    0  501  0.00000000000E+00  0.00000000000E+00 -0.85863538476E+03  0.85863538476E+03  0.25500000920E-02 0.  1.
    10030    2    1    2    0    0  0.00000000000E+00  0.00000000000E+00  0.13557295994E+04  0.30730003690E+04  0.27577760099E+04 0.  0.
        3    1    3    3  502    0  0.57536226022E+03 -0.58358245896E+03 -0.55781821581E+03  0.99134826826E+03  0.10100000352E+00 0.  1.
       -3    1    3    3    0  502 -0.57536226022E+03  0.58358245896E+03  0.19135478153E+04  0.20816521007E+04  0.10100000352E+00 0. -1.
</event>
<event>
 5   0  0.9252359E-06  0.2799105E+04  0.7818609E-02  0.8303546E-01
        2   -1    0    0  501    0  0.00000000000E+00  0.00000000000E+00  0.22903709178E+04  0.22903709178E+04  0.25500000920E-02 0.  1.
       -2   -1    0    0    0  501  0.00000000000E+00  0.00000000000E+00 -0.85520948180E+03  0.85520948180E+03  0.25500000920E-02 0. -1.
    10030    2    1    2    0    0  0.00000000000E+00  0.00000000000E+00  0.14351614360E+04  0.31455803996E+04  0.27991048038E+04 0.  0.
        5    1    3    3  502    0 -0.61750655331E+03 -0.18316236207E+02  0.21288432295E+04  0.22166744041E+04  0.46999998093E+01 0.  1.
       -5    1    3    3    0  502  0.61750655331E+03  0.18316236207E+02 -0.69368179350E+03  0.92890599552E+03  0.46999998093E+01 0. -1.
</event>
<event>
 5   0  0.9260173E-06  0.2729073E+04  0.7818609E-02  0.8325633E-01
       -2   -1    0    0    0  501  0.00000000000E+00  0.00000000000E+00  0.15305869067E+04  0.15305869067E+04  0.25500000920E-02 0. -1.
        2   -1    0    0  501    0  0.00000000000E+00  0.00000000000E+00 -0.12165004183E+04  0.12165004183E+04  0.25500000920E-02 0.  1.
    10030    2    1    2    0    0  0.00000000000E+00  0.00000000000E+00  0.31408648841E+03  0.27470873250E+04  0.27290728185E+04 0.  0.
        1    1    3    3  502    0 -0.11224349557E+04  0.14795800608E+03  0.92378502064E+03  0.14612085976E+04  0.50400001928E-02 0. -1.
       -1    1    3    3    0  502  0.11224349557E+04 -0.14795800608E+03 -0.60969853223E+03  0.12858787274E+04  0.50400001928E-02 0.  1.
</event>
<event>
 5   0  0.3438130E-06  0.2767599E+04  0.7818609E-02  0.8313399E-01
        1   -1    0    0  501    0  0.00000000000E+00  0.00000000000E+00  0.26085638283E+04  0.26085638283E+04  0.50400001928E-02 0. -1.
       -1   -1    0    0    0  501  0.00000000000E+00  0.00000000000E+00 -0.73408261652E+03  0.73408261654E+03  0.50400001928E-02 0.  1.
    10030    2    1    2    0    0  0.00000000000E+00  0.00000000000E+00  0.18744812118E+04  0.33426464449E+04  0.27675992199E+04 0.  0.
        3    1    3    3  502    0 -0.49122460045E+02 -0.93861010394E+02 -0.72917774683E+03  0.73683315753E+03  0.10100000352E+00 0.  1.
       -3    1    3    3    0  502  0.49122460045E+02  0.93861010394E+02  0.26036589586E+04  0.26058132873E+04  0.10100000352E+00 0. -1.
</event>
<event>
 5   0  0.3357244E-06  0.2619394E+04  0.7818609E-02  0.8361643E-01
        1   -1    0    0  501    0  0.00000000000E+00  0.00000000000E+00  0.11678706514E+04  0.11678706514E+04  0.50400001928E-02 0. -1.
       -1   -1    0    0    0  501  0.00000000000E+00  0.00000000000E+00 -0.14687470523E+04  0.14687470523E+04  0.50400001928E-02 0.  1.
    10030    2    1    2    0    0  0.00000000000E+00  0.00000000000E+00 -0.30087640088E+03  0.26366177037E+04  0.26193942633E+04 0.  0.
        4    1    3    3  502    0  0.65185156093E+03 -0.10052393961E+04  0.38208512478E+03  0.12575402007E+04  0.12699999809E+01 0. -1.
       -4    1    3    3    0  502 -0.65185156093E+03  0.10052393961E+04 -0.68296152566E+03  0.13790775030E+04  0.12699999809E+01 0.  1.
</event>
<event>
 5   0  0.3438130E-06  0.2784938E+04  0.7818609E-02  0.8307960E-01
       -1   -1    0    0    0  501  0.00000000000E+00  0.00000000000E+00  0.18993919737E+04  0.18993919737E+04  0.50400001928E-02 0. -1.
        1   -1    0    0  501    0  0.00000000000E+00  0.00000000000E+00 -0.10208370001E+04  0.10208370001E+04  0.50400001928E-02 0.  1.
    10030    2    1    2    0    0  0.00000000000E+00  0.00000000000E+00  0.87855497365E+03  0.29202289738E+04  0.27849377763E+04 0.  0.
        3    1    3    3  502    0 -0.58174110036E+03  0.12628723491E+04  0.36010926660E+03  0.14362966170E+04  0.10100000352E+00 0.  1.
       -3    1    3    3    0  502  0.58174110036E+03 -0.12628723491E+04  0.51844570705E+03  0.14839323567E+04  0.10100000352E+00 0. -1.
</event>
<event>
 5   0  0.9260173E-06  0.2754829E+04  0.7818609E-02  0.8317431E-01
        2   -1    0    0  501    0  0.00000000000E+00  0.00000000000E+00  0.16782744028E+04  0.16782744028E+04  0.25500000920E-02 0. -1.
       -2   -1    0    0    0  501  0.00000000000E+00  0.00000000000E+00 -0.11304889421E+04  0.11304889421E+04  0.25500000920E-02 0.  1.
    10030    2    1    2    0    0  0.00000000000E+00  0.00000000000E+00  0.54778546073E+03  0.28087633450E+04  0.27548289633E+04 0.  0.
        1    1    3    3  502    0 -0.58328089945E+03 -0.95384048220E+03  0.10941573545E+04  0.15643556467E+04  0.50400001928E-02 0. -1.
       -1    1    3    3    0  502  0.58328089945E+03  0.95384048220E+03 -0.54637189373E+03  0.12444076982E+04  0.50400001928E-02 0.  1.
</event>
<event>
 5   0  0.3006875E-06  0.2774343E+04  0.7818609E-02  0.8311278E-01
        4   -1    0    0  501    0  0.00000000000E+00  0.00000000000E+00  0.92555309656E+03  0.92555396788E+03  0.12699999809E+01 0. -1.
       -4   -1    0    0    0  501  0.00000000000E+00  0.00000000000E+00 -0.20790190857E+04  0.20790194736E+04  0.12699999809E+01 0.  1.
    10030    2    1    2    0    0  0.00000000000E+00  0.00000000000E+00 -0.11534659892E+04  0.30045734415E+04  0.27743427649E+04 0.  0.
        4    1    3    3  502    0 -0.72660654504E+03 -0.10604444030E+04 -0.12183227253E+02  0.12855541401E+04  0.12699999809E+01 0. -1.
       -4    1    3    3    0  502  0.72660654504E+03  0.10604444030E+04 -0.11412827619E+04  0.17190193014E+04  0.12699999809E+01 0.  1.
</event>
<event>
 5   0  0.9342133E-06  0.2799144E+04  0.7818609E-02  0.8303534E-01
       -2   -1    0    0    0  501  0.00000000000E+00  0.00000000000E+00  0.11203467616E+04  0.11203467616E+04  0.25500000920E-02 0. -1.
        2   -1    0    0  501    0  0.00000000000E+00  0.00000000000E+00 -0.17483883681E+04  0.17483883682E+04  0.25500000920E-02 0.  1.
    10030    2    1    2    0    0  0.00000000000E+00  0.00000000000E+00 -0.62804160650E+03  0.28687351298E+04  0.27991436164E+04 0.  0.
        2    1    3    3  502    0 -0.69154777453E+03 -0.79024586597E+03 -0.12622668123E+04  0.16419635680E+04  0.25500000920E-02 0.  1.
       -2    1    3    3    0  502  0.69154777453E+03  0.79024586597E+03  0.63422520582E+03  0.12267715618E+04  0.25500000920E-02 0. -1.
</event>
<event>
 5   0  0.9065579E-06  0.2776554E+04  0.7818609E-02  0.8310585E-01
        2   -1    0    0  501    0  0.00000000000E+00  0.00000000000E+00  0.20955044118E+04  0.20955044118E+04  0.25500000920E-02 0. -1.
       -2   -1    0    0    0  501  0.00000000000E+00  0.00000000000E+00 -0.91973703061E+03  0.91973703062E+03  0.25500000920E-02 0.  1.
    10030    2    1    2    0    0  0.00000000000E+00  0.00000000000E+00  0.11757673812E+04  0.30152414424E+04  0.27765539832E+04 0.  0.
        3    1    3    3  502    0 -0.90426446866E+03 -0.85661512315E+03 -0.77866481720E+02  0.12480171864E+04  0.10100000352E+00 0. -1.
       -3    1    3    3    0  502  0.90426446866E+03  0.85661512315E+03  0.12536338629E+04  0.17672242560E+04  0.10100000352E+00 0.  1.
</event>
<event>
 5   0  0.9342133E-06  0.2783108E+04  0.7818609E-02  0.8308532E-01
        2   -1    0    0  501    0  0.00000000000E+00  0.00000000000E+00  0.24218188563E+04  0.24218188563E+04  0.25500000920E-02 0. -1.
       -2   -1    0    0    0  501  0.00000000000E+00  0.00000000000E+00 -0.79957384342E+03  0.79957384342E+03  0.25500000920E-02 0.  1.
    10030    2    1    2    0    0  0.00000000000E+00  0.00000000000E+00  0.16222450129E+04  0.32213926998E+04  0.27831083421E+04 0.  0.
        2    1    3    3  502    0 -0.95652380150E+03  0.71758378092E+03  0.16349351744E+04  0.20255560446E+04  0.25500000920E-02 0. -1.
       -2    1    3    3    0  502  0.95652380150E+03 -0.71758378092E+03 -0.12690161500E+02  0.11958366551E+04  0.25500000920E-02 0.  1.
</event>
<event>
 5   0  0.9065579E-06  0.2766408E+04  0.7818609E-02  0.8313774E-01
       -2   -1    0    0    0  501  0.00000000000E+00  0.00000000000E+00  0.91188013155E+03  0.91188013155E+03  0.25500000920E-02 0.  1.
        2   -1    0    0  501    0  0.00000000000E+00  0.00000000000E+00 -0.20981406119E+04  0.20981406119E+04  0.25500000920E-02 0. -1.
    10030    2    1    2    0    0  0.00000000000E+00  0.00000000000E+00 -0.11862604804E+04  0.30100207435E+04  0.27664075891E+04 0.  0.
        3    1    3    3  502    0 -0.45141380799E+03 -0.33356972575E+02  0.82901427866E+03  0.94453787541E+03  0.10100000352E+00 0.  1.
       -3    1    3    3    0  502  0.45141380799E+03  0.33356972575E+02 -0.20152747590E+04  0.20654828680E+04  0.10100000352E+00 0. -1.
</event>
<event>
 5   0  0.9065579E-06  0.2798789E+04  0.7818609E-02  0.8303644E-01
        2   -1    0    0  501    0  0.00000000000E+00  0.00000000000E+00  0.22682561003E+04  0.22682561003E+04  0.25500000920E-02 0.  1.
       -2   -1    0    0    0  501  0.00000000000E+00  0.00000000000E+00 -0.86335266115E+03  0.86335266116E+03  0.25500000920E-02 0. -1.
    10030    2    1    2    0    0  0.00000000000E+00  0.00000000000E+00  0.14049034391E+04  0.31316087615E+04  0.27987889812E+04 0.  0.
        3    1    3    3  502    0 -0.12684862338E+04  0.16891192878E+03  0.68789368284E+02  0.12815305508E+04  0.10100000352E+00 0. -1.
       -3    1    3    3    0  502  0.12684862338E+04 -0.16891192878E+03  0.13361140709E+04  0.18500782107E+04  0.10100000352E+00 0.  1.
</event>
<event>
 5   0  0.9426937E-06  0.2793996E+04  0.7818609E-02  0.8305135E-01
        2   -1    0    0  501    0  0.00000000000E+00  0.00000000000E+00  0.14973934331E+04  0.14973934331E+04  0.25500000920E-02 0.  1.
       -2   -1    0    0    0  501  0.00000000000E+00  0.00000000000E+00 -0.13033336141E+04  0.13033336141E+04  0.25500000920E-02 0. -1.
    10030    2    1    2    0    0  0.00000000000E+00  0.00000000000E+00  0.19405981900E+03  0.28007270472E+04  0.27939958446E+04 0.  0.
        4    1    3    3  502    0  0.10519007186E+04  0.15973639082E+03  0.10045234713E+04  0.14632429236E+04  0.12699999809E+01 0.  1.
       -4    1    3    3    0  502 -0.10519007186E+04 -0.15973639082E+03 -0.81046365227E+03  0.13374841236E+04  0.12699999809E+01 0. -1.
</event>
<event>
 5   0  0.3600963E-06  0.2783303E+04  0.7818609E-02  0.8308471E-01
        1   -1    0    0  501    0  0.00000000000E+00  0.00000000000E+00  0.19101388116E+04  0.19101388116E+04  0.50400001928E-02 0. -1.
       -1   -1    0    0    0  501  0.00000000000E+00  0.00000000000E+00 -0.10139019496E+04  0.10139019496E+04  0.50400001928E-02 0.  1.
    10030    2    1    2    0    0  0.00000000000E+00  0.00000000000E+00  0.89623686194E+03  0.29240407612E+04  0.27833026893E+04 0.  0.
        5    1    3    3  502    0  0.30567571274E+03 -0.13449400266E+04  0.25335244269E+03  0.14023233817E+04  0.46999998093E+01 0. -1.
       -5    1    3    3    0  502 -0.30567571274E+03  0.13449400266E+04  0.64288441925E+03  0.15217173795E+04  0.46999998093E+01 0.  1.
</event>
<event>
 5   0  0.3357244E-06  0.2839604E+04  0.7818609E-02  0.8291077E-01
        1   -1    0    0  501    0  0.00000000000E+00  0.00000000000E+00  0.17736558670E+04  0.17736558670E+04  0.50400001928E-02 0. -1.
       -1   -1    0    0    0  501  0.00000000000E+00  0.00000000000E+00 -0.11365435326E+04  0.11365435326E+04  0.50400001928E-02 0.  1.
    10030    2    1    2    0    0  0.00000000000E+00  0.00000000000E+00  0.63711233448E+03  0.29101993996E+04  0.28396035672E+04 0.  0.
        4    1    3    3  502    0 -0.88201014039E+02 -0.14043844361E+04  0.12475053631E+03  0.14126710064E+04  0.12699999809E+01 0.  1.
       -4    1    3    3    0  502  0.88201014039E+02  0.14043844361E+04  0.51236179817E+03  0.14975283932E+04  0.12699999809E+01 0. -1.
</event>
<event>
 5   0  0.3397882E-06  0.2845291E+04  0.7818609E-02  0.8289344E-01
        1   -1    0    0  501    0  0.00000000000E+00  0.00000000000E+00  0.29862164810E+04  0.29862164810E+04  0.50400001928E-02 0. -1.
       -1   -1    0    0    0  501  0.00000000000E+00  0.00000000000E+00 -0.67775424297E+03  0.67775424299E+03  0.50400001928E-02 0.  1.
    10030    2    1    2    0    0  0.00000000000E+00  0.00000000000E+00  0.23084622380E+04  0.36639707240E+04  0.28452914722E+04 0.  0.
        2    1    3    3  502    0 -0.13061663592E+04  0.17109923854E+03  0.46247203140E+03  0.13961468000E+04  0.25500000920E-02 0.  1.
       -2    1    3    3    0  502  0.13061663592E+04 -0.17109923854E+03  0.18459902066E+04  0.22678239240E+04  0.25500000920E-02 0. -1.
</event>
<event>
 5   0  0.3438130E-06  0.2798267E+04  0.7818609E-02  0.8303807E-01
        1   -1    0    0  501    0  0.00000000000E+00  0.00000000000E+00  0.15102782688E+04  0.15102782688E+04  0.50400001928E-02 0.  1.
       -1   -1    0    0    0  501  0.00000000000E+00  0.00000000000E+00 -0.12961676889E+04  0.12961676889E+04  0.50400001928E-02 0. -1.
    10030    2    1    2    0    0  0.00000000000E+00  0.00000000000E+00  0.21411057987E+03  0.28064459577E+04  0.27982665300E+04 0.  0.
        3    1    3    3  502    0  0.84266563508E+03 -0.58492030499E+03 -0.84722834690E+03  0.13304183619E+04  0.10100000352E+00 0. -1.
       -3    1    3    3    0  502 -0.84266563508E+03  0.58492030499E+03  0.10613389268E+04  0.14760275957E+04  0.10100000352E+00 0.  1.
</event>
<event>
 5   0  0.9260173E-06  0.2702916E+04  0.7818609E-02  0.8334059E-01
        2   -1    0    0  501    0  0.00000000000E+00  0.00000000000E+00  0.20540785236E+04  0.20540785236E+04  0.25500000920E-02 0. -1.
       -2   -1    0    0    0  501  0.00000000000E+00  0.00000000000E+00 -0.88917694075E+03  0.88917694075E+03  0.25500000920E-02 0.  1.
    10030    2    1    2    0    0  0.00000000000E+00  0.00000000000E+00  0.11649015829E+04  0.29432554644E+04  0.27029163936E+04 0.  0.
        1    1    3    3  502    0  0.59136093506E+03  0.95628571794E+03  0.13989574709E+04  0.17947902761E+04  0.50400001928E-02 0. -1.
       -1    1    3    3    0  502 -0.59136093506E+03 -0.95628571794E+03 -0.23405588805E+03  0.11484651882E+04  0.50400001928E-02 0.  1.
</event>
<event>
 5   0  0.3438130E-06  0.2812904E+04  0.7818609E-02  0.8299273E-01
        1   -1    0    0  501    0  0.00000000000E+00  0.00000000000E+00  0.14104950415E+04  0.14104950415E+04  0.50400001928E-02 0. -1.
       -1   -1    0    0    0  501  0.00000000000E+00  0.00000000000E+00 -0.14024201203E+04  0.14024201203E+04  0.50400001928E-02 0.  1.
    10030    2    1    2    0    0  0.00000000000E+00  0.00000000000E+00  0.80749211968E+01  0.28129151617E+04  0.28129035715E+04 0.  0.
        3    1    3    3  502    0  0.58176485986E+03 -0.35613292185E+03  0.12340122864E+04  0.14099884196E+04  0.10100000352E+00 0. -1.
       -3    1    3    3    0  502 -0.58176485986E+03  0.35613292185E+03 -0.12259373652E+04  0.14029267421E+04  0.10100000352E+00 0.  1.
</event>
<event>
 5   0  0.9065579E-06  0.2786983E+04  0.7818609E-02  0.8307321E-01
        2   -1    0    0  501    0  0.00000000000E+00  0.00000000000E+00  0.17041698299E+04  0.17041698299E+04  0.25500000920E-02 0. -1.
       -2   -1    0    0    0  501  0.00000000000E+00  0.00000000000E+00 -0.11394509279E+04  0.11394509279E+04  0.25500000920E-02 0.  1.
    10030    2    1    2    0    0  0.00000000000E+00  0.00000000000E+00  0.56471890203E+03  0.28436207578E+04  0.27869825217E+04 0.  0.
        3    1    3    3  502    0  0.73977967835E+03 -0.80319098740E+03 -0.60092875475E+03  0.12463968522E+04  0.10100000352E+00 0.  1.
       -3    1    3    3    0  502 -0.73977967835E+03  0.80319098740E+03  0.11656476568E+04  0.15972239056E+04  0.10100000352E+00 0. -1.
</event>
<event>
 5   0  0.3371603E-06  0.2528490E+04  0.7818609E-02  0.8392906E-01
       -1   -1    0    0    0  501  0.00000000000E+00  0.00000000000E+00  0.12315820390E+04  0.12315820390E+04  0.50400001928E-02 0. -1.
        1   -1    0    0  501    0  0.00000000000E+00  0.00000000000E+00 -0.12977737884E+04  0.12977737884E+04  0.50400001928E-02 0.  1.
    10030    2    1    2    0    0  0.00000000000E+00  0.00000000000E+00 -0.66191749376E+02  0.25293558274E+04  0.25284895796E+04 0.  0.
        1    1    3    3  502    0 -0.68321156587E+03  0.26116020852E+03 -0.10646291507E+04  0.12916725308E+04  0.50400001928E-02 0.  1.
       -1    1    3    3    0  502  0.68321156587E+03 -0.26116020852E+03  0.99843740134E+03  0.12376832966E+04  0.50400001928E-02 0. -1.
</event>
<event>
 5   0  0.9426937E-06  0.2808949E+04  0.7818609E-02  0.8300495E-01
       -2   -1    0    0    0  501  0.00000000000E+00  0.00000000000E+00  0.23934991904E+04  0.23934991904E+04  0.25500000920E-02 0. -1.
        2   -1    0    0  501    0  0.00000000000E+00  0.00000000000E+00 -0.82412748331E+03  0.82412748331E+03  0.25500000920E-02 0.  1.
    10030    2    1    2    0    0  0.00000000000E+00  0.00000000000E+00  0.15693717071E+04  0.32176266737E+04  0.28089488882E+04 0.  0.
        4    1    3    3  502    0  0.24117405794E+03  0.12494969056E+04  0.10397149881E+03  0.12768003480E+04  0.12699999809E+01 0.  1.
       -4    1    3    3    0  502 -0.24117405794E+03 -0.12494969056E+04  0.14654002083E+04  0.19408263257E+04  0.12699999809E+01 0. -1.
</event>
<event>
 5   0  0.9426937E-06  0.2794419E+04  0.7818609E-02  0.8305003E-01
        2   -1    0    0  501    0  0.00000000000E+00  0.00000000000E+00  0.19290079847E+04  0.19290079847E+04  0.25500000920E-02 0.  1.
       -2   -1    0    0    0  501  0.00000000000E+00  0.00000000000E+00 -0.10120199083E+04  0.10120199083E+04  0.25500000920E-02 0. -1.
    10030    2    1    2    0    0  0.00000000000E+00  0.00000000000E+00  0.91698807640E+03  0.29410278930E+04  0.27944190694E+04 0.  0.
        4    1    3    3  502    0  0.11094614419E+02 -0.68756243462E+03  0.17385819567E+04  0.18696347304E+04  0.12699999809E+01 0. -1.
       -4    1    3    3    0  502 -0.11094614419E+02  0.68756243462E+03 -0.82159388027E+03  0.10713931627E+04  0.12699999809E+01 0.  1.
</event>
<event>
 5   0  0.3600963E-06  0.2791616E+04  0.7818609E-02  0.8305876E-01
        1   -1    0    0  501    0  0.00000000000E+00  0.00000000000E+00  0.23290576034E+04  0.23290576034E+04  0.50400001928E-02 0. -1.
       -1   -1    0    0    0  501  0.00000000000E+00  0.00000000000E+00 -0.83651025082E+03  0.83651025083E+03  0.50400001928E-02 0.  1.
    10030    2    1    2    0    0  0.00000000000E+00  0.00000000000E+00  0.14925473525E+04  0.31655678542E+04  0.27916164206E+04 0.  0.
        5    1    3    3  502    0 -0.94906562542E+03 -0.10187894958E+04  0.85738318343E+03  0.16351714318E+04  0.46999998093E+01 0.  1.
       -5    1    3    3    0  502  0.94906562542E+03  0.10187894958E+04  0.63516416911E+03  0.15303964224E+04  0.46999998093E+01 0. -1.
</event>
<event>
 5   0  0.3438130E-06  0.2836821E+04  0.7818609E-02  0.8291927E-01
        1   -1    0    0  501    0  0.00000000000E+00  0.00000000000E+00  0.88328713558E+03  0.88328713559E+03  0.50400001928E-02 0.  1.
       -1   -1    0    0    0  501  0.00000000000E+00  0.00000000000E+00 -0.22777280960E+04  0.22777280960E+04  0.50400001928E-02 0. -1.
    10030    2    1    2    0    0  0.00000000000E+00  0.00000000000E+00 -0.13944409604E+04  0.31610152316E+04  0.28368207032E+04 0.  0.
        3    1    3    3  502    0  0.36366614523E+03  0.48554704017E+03 -0.21258828777E+04  0.22107435431E+04  0.10100000352E+00 0. -1.
       -3    1    3    3    0  502 -0.36366614523E+03 -0.48554704017E+03  0.73144191728E+03  0.95027168850E+03  0.10100000352E+00 0.  1.
</event>
<event>
 5   0  0.3397882E-06  0.2804758E+04  0.7818609E-02  0.8301793E-01
       -1   -1    0    0    0  501  0.00000000000E+00  0.00000000000E+00  0.13011084995E+04  0.13011084995E+04  0.50400001928E-02 0. -1.
        1   -1    0    0  501    0  0.00000000000E+00  0.00000000000E+00 -0.15115322498E+04  0.15115322499E+04  0.50400001928E-02 0.  1.
    10030    2    1    2    0    0  0.00000000000E+00  0.00000000000E+00 -0.21042375032E+03  0.28126407494E+04  0.28047584264E+04 0.  0.
        2    1    3    3  502    0 -0.47044433798E+03  0.44451594591E+03 -0.13527962671E+04  0.14996566412E+04  0.25500000920E-02 0.  1.
       -2    1    3    3    0  502  0.47044433798E+03 -0.44451594591E+03  0.11423725167E+04  0.13129841082E+04  0.25500000920E-02 0. -1.
</event>
<event>
 5   0  0.9426937E-06  0.2811586E+04  0.7818609E-02  0.8299680E-01
        2   -1    0    0  501    0  0.00000000000E+00  0.00000000000E+00  0.10551199863E+04  0.10551199863E+04  0.25500000920E-02 0. -1.
       -2   -1    0    0    0  501  0.00000000000E+00  0.00000000000E+00 -0.18730140837E+04  0.18730140837E+04  0.25500000920E-02 0.  1.
    10030    2    1    2    0    0  0.00000000000E+00  0.00000000000E+00 -0.81789409747E+03  0.29281340700E+04  0.28115864520E+04 0.  0.
        4    1    3    3  502    0  0.94113442518E+03 -0.17422612470E+03 -0.14812712061E+04  0.17635914345E+04  0.12699999809E+01 0.  1.
       -4    1    3    3    0  502 -0.94113442518E+03  0.17422612470E+03  0.66337710863E+03  0.11645426355E+04  0.12699999809E+01 0. -1.
</event>
<event>
 5   0  0.3438130E-06  0.2784316E+04  0.7818609E-02  0.8308154E-01
       -1   -1    0    0    0  501  0.00000000000E+00  0.00000000000E+00  0.90199424464E+03  0.90199424465E+03  0.50400001928E-02 0. -1.
        1   -1    0    0  501    0  0.00000000000E+00  0.00000000000E+00 -0.21486873134E+04  0.21486873134E+04  0.50400001928E-02 0.  1.
    10030    2    1    2    0    0  0.00000000000E+00  0.00000000000E+00 -0.12466930688E+04  0.30506815581E+04  0.27843157797E+04 0.  0.
        3    1    3    3  502    0 -0.57866255652E+02 -0.50589369012E+03  0.79630355922E+03  0.94518585362E+03  0.10100000352E+00 0. -1.
       -3    1    3    3    0  502  0.57866255652E+02  0.50589369012E+03 -0.20429966280E+04  0.21054957044E+04  0.10100000352E+00 0.  1.
</event>
<event>
 5   0  0.9342133E-06  0.2865711E+04  0.7818609E-02  0.8283153E-01
        2   -1    0    0  501    0  0.00000000000E+00  0.00000000000E+00  0.14224895084E+04  0.14224895084E+04  0.25500000920E-02 0.  1.
       -2   -1    0    0    0  501  0.00000000000E+00  0.00000000000E+00 -0.14432967020E+04  0.14432967020E+04  0.25500000920E-02 0. -1.
    10030    2    1    2    0    0  0.00000000000E+00  0.00000000000E+00 -0.20807193535E+02  0.28657862104E+04  0.28657106735E+04 0.  0.
        2    1    3    3  502    0 -0.14099067756E+04 -0.25513377841E+03 -0.22406223394E+02  0.14329802509E+04  0.25500000920E-02 0. -1.
       -2    1    3    3    0  502  0.14099067756E+04  0.25513377841E+03  0.15990298596E+01  0.14328059595E+04  0.25500000920E-02 0.  1.
</event>
<event>
 5   0  0.9426937E-06  0.2789295E+04  0.7818609E-02  0.8306600E-01
       -2   -1    0    0    0  501  0.00000000000E+00  0.00000000000E+00  0.16954031103E+04  0.16954031103E+04  0.25500000920E-02 0.  1.
        2   -1    0    0  501    0  0.00000000000E+00  0.00000000000E+00 -0.11472440782E+04  0.11472440782E+04  0.25500000920E-02 0. -1.
    10030    2    1    2    0    0  0.00000000000E+00  0.00000000000E+00  0.54815903208E+03  0.28426471885E+04  0.27892946625E+04 0.  0.
        4    1    3    3  502    0 -0.99405435899E+03 -0.35814461006E+03 -0.65362218002E+03  0.12424311641E+04  0.12699999809E+01 0. -1.
       -4    1    3    3    0  502  0.99405435899E+03  0.35814461006E+03  0.12017812121E+04  0.16002160245E+04  0.12699999809E+01 0.  1.
</event>
<event>
 5   0  0.3600963E-06  0.2800468E+04  0.7818609E-02  0.8303123E-01
       -1   -1    0    0    0  501  0.00000000000E+00  0.00000000000E+00  0.80956062046E+03  0.80956062047E+03  0.50400001928E-02 0. -1.
        1   -1    0    0  501    0  0.00000000000E+00  0.00000000000E+00 -0.24218760396E+04  0.24218760396E+04  0.50400001928E-02 0.  1.
    10030    2    1    2    0    0  0.00000000000E+00  0.00000000000E+00 -0.16123154192E+04  0.32314366601E+04  0.28004681533E+04 0.  0.
        5    1    3    3  502    0  0.91759183774E+03 -0.84175009471E+03 -0.67202635093E+02  0.12470189601E+04  0.46999998093E+01 0. -1.
       -5    1    3    3    0  502 -0.91759183774E+03  0.84175009471E+03 -0.15451127841E+04  0.19844177000E+04  0.46999998093E+01 0.  1.
</event>
<event>
 5   0  0.3397882E-06  0.2906036E+04  0.7818609E-02  0.8271084E-01
       -1   -1    0    0    0  501  0.00000000000E+00  0.00000000000E+00  0.18941940689E+04  0.18941940689E+04  0.50400001928E-02 0.  1.
        1   -1    0    0  501    0  0.00000000000E+00  0.00000000000E+00 -0.11145963310E+04  0.11145963310E+04  0.50400001928E-02 0. -1.
    10030    2    1    2    0    0  0.00000000000E+00  0.00000000000E+00  0.77959773791E+03  0.30087903999E+04  0.29060363104E+04 0.  0.
        2    1    3    3  502    0 -0.10758984319E+04  0.71351198166E+03  0.10801627437E+04  0.16832731022E+04  0.25500000920E-02 0.  1.
       -2    1    3    3    0  502  0.10758984319E+04 -0.71351198166E+03 -0.30056500577E+03  0.13255172977E+04  0.25500000920E-02 0. -1.
</event>
<event>
 5   0  0.9342133E-06  0.2888046E+04  0.7818609E-02  0.8276443E-01
       -2   -1    0    0    0  501  0.00000000000E+00  0.00000000000E+00  0.11449966331E+04  0.11449966331E+04  0.25500000920E-02 0.  1.
        2   -1    0    0  501    0  0.00000000000E+00  0.00000000000E+00 -0.18211434274E+04  0.18211434274E+04  0.25500000920E-02 0. -1.
    10030    2    1    2    0    0  0.00000000000E+00  0.00000000000E+00 -0.67614679431E+03  0.29661400604E+04  0.28880464627E+04 0.  0.
        2    1    3    3  502    0 -0.46556744447E+03  0.82858973979E+03 -0.14546173931E+04  0.17375919436E+04  0.25500000920E-02 0. -1.
       -2    1    3    3    0  502  0.46556744447E+03 -0.82858973979E+03  0.77847059874E+03  0.12285481168E+04  0.25500000920E-02 0.  1.
</event>
<event>
 5   0  0.9065579E-06  0.2944133E+04  0.7818609E-02  0.8259866E-01
        2   -1    0    0  501    0  0.00000000000E+00  0.00000000000E+00  0.16445478578E+04  0.16445478578E+04  0.25500000920E-02 0.  1.
       -2   -1    0    0    0  501  0.00000000000E+00  0.00000000000E+00 -0.13176751371E+04  0.13176751371E+04  0.25500000920E-02 0. -1.
    10030    2    1    2    0    0  0.00000000000E+00  0.00000000000E+00  0.32687272070E+03  0.29622229949E+04  0.29441330296E+04 0.  0.
        3    1    3    3  502    0  0.52097653685E+03 -0.97930603131E+03  0.11371237236E+04  0.15885550755E+04  0.10100000352E+00 0.  1.
       -3    1    3    3    0  502 -0.52097653685E+03  0.97930603131E+03 -0.81025100292E+03  0.13736679194E+04  0.10100000352E+00 0. -1.
</event>
<event>
 5   0  0.9252359E-06  0.2758267E+04  0.7818609E-02  0.8316343E-01
       -2   -1    0    0    0  501  0.00000000000E+00  0.00000000000E+00  0.10522725531E+04  0.10522725531E+04  0.25500000920E-02 0.  1.
        2   -1    0    0  501    0  0.00000000000E+00  0.00000000000E+00 -0.18075256126E+04  0.18075256126E+04  0.25500000920E-02 0. -1.
    10030    2    1    2    0    0  0.00000000000E+00  0.00000000000E+00 -0.75525305954E+03  0.28597981657E+04  0.27582672758E+04 0.  0.
        5    1    3    3  502    0  0.61482415856E+03  0.12176611154E+04 -0.16697251534E+03  0.13742668041E+04  0.46999998093E+01 0.  1.
       -5    1    3    3    0  502 -0.61482415856E+03 -0.12176611154E+04 -0.58828054420E+03  0.14855313617E+04  0.46999998093E+01 0. -1.
</event>
<event>
 5   0  0.3397882E-06  0.2798636E+04  0.7818609E-02  0.8303692E-01
        1   -1    0    0  501    0  0.00000000000E+00  0.00000000000E+00  0.12916034554E+04  0.12916034554E+04  0.50400001928E-02 0. -1.
       -1   -1    0    0    0  501  0.00000000000E+00  0.00000000000E+00 -0.15160158569E+04  0.15160158569E+04  0.50400001928E-02 0.  1.
    10030    2    1    2    0    0  0.00000000000E+00  0.00000000000E+00 -0.22441240148E+03  0.28076193123E+04  0.27986363245E+04 0.  0.
        2    1    3    3  502    0 -0.79458202068E+03  0.11491494943E+04 -0.33301527495E+02  0.13975028227E+04  0.25500000920E-02 0.  1.
       -2    1    3    3    0  502  0.79458202068E+03 -0.11491494943E+04 -0.19111087398E+03  0.14101164895E+04  0.25500000920E-02 0. -1.
</event>
<event>
 5   0  0.9342133E-06  0.2841964E+04  0.7818609E-02  0.8290357E-01
       -2   -1    0    0    0  501  0.00000000000E+00  0.00000000000E+00  0.12030009016E+04  0.12030009016E+04  0.25500000920E-02 0. -1.
        2   -1    0    0  501    0  0.00000000000E+00  0.00000000000E+00 -0.16784608791E+04  0.16784608791E+04  0.25500000920E-02 0.  1.
    10030    2    1    2    0    0  0.00000000000E+00  0.00000000000E+00 -0.47545997752E+03  0.28814617807E+04  0.28419640750E+04 0.  0.
        2    1    3    3  502    0  0.77905580626E+03  0.11715394204E+04 -0.35566277626E+02  0.14073725601E+04  0.25500000920E-02 0.  1.
       -2    1    3    3    0  502 -0.77905580626E+03 -0.11715394204E+04 -0.43989369989E+03  0.14740892205E+04  0.25500000920E-02 0. -1.
</event>
<event>
 5   0  0.3397882E-06  0.2828026E+04  0.7818609E-02  0.8294620E-01
        1   -1    0    0  501    0  0.00000000000E+00  0.00000000000E+00  0.15519065023E+04  0.15519065023E+04  0.50400001928E-02 0. -1.
       -1   -1    0    0    0  501  0.00000000000E+00  0.00000000000E+00 -0.12883719830E+04  0.12883719830E+04  0.50400001928E-02 0.  1.
    10030    2    1    2    0    0  0.00000000000E+00  0.00000000000E+00  0.26353451935E+03  0.28402784853E+04  0.28280260662E+04 0.  0.
        2    1    3    3  502    0  0.36261202238E+03 -0.79081885359E+03  0.12512943668E+04  0.15240142815E+04  0.25500000920E-02 0. -1.
       -2    1    3    3    0  502 -0.36261202238E+03  0.79081885359E+03 -0.98775984744E+03  0.13162642038E+04  0.25500000920E-02 0.  1.
</event>
<event>
 5   0  0.9252359E-06  0.2780171E+04  0.7818609E-02  0.8309451E-01
        2   -1    0    0  501    0  0.00000000000E+00  0.00000000000E+00  0.13208355519E+04  0.13208355519E+04  0.25500000920E-02 0.  1.
       -2   -1    0    0    0  501  0.00000000000E+00  0.00000000000E+00 -0.14629662817E+04  0.14629662817E+04  0.25500000920E-02 0. -1.
    10030    2    1    2    0    0  0.00000000000E+00  0.00000000000E+00 -0.14213072973E+03  0.27838018336E+04  0.27801711286E+04 0.  0.
        5    1    3    3  502    0  0.22939618358E+03 -0.13117778430E+04 -0.47024883976E+03  0.14122817636E+04  0.46999998093E+01 0. -1.
       -5    1    3    3    0  502 -0.22939618358E+03  0.13117778430E+04  0.32811811003E+03  0.13715200700E+04  0.46999998093E+01 0.  1.
</event>
<event>
 5   0  0.3371603E-06  0.2790721E+04  0.7818609E-02  0.8306155E-01
       -1   -1    0    0    0  501  0.00000000000E+00  0.00000000000E+00  0.93450673925E+03  0.93450673926E+03  0.50400001928E-02 0. -1.
        1   -1    0    0  501    0  0.00000000000E+00  0.00000000000E+00 -0.20834848252E+04  0.20834848252E+04  0.50400001928E-02 0.  1.
    10030    2    1    2    0    0  0.00000000000E+00  0.00000000000E+00 -0.11489780859E+04  0.30179915644E+04  0.27907207745E+04 0.  0.
        1    1    3    3  502    0  0.25076878177E+03  0.90219037573E+03  0.54426272600E+03  0.10830763458E+04  0.50400001928E-02 0. -1.
       -1    1    3    3    0  502 -0.25076878177E+03 -0.90219037573E+03 -0.16932408119E+04  0.19349152186E+04  0.50400001928E-02 0.  1.
</event>
<event>
 5   0  0.3357244E-06  0.2808974E+04  0.7818609E-02  0.8300488E-01
       -1   -1    0    0    0  501  0.00000000000E+00  0.00000000000E+00  0.10380630023E+04  0.10380630023E+04  0.50400001928E-02 0.  1.
        1   -1    0    0  501    0  0.00000000000E+00  0.00000000000E+00 -0.19002537386E+04  0.19002537386E+04  0.50400001928E-02 0. -1.
    10030    2    1    2    0    0  0.00000000000E+00  0.00000000000E+00 -0.86219073630E+03  0.29383167409E+04  0.28089735499E+04 0.  0.
        4    1    3    3  502    0  0.42778031115E+03  0.87385589074E+03  0.62844245659E+03  0.11582580224E+04  0.12699999809E+01 0.  1.
       -4    1    3    3    0  502 -0.42778031115E+03 -0.87385589074E+03 -0.14906331929E+04  0.17800587184E+04  0.12699999809E+01 0. -1.
</event>
<event>
 5   0  0.3371603E-06  0.2819023E+04  0.7818609E-02  0.8297387E-01
       -1   -1    0    0    0  501  0.00000000000E+00  0.00000000000E+00  0.94539695658E+03  0.94539695659E+03  0.50400001928E-02 0.  1.
        1   -1    0    0  501    0  0.00000000000E+00  0.00000000000E+00 -0.21014693689E+04  0.21014693689E+04  0.50400001928E-02 0. -1.
    10030    2    1    2    0    0  0.00000000000E+00  0.00000000000E+00 -0.11560724123E+04  0.30468663255E+04  0.28190230547E+04 0.  0.
        1    1    3    3  502    0  0.13218703899E+04  0.10859740179E+03 -0.62416538938E+02  0.13277916055E+04  0.50400001928E-02 0.  1.
       -1    1    3    3    0  502 -0.13218703899E+04 -0.10859740179E+03 -0.10936558734E+04  0.17190747200E+04  0.50400001928E-02 0. -1.
</event>
<event>
 5   0  0.9252359E-06  0.2806127E+04  0.7818609E-02  0.8301369E-01
       -2   -1    0    0    0  501  0.00000000000E+00  0.00000000000E+00  0.27190033899E+04  0.27190033899E+04  0.25500000920E-02 0. -1.
        2   -1    0    0  501    0  0.00000000000E+00  0.00000000000E+00 -0.72401068588E+03  0.72401068588E+03  0.25500000920E-02 0.  1.
    10030    2    1    2    0    0  0.00000000000E+00  0.00000000000E+00  0.19949927040E+04  0.34430140758E+04  0.28061272311E+04 0.  0.
        5    1    3    3  502    0 -0.94777780608E+03  0.16374267100E+03  0.22508442274E+04  0.24477369667E+04  0.46999998093E+01 0. -1.
       -5    1    3    3    0  502  0.94777780608E+03 -0.16374267100E+03 -0.25585152334E+03  0.99527710915E+03  0.46999998093E+01 0.  1.
</event>
<event>
 5   0  0.3600963E-06  0.2780393E+04  0.7818609E-02  0.8309381E-01
        1   -1    0    0  501    0  0.00000000000E+00  0.00000000000E+00  0.27213083236E+04  0.27213083236E+04  0.50400001928E-02 0. -1.
       -1   -1    0    0    0  501  0.00000000000E+00  0.00000000000E+00 -0.71019033597E+03  0.71019033599E+03  0.50400001928E-02 0.  1.
    10030    2    1    2    0    0  0.00000000000E+00  0.00000000000E+00  0.20111179877E+04  0.34314986596E+04  0.27803934057E+04 0.  0.
        5    1    3    3  502    0  0.12577494579E+04  0.47255784856E+03  0.56507667012E+03  0.14575933425E+04  0.46999998093E+01 0. -1.
       -5    1    3    3    0  502 -0.12577494579E+04 -0.47255784856E+03  0.14460413176E+04  0.19739053171E+04  0.46999998093E+01 0.  1.
</event>
<event>
 5   0  0.3438130E-06  0.2801419E+04  0.7818609E-02  0.8302828E-01
       -1   -1    0    0    0  501  0.00000000000E+00  0.00000000000E+00  0.18480342199E+04  0.18480342199E+04  0.50400001928E-02 0. -1.
        1   -1    0    0  501    0  0.00000000000E+00  0.00000000000E+00 -0.10616618216E+04  0.10616618216E+04  0.50400001928E-02 0.  1.
    10030    2    1    2    0    0  0.00000000000E+00  0.00000000000E+00  0.78637239835E+03  0.29096960416E+04  0.28014191949E+04 0.  0.
        3    1    3    3  502    0  0.16957812735E+03 -0.41658980236E+03 -0.98461580348E+03  0.10824842241E+04  0.10100000352E+00 0.  1.
       -3    1    3    3    0  502 -0.16957812735E+03  0.41658980236E+03  0.17709882018E+04  0.18272118175E+04  0.10100000352E+00 0. -1.
</event>
<event>
 5   0  0.9260173E-06  0.2464779E+04  0.7818609E-02  0.8415642E-01
        2   -1    0    0  501    0  0.00000000000E+00  0.00000000000E+00  0.18558075863E+04  0.18558075863E+04  0.25500000920E-02 0. -1.
       -2   -1    0    0    0  501  0.00000000000E+00  0.00000000000E+00 -0.81839517097E+03  0.81839517097E+03  0.25500000920E-02 0.  1.
    10030    2    1    2    0    0  0.00000000000E+00  0.00000000000E+00  0.10374124153E+04  0.26742027573E+04  0.24647790707E+04 0.  0.
        1    1    3    3  502    0  0.99860462207E+03 -0.71948660847E+03  0.45084768093E+03  0.13107767935E+04  0.50400001928E-02 0.  1.
       -1    1    3    3    0  502 -0.99860462207E+03  0.71948660847E+03  0.58656473439E+03  0.13634259637E+04  0.50400001928E-02 0. -1.
</event>
<event>
 5   0  0.3438130E-06  0.2788940E+04  0.7818609E-02  0.8306710E-01
        1   -1    0    0  501    0  0.00000000000E+00  0.00000000000E+00  0.15141665769E+04  0.15141665769E+04  0.50400001928E-02 0.  1.
       -1   -1    0    0    0  501  0.00000000000E+00  0.00000000000E+00 -0.12842354757E+04  0.12842354757E+04  0.50400001928E-02 0. -1.
    10030    2    1    2    0    0  0.00000000000E+00  0.00000000000E+00  0.22993110120E+03  0.27984020525E+04  0.27889398947E+04 0.  0.
        3    1    3    3  502    0  0.10704359252E+03  0.11947707838E+04  0.82844120078E+03  0.14578238542E+04  0.10100000352E+00 0.  1.
       -3    1    3    3    0  502 -0.10704359252E+03 -0.11947707838E+04 -0.59851009958E+03  0.13405781984E+04  0.10100000352E+00 0. -1.
</event>
<event>
 5   0  0.9065579E-06  0.2787749E+04  0.7818609E-02  0.8307082E-01
       -2   -1    0    0    0  501  0.00000000000E+00  0.00000000000E+00  0.11502204334E+04  0.11502204334E+04  0.25500000920E-02 0. -1.
        2   -1    0    0  501    0  0.00000000000E+00  0.00000000000E+00 -0.16891423044E+04  0.16891423044E+04  0.25500000920E-02 0.  1.
    10030    2    1    2    0    0  0.00000000000E+00  0.00000000000E+00 -0.53892187102E+03  0.28393627377E+04  0.27877489079E+04 0.  0.
        3    1    3    3  502    0 -0.59793440522E+03  0.22131439738E+03 -0.15319179472E+04  0.16593005221E+04  0.10100000352E+00 0.  1.
       -3    1    3    3    0  502  0.59793440522E+03 -0.22131439738E+03  0.99299607616E+03  0.11800622157E+04  0.10100000352E+00 0. -1.
</event>
<event>
 5   0  0.3371603E-06  0.2765754E+04  0.7818609E-02  0.8313980E-01
       -1   -1    0    0    0  501  0.00000000000E+00  0.00000000000E+00  0.89806350538E+03  0.89806350539E+03  0.50400001928E-02 0. -1.
        1   -1    0    0  501    0  0.00000000000E+00  0.00000000000E+00 -0.21294132879E+04  0.21294132880E+04  0.50400001928E-02 0.  1.
    10030    2    1    2    0    0  0.00000000000E+00  0.00000000000E+00 -0.12313497826E+04  0.30274767933E+04  0.27657536852E+04 0.  0.
        1    1    3    3  502    0  0.81525590603E+03 -0.89955382733E+03 -0.13405390376E+04  0.18085585951E+04  0.50400001928E-02 0.  1.
       -1    1    3    3    0  502 -0.81525590603E+03  0.89955382733E+03  0.10918925502E+03  0.12189181982E+04  0.50400001928E-02 0. -1.
</event>
<event>
 5   0  0.3371603E-06  0.2789097E+04  0.7818609E-02  0.8306661E-01
        1   -1    0    0  501    0  0.00000000000E+00  0.00000000000E+00  0.19783831858E+04  0.19783831858E+04  0.50400001928E-02 0.  1.
       -1   -1    0    0    0  501  0.00000000000E+00  0.00000000000E+00 -0.98300758801E+03  0.98300758802E+03  0.50400001928E-02 0. -1.
    10030    2    1    2    0    0  0.00000000000E+00  0.00000000000E+00  0.99537559782E+03  0.29613907739E+04  0.27890971182E+04 0.  0.
        1    1    3    3  502    0 -0.10650562716E+04  0.30024206424E+03  0.13988052718E+04  0.17835768409E+04  0.50400001928E-02 0.  1.
       -1    1    3    3    0  502  0.10650562716E+04 -0.30024206424E+03 -0.40342967401E+03  0.11778139330E+04  0.50400001928E-02 0. -1.
</event>
<event>
 5   0  0.9260173E-06  0.2799726E+04  0.7818609E-02  0.8303353E-01
        2   -1    0    0  501    0  0.00000000000E+00  0.00000000000E+00  0.19424955646E+04  0.19424955646E+04  0.25500000920E-02 0.  1.
       -2   -1    0    0    0  501  0.00000000000E+00  0.00000000000E+00 -0.10088140726E+04  0.10088140726E+04  0.25500000920E-02 0. -1.
    10030    2    1    2    0    0  0.00000000000E+00  0.00000000000E+00  0.93368149199E+03  0.29513096371E+04  0.27997263162E+04 0.  0.
        1    1    3    3  502    0 -0.91248364387E+03 -0.25340666528E+03 -0.61988503012E+03  0.11318563464E+04  0.50400001928E-02 0. -1.
       -1    1    3    3    0  502  0.91248364387E+03  0.25340666528E+03  0.15535665221E+04  0.18194532907E+04  0.50400001928E-02 0.  1.
</event>
<event>
 5   0  0.3438130E-06  0.2787298E+04  0.7818609E-02  0.8307223E-01
       -1   -1    0    0    0  501  0.00000000000E+00  0.00000000000E+00  0.65156737013E+03  0.65156737015E+03  0.50400001928E-02 0. -1.
        1   -1    0    0  501    0  0.00000000000E+00  0.00000000000E+00 -0.29808999489E+04  0.29808999489E+04  0.50400001928E-02 0.  1.
    10030    2    1    2    0    0  0.00000000000E+00  0.00000000000E+00 -0.23293325788E+04  0.36324673191E+04  0.27872977167E+04 0.  0.
        3    1    3    3  502    0  0.31451644376E+03 -0.68470635945E+03 -0.26925591414E+04  0.27960003813E+04  0.10100000352E+00 0.  1.
       -3    1    3    3    0  502 -0.31451644376E+03  0.68470635945E+03  0.36322656259E+03  0.83646693781E+03  0.10100000352E+00 0. -1.
</event>
<event>
 5   0  0.3371603E-06  0.2788520E+04  0.7818609E-02  0.8306841E-01
        1   -1    0    0  501    0  0.00000000000E+00  0.00000000000E+00  0.12611160578E+04  0.12611160579E+04  0.50400001928E-02 0. -1.
       -1   -1    0    0    0  501  0.00000000000E+00  0.00000000000E+00 -0.15414608839E+04  0.15414608839E+04  0.50400001928E-02 0.  1.
    10030    2    1    2    0    0  0.00000000000E+00  0.00000000000E+00 -0.28034482606E+03  0.28025769418E+04  0.27885200901E+04 0.  0.
        1    1    3    3  502    0  0.12899279258E+04 -0.24129034217E+03  0.33318587034E+03  0.13539379259E+04  0.50400001928E-02 0. -1.
       -1    1    3    3    0  502 -0.12899279258E+04  0.24129034217E+03 -0.61353069640E+03  0.14486390159E+04  0.50400001928E-02 0.  1.
</event>
<event>
 5   0  0.9065579E-06  0.2949163E+04  0.7818609E-02  0.8258399E-01
       -2   -1    0    0    0  501  0.00000000000E+00  0.00000000000E+00  0.10489580056E+04  0.10489580056E+04  0.25500000920E-02 0.  1.
        2   -1    0    0  501    0  0.00000000000E+00  0.00000000000E+00 -0.20729048384E+04  0.20729048384E+04  0.25500000920E-02 0. -1.
    10030    2    1    2    0    0  0.00000000000E+00  0.00000000000E+00 -0.10239468328E+04  0.31218628440E+04  0.29491626779E+04 0.  0.
        3    1    3    3  502    0  0.79269692855E+03  0.12017242164E+04 -0.84985213720E+03  0.16717530254E+04  0.10100000352E+00 0.  1.
       -3    1    3    3    0  502 -0.79269692855E+03 -0.12017242164E+04 -0.17409469559E+03  0.14501098186E+04  0.10100000352E+00 0. -1.
</event>
<event>
 5   0  0.9252359E-06  0.2798535E+04  0.7818609E-02  0.8303723E-01
        2   -1    0    0  501    0  0.00000000000E+00  0.00000000000E+00  0.12817809728E+04  0.12817809728E+04  0.25500000920E-02 0.  1.
       -2   -1    0    0    0  501  0.00000000000E+00  0.00000000000E+00 -0.15275230945E+04  0.15275230945E+04  0.25500000920E-02 0. -1.
    10030    2    1    2    0    0  0.00000000000E+00  0.00000000000E+00 -0.24574212171E+03  0.28093040672E+04  0.27985353583E+04 0.  0.
        5    1    3    3  502    0 -0.47502238358E+03 -0.75509579500E+03 -0.12050322314E+04  0.14993134073E+04  0.46999998093E+01 0. -1.
       -5    1    3    3    0  502  0.47502238358E+03  0.75509579500E+03  0.95929010972E+03  0.13099906599E+04  0.46999998093E+01 0.  1.
</event>
<event>
 5   0  0.9342133E-06  0.2822869E+04  0.7818609E-02  0.8296203E-01
       -2   -1    0    0    0  501  0.00000000000E+00  0.00000000000E+00  0.89014329479E+03  0.89014329479E+03  0.25500000920E-02 0. -1.
        2   -1    0    0  501    0  0.00000000000E+00  0.00000000000E+00 -0.22380071217E+04  0.22380071217E+04  0.25500000920E-02 0.  1.
    10030    2    1    2    0    0  0.00000000000E+00  0.00000000000E+00 -0.13478638269E+04  0.31281504164E+04  0.28228687770E+04 0.  0.
        2    1    3    3  502    0  0.58963676138E+03  0.12241820653E+04 -0.10971417978E+04  0.17464287458E+04  0.25500000920E-02 0. -1.
       -2    1    3    3    0  502 -0.58963676138E+03 -0.12241820653E+04 -0.25072202903E+03  0.13817216707E+04  0.25500000920E-02 0.  1.
</event>
<event>
 5   0  0.9342133E-06  0.2797774E+04  0.7818609E-02  0.8303960E-01
       -2   -1    0    0    0  501  0.00000000000E+00  0.00000000000E+00  0.23603329693E+04  0.23603329693E+04  0.25500000920E-02 0. -1.
        2   -1    0    0  501    0  0.00000000000E+00  0.00000000000E+00 -0.82907175936E+03  0.82907175937E+03  0.25500000920E-02 0.  1.
    10030    2    1    2    0    0  0.00000000000E+00  0.00000000000E+00  0.15312612100E+04  0.31894047287E+04  0.27977744066E+04 0.  0.
        2    1    3    3  502    0 -0.33035724075E+03  0.13478792835E+04  0.56501065371E+03  0.14983829645E+04  0.25500000920E-02 0. -1.
       -2    1    3    3    0  502  0.33035724075E+03 -0.13478792835E+04  0.96625055628E+03  0.16910217642E+04  0.25500000920E-02 0.  1.
</event>
<event>
 5   0  0.9065579E-06  0.2783299E+04  0.7818609E-02  0.8308472E-01
       -2   -1    0    0    0  501  0.00000000000E+00  0.00000000000E+00  0.14985825681E+04  0.14985825681E+04  0.25500000920E-02 0.  1.
        2   -1    0    0  501    0  0.00000000000E+00  0.00000000000E+00 -0.12923472034E+04  0.12923472034E+04  0.25500000920E-02 0. -1.
    10030    2    1    2    0    0  0.00000000000E+00  0.00000000000E+00  0.20623536473E+03  0.27909297715E+04  0.27832994743E+04 0.  0.
        3    1    3    3  502    0 -0.44296402991E+03 -0.92204940253E+03  0.10492597757E+04  0.14653799233E+04  0.10100000352E+00 0.  1.
       -3    1    3    3    0  502  0.44296402991E+03  0.92204940253E+03 -0.84302441094E+03  0.13255498482E+04  0.10100000352E+00 0. -1.
</event>
<event>
 5   0  0.3397882E-06  0.2783938E+04  0.7818609E-02  0.8308272E-01
       -1   -1    0    0    0  501  0.00000000000E+00  0.00000000000E+00  0.16693220785E+04  0.16693220785E+04  0.50400001928E-02 0.  1.
        1   -1    0    0  501    0  0.00000000000E+00  0.00000000000E+00 -0.11606971781E+04  0.11606971781E+04  0.50400001928E-02 0. -1.
    10030    2    1    2    0    0  0.00000000000E+00  0.00000000000E+00  0.50862490039E+03  0.28300192567E+04  0.27839378053E+04 0.  0.
        2    1    3    3  502    0 -0.32785304774E+02  0.13895746706E+04  0.33028086632E+03  0.14286630436E+04  0.25500000920E-02 0.  1.
       -2    1    3    3    0  502  0.32785304774E+02 -0.13895746706E+04  0.17834403407E+03  0.14013562131E+04  0.25500000920E-02 0. -1.
</event>
<event>
 5   0  0.9260173E-06  0.2784997E+04  0.7818609E-02  0.8307941E-01
       -2   -1    0    0    0  501  0.00000000000E+00  0.00000000000E+00  0.11700780171E+04  0.11700780171E+04  0.25500000920E-02 0.  1.
        2   -1    0    0  501    0  0.00000000000E+00  0.00000000000E+00 -0.16571993899E+04  0.16571993899E+04  0.25500000920E-02 0. -1.
    10030    2    1    2    0    0  0.00000000000E+00  0.00000000000E+00 -0.48712137278E+03  0.28272774069E+04  0.27849973616E+04 0.  0.
        1    1    3    3  502    0  0.95784966937E+03  0.90269451916E+03  0.21800555139E+03  0.13341138649E+04  0.50400001928E-02 0.  1.
       -1    1    3    3    0  502 -0.95784966937E+03 -0.90269451916E+03 -0.70512692418E+03  0.14931635420E+04  0.50400001928E-02 0. -1.
</event>
<event>
 5   0  0.3438130E-06  0.2800473E+04  0.7818609E-02  0.8303121E-01
       -1   -1    0    0    0  501  0.00000000000E+00  0.00000000000E+00  0.13877646105E+04  0.13877646106E+04  0.50400001928E-02 0. -1.
        1   -1    0    0  501    0  0.00000000000E+00  0.00000000000E+00 -0.14128206781E+04  0.14128206781E+04  0.50400001928E-02 0.  1.
    10030    2    1    2    0    0  0.00000000000E+00  0.00000000000E+00 -0.25056067529E+02  0.28005852886E+04  0.28004732015E+04 0.  0.
        3    1    3    3  502    0 -0.37564396689E+03 -0.84110900905E+02  0.13338094365E+04  0.13882473327E+04  0.10100000352E+00 0. -1.
       -3    1    3    3    0  502  0.37564396689E+03  0.84110900905E+02 -0.13588655041E+04  0.14123379560E+04  0.10100000352E+00 0.  1.
</event>
<event>
 5   0  0.3438130E-06  0.2795402E+04  0.7818609E-02  0.8304697E-01
        1   -1    0    0  501    0  0.00000000000E+00  0.00000000000E+00  0.17428915879E+04  0.17428915879E+04  0.50400001928E-02 0. -1.
       -1   -1    0    0    0  501  0.00000000000E+00  0.00000000000E+00 -0.11208773022E+04  0.11208773022E+04  0.50400001928E-02 0.  1.
    10030    2    1    2    0    0  0.00000000000E+00  0.00000000000E+00  0.62201428567E+03  0.28637688901E+04  0.27954016678E+04 0.  0.
        3    1    3    3  502    0 -0.11056507285E+04 -0.82480586631E+03  0.54190657685E+03  0.14820360990E+04  0.10100000352E+00 0.  1.
       -3    1    3    3    0  502  0.11056507285E+04  0.82480586631E+03  0.80107708819E+02  0.13817327910E+04  0.10100000352E+00 0. -1.
</event>
<event>
 5   0  0.3357244E-06  0.2783686E+04  0.7818609E-02  0.8308351E-01
        1   -1    0    0  501    0  0.00000000000E+00  0.00000000000E+00  0.11518107382E+04  0.11518107382E+04  0.50400001928E-02 0. -1.
       -1   -1    0    0    0  501  0.00000000000E+00  0.00000000000E+00 -0.16818966755E+04  0.16818966755E+04  0.50400001928E-02 0.  1.
    10030    2    1    2    0    0  0.00000000000E+00  0.00000000000E+00 -0.53008593725E+03  0.28337074137E+04  0.27836857950E+04 0.  0.
        4    1    3    3  502    0 -0.10134843680E+04  0.88143006929E+03  0.10641900326E+03  0.13473663750E+04  0.12699999809E+01 0. -1.
       -4    1    3    3    0  502  0.10134843680E+04 -0.88143006929E+03 -0.63650494051E+03  0.14863410387E+04  0.12699999809E+01 0.  1.
</event>
<event>
 5   0  0.9426937E-06  0.2805754E+04  0.7818609E-02  0.8301484E-01
       -2   -1    0    0    0  501  0.00000000000E+00  0.00000000000E+00  0.83494861760E+03  0.83494861760E+03  0.25500000920E-02 0.  1.
        2   -1    0    0  501    0  0.00000000000E+00  0.00000000000E+00 -0.23571076331E+04  0.23571076331E+04  0.25500000920E-02 0. -1.
    10030    2    1    2    0    0  0.00000000000E+00  0.00000000000E+00 -0.15221590155E+04  0.31920562507E+04  0.28057539164E+04 0.  0.
        4    1    3    3  502    0 -0.59572685493E+03  0.12239969792E+04 -0.37526758120E+03  0.14120504457E+04  0.12699999809E+01 0.  1.
       -4    1    3    3    0  502  0.59572685493E+03 -0.12239969792E+04 -0.11468914343E+04  0.17800058050E+04  0.12699999809E+01 0. -1.
</event>
<event>
 5   0  0.3438130E-06  0.2799283E+04  0.7818609E-02  0.8303491E-01
        1   -1    0    0  501    0  0.00000000000E+00  0.00000000000E+00  0.19740366233E+04  0.19740366233E+04  0.50400001928E-02 0.  1.
       -1   -1    0    0    0  501  0.00000000000E+00  0.00000000000E+00 -0.99238129680E+03  0.99238129681E+03  0.50400001928E-02 0. -1.
    10030    2    1    2    0    0  0.00000000000E+00  0.00000000000E+00  0.98165532650E+03  0.29664179201E+04  0.27992834970E+04 0.  0.
        3    1    3    3  502    0 -0.61195880467E+02 -0.13455497434E+04  0.89400089264E+03  0.16166281743E+04  0.10100000352E+00 0.  1.
       -3    1    3    3    0  502  0.61195880467E+02  0.13455497434E+04  0.87654433864E+02  0.13497897458E+04  0.10100000352E+00 0. -1.
</event>
<event>
 5   0  0.9252359E-06  0.2700319E+04  0.7818609E-02  0.8334902E-01
        2   -1    0    0  501    0  0.00000000000E+00  0.00000000000E+00  0.12802349563E+04  0.12802349563E+04  0.25500000920E-02 0. -1.
       -2   -1    0    0    0  501  0.00000000000E+00  0.00000000000E+00 -0.14239028810E+04  0.14239028810E+04  0.25500000920E-02 0.  1.
    10030    2    1    2    0    0  0.00000000000E+00  0.00000000000E+00 -0.14366792466E+03  0.27041378373E+04  0.27003186795E+04 0.  0.
        5    1    3    3  502    0  0.30672082228E+03 -0.32823209794E+03  0.12031887693E+04  0.12843283371E+04  0.46999998093E+01 0. -1.
       -5    1    3    3    0  502 -0.30672082228E+03  0.32823209794E+03 -0.13468566939E+04  0.14198095002E+04  0.46999998093E+01 0.  1.
</event>
<event>
 5   0  0.3438130E-06  0.2780747E+04  0.7818609E-02  0.8309271E-01
        1   -1    0    0  501    0  0.00000000000E+00  0.00000000000E+00  0.13502111008E+04  0.13502111008E+04  0.50400001928E-02 0. -1.
       -1   -1    0    0    0  501  0.00000000000E+00  0.00000000000E+00 -0.14317306391E+04  0.14317306391E+04  0.50400001928E-02 0.  1.
    10030    2    1    2    0    0  0.00000000000E+00  0.00000000000E+00 -0.81519538348E+02  0.27819417399E+04  0.27807470955E+04 0.  0.
        3    1    3    3  502    0 -0.85803739997E+03  0.10400819363E+04  0.29870883111E+03  0.13810233850E+04  0.10100000352E+00 0.  1.
       -3    1    3    3    0  502  0.85803739997E+03 -0.10400819363E+04 -0.38022836945E+03  0.14009183549E+04  0.10100000352E+00 0. -1.
</event>
<event>
 5   0  0.9260173E-06  0.2760270E+04  0.7818609E-02  0.8315710E-01
       -2   -1    0    0    0  501  0.00000000000E+00  0.00000000000E+00  0.18039451335E+04  0.18039451335E+04  0.25500000920E-02 0. -1.
        2   -1    0    0  501    0  0.00000000000E+00  0.00000000000E+00 -0.10558931394E+04  0.10558931394E+04  0.25500000920E-02 0.  1.
    10030    2    1    2    0    0  0.00000000000E+00  0.00000000000E+00  0.74805199410E+03  0.28598382729E+04  0.27602704870E+04 0.  0.
        1    1    3    3  502    0  0.35832415931E+03 -0.11312052261E+04 -0.35620382804E+03  0.12389118750E+04  0.50400001928E-02 0.  1.
       -1    1    3    3    0  502 -0.35832415931E+03  0.11312052261E+04  0.11042558221E+04  0.16209263979E+04  0.50400001928E-02 0. -1.
</event>
<event>
 5   0  0.3438130E-06  0.2790839E+04  0.7818609E-02  0.8306118E-01
        1   -1    0    0  501    0  0.00000000000E+00  0.00000000000E+00  0.21651577169E+04  0.21651577169E+04  0.50400001928E-02 0.  1.
       -1   -1    0    0    0  501  0.00000000000E+00  0.00000000000E+00 -0.89933169812E+03  0.89933169814E+03  0.50400001928E-02 0. -1.
    10030    2    1    2    0    0  0.00000000000E+00  0.00000000000E+00  0.12658260188E+04  0.30644894151E+04  0.27908385595E+04 0.  0.
        3    1    3    3  502    0  0.82348021257E+03  0.52271835548E+03  0.17286804006E+04  0.19848652542E+04  0.10100000352E+00 0.  1.
       -3    1    3    3    0  502 -0.82348021257E+03 -0.52271835548E+03 -0.46285438185E+03  0.10796241608E+04  0.10100000352E+00 0. -1.
</event>
<event>
 5   0  0.9252359E-06  0.2797841E+04  0.7818609E-02  0.8303939E-01
        2   -1    0    0  501    0  0.00000000000E+00  0.00000000000E+00  0.20121844283E+04  0.20121844283E+04  0.25500000920E-02 0.  1.
       -2   -1    0    0    0  501  0.00000000000E+00  0.00000000000E+00 -0.97256442781E+03  0.97256442781E+03  0.25500000920E-02 0. -1.
    10030    2    1    2    0    0  0.00000000000E+00  0.00000000000E+00  0.10396200005E+04  0.29847488561E+04  0.27978413087E+04 0.  0.
        5    1    3    3  502    0  0.73211669900E+03  0.96593888932E+03  0.12649894249E+04  0.17519284043E+04  0.46999998093E+01 0.  1.
       -5    1    3    3    0  502 -0.73211669900E+03 -0.96593888932E+03 -0.22536942439E+03  0.12328204518E+04  0.46999998093E+01 0. -1.
</event>
<event>
 5   0  0.9065579E-06  0.2796356E+04  0.7818609E-02  0.8304401E-01
        2   -1    0    0  501    0  0.00000000000E+00  0.00000000000E+00  0.12946363103E+04  0.12946363103E+04  0.25500000920E-02 0.  1.
       -2   -1    0    0    0  501  0.00000000000E+00  0.00000000000E+00 -0.15100003225E+04  0.15100003225E+04  0.25500000920E-02 0. -1.
    10030    2    1    2    0    0  0.00000000000E+00  0.00000000000E+00 -0.21536401221E+03  0.28046366328E+04  0.27963556613E+04 0.  0.
        3    1    3    3  502    0  0.58226222099E+03 -0.12711673778E+04 -0.11002119646E+03  0.14024979395E+04  0.10100000352E+00 0.  1.
       -3    1    3    3    0  502 -0.58226222099E+03  0.12711673778E+04 -0.10534281575E+03  0.14021386933E+04  0.10100000352E+00 0. -1.
</event>
<event>
 5   0  0.9065579E-06  0.2880147E+04  0.7818609E-02  0.8278809E-01
       -2   -1    0    0    0  501  0.00000000000E+00  0.00000000000E+00  0.78790857233E+03  0.78790857234E+03  0.25500000920E-02 0. -1.
        2   -1    0    0  501    0  0.00000000000E+00  0.00000000000E+00 -0.26320457916E+04  0.26320457916E+04  0.25500000920E-02 0.  1.
    10030    2    1    2    0    0  0.00000000000E+00  0.00000000000E+00 -0.18441372193E+04  0.34199543640E+04  0.28801468310E+04 0.  0.
        3    1    3    3  502    0 -0.93162807555E+02 -0.12811870871E+04 -0.16949817602E+04  0.21267540616E+04  0.10100000352E+00 0.  1.
       -3    1    3    3    0  502  0.93162807555E+02  0.12811870871E+04 -0.14915545906E+03  0.12932003024E+04  0.10100000352E+00 0. -1.
</event>
<event>
 5   0  0.3371603E-06  0.2768289E+04  0.7818609E-02  0.8313181E-01
        1   -1    0    0  501    0  0.00000000000E+00  0.00000000000E+00  0.65309346410E+03  0.65309346412E+03  0.50400001928E-02 0. -1.
       -1   -1    0    0    0  501  0.00000000000E+00  0.00000000000E+00 -0.29335105622E+04  0.29335105622E+04  0.50400001928E-02 0.  1.
    10030    2    1    2    0    0  0.00000000000E+00  0.00000000000E+00 -0.22804170981E+04  0.35866040264E+04  0.27682894178E+04 0.  0.
        1    1    3    3  502    0  0.48455346064E+02 -0.78406671021E+03 -0.26167117510E+04  0.27320850855E+04  0.50400001928E-02 0.  1.
       -1    1    3    3    0  502 -0.48455346064E+02  0.78406671021E+03  0.33629465291E+03  0.85451894082E+03  0.50400001928E-02 0. -1.
</event>
<event>
 5   0  0.3357244E-06  0.2814312E+04  0.7818609E-02  0.8298839E-01
        1   -1    0    0  501    0  0.00000000000E+00  0.00000000000E+00  0.22462525809E+04  0.22462525809E+04  0.50400001928E-02 0.  1.
       -1   -1    0    0    0  501  0.00000000000E+00  0.00000000000E+00 -0.88150717111E+03  0.88150717113E+03  0.50400001928E-02 0. -1.
    10030    2    1    2    0    0  0.00000000000E+00  0.00000000000E+00  0.13647454098E+04  0.31277597520E+04  0.28143118222E+04 0.  0.
        4    1    3    3  502    0 -0.78940247524E+03  0.30098278912E+03  0.19330239037E+04  0.21095805110E+04  0.12699999809E+01 0.  1.
       -4    1    3    3    0  502  0.78940247524E+03 -0.30098278912E+03 -0.56827849392E+03  0.10181792410E+04  0.12699999809E+01 0. -1.
</event>
<event>
 5   0  0.3371603E-06  0.2819633E+04  0.7818609E-02  0.8297199E-01
       -1   -1    0    0    0  501  0.00000000000E+00  0.00000000000E+00  0.33353350013E+04  0.33353350013E+04  0.50400001928E-02 0.  1.
        1   -1    0    0  501    0  0.00000000000E+00  0.00000000000E+00 -0.59591700171E+03  0.59591700173E+03  0.50400001928E-02 0. -1.
    10030    2    1    2    0    0  0.00000000000E+00  0.00000000000E+00  0.27394179996E+04  0.39312520030E+04  0.28196331915E+04 0.  0.
        1    1    3    3  502    0 -0.21667983645E+03  0.46468770739E+03  0.32007362250E+04  0.32415424105E+04  0.50400001928E-02 0.  1.
       -1    1    3    3    0  502  0.21667983645E+03 -0.46468770739E+03 -0.46131822541E+03  0.68970959254E+03  0.50400001928E-02 0. -1.
</event>
<event>
 5   0  0.3006875E-06  0.2799948E+04  0.7818609E-02  0.8303284E-01
        3   -1    0    0  501    0  0.00000000000E+00  0.00000000000E+00  0.97405331747E+03  0.97405332271E+03  0.10100000352E+00 0. -1.
       -3   -1    0    0    0  501  0.00000000000E+00  0.00000000000E+00 -0.20121359651E+04  0.20121359676E+04  0.10100000352E+00 0.  1.
    10030    2    1    2    0    0  0.00000000000E+00  0.00000000000E+00 -0.10380826476E+04  0.29861892903E+04  0.27999483735E+04 0.  0.
        3    1    3    3  502    0  0.56283926953E+03  0.23479492047E+03  0.82494257296E+03  0.10258883745E+04  0.10100000352E+00 0. -1.
       -3    1    3    3    0  502 -0.56283926953E+03 -0.23479492047E+03 -0.18630252205E+04  0.19603009158E+04  0.10100000352E+00 0.  1.
</event>
<event>
 5   0  0.3600963E-06  0.2746825E+04  0.7818609E-02  0.8319970E-01
       -1   -1    0    0    0  501  0.00000000000E+00  0.00000000000E+00  0.13031893791E+04  0.13031893791E+04  0.50400001928E-02 0.  1.
        1   -1    0    0  501    0  0.00000000000E+00  0.00000000000E+00 -0.14474197173E+04  0.14474197173E+04  0.50400001928E-02 0. -1.
    10030    2    1    2    0    0  0.00000000000E+00  0.00000000000E+00 -0.14423033814E+03  0.27506090964E+04  0.27468250783E+04 0.  0.
        5    1    3    3  502    0 -0.39346019576E+03 -0.34347539982E+03 -0.13440829661E+04  0.14420011739E+04  0.46999998093E+01 0. -1.
       -5    1    3    3    0  502  0.39346019576E+03  0.34347539982E+03  0.11998526279E+04  0.13086079224E+04  0.46999998093E+01 0.  1.
</event>
<event>
 5   0  0.3357244E-06  0.2777067E+04  0.7818609E-02  0.8310424E-01
       -1   -1    0    0    0  501  0.00000000000E+00  0.00000000000E+00  0.14479351944E+04  0.14479351944E+04  0.50400001928E-02 0. -1.
        1   -1    0    0  501    0  0.00000000000E+00  0.00000000000E+00 -0.13315685980E+04  0.13315685980E+04  0.50400001928E-02 0.  1.
    10030    2    1    2    0    0  0.00000000000E+00  0.00000000000E+00  0.11636659637E+03  0.27795037924E+04  0.27770668244E+04 0.  0.
        4    1    3    3  502    0 -0.88967483499E+03 -0.69725193592E+03 -0.74896213082E+03  0.13559599775E+04  0.12699999809E+01 0.  1.
       -4    1    3    3    0  502  0.88967483499E+03  0.69725193592E+03  0.86532872720E+03  0.14235438150E+04  0.12699999809E+01 0. -1.
</event>
<event>
 5   0  0.3397882E-06  0.2844482E+04  0.7818609E-02  0.8289590E-01
       -1   -1    0    0    0  501  0.00000000000E+00  0.00000000000E+00  0.12017369812E+04  0.12017369813E+04  0.50400001928E-02 0.  1.
        1   -1    0    0  501    0  0.00000000000E+00  0.00000000000E+00 -0.16832043593E+04  0.16832043593E+04  0.50400001928E-02 0. -1.
    10030    2    1    2    0    0  0.00000000000E+00  0.00000000000E+00 -0.48146737805E+03  0.28849413406E+04  0.28444816228E+04 0.  0.
        2    1    3    3  502    0 -0.35906524147E+03 -0.86608446486E+03 -0.13254028128E+04  0.16234909190E+04  0.25500000920E-02 0. -1.
       -2    1    3    3    0  502  0.35906524147E+03  0.86608446486E+03  0.84393543478E+03  0.12614504215E+04  0.25500000920E-02 0.  1.
</event>
<event>
 5   0  0.9342133E-06  0.2767781E+04  0.7818609E-02  0.8313341E-01
        2   -1    0    0  501    0  0.00000000000E+00  0.00000000000E+00  0.13728248899E+04  0.13728248899E+04  0.25500000920E-02 0. -1.
       -2   -1    0    0    0  501  0.00000000000E+00  0.00000000000E+00 -0.13950457046E+04  0.13950457046E+04  0.25500000920E-02 0.  1.
    10030    2    1    2    0    0  0.00000000000E+00  0.00000000000E+00 -0.22220814745E+02  0.27678705945E+04  0.27677813973E+04 0.  0.
        2    1    3    3  502    0  0.20212886430E+03  0.10327227180E+04  0.88768503170E+03  0.13767196540E+04  0.25500000920E-02 0. -1.
       -2    1    3    3    0  502 -0.20212886430E+03 -0.10327227180E+04 -0.90990584645E+03  0.13911509406E+04  0.25500000920E-02 0.  1.
</event>
<event>
 5   0  0.3600963E-06  0.2811139E+04  0.7818609E-02  0.8299819E-01
       -1   -1    0    0    0  501  0.00000000000E+00  0.00000000000E+00  0.11282892714E+04  0.11282892714E+04  0.50400001928E-02 0.  1.
        1   -1    0    0  501    0  0.00000000000E+00  0.00000000000E+00 -0.17509917496E+04  0.17509917496E+04  0.50400001928E-02 0. -1.
    10030    2    1    2    0    0  0.00000000000E+00  0.00000000000E+00 -0.62270247822E+03  0.28792810210E+04  0.28111387055E+04 0.  0.
        5    1    3    3  502    0 -0.69259839925E+03 -0.83599702182E+02 -0.15611431345E+04  0.17099331651E+04  0.46999998093E+01 0. -1.
       -5    1    3    3    0  502  0.69259839925E+03  0.83599702182E+02  0.93844065626E+03  0.11693478559E+04  0.46999998093E+01 0.  1.
</event>
<event>
 5   0  0.3438130E-06  0.2878077E+04  0.7818609E-02  0.8279430E-01
       -1   -1    0    0    0  501  0.00000000000E+00  0.00000000000E+00  0.12466356483E+04  0.12466356483E+04  0.50400001928E-02 0. -1.
        1   -1    0    0  501    0  0.00000000000E+00  0.00000000000E+00 -0.16611368147E+04  0.16611368147E+04  0.50400001928E-02 0.  1.
    10030    2    1    2    0    0  0.00000000000E+00  0.00000000000E+00 -0.41450116642E+03  0.29077724630E+04  0.28780773930E+04 0.  0.
        3    1    3    3  502    0  0.38360139987E+03 -0.10886291291E+04  0.66101677144E+03  0.13301152571E+04  0.10100000352E+00 0. -1.
       -3    1    3    3    0  502 -0.38360139987E+03  0.10886291291E+04 -0.10755179379E+04  0.15776572060E+04  0.10100000352E+00 0.  1.
</event>
<event>
 5   0  0.9342133E-06  0.2838112E+04  0.7818609E-02  0.8291533E-01
        2   -1    0    0  501    0  0.00000000000E+00  0.00000000000E+00  0.22094131679E+04  0.22094131679E+04  0.25500000920E-02 0. -1.
       -2   -1    0    0    0  501  0.00000000000E+00  0.00000000000E+00 -0.91142746110E+03  0.91142746111E+03  0.25500000920E-02 0.  1.
    10030    2    1    2    0    0  0.00000000000E+00  0.00000000000E+00  0.12979857067E+04  0.31208406290E+04  0.28381119316E+04 0.  0.
        2    1    3    3  502    0 -0.85043763952E+03  0.11234670523E+04  0.46401674935E+03  0.14834870879E+04  0.25500000920E-02 0. -1.
       -2    1    3    3    0  502  0.85043763952E+03 -0.11234670523E+04  0.83396895740E+03  0.16373535410E+04  0.25500000920E-02 0.  1.
</event>
<event>
 5   0  0.3397882E-06  0.2790704E+04  0.7818609E-02  0.8306160E-01
       -1   -1    0    0    0  501  0.00000000000E+00  0.00000000000E+00  0.80991983369E+03  0.80991983370E+03  0.50400001928E-02 0.  1.
        1   -1    0    0  501    0  0.00000000000E+00  0.00000000000E+00 -0.24039512098E+04  0.24039512098E+04  0.50400001928E-02 0. -1.
    10030    2    1    2    0    0  0.00000000000E+00  0.00000000000E+00 -0.15940313761E+04  0.32138710435E+04  0.27907044014E+04 0.  0.
        2    1    3    3  502    0 -0.12735666730E+04  0.56984656441E+03 -0.77671989785E+03  0.15968691171E+04  0.25500000920E-02 0.  1.
       -2    1    3    3    0  502  0.12735666730E+04 -0.56984656441E+03 -0.81731147823E+03  0.16170019264E+04  0.25500000920E-02 0. -1.
</event>
<event>
 5   0  0.3600963E-06  0.2788987E+04  0.7818609E-02  0.8306695E-01
        1   -1    0    0  501    0  0.00000000000E+00  0.00000000000E+00  0.23173181121E+04  0.23173181121E+04  0.50400001928E-02 0. -1.
       -1   -1    0    0    0  501  0.00000000000E+00  0.00000000000E+00 -0.83916521734E+03  0.83916521736E+03  0.50400001928E-02 0.  1.
    10030    2    1    2    0    0  0.00000000000E+00  0.00000000000E+00  0.14781528948E+04  0.31564833295E+04  0.27889874559E+04 0.  0.
        5    1    3    3  502    0 -0.65076047473E+03 -0.11923507836E+04  0.10958991614E+04  0.17453385484E+04  0.46999998093E+01 0. -1.
       -5    1    3    3    0  502  0.65076047473E+03  0.11923507836E+04  0.38225373343E+03  0.14111447811E+04  0.46999998093E+01 0.  1.
</event>
<event>
 5   0  0.9260173E-06  0.2794038E+04  0.7818609E-02  0.8305122E-01
       -2   -1    0    0    0  501  0.00000000000E+00  0.00000000000E+00  0.14278998098E+04  0.14278998098E+04  0.25500000920E-02 0.  1.
        2   -1    0    0  501    0  0.00000000000E+00  0.00000000000E+00 -0.13668057477E+04  0.13668057477E+04  0.25500000920E-02 0. -1.
    10030    2    1    2    0    0  0.00000000000E+00  0.00000000000E+00  0.61094062148E+02  0.27947055575E+04  0.27940376999E+04 0.  0.
        1    1    3    3  502    0 -0.32107225616E+03 -0.74024983008E+03 -0.11101660365E+04  0.13724160569E+04  0.50400001928E-02 0. -1.
       -1    1    3    3    0  502  0.32107225616E+03  0.74024983008E+03  0.11712600987E+04  0.14222895006E+04  0.50400001928E-02 0.  1.
</event>
<event>
 5   0  0.9342133E-06  0.2811830E+04  0.7818609E-02  0.8299605E-01
       -2   -1    0    0    0  501  0.00000000000E+00  0.00000000000E+00  0.98989321116E+03  0.98989321116E+03  0.25500000920E-02 0.  1.
        2   -1    0    0  501    0  0.00000000000E+00  0.00000000000E+00 -0.19967779969E+04  0.19967779969E+04  0.25500000920E-02 0. -1.
    10030    2    1    2    0    0  0.00000000000E+00  0.00000000000E+00 -0.10068847858E+04  0.29866712081E+04  0.28118299973E+04 0.  0.
        2    1    3    3  502    0  0.28608493579E+03  0.13603802801E+04 -0.28033924160E+03  0.14181217110E+04  0.25500000920E-02 0.  1.
       -2    1    3    3    0  502 -0.28608493579E+03 -0.13603802801E+04 -0.72654554418E+03  0.15685494971E+04  0.25500000920E-02 0. -1.
</event>
<event>
 5   0  0.9260173E-06  0.2807834E+04  0.7818609E-02  0.8300840E-01
        2   -1    0    0  501    0  0.00000000000E+00  0.00000000000E+00  0.70740774455E+03  0.70740774456E+03  0.25500000920E-02 0.  1.
       -2   -1    0    0    0  501  0.00000000000E+00  0.00000000000E+00 -0.27862055678E+04  0.27862055678E+04  0.25500000920E-02 0. -1.
    10030    2    1    2    0    0  0.00000000000E+00  0.00000000000E+00 -0.20787978233E+04  0.34936133124E+04  0.28078343232E+04 0.  0.
        1    1    3    3  502    0  0.11491511289E+03  0.77435043046E+03 -0.24894346793E+04  0.26096185727E+04  0.50400001928E-02 0. -1.
       -1    1    3    3    0  502 -0.11491511289E+03 -0.77435043046E+03  0.41063685601E+03  0.88399473972E+03  0.50400001928E-02 0.  1.
</event>
<event>
 5   0  0.9252359E-06  0.2719982E+04  0.7818609E-02  0.8328550E-01
        2   -1    0    0  501    0  0.00000000000E+00  0.00000000000E+00  0.16359487066E+04  0.16359487066E+04  0.25500000920E-02 0.  1.
       -2   -1    0    0    0  501  0.00000000000E+00  0.00000000000E+00 -0.11305828717E+04  0.11305828717E+04  0.25500000920E-02 0. -1.
    10030    2    1    2    0    0  0.00000000000E+00  0.00000000000E+00  0.50536583489E+03  0.27665315783E+04  0.27199820490E+04 0.  0.
        5    1    3    3  502    0  0.49069041899E+03 -0.99368881085E+03  0.10544364375E+04  0.15297231223E+04  0.46999998093E+01 0.  1.
       -5    1    3    3    0  502 -0.49069041899E+03  0.99368881085E+03 -0.54907060265E+03  0.12368084560E+04  0.46999998093E+01 0. -1.
</event>
<event>
 5   0  0.9426937E-06  0.2791173E+04  0.7818609E-02  0.8306014E-01
        2   -1    0    0  501    0  0.00000000000E+00  0.00000000000E+00  0.19149407864E+04  0.19149407864E+04  0.25500000920E-02 0. -1.
       -2   -1    0    0    0  501  0.00000000000E+00  0.00000000000E+00 -0.10170874954E+04  0.10170874954E+04  0.25500000920E-02 0.  1.
    10030    2    1    2    0    0  0.00000000000E+00  0.00000000000E+00  0.89785329099E+03  0.29320282818E+04  0.27911734653E+04 0.  0.
        4    1    3    3  502    0 -0.55202297623E+01  0.11676100015E+04  0.12519083226E+04  0.17119052689E+04  0.12699999809E+01 0. -1.
       -4    1    3    3    0  502  0.55202297623E+01 -0.11676100015E+04 -0.35405503161E+03  0.12201230130E+04  0.12699999809E+01 0.  1.
</event>
<event>
 5   0  0.9260173E-06  0.2774102E+04  0.7818609E-02  0.8311354E-01
       -2   -1    0    0    0  501  0.00000000000E+00  0.00000000000E+00  0.17699487878E+04  0.17699487878E+04  0.25500000920E-02 0. -1.
        2   -1    0    0  501    0  0.00000000000E+00  0.00000000000E+00 -0.10869863823E+04  0.10869863823E+04  0.25500000920E-02 0.  1.
    10030    2    1    2    0    0  0.00000000000E+00  0.00000000000E+00  0.68296240545E+03  0.28569351701E+04  0.27741018221E+04 0.  0.
        1    1    3    3  502    0  0.71281441868E+03  0.11120166365E+04 -0.94509353028E+02  0.13242422033E+04  0.50400001928E-02 0. -1.
       -1    1    3    3    0  502 -0.71281441868E+03 -0.11120166365E+04  0.77747175847E+03  0.15326929668E+04  0.50400001928E-02 0.  1.
</event>
<event>
 5   0  0.3357244E-06  0.2758598E+04  0.7818609E-02  0.8316239E-01
        1   -1    0    0  501    0  0.00000000000E+00  0.00000000000E+00  0.14529121516E+04  0.14529121516E+04  0.50400001928E-02 0. -1.
       -1   -1    0    0    0  501  0.00000000000E+00  0.00000000000E+00 -0.13094151873E+04  0.13094151873E+04  0.50400001928E-02 0.  1.
    10030    2    1    2    0    0  0.00000000000E+00  0.00000000000E+00  0.14349696429E+03  0.27623273390E+04  0.27585976417E+04 0.  0.
        4    1    3    3  502    0  0.11231868661E+03 -0.13059128352E+04 -0.35829672004E+03  0.13588237461E+04  0.12699999809E+01 0.  1.
       -4    1    3    3    0  502 -0.11231868661E+03  0.13059128352E+04  0.50179368432E+03  0.14035035928E+04  0.12699999809E+01 0. -1.
</event>
<event>
 5   0  0.9342133E-06  0.2791575E+04  0.7818609E-02  0.8305889E-01
        2   -1    0    0  501    0  0.00000000000E+00  0.00000000000E+00  0.14879310036E+04  0.14879310036E+04  0.25500000920E-02 0. -1.
       -2   -1    0    0    0  501  0.00000000000E+00  0.00000000000E+00 -0.13093506175E+04  0.13093506175E+04  0.25500000920E-02 0.  1.
    10030    2    1    2    0    0  0.00000000000E+00  0.00000000000E+00  0.17858038610E+03  0.27972816211E+04  0.27915754537E+04 0.  0.
        2    1    3    3  502    0 -0.57015565560E+03 -0.19663824328E+03 -0.11720438199E+04  0.13181163781E+04  0.25500000920E-02 0.  1.
       -2    1    3    3    0  502  0.57015565560E+03  0.19663824328E+03  0.13506242060E+04  0.14791652431E+04  0.25500000920E-02 0. -1.
</event>
<event>
 5   0  0.9065579E-06  0.2793047E+04  0.7818609E-02  0.8305430E-01
       -2   -1    0    0    0  501  0.00000000000E+00  0.00000000000E+00  0.92321694354E+03  0.92321694355E+03  0.25500000920E-02 0. -1.
        2   -1    0    0  501    0  0.00000000000E+00  0.00000000000E+00 -0.21124804791E+04  0.21124804791E+04  0.25500000920E-02 0.  1.
    10030    2    1    2    0    0  0.00000000000E+00  0.00000000000E+00 -0.11892635355E+04  0.30356974226E+04  0.27930469177E+04 0.  0.
        3    1    3    3  502    0  0.73210204925E+03 -0.63975920573E+03  0.49496544722E+03  0.10909885682E+04  0.10100000352E+00 0. -1.
       -3    1    3    3    0  502 -0.73210204925E+03  0.63975920573E+03 -0.16842289827E+04  0.19447088544E+04  0.10100000352E+00 0.  1.
</event>
<event>
 5   0  0.3397882E-06  0.2813025E+04  0.7818609E-02  0.8299236E-01
       -1   -1    0    0    0  501  0.00000000000E+00  0.00000000000E+00  0.15153727802E+04  0.15153727802E+04  0.50400001928E-02 0. -1.
        1   -1    0    0  501    0  0.00000000000E+00  0.00000000000E+00 -0.13054721248E+04  0.13054721248E+04  0.50400001928E-02 0.  1.
    10030    2    1    2    0    0  0.00000000000E+00  0.00000000000E+00  0.20990065533E+03  0.28208449050E+04  0.28130246521E+04 0.  0.
        2    1    3    3  502    0  0.88107176317E+03  0.61418618495E+03 -0.80574001167E+03  0.13426574723E+04  0.25500000920E-02 0.  1.
       -2    1    3    3    0  502 -0.88107176317E+03 -0.61418618495E+03  0.10156406670E+04  0.14781874327E+04  0.25500000920E-02 0. -1.
</event>
<event>
 5   0  0.9260173E-06  0.2785707E+04  0.7818609E-02  0.8307719E-01
        2   -1    0    0  501    0  0.00000000000E+00  0.00000000000E+00  0.75426818497E+03  0.75426818497E+03  0.25500000920E-02 0. -1.
       -2   -1    0    0    0  501  0.00000000000E+00  0.00000000000E+00 -0.25720838830E+04  0.25720838830E+04  0.25500000920E-02 0.  1.
    10030    2    1    2    0    0  0.00000000000E+00  0.00000000000E+00 -0.18178156980E+04  0.33263520679E+04  0.27857071217E+04 0.  0.
        1    1    3    3  502    0 -0.64690858705E+03  0.59744495615E+02  0.56227250067E+03  0.85919176544E+03  0.50400001928E-02 0. -1.
       -1    1    3    3    0  502  0.64690858705E+03 -0.59744495615E+02 -0.23800881987E+04  0.24671603025E+04  0.50400001928E-02 0.  1.
</event>
<event>
 5   0  0.3371603E-06  0.2797710E+04  0.7818609E-02  0.8303980E-01
        1   -1    0    0  501    0  0.00000000000E+00  0.00000000000E+00  0.25499097115E+04  0.25499097115E+04  0.50400001928E-02 0.  1.
       -1   -1    0    0    0  501  0.00000000000E+00  0.00000000000E+00 -0.76739772313E+03  0.76739772315E+03  0.50400001928E-02 0. -1.
    10030    2    1    2    0    0  0.00000000000E+00  0.00000000000E+00  0.17825119883E+04  0.33173074346E+04  0.27977097110E+04 0.  0.
        1    1    3    3  502    0  0.63692449771E+03 -0.24304047464E+03 -0.55709978895E+03  0.88039858188E+03  0.50400001928E-02 0. -1.
       -1    1    3    3    0  502 -0.63692449771E+03  0.24304047464E+03  0.23396117773E+04  0.24369088527E+04  0.50400001928E-02 0.  1.
</event>
<event>
 5   0  0.9342133E-06  0.2784514E+04  0.7818609E-02  0.8308092E-01
       -2   -1    0    0    0  501  0.00000000000E+00  0.00000000000E+00  0.22044485268E+04  0.22044485268E+04  0.25500000920E-02 0.  1.
        2   -1    0    0  501    0  0.00000000000E+00  0.00000000000E+00 -0.87930343709E+03  0.87930343709E+03  0.25500000920E-02 0. -1.
    10030    2    1    2    0    0  0.00000000000E+00  0.00000000000E+00  0.13251450898E+04  0.30837519639E+04  0.27845137217E+04 0.  0.
        2    1    3    3  502    0  0.42254999152E+03  0.11841741989E+03  0.21258555027E+04  0.21706756549E+04  0.25500000920E-02 0.  1.
       -2    1    3    3    0  502 -0.42254999152E+03 -0.11841741989E+03 -0.80071041293E+03  0.91307630899E+03  0.25500000920E-02 0. -1.
</event>
<event>
 5   0  0.3600963E-06  0.2830784E+04  0.7818609E-02  0.8293774E-01
        1   -1    0    0  501    0  0.00000000000E+00  0.00000000000E+00  0.21470613355E+04  0.21470613355E+04  0.50400001928E-02 0.  1.
       -1   -1    0    0    0  501  0.00000000000E+00  0.00000000000E+00 -0.93305895942E+03  0.93305895943E+03  0.50400001928E-02 0. -1.
    10030    2    1    2    0    0  0.00000000000E+00  0.00000000000E+00  0.12140023761E+04  0.30801202949E+04  0.28307842133E+04 0.  0.
        5    1    3    3  502    0  0.13373247632E+04 -0.27399832064E+03  0.20016957642E+03  0.13797110390E+04  0.46999998093E+01 0.  1.
       -5    1    3    3    0  502 -0.13373247632E+04  0.27399832064E+03  0.10138327997E+04  0.17004092559E+04  0.46999998093E+01 0. -1.
</event>
<event>
 5   0  0.9252359E-06  0.2783928E+04  0.7818609E-02  0.8308276E-01
       -2   -1    0    0    0  501  0.00000000000E+00  0.00000000000E+00  0.79770522133E+03  0.79770522133E+03  0.25500000920E-02 0. -1.
        2   -1    0    0  501    0  0.00000000000E+00  0.00000000000E+00 -0.24289214697E+04  0.24289214697E+04  0.25500000920E-02 0.  1.
    10030    2    1    2    0    0  0.00000000000E+00  0.00000000000E+00 -0.16312162483E+04  0.32266266910E+04  0.27839276848E+04 0.  0.
        5    1    3    3  502    0 -0.97774482318E+02  0.23617718385E+03 -0.24014763365E+04  0.24150466241E+04  0.46999998093E+01 0.  1.
       -5    1    3    3    0  502  0.97774482318E+02 -0.23617718385E+03  0.77026008819E+03  0.81158006692E+03  0.46999998093E+01 0. -1.
</event>
<event>
 5   0  0.3357244E-06  0.2875248E+04  0.7818609E-02  0.8280280E-01
        1   -1    0    0  501    0  0.00000000000E+00  0.00000000000E+00  0.21482470179E+04  0.21482470179E+04  0.50400001928E-02 0.  1.
       -1   -1    0    0    0  501  0.00000000000E+00  0.00000000000E+00 -0.96206963234E+03  0.96206963235E+03  0.50400001928E-02 0. -1.
    10030    2    1    2    0    0  0.00000000000E+00  0.00000000000E+00  0.11861773856E+04  0.31103166503E+04  0.28752483154E+04 0.  0.
        4    1    3    3  502    0 -0.64119887137E+03 -0.12860548508E+04  0.54863742451E+03  0.15382060032E+04  0.12699999809E+01 0.  1.
       -4    1    3    3    0  502  0.64119887137E+03  0.12860548508E+04  0.63753996107E+03  0.15721106471E+04  0.12699999809E+01 0. -1.
</event>
<event>
 5   0  0.9426937E-06  0.2778093E+04  0.7818609E-02  0.8310102E-01
        2   -1    0    0  501    0  0.00000000000E+00  0.00000000000E+00  0.23320588558E+04  0.23320588558E+04  0.25500000920E-02 0. -1.
       -2   -1    0    0    0  501  0.00000000000E+00  0.00000000000E+00 -0.82735891897E+03  0.82735891898E+03  0.25500000920E-02 0.  1.
    10030    2    1    2    0    0  0.00000000000E+00  0.00000000000E+00  0.15046999369E+04  0.31594177748E+04  0.27780926507E+04 0.  0.
        4    1    3    3  502    0  0.12784619056E+04  0.35893775340E+03  0.12159105374E+04  0.18004836024E+04  0.12699999809E+01 0. -1.
       -4    1    3    3    0  502 -0.12784619056E+04 -0.35893775340E+03  0.28878939948E+03  0.13589341724E+04  0.12699999809E+01 0.  1.
</event>
<event>
 5   0  0.3371603E-06  0.2802286E+04  0.7818609E-02  0.8302559E-01
       -1   -1    0    0    0  501  0.00000000000E+00  0.00000000000E+00  0.14103673455E+04  0.14103673455E+04  0.50400001928E-02 0. -1.
        1   -1    0    0  501    0  0.00000000000E+00  0.00000000000E+00 -0.13919787992E+04  0.13919787992E+04  0.50400001928E-02 0.  1.
    10030    2    1    2    0    0  0.00000000000E+00  0.00000000000E+00  0.18388546310E+02  0.28023461447E+04  0.28022858127E+04 0.  0.
        1    1    3    3  502    0 -0.32628851016E+03 -0.65407254835E+03 -0.11862085387E+04  0.13933290307E+04  0.50400001928E-02 0.  1.
       -1    1    3    3    0  502  0.32628851016E+03  0.65407254835E+03  0.12045970850E+04  0.14090171140E+04  0.50400001928E-02 0. -1.
</event>
<event>
 5   0  0.9260173E-06  0.2783138E+04  0.7818609E-02  0.8308522E-01
        2   -1    0    0  501    0  0.00000000000E+00  0.00000000000E+00  0.21927023987E+04  0.21927023987E+04  0.25500000920E-02 0. -1.
       -2   -1    0    0    0  501  0.00000000000E+00  0.00000000000E+00 -0.88314076064E+03  0.88314076064E+03  0.25500000920E-02 0.  1.
    10030    2    1    2    0    0  0.00000000000E+00  0.00000000000E+00  0.13095616381E+04  0.30758431594E+04  0.27831384186E+04 0.  0.
        1    1    3    3  502    0  0.69709543376E+03  0.44120567938E+02 -0.67536744593E+03  0.97160169583E+03  0.50400001928E-02 0.  1.
       -1    1    3    3    0  502 -0.69709543376E+03 -0.44120567938E+02  0.19849290840E+04  0.21042414636E+04  0.50400001928E-02 0. -1.
</event>
<event>
 5   0  0.3357244E-06  0.2786361E+04  0.7818609E-02  0.8307515E-01
        1   -1    0    0  501    0  0.00000000000E+00  0.00000000000E+00  0.19731542226E+04  0.19731542226E+04  0.50400001928E-02 0.  1.
       -1   -1    0    0    0  501  0.00000000000E+00  0.00000000000E+00 -0.98367945121E+03  0.98367945122E+03  0.50400001928E-02 0. -1.
    10030    2    1    2    0    0  0.00000000000E+00  0.00000000000E+00  0.98947477142E+03  0.29568336739E+04  0.27863605387E+04 0.  0.
        4    1    3    3  502    0  0.65406155771E+03  0.11650460081E+04  0.75844988971E+02  0.13382386923E+04  0.12699999809E+01 0. -1.
       -4    1    3    3    0  502 -0.65406155771E+03 -0.11650460081E+04  0.91362978245E+03  0.16185949816E+04  0.12699999809E+01 0.  1.
</event>
<event>
 5   0  0.9065579E-06  0.2777390E+04  0.7818609E-02  0.8310322E-01
        2   -1    0    0  501    0  0.00000000000E+00  0.00000000000E+00  0.14474088716E+04  0.14474088716E+04  0.25500000920E-02 0.  1.
       -2   -1    0    0    0  501  0.00000000000E+00  0.00000000000E+00 -0.13323630573E+04  0.13323630573E+04  0.25500000920E-02 0. -1.
    10030    2    1    2    0    0  0.00000000000E+00  0.00000000000E+00  0.11504581432E+03  0.27797719290E+04  0.27773902206E+04 0.  0.
        3    1    3    3  502    0  0.11424637699E+04  0.25710413065E+03 -0.68954071589E+03  0.13589674053E+04  0.10100000352E+00 0.  1.
       -3    1    3    3    0  502 -0.11424637699E+04 -0.25710413065E+03  0.80458653021E+03  0.14208045237E+04  0.10100000352E+00 0. -1.
</event>
<event>
 5   0  0.3438130E-06  0.2779687E+04  0.7818609E-02  0.8309602E-01
        1   -1    0    0  501    0  0.00000000000E+00  0.00000000000E+00  0.21978338619E+04  0.21978338619E+04  0.50400001928E-02 0.  1.
       -1   -1    0    0    0  501  0.00000000000E+00  0.00000000000E+00 -0.87889514036E+03  0.87889514037E+03  0.50400001928E-02 0. -1.
    10030    2    1    2    0    0  0.00000000000E+00  0.00000000000E+00  0.13189387216E+04  0.30767290023E+04  0.27796873929E+04 0.  0.
        3    1    3    3  502    0  0.23912945546E+03 -0.12668390663E+04  0.84751970366E+02  0.12919934299E+04  0.10100000352E+00 0. -1.
       -3    1    3    3    0  502 -0.23912945546E+03  0.12668390663E+04  0.12341867512E+04  0.17847355724E+04  0.10100000352E+00 0.  1.
</event>
<event>
 5   0  0.9260173E-06  0.2740971E+04  0.7818609E-02  0.8321833E-01
       -2   -1    0    0    0  501  0.00000000000E+00  0.00000000000E+00  0.10795288705E+04  0.10795288705E+04  0.25500000920E-02 0. -1.
        2   -1    0    0  501    0  0.00000000000E+00  0.00000000000E+00 -0.17398610005E+04  0.17398610005E+04  0.25500000920E-02 0.  1.
    10030    2    1    2    0    0  0.00000000000E+00  0.00000000000E+00 -0.66033213004E+03  0.28193898709E+04  0.27409707628E+04 0.  0.
        1    1    3    3  502    0  0.76801790029E+01  0.10763487539E+04 -0.12027551056E+04  0.16140648900E+04  0.50400001928E-02 0.  1.
       -1    1    3    3    0  502 -0.76801790029E+01 -0.10763487539E+04  0.54242297559E+03  0.12053249809E+04  0.50400001928E-02 0. -1.
</event>
<event>
 5   0  0.3357244E-06  0.2798227E+04  0.7818609E-02  0.8303819E-01
        1   -1    0    0  501    0  0.00000000000E+00  0.00000000000E+00  0.20191146895E+04  0.20191146895E+04  0.50400001928E-02 0. -1.
       -1   -1    0    0    0  501  0.00000000000E+00  0.00000000000E+00 -0.96949358396E+03  0.96949358397E+03  0.50400001928E-02 0.  1.
    10030    2    1    2    0    0  0.00000000000E+00  0.00000000000E+00  0.10496211056E+04  0.29886082735E+04  0.27982271079E+04 0.  0.
        4    1    3    3  502    0  0.77134004452E+02 -0.33360249434E+03  0.19736745332E+04  0.20031557740E+04  0.12699999809E+01 0. -1.
       -4    1    3    3    0  502 -0.77134004452E+02  0.33360249434E+03 -0.92405342762E+03  0.98545249955E+03  0.12699999809E+01 0.  1.
</event>
<event>
 5   0  0.9065579E-06  0.3235412E+04  0.7818609E-02  0.8179527E-01
       -2   -1    0    0    0  501  0.00000000000E+00  0.00000000000E+00  0.10898890359E+04  0.10898890359E+04  0.25500000920E-02 0. -1.
        2   -1    0    0  501    0  0.00000000000E+00  0.00000000000E+00 -0.24011369232E+04  0.24011369232E+04  0.25500000920E-02 0.  1.
    10030    2    1    2    0    0  0.00000000000E+00  0.00000000000E+00 -0.13112478873E+04  0.34910259591E+04  0.32354120642E+04 0.  0.
        3    1    3    3  502    0  0.18042088683E+03  0.41414941434E+03 -0.23316982246E+04  0.23750553793E+04  0.10100000352E+00 0.  1.
       -3    1    3    3    0  502 -0.18042088683E+03 -0.41414941434E+03  0.10204503373E+04  0.11159705798E+04  0.10100000352E+00 0. -1.
</event>
<event>
 5   0  0.3357244E-06  0.2754784E+04  0.7818609E-02  0.8317445E-01
       -1   -1    0    0    0  501  0.00000000000E+00  0.00000000000E+00  0.22286585520E+04  0.22286585520E+04  0.50400001928E-02 0. -1.
        1   -1    0    0  501    0  0.00000000000E+00  0.00000000000E+00 -0.85127828434E+03  0.85127828435E+03  0.50400001928E-02 0.  1.
    10030    2    1    2    0    0  0.00000000000E+00  0.00000000000E+00  0.13773802676E+04  0.30799368363E+04  0.27547839324E+04 0.  0.
        4    1    3    3  502    0  0.96513641859E+03 -0.83144148404E+03  0.12743765212E+04  0.18018935536E+04  0.12699999809E+01 0. -1.
       -4    1    3    3    0  502 -0.96513641859E+03  0.83144148404E+03  0.10300374648E+03  0.12780432827E+04  0.12699999809E+01 0.  1.
</event>
<event>
 5   0  0.3006875E-06  0.2929280E+04  0.7818609E-02  0.8264219E-01
       -3   -1    0    0    0  501  0.00000000000E+00  0.00000000000E+00  0.18413039297E+04  0.18413039325E+04  0.10100000352E+00 0. -1.
        3   -1    0    0  501    0  0.00000000000E+00  0.00000000000E+00 -0.11650279369E+04  0.11650279413E+04  0.10100000352E+00 0.  1.
    10030    2    1    2    0    0  0.00000000000E+00  0.00000000000E+00  0.67627599278E+03  0.30063318738E+04  0.29292801363E+04 0.  0.
        5    1    3    3  502    0 -0.83950874219E+02 -0.10888210337E+04  0.13398072390E+04  0.17284919787E+04  0.46999998093E+01 0. -1.
       -5    1    3    3    0  502  0.83950874219E+02  0.10888210337E+04 -0.66353124625E+03  0.12778398951E+04  0.46999998093E+01 0.  1.
</event>
<event>
 5   0  0.3357244E-06  0.2819210E+04  0.7818609E-02  0.8297329E-01
        1   -1    0    0  501    0  0.00000000000E+00  0.00000000000E+00  0.11911730465E+04  0.11911730465E+04  0.50400001928E-02 0. -1.
       -1   -1    0    0    0  501  0.00000000000E+00  0.00000000000E+00 -0.16680920452E+04  0.16680920452E+04  0.50400001928E-02 0.  1.
    10030    2    1    2    0    0  0.00000000000E+00  0.00000000000E+00 -0.47691899873E+03  0.28592650917E+04  0.28192100194E+04 0.  0.
        4    1    3    3  502    0  0.11659292795E+04 -0.79049901674E+03 -0.29120699124E+03  0.14384307091E+04  0.12699999809E+01 0.  1.
       -4    1    3    3    0  502 -0.11659292795E+04  0.79049901674E+03 -0.18571200749E+03  0.14208343826E+04  0.12699999809E+01 0. -1.
</event>
<event>
 5   0  0.3600963E-06  0.2712770E+04  0.7818609E-02  0.8330873E-01
        1   -1    0    0  501    0  0.00000000000E+00  0.00000000000E+00  0.14173243963E+04  0.14173243963E+04  0.50400001928E-02 0.  1.
       -1   -1    0    0    0  501  0.00000000000E+00  0.00000000000E+00 -0.12980661587E+04  0.12980661587E+04  0.50400001928E-02 0. -1.
    10030    2    1    2    0    0  0.00000000000E+00  0.00000000000E+00  0.11925823757E+03  0.27153905550E+04  0.27127704177E+04 0.  0.
        5    1    3    3  502    0 -0.36355246491E+02 -0.84725115771E+03 -0.99997846731E+03  0.13111579818E+04  0.46999998093E+01 0. -1.
       -5    1    3    3    0  502  0.36355246491E+02  0.84725115771E+03  0.11192367049E+04  0.14042325732E+04  0.46999998093E+01 0.  1.
</event>
<event>
 5   0  0.9342133E-06  0.2844308E+04  0.7818609E-02  0.8289643E-01
        2   -1    0    0  501    0  0.00000000000E+00  0.00000000000E+00  0.81322009777E+03  0.81322009778E+03  0.25500000920E-02 0.  1.
       -2   -1    0    0    0  501  0.00000000000E+00  0.00000000000E+00 -0.24870540630E+04  0.24870540630E+04  0.25500000920E-02 0. -1.
    10030    2    1    2    0    0  0.00000000000E+00  0.00000000000E+00 -0.16738339653E+04  0.33002741608E+04  0.28443082451E+04 0.  0.
        2    1    3    3  502    0 -0.30966942172E+02 -0.13778267027E+04 -0.42972158187E+03  0.14436156040E+04  0.25500000920E-02 0.  1.
       -2    1    3    3    0  502  0.30966942172E+02  0.13778267027E+04 -0.12441123834E+04  0.18566585568E+04  0.25500000920E-02 0. -1.
</event>
<event>
 5   0  0.9426937E-06  0.2804908E+04  0.7818609E-02  0.8301746E-01
        2   -1    0    0  501    0  0.00000000000E+00  0.00000000000E+00  0.14991075762E+04  0.14991075762E+04  0.25500000920E-02 0. -1.
       -2   -1    0    0    0  501  0.00000000000E+00  0.00000000000E+00 -0.13120318951E+04  0.13120318951E+04  0.25500000920E-02 0.  1.
    10030    2    1    2    0    0  0.00000000000E+00  0.00000000000E+00  0.18707568107E+03  0.28111394713E+04  0.28049078089E+04 0.  0.
        4    1    3    3  502    0 -0.12643592074E+04  0.53037557064E+03  0.38910471024E+03  0.14252391167E+04  0.12699999809E+01 0. -1.
       -4    1    3    3    0  502  0.12643592074E+04 -0.53037557064E+03 -0.20202902917E+03  0.13859003546E+04  0.12699999809E+01 0.  1.
</event>
<event>
 5   0  0.9252359E-06  0.2812575E+04  0.7818609E-02  0.8299375E-01
       -2   -1    0    0    0  501  0.00000000000E+00  0.00000000000E+00  0.12870293542E+04  0.12870293542E+04  0.25500000920E-02 0.  1.
        2   -1    0    0  501    0  0.00000000000E+00  0.00000000000E+00 -0.15365962380E+04  0.15365962380E+04  0.25500000920E-02 0. -1.
    10030    2    1    2    0    0  0.00000000000E+00  0.00000000000E+00 -0.24956688375E+03  0.28236255922E+04  0.28125749511E+04 0.  0.
        5    1    3    3  502    0  0.17035629016E+03  0.11959770702E+04  0.59793385975E+03  0.13479352391E+04  0.46999998093E+01 0.  1.
       -5    1    3    3    0  502 -0.17035629016E+03 -0.11959770702E+04 -0.84750074350E+03  0.14756903531E+04  0.46999998093E+01 0. -1.
</event>
<event>
 5   0  0.3397882E-06  0.2793645E+04  0.7818609E-02  0.8305244E-01
       -1   -1    0    0    0  501  0.00000000000E+00  0.00000000000E+00  0.20643265268E+04  0.20643265268E+04  0.50400001928E-02 0.  1.
        1   -1    0    0  501    0  0.00000000000E+00  0.00000000000E+00 -0.94515700176E+03  0.94515700177E+03  0.50400001928E-02 0. -1.
    10030    2    1    2    0    0  0.00000000000E+00  0.00000000000E+00  0.11191695250E+04  0.30094835286E+04  0.27936446952E+04 0.  0.
        2    1    3    3  502    0 -0.78045990898E+03  0.97456953216E+03 -0.11506706996E+03  0.12538516153E+04  0.25500000920E-02 0.  1.
       -2    1    3    3    0  502  0.78045990898E+03 -0.97456953216E+03  0.12342365950E+04  0.17556319133E+04  0.25500000920E-02 0. -1.
</event>
<event>
 5   0  0.3357244E-06  0.2827501E+04  0.7818609E-02  0.8294781E-01
        1   -1    0    0  501    0  0.00000000000E+00  0.00000000000E+00  0.13730237670E+04  0.13730237671E+04  0.50400001928E-02 0.  1.
       -1   -1    0    0    0  501  0.00000000000E+00  0.00000000000E+00 -0.14556857147E+04  0.14556857147E+04  0.50400001928E-02 0. -1.
    10030    2    1    2    0    0  0.00000000000E+00  0.00000000000E+00 -0.82661947647E+02  0.28287094818E+04  0.28275014296E+04 0.  0.
        4    1    3    3  502    0 -0.83918205321E+02 -0.12646942697E+02 -0.14531345554E+04  0.14556111635E+04  0.12699999809E+01 0. -1.
       -4    1    3    3    0  502  0.83918205321E+02  0.12646942697E+02  0.13704726077E+04  0.13730983183E+04  0.12699999809E+01 0.  1.
</event>
<event>
 5   0  0.3371603E-06  0.2626689E+04  0.7818609E-02  0.8359192E-01
       -1   -1    0    0    0  501  0.00000000000E+00  0.00000000000E+00  0.12357235377E+04  0.12357235377E+04  0.50400001928E-02 0. -1.
        1   -1    0    0  501    0  0.00000000000E+00  0.00000000000E+00 -0.13958415223E+04  0.13958415223E+04  0.50400001928E-02 0.  1.
    10030    2    1    2    0    0  0.00000000000E+00  0.00000000000E+00 -0.16011798460E+03  0.26315650601E+04  0.26266893414E+04 0.  0.
        1    1    3    3  502    0  0.93537589627E+03  0.67515563450E+03  0.54888893798E+03  0.12775140956E+04  0.50400001928E-02 0. -1.
       -1    1    3    3    0  502 -0.93537589627E+03 -0.67515563450E+03 -0.70900692258E+03  0.13540509645E+04  0.50400001928E-02 0.  1.
</event>
<event>
 5   0  0.9065579E-06  0.2797337E+04  0.7818609E-02  0.8304096E-01
        2   -1    0    0  501    0  0.00000000000E+00  0.00000000000E+00  0.19905330146E+04  0.19905330146E+04  0.25500000920E-02 0.  1.
       -2   -1    0    0    0  501  0.00000000000E+00  0.00000000000E+00 -0.98278848626E+03  0.98278848626E+03  0.25500000920E-02 0. -1.
    10030    2    1    2    0    0  0.00000000000E+00  0.00000000000E+00  0.10077445284E+04  0.29733215009E+04  0.27973365391E+04 0.  0.
        3    1    3    3  502    0 -0.11375791167E+04  0.44573535382E+03 -0.21977203524E+03  0.12413967980E+04  0.10100000352E+00 0. -1.
       -3    1    3    3    0  502  0.11375791167E+04 -0.44573535382E+03  0.12275165636E+04  0.17319247029E+04  0.10100000352E+00 0.  1.
</event>
<event>
 5   0  0.9260173E-06  0.2400940E+04  0.7818609E-02  0.8439152E-01
       -2   -1    0    0    0  501  0.00000000000E+00  0.00000000000E+00  0.16018582328E+04  0.16018582328E+04  0.25500000920E-02 0. -1.
        2   -1    0    0  501    0  0.00000000000E+00  0.00000000000E+00 -0.89965999614E+03  0.89965999614E+03  0.25500000920E-02 0.  1.
    10030    2    1    2    0    0  0.00000000000E+00  0.00000000000E+00  0.70219823662E+03  0.25015182289E+04  0.24009396256E+04 0.  0.
        1    1    3    3  502    0 -0.13850004240E+03  0.78731906187E+03 -0.58200414281E+03  0.98882879671E+03  0.50400001928E-02 0.  1.
       -1    1    3    3    0  502  0.13850004240E+03 -0.78731906187E+03  0.12842023794E+04  0.15126894322E+04  0.50400001928E-02 0. -1.
</event>
<event>
 5   0  0.9252359E-06  0.2804434E+04  0.7818609E-02  0.8301893E-01
        2   -1    0    0  501    0  0.00000000000E+00  0.00000000000E+00  0.14336669995E+04  0.14336669995E+04  0.25500000920E-02 0.  1.
       -2   -1    0    0    0  501  0.00000000000E+00  0.00000000000E+00 -0.13714571831E+04  0.13714571831E+04  0.25500000920E-02 0. -1.
    10030    2    1    2    0    0  0.00000000000E+00  0.00000000000E+00  0.62209816405E+02  0.28051241827E+04  0.28044342779E+04 0.  0.
        5    1    3    3  502    0  0.12609175897E+04 -0.43959090014E+02 -0.58088320394E+03  0.13889899050E+04  0.46999998093E+01 0. -1.
       -5    1    3    3    0  502 -0.12609175897E+04  0.43959090014E+02  0.64309302035E+03  0.14161342777E+04  0.46999998093E+01 0.  1.
</event>
<event>
 5   0  0.3438130E-06  0.2753492E+04  0.7818609E-02  0.8317854E-01
       -1   -1    0    0    0  501  0.00000000000E+00  0.00000000000E+00  0.13052302652E+04  0.13052302652E+04  0.50400001928E-02 0. -1.
        1   -1    0    0  501    0  0.00000000000E+00  0.00000000000E+00 -0.14521802294E+04  0.14521802294E+04  0.50400001928E-02 0.  1.
    10030    2    1    2    0    0  0.00000000000E+00  0.00000000000E+00 -0.14694996421E+03  0.27574104946E+04  0.27534920272E+04 0.  0.
        3    1    3    3  502    0  0.19921233875E+03  0.50020057132E+03  0.11954286099E+04  0.13110818964E+04  0.10100000352E+00 0. -1.
       -3    1    3    3    0  502 -0.19921233875E+03 -0.50020057132E+03 -0.13423785742E+04  0.14463285982E+04  0.10100000352E+00 0.  1.
</event>
<event>
 5   0  0.9342133E-06  0.2363011E+04  0.7818609E-02  0.8453483E-01
        2   -1    0    0  501    0  0.00000000000E+00  0.00000000000E+00  0.16900059183E+04  0.16900059183E+04  0.25500000920E-02 0. -1.
       -2   -1    0    0    0  501  0.00000000000E+00  0.00000000000E+00 -0.82600621502E+03  0.82600621503E+03  0.25500000920E-02 0.  1.
    10030    2    1    2    0    0  0.00000000000E+00  0.00000000000E+00  0.86399970331E+03  0.25160121334E+04  0.23630111231E+04 0.  0.
        2    1    3    3  502    0 -0.33761272317E+03 -0.97971548131E+01  0.16375080063E+04  0.16719781116E+04  0.25500000920E-02 0. -1.
       -2    1    3    3    0  502  0.33761272317E+03  0.97971548131E+01 -0.77350830297E+03  0.84403402174E+03  0.25500000920E-02 0.  1.
</event>
<event>
 5   0  0.3371603E-06  0.2811195E+04  0.7818609E-02  0.8299801E-01
       -1   -1    0    0    0  501  0.00000000000E+00  0.00000000000E+00  0.15018541597E+04  0.15018541598E+04  0.50400001928E-02 0.  1.
        1   -1    0    0  501    0  0.00000000000E+00  0.00000000000E+00 -0.13155101158E+04  0.13155101158E+04  0.50400001928E-02 0. -1.
    10030    2    1    2    0    0  0.00000000000E+00  0.00000000000E+00  0.18634404396E+03  0.28173642756E+04  0.28111950054E+04 0.  0.
        1    1    3    3  502    0  0.24741810528E+03 -0.91499410743E+03  0.11333680748E+04  0.14774820231E+04  0.50400001928E-02 0.  1.
       -1    1    3    3    0  502 -0.24741810528E+03  0.91499410743E+03 -0.94702403087E+03  0.13398822525E+04  0.50400001928E-02 0. -1.
</event>
<event>
 5   0  0.9065579E-06  0.2820410E+04  0.7818609E-02  0.8296960E-01
        2   -1    0    0  501    0  0.00000000000E+00  0.00000000000E+00  0.24531974649E+04  0.24531974649E+04  0.25500000920E-02 0. -1.
       -2   -1    0    0    0  501  0.00000000000E+00  0.00000000000E+00 -0.81064745883E+03  0.81064745883E+03  0.25500000920E-02 0.  1.
    10030    2    1    2    0    0  0.00000000000E+00  0.00000000000E+00  0.16425500061E+04  0.32638449238E+04  0.28204101056E+04 0.  0.
        3    1    3    3  502    0  0.12116140474E+04  0.44219866051E+03  0.14811258718E+04  0.19639964647E+04  0.10100000352E+00 0. -1.
       -3    1    3    3    0  502 -0.12116140474E+04 -0.44219866051E+03  0.16142413428E+03  0.12998484590E+04  0.10100000352E+00 0.  1.
</event>
<event>
 5   0  0.9342133E-06  0.2830752E+04  0.7818609E-02  0.8293784E-01
        2   -1    0    0  501    0  0.00000000000E+00  0.00000000000E+00  0.13750693332E+04  0.13750693332E+04  0.25500000920E-02 0.  1.
       -2   -1    0    0    0  501  0.00000000000E+00  0.00000000000E+00 -0.14568640287E+04  0.14568640287E+04  0.25500000920E-02 0. -1.
    10030    2    1    2    0    0  0.00000000000E+00  0.00000000000E+00 -0.81794695519E+02  0.28319333619E+04  0.28307518779E+04 0.  0.
        2    1    3    3  502    0  0.82209985885E+03  0.32504436202E+03  0.10649087528E+04  0.13840276973E+04  0.25500000920E-02 0.  1.
       -2    1    3    3    0  502 -0.82209985885E+03 -0.32504436202E+03 -0.11467034483E+04  0.14479056646E+04  0.25500000920E-02 0. -1.
</event>
<event>
 5   0  0.3371603E-06  0.2818269E+04  0.7818609E-02  0.8297619E-01
       -1   -1    0    0    0  501  0.00000000000E+00  0.00000000000E+00  0.10983846692E+04  0.10983846692E+04  0.50400001928E-02 0.  1.
        1   -1    0    0  501    0  0.00000000000E+00  0.00000000000E+00 -0.18077996499E+04  0.18077996499E+04  0.50400001928E-02 0. -1.
    10030    2    1    2    0    0  0.00000000000E+00  0.00000000000E+00 -0.70941498073E+03  0.29061843191E+04  0.28182685610E+04 0.  0.
        1    1    3    3  502    0  0.31185124937E+03  0.11641760352E+04 -0.11076227323E+04  0.16368827568E+04  0.50400001928E-02 0. -1.
       -1    1    3    3    0  502 -0.31185124937E+03 -0.11641760352E+04  0.39820775154E+03  0.12693015623E+04  0.50400001928E-02 0.  1.
</event>
<event>
 5   0  0.9252359E-06  0.2746185E+04  0.7818609E-02  0.8320173E-01
       -2   -1    0    0    0  501  0.00000000000E+00  0.00000000000E+00  0.71679244184E+03  0.71679244184E+03  0.25500000920E-02 0.  1.
        2   -1    0    0  501    0  0.00000000000E+00  0.00000000000E+00 -0.26303062790E+04  0.26303062790E+04  0.25500000920E-02 0. -1.
    10030    2    1    2    0    0  0.00000000000E+00  0.00000000000E+00 -0.19135138371E+04  0.33470987208E+04  0.27461854712E+04 0.  0.
        5    1    3    3  502    0  0.36684933825E+03  0.13209289395E+04 -0.10506127484E+04  0.17272061074E+04  0.46999998093E+01 0. -1.
       -5    1    3    3    0  502 -0.36684933825E+03 -0.13209289395E+04 -0.86290108869E+03  0.16198926134E+04  0.46999998093E+01 0.  1.
</event>
<event>
 5   0  0.9342133E-06  0.2834231E+04  0.7818609E-02  0.8292719E-01
       -2   -1    0    0    0  501  0.00000000000E+00  0.00000000000E+00  0.14513438672E+04  0.14513438672E+04  0.25500000920E-02 0. -1.
        2   -1    0    0  501    0  0.00000000000E+00  0.00000000000E+00 -0.13836945789E+04  0.13836945789E+04  0.25500000920E-02 0.  1.
    10030    2    1    2    0    0  0.00000000000E+00  0.00000000000E+00  0.67649288322E+02  0.28350384460E+04  0.28342312122E+04 0.  0.
        2    1    3    3  502    0 -0.18043462947E+03  0.13479152863E+04  0.43241569781E+03  0.14270303466E+04  0.25500000920E-02 0.  1.
       -2    1    3    3    0  502  0.18043462947E+03 -0.13479152863E+04 -0.36476640949E+03  0.14080080994E+04  0.25500000920E-02 0. -1.
</event>
<event>
 5   0  0.3006875E-06  0.2751724E+04  0.7818609E-02  0.8318415E-01
        4   -1    0    0  501    0  0.00000000000E+00  0.00000000000E+00  0.16123431810E+04  0.16123436811E+04  0.12699999809E+01 0. -1.
       -4   -1    0    0    0  501  0.00000000000E+00  0.00000000000E+00 -0.11740642292E+04  0.11740649161E+04  0.12699999809E+01 0.  1.
    10030    2    1    2    0    0  0.00000000000E+00  0.00000000000E+00  0.43827895179E+03  0.27864085972E+04  0.27517239017E+04 0.  0.
        5    1    3    3  502    0  0.33190182240E+03  0.69103087264E+03  0.13760338400E+04  0.15751741826E+04  0.46999998093E+01 0. -1.
       -5    1    3    3    0  502 -0.33190182240E+03 -0.69103087264E+03 -0.93775488825E+03  0.12112344146E+04  0.46999998093E+01 0.  1.
</event>
<event>
 5   0  0.3371603E-06  0.3022288E+04  0.7818609E-02  0.8237395E-01
       -1   -1    0    0    0  501  0.00000000000E+00  0.00000000000E+00  0.13684426505E+04  0.13684426505E+04  0.50400001928E-02 0.  1.
        1   -1    0    0  501    0  0.00000000000E+00  0.00000000000E+00 -0.16687261524E+04  0.16687261524E+04  0.50400001928E-02 0. -1.
    10030    2    1    2    0    0  0.00000000000E+00  0.00000000000E+00 -0.30028350185E+03  0.30371688029E+04  0.30222879009E+04 0.  0.
        1    1    3    3  502    0 -0.45656458327E+03  0.11851920011E+04  0.67268445336E+03  0.14372319479E+04  0.50400001928E-02 0.  1.
       -1    1    3    3    0  502  0.45656458327E+03 -0.11851920011E+04 -0.97296795521E+03  0.15999368550E+04  0.50400001928E-02 0. -1.
</event>
<event>
 5   0  0.9426937E-06  0.2769047E+04  0.7818609E-02  0.8312943E-01
        2   -1    0    0  501    0  0.00000000000E+00  0.00000000000E+00  0.15744957066E+04  0.15744957066E+04  0.25500000920E-02 0. -1.
       -2   -1    0    0    0  501  0.00000000000E+00  0.00000000000E+00 -0.12174729365E+04  0.12174729365E+04  0.25500000920E-02 0.  1.
    10030    2    1    2    0    0  0.00000000000E+00  0.00000000000E+00  0.35702277010E+03  0.27919686430E+04  0.27690474256E+04 0.  0.
        4    1    3    3  502    0  0.56464543222E+03 -0.96188425362E+03 -0.64855814127E+03  0.12902228711E+04  0.12699999809E+01 0.  1.
       -4    1    3    3    0  502 -0.56464543222E+03  0.96188425362E+03  0.10055809114E+04  0.15017457720E+04  0.12699999809E+01 0. -1.
</event>
<event>
 5   0  0.9065579E-06  0.2776409E+04  0.7818609E-02  0.8310630E-01
       -2   -1    0    0    0  501  0.00000000000E+00  0.00000000000E+00  0.12994132958E+04  0.12994132958E+04  0.25500000920E-02 0.  1.
        2   -1    0    0  501    0  0.00000000000E+00  0.00000000000E+00 -0.14830631369E+04  0.14830631369E+04  0.25500000920E-02 0. -1.
    10030    2    1    2    0    0  0.00000000000E+00  0.00000000000E+00 -0.18364984113E+03  0.27824764327E+04  0.27764091620E+04 0.  0.
        3    1    3    3  502    0  0.32320096039E+03  0.13500011348E+04 -0.10410010407E+03  0.13920484067E+04  0.10100000352E+00 0. -1.
       -3    1    3    3    0  502 -0.32320096039E+03 -0.13500011348E+04 -0.79549737063E+02  0.13904280260E+04  0.10100000352E+00 0.  1.
</event>
<event>
 5   0  0.3397882E-06  0.2881020E+04  0.7818609E-02  0.8278547E-01
       -1   -1    0    0    0  501  0.00000000000E+00  0.00000000000E+00  0.28120341240E+04  0.28120341240E+04  0.50400001928E-02 0. -1.
        1   -1    0    0  501    0  0.00000000000E+00  0.00000000000E+00 -0.73792453226E+03  0.73792453228E+03  0.50400001928E-02 0.  1.
    10030    2    1    2    0    0  0.00000000000E+00  0.00000000000E+00  0.20741095917E+04  0.35499586563E+04  0.28810199345E+04 0.  0.
        2    1    3    3  502    0 -0.20077745351E+03  0.56445730055E+03 -0.57713301697E+03  0.83186906979E+03  0.25500000920E-02 0.  1.
       -2    1    3    3    0  502  0.20077745351E+03 -0.56445730055E+03  0.26512426087E+04  0.27180895865E+04  0.25500000920E-02 0. -1.
</event>
<event>
 5   0  0.9065579E-06  0.2803027E+04  0.7818609E-02  0.8302329E-01
       -2   -1    0    0    0  501  0.00000000000E+00  0.00000000000E+00  0.15768971150E+04  0.15768971150E+04  0.25500000920E-02 0. -1.
        2   -1    0    0  501    0  0.00000000000E+00  0.00000000000E+00 -0.12456363919E+04  0.12456363919E+04  0.25500000920E-02 0.  1.
    10030    2    1    2    0    0  0.00000000000E+00  0.00000000000E+00  0.33126072311E+03  0.28225335070E+04  0.28030272441E+04 0.  0.
        3    1    3    3  502    0  0.72402570506E+03 -0.30704996186E+03 -0.10025061047E+04  0.12741708680E+04  0.10100000352E+00 0.  1.
       -3    1    3    3    0  502 -0.72402570506E+03  0.30704996186E+03  0.13337668278E+04  0.15483626390E+04  0.10100000352E+00 0. -1.
</event>
<event>
 5   0  0.3438130E-06  0.2814387E+04  0.7818609E-02  0.8298816E-01
       -1   -1    0    0    0  501  0.00000000000E+00  0.00000000000E+00  0.17139240925E+04  0.17139240925E+04  0.50400001928E-02 0. -1.
        1   -1    0    0  501    0  0.00000000000E+00  0.00000000000E+00 -0.11553569912E+04  0.11553569912E+04  0.50400001928E-02 0.  1.
    10030    2    1    2    0    0  0.00000000000E+00  0.00000000000E+00  0.55856710126E+03  0.28692810837E+04  0.28143874522E+04 0.  0.
        3    1    3    3  502    0  0.12813263149E+04  0.45126873195E+03  0.65353144319E+03  0.15074959208E+04  0.10100000352E+00 0. -1.
       -3    1    3    3    0  502 -0.12813263149E+04 -0.45126873195E+03 -0.94964341932E+02  0.13617851630E+04  0.10100000352E+00 0.  1.
</event>
<event>
 5   0  0.3438130E-06  0.2737847E+04  0.7818609E-02  0.8322828E-01
       -1   -1    0    0    0  501  0.00000000000E+00  0.00000000000E+00  0.11825918750E+04  0.11825918750E+04  0.50400001928E-02 0. -1.
        1   -1    0    0  501    0  0.00000000000E+00  0.00000000000E+00 -0.15846137492E+04  0.15846137492E+04  0.50400001928E-02 0.  1.
    10030    2    1    2    0    0  0.00000000000E+00  0.00000000000E+00 -0.40202187424E+03  0.27672056242E+04  0.27378468510E+04 0.  0.
        3    1    3    3  502    0 -0.43832439589E+03 -0.96547431281E+03 -0.10761376509E+04  0.15107419299E+04  0.10100000352E+00 0.  1.
       -3    1    3    3    0  502  0.43832439589E+03  0.96547431281E+03  0.67411577668E+03  0.12564636944E+04  0.10100000352E+00 0. -1.
</event>
<event>
 5   0  0.9426937E-06  0.2810769E+04  0.7818609E-02  0.8299933E-01
       -2   -1    0    0    0  501  0.00000000000E+00  0.00000000000E+00  0.10541868399E+04  0.10541868399E+04  0.25500000920E-02 0.  1.
        2   -1    0    0  501    0  0.00000000000E+00  0.00000000000E+00 -0.18735820819E+04  0.18735820819E+04  0.25500000920E-02 0. -1.
    10030    2    1    2    0    0  0.00000000000E+00  0.00000000000E+00 -0.81939524204E+03  0.29277689218E+04  0.28107689868E+04 0.  0.
        4    1    3    3  502    0  0.31506725617E+03 -0.33840032574E+03 -0.17920889444E+04  0.18507745821E+04  0.12699999809E+01 0. -1.
       -4    1    3    3    0  502 -0.31506725617E+03  0.33840032574E+03  0.97269370231E+03  0.10769943397E+04  0.12699999809E+01 0.  1.
</event>
<event>
 5   0  0.3600963E-06  0.2823738E+04  0.7818609E-02  0.8295936E-01
        1   -1    0    0  501    0  0.00000000000E+00  0.00000000000E+00  0.24181859984E+04  0.24181859984E+04  0.50400001928E-02 0. -1.
       -1   -1    0    0    0  501  0.00000000000E+00  0.00000000000E+00 -0.82432617595E+03  0.82432617597E+03  0.50400001928E-02 0.  1.
    10030    2    1    2    0    0  0.00000000000E+00  0.00000000000E+00  0.15938598224E+04  0.32425121744E+04  0.28237379601E+04 0.  0.
        5    1    3    3  502    0 -0.10858821912E+04  0.36793259518E+03  0.17430365797E+04  0.20863156847E+04  0.46999998093E+01 0. -1.
       -5    1    3    3    0  502  0.10858821912E+04 -0.36793259518E+03 -0.14917675730E+03  0.11561964897E+04  0.46999998093E+01 0.  1.
</event>
<event>
 5   0  0.3600963E-06  0.2839299E+04  0.7818609E-02  0.8291170E-01
        1   -1    0    0  501    0  0.00000000000E+00  0.00000000000E+00  0.11951362908E+04  0.11951362908E+04  0.50400001928E-02 0.  1.
       -1   -1    0    0    0  501  0.00000000000E+00  0.00000000000E+00 -0.16863390357E+04  0.16863390358E+04  0.50400001928E-02 0. -1.
    10030    2    1    2    0    0  0.00000000000E+00  0.00000000000E+00 -0.49120274493E+03  0.28814753266E+04  0.28392991954E+04 0.  0.
        5    1    3    3  502    0 -0.69670078438E+03  0.28578544245E+03  0.97573600454E+03  0.12325372784E+04  0.46999998093E+01 0.  1.
       -5    1    3    3    0  502  0.69670078438E+03 -0.28578544245E+03 -0.14669387495E+04  0.16489380482E+04  0.46999998093E+01 0. -1.
</event>
<event>
 5   0  0.3438130E-06  0.2792104E+04  0.7818609E-02  0.8305724E-01
       -1   -1    0    0    0  501  0.00000000000E+00  0.00000000000E+00  0.12963134640E+04  0.12963134640E+04  0.50400001928E-02 0.  1.
        1   -1    0    0  501    0  0.00000000000E+00  0.00000000000E+00 -0.15034649312E+04  0.15034649312E+04  0.50400001928E-02 0. -1.
    10030    2    1    2    0    0  0.00000000000E+00  0.00000000000E+00 -0.20715146716E+03  0.27997783952E+04  0.27921044629E+04 0.  0.
        3    1    3    3  502    0 -0.80098783666E+03 -0.10209875816E+04  0.41258620528E+03  0.13616991383E+04  0.10100000352E+00 0.  1.
       -3    1    3    3    0  502  0.80098783666E+03  0.10209875816E+04 -0.61973767244E+03  0.14380792569E+04  0.10100000352E+00 0. -1.
</event>
<event>
 5   0  0.9065579E-06  0.2857462E+04  0.7818609E-02  0.8285648E-01
       -2   -1    0    0    0  501  0.00000000000E+00  0.00000000000E+00  0.96847849767E+03  0.96847849768E+03  0.25500000920E-02 0. -1.
        2   -1    0    0  501    0  0.00000000000E+00  0.00000000000E+00 -0.21077100512E+04  0.21077100512E+04  0.25500000920E-02 0.  1.
    10030    2    1    2    0    0  0.00000000000E+00  0.00000000000E+00 -0.11392315536E+04  0.30761885489E+04  0.28574617156E+04 0.  0.
        3    1    3    3  502    0 -0.13838980536E+03 -0.82578232271E+02 -0.20978942143E+04  0.21040748673E+04  0.10100000352E+00 0.  1.
       -3    1    3    3    0  502  0.13838980536E+03  0.82578232271E+02  0.95866266073E+03  0.97211368160E+03  0.10100000352E+00 0. -1.
</event>
<event>
 5   0  0.3397882E-06  0.2781115E+04  0.7818609E-02  0.8309155E-01
       -1   -1    0    0    0  501  0.00000000000E+00  0.00000000000E+00  0.11822777431E+04  0.11822777431E+04  0.50400001928E-02 0.  1.
        1   -1    0    0  501    0  0.00000000000E+00  0.00000000000E+00 -0.16355294726E+04  0.16355294726E+04  0.50400001928E-02 0. -1.
    10030    2    1    2    0    0  0.00000000000E+00  0.00000000000E+00 -0.45325172949E+03  0.28178072156E+04  0.27811149516E+04 0.  0.
        2    1    3    3  502    0  0.33214909962E+03  0.16659158531E+03 -0.15842952623E+04  0.16272883146E+04  0.25500000920E-02 0. -1.
       -2    1    3    3    0  502 -0.33214909962E+03 -0.16659158531E+03  0.11310435328E+04  0.11905189011E+04  0.25500000920E-02 0.  1.
</event>
<event>
 5   0  0.3438130E-06  0.2802858E+04  0.7818609E-02  0.8302382E-01
       -1   -1    0    0    0  501  0.00000000000E+00  0.00000000000E+00  0.93500306815E+03  0.93500306816E+03  0.50400001928E-02 0. -1.
        1   -1    0    0  501    0  0.00000000000E+00  0.00000000000E+00 -0.21005309302E+04  0.21005309302E+04  0.50400001928E-02 0.  1.
    10030    2    1    2    0    0  0.00000000000E+00  0.00000000000E+00 -0.11655278621E+04  0.30355339984E+04  0.28028577306E+04 0.  0.
        3    1    3    3  502    0  0.13649583636E+04 -0.19249724421E+03 -0.30913122451E+03  0.14127026041E+04  0.10100000352E+00 0.  1.
       -3    1    3    3    0  502 -0.13649583636E+04  0.19249724421E+03 -0.85639663758E+03  0.16228313943E+04  0.10100000352E+00 0. -1.
</event>
<event>
 5   0  0.3397882E-06  0.2812507E+04  0.7818609E-02  0.8299396E-01
       -1   -1    0    0    0  501  0.00000000000E+00  0.00000000000E+00  0.19032439549E+04  0.19032439549E+04  0.50400001928E-02 0. -1.
        1   -1    0    0  501    0  0.00000000000E+00  0.00000000000E+00 -0.10390415281E+04  0.10390415282E+04  0.50400001928E-02 0.  1.
    10030    2    1    2    0    0  0.00000000000E+00  0.00000000000E+00  0.86420242680E+03  0.29422854831E+04  0.28125074275E+04 0.  0.
        2    1    3    3  502    0  0.99569375748E+03  0.96960008322E+03  0.65652057385E+03  0.15370587640E+04  0.25500000920E-02 0. -1.
       -2    1    3    3    0  502 -0.99569375748E+03 -0.96960008322E+03  0.20768185295E+03  0.14052267191E+04  0.25500000920E-02 0.  1.
</event>
<event>
 5   0  0.3438130E-06  0.2817487E+04  0.7818609E-02  0.8297860E-01
       -1   -1    0    0    0  501  0.00000000000E+00  0.00000000000E+00  0.93421844100E+03  0.93421844101E+03  0.50400001928E-02 0.  1.
        1   -1    0    0  501    0  0.00000000000E+00  0.00000000000E+00 -0.21242982043E+04  0.21242982043E+04  0.50400001928E-02 0. -1.
    10030    2    1    2    0    0  0.00000000000E+00  0.00000000000E+00 -0.11900797633E+04  0.30585166453E+04  0.28174872185E+04 0.  0.
        3    1    3    3  502    0 -0.10370388512E+04  0.46088712622E+03  0.31104589543E+03  0.11766971068E+04  0.10100000352E+00 0.  1.
       -3    1    3    3    0  502  0.10370388512E+04 -0.46088712622E+03 -0.15011256587E+04  0.18818195385E+04  0.10100000352E+00 0. -1.
</event>
<event>
 5   0  0.9252359E-06  0.2947368E+04  0.7818609E-02  0.8258922E-01
       -2   -1    0    0    0  501  0.00000000000E+00  0.00000000000E+00  0.10138615266E+04  0.10138615266E+04  0.25500000920E-02 0.  1.
        2   -1    0    0  501    0  0.00000000000E+00  0.00000000000E+00 -0.21420529605E+04  0.21420529605E+04  0.25500000920E-02 0. -1.
    10030    2    1    2    0    0  0.00000000000E+00  0.00000000000E+00 -0.11281914339E+04  0.31559144871E+04  0.29473683750E+04 0.  0.
        5    1    3    3  502    0  0.19805021980E+02 -0.14007522386E+03  0.10065659525E+04  0.10164695834E+04  0.46999998093E+01 0.  1.
       -5    1    3    3    0  502 -0.19805021980E+02  0.14007522386E+03 -0.21347573864E+04  0.21394449037E+04  0.46999998093E+01 0. -1.
</event>
<event>
 5   0  0.9260173E-06  0.2784657E+04  0.7818609E-02  0.8308047E-01
        2   -1    0    0  501    0  0.00000000000E+00  0.00000000000E+00  0.29514246700E+04  0.29514246700E+04  0.25500000920E-02 0. -1.
       -2   -1    0    0    0  501  0.00000000000E+00  0.00000000000E+00 -0.65682830223E+03  0.65682830224E+03  0.25500000920E-02 0.  1.
    10030    2    1    2    0    0  0.00000000000E+00  0.00000000000E+00  0.22945963678E+04  0.36082529722E+04  0.27846574333E+04 0.  0.
        1    1    3    3  502    0 -0.28987094167E+03  0.12685425086E+04  0.50546558722E+03  0.13959658731E+04  0.50400001928E-02 0.  1.
       -1    1    3    3    0  502  0.28987094167E+03 -0.12685425086E+04  0.17891307805E+04  0.22122870991E+04  0.50400001928E-02 0. -1.
</event>
<event>
 5   0  0.3371603E-06  0.2786886E+04  0.7818609E-02  0.8307351E-01
        1   -1    0    0  501    0  0.00000000000E+00  0.00000000000E+00  0.12530011729E+04  0.12530011729E+04  0.50400001928E-02 0.  1.
       -1   -1    0    0    0  501  0.00000000000E+00  0.00000000000E+00 -0.15496258548E+04  0.15496258548E+04  0.50400001928E-02 0. -1.
    10030    2    1    2    0    0  0.00000000000E+00  0.00000000000E+00 -0.29662468184E+03  0.28026270277E+04  0.27868857268E+04 0.  0.
        1    1    3    3  502    0  0.10718516437E+03 -0.61776820410E+03 -0.13997514249E+04  0.15337634319E+04  0.50400001928E-02 0. -1.
       -1    1    3    3    0  502 -0.10718516437E+03  0.61776820410E+03  0.11031267431E+04  0.12688635958E+04  0.50400001928E-02 0.  1.
</event>
<event>
 5   0  0.9342133E-06  0.2753727E+04  0.7818609E-02  0.8317780E-01
       -2   -1    0    0    0  501  0.00000000000E+00  0.00000000000E+00  0.84099305278E+03  0.84099305279E+03  0.25500000920E-02 0. -1.
        2   -1    0    0  501    0  0.00000000000E+00  0.00000000000E+00 -0.22541838545E+04  0.22541838545E+04  0.25500000920E-02 0.  1.
    10030    2    1    2    0    0  0.00000000000E+00  0.00000000000E+00 -0.14131908017E+04  0.30951769073E+04  0.27537269010E+04 0.  0.
        2    1    3    3  502    0  0.78442743021E+03 -0.50435162746E+03 -0.18451402485E+04  0.20674233950E+04  0.25500000920E-02 0.  1.
       -2    1    3    3    0  502 -0.78442743021E+03  0.50435162746E+03  0.43194944684E+03  0.10277535123E+04  0.25500000920E-02 0. -1.
</event>
<event>
 5   0  0.9252359E-06  0.2814208E+04  0.7818609E-02  0.8298871E-01
        2   -1    0    0  501    0  0.00000000000E+00  0.00000000000E+00  0.23465565391E+04  0.23465565391E+04  0.25500000920E-02 0. -1.
       -2   -1    0    0    0  501  0.00000000000E+00  0.00000000000E+00 -0.84376490903E+03  0.84376490903E+03  0.25500000920E-02 0.  1.
    10030    2    1    2    0    0  0.00000000000E+00  0.00000000000E+00  0.15027916300E+04  0.31903214481E+04  0.28142082828E+04 0.  0.
        5    1    3    3  502    0 -0.33307450874E+03  0.10815430645E+03  0.22963562588E+04  0.23229098432E+04  0.46999998093E+01 0. -1.
       -5    1    3    3    0  502  0.33307450874E+03 -0.10815430645E+03 -0.79356462873E+03  0.86741160492E+03  0.46999998093E+01 0.  1.
</event>
<event>
 5   0  0.3397882E-06  0.2807511E+04  0.7818609E-02  0.8300940E-01
       -1   -1    0    0    0  501  0.00000000000E+00  0.00000000000E+00  0.15233556267E+04  0.15233556267E+04  0.50400001928E-02 0.  1.
        1   -1    0    0  501    0  0.00000000000E+00  0.00000000000E+00 -0.12935453759E+04  0.12935453759E+04  0.50400001928E-02 0. -1.
    10030    2    1    2    0    0  0.00000000000E+00  0.00000000000E+00  0.22981025086E+03  0.28169010026E+04  0.28075110876E+04 0.  0.
        2    1    3    3  502    0 -0.89377692251E+03 -0.36180439552E+03 -0.90869814233E+03  0.13249422333E+04  0.25500000920E-02 0. -1.
       -2    1    3    3    0  502  0.89377692251E+03  0.36180439552E+03  0.11385083932E+04  0.14919587693E+04  0.25500000920E-02 0.  1.
</event>
<event>
 5   0  0.9342133E-06  0.2811568E+04  0.7818609E-02  0.8299686E-01
       -2   -1    0    0    0  501  0.00000000000E+00  0.00000000000E+00  0.10684451390E+04  0.10684451390E+04  0.25500000920E-02 0.  1.
        2   -1    0    0  501    0  0.00000000000E+00  0.00000000000E+00 -0.18496304162E+04  0.18496304162E+04  0.25500000920E-02 0. -1.
    10030    2    1    2    0    0  0.00000000000E+00  0.00000000000E+00 -0.78118527724E+03  0.29180755552E+04  0.28115679804E+04 0.  0.
        2    1    3    3  502    0  0.58469782753E+03 -0.52115190444E+03 -0.16021870942E+04  0.17833884439E+04  0.25500000920E-02 0. -1.
       -2    1    3    3    0  502 -0.58469782753E+03  0.52115190444E+03  0.82100181696E+03  0.11346871113E+04  0.25500000920E-02 0.  1.
</event>
<event>
 5   0  0.9065579E-06  0.2782685E+04  0.7818609E-02  0.8308664E-01
       -2   -1    0    0    0  501  0.00000000000E+00  0.00000000000E+00  0.17808968072E+04  0.17808968072E+04  0.25500000920E-02 0. -1.
        2   -1    0    0  501    0  0.00000000000E+00  0.00000000000E+00 -0.10869996719E+04  0.10869996719E+04  0.25500000920E-02 0.  1.
    10030    2    1    2    0    0  0.00000000000E+00  0.00000000000E+00  0.69389713536E+03  0.28678964791E+04  0.27826852105E+04 0.  0.
        3    1    3    3  502    0 -0.60479322246E+03  0.88441445874E+03 -0.56785278742E+03  0.12126089952E+04  0.10100000352E+00 0.  1.
       -3    1    3    3    0  502  0.60479322246E+03 -0.88441445874E+03  0.12617499228E+04  0.16552874840E+04  0.10100000352E+00 0. -1.
</event>
<event>
 5   0  0.3006875E-06  0.2680863E+04  0.7818609E-02  0.8341241E-01
       -3   -1    0    0    0  501  0.00000000000E+00  0.00000000000E+00  0.24577693866E+04  0.24577693887E+04  0.10100000352E+00 0. -1.
        3   -1    0    0  501    0  0.00000000000E+00  0.00000000000E+00 -0.73105157576E+03  0.73105158274E+03  0.10100000352E+00 0.  1.
    10030    2    1    2    0    0  0.00000000000E+00  0.00000000000E+00  0.17267178108E+04  0.31888209714E+04  0.26808626950E+04 0.  0.
        3    1    3    3  502    0  0.11828498530E+04  0.44831942717E+03  0.13908107057E+04  0.18800208809E+04  0.10100000352E+00 0. -1.
       -3    1    3    3    0  502 -0.11828498530E+04 -0.44831942717E+03  0.33590710518E+03  0.13088000905E+04  0.10100000352E+00 0.  1.
</event>
<event>
 5   0  0.3600963E-06  0.2787821E+04  0.7818609E-02  0.8307060E-01
       -1   -1    0    0    0  501  0.00000000000E+00  0.00000000000E+00  0.84544726397E+03  0.84544726398E+03  0.50400001928E-02 0.  1.
        1   -1    0    0  501    0  0.00000000000E+00  0.00000000000E+00 -0.22981754528E+04  0.22981754528E+04  0.50400001928E-02 0. -1.
    10030    2    1    2    0    0  0.00000000000E+00  0.00000000000E+00 -0.14527281888E+04  0.31436227168E+04  0.27878207609E+04 0.  0.
        5    1    3    3  502    0  0.21833365843E+03  0.70726086078E+03 -0.20582425363E+04  0.21872978627E+04  0.46999998093E+01 0. -1.
       -5    1    3    3    0  502 -0.21833365843E+03 -0.70726086078E+03  0.60551434751E+03  0.95632485413E+03  0.46999998093E+01 0.  1.
</event>
<event>
 5   0  0.9260173E-06  0.2799642E+04  0.7818609E-02  0.8303380E-01
       -2   -1    0    0    0  501  0.00000000000E+00  0.00000000000E+00  0.13418605703E+04  0.13418605703E+04  0.25500000920E-02 0.  1.
        2   -1    0    0  501    0  0.00000000000E+00  0.00000000000E+00 -0.14602847898E+04  0.14602847898E+04  0.25500000920E-02 0. -1.
    10030    2    1    2    0    0  0.00000000000E+00  0.00000000000E+00 -0.11842421957E+03  0.28021453601E+04  0.27996418206E+04 0.  0.
        1    1    3    3  502    0  0.40691989525E+02  0.13975096335E+04 -0.12862516865E+03  0.14040062136E+04  0.50400001928E-02 0. -1.
       -1    1    3    3    0  502 -0.40691989525E+02 -0.13975096335E+04  0.10200949089E+02  0.13981391465E+04  0.50400001928E-02 0.  1.
</event>
<event>
 5   0  0.3357244E-06  0.2786355E+04  0.7818609E-02  0.8307517E-01
        1   -1    0    0  501    0  0.00000000000E+00  0.00000000000E+00  0.62527886381E+03  0.62527886383E+03  0.50400001928E-02 0.  1.
       -1   -1    0    0    0  501  0.00000000000E+00  0.00000000000E+00 -0.31041248744E+04  0.31041248744E+04  0.50400001928E-02 0. -1.
    10030    2    1    2    0    0  0.00000000000E+00  0.00000000000E+00 -0.24788460106E+04  0.37294037382E+04  0.27863550919E+04 0.  0.
        4    1    3    3  502    0 -0.51319727330E+03 -0.20794099495E+02  0.49393140054E+03  0.71258240031E+03  0.12699999809E+01 0.  1.
       -4    1    3    3    0  502  0.51319727330E+03  0.20794099495E+02 -0.29727774111E+04  0.30168213379E+04  0.12699999809E+01 0. -1.
</event>
<event>
 5   0  0.3397882E-06  0.2802372E+04  0.7818609E-02  0.8302532E-01
        1   -1    0    0  501    0  0.00000000000E+00  0.00000000000E+00  0.18909631386E+04  0.18909631386E+04  0.50400001928E-02 0.  1.
       -1   -1    0    0    0  501  0.00000000000E+00  0.00000000000E+00 -0.10382659523E+04  0.10382659523E+04  0.50400001928E-02 0. -1.
    10030    2    1    2    0    0  0.00000000000E+00  0.00000000000E+00  0.85269718629E+03  0.29292290910E+04  0.28023723121E+04 0.  0.
        2    1    3    3  502    0  0.38009759491E+03 -0.76425705747E+02  0.18337802471E+04  0.18743172263E+04  0.25500000920E-02 0.  1.
       -2    1    3    3    0  502 -0.38009759491E+03  0.76425705747E+02 -0.98108306077E+03  0.10549118647E+04  0.25500000920E-02 0. -1.
</event>
<event>
 5   0  0.9426937E-06  0.2799794E+04  0.7818609E-02  0.8303332E-01
       -2   -1    0    0    0  501  0.00000000000E+00  0.00000000000E+00  0.21735233463E+04  0.21735233463E+04  0.25500000920E-02 0. -1.
        2   -1    0    0  501    0  0.00000000000E+00  0.00000000000E+00 -0.90162876650E+03  0.90162876650E+03  0.25500000920E-02 0.  1.
    10030    2    1    2    0    0  0.00000000000E+00  0.00000000000E+00  0.12718945798E+04  0.30751521128E+04  0.27997936879E+04 0.  0.
        4    1    3    3  502    0  0.11155397699E+03 -0.13187452674E+04  0.11370838662E+04  0.17448480455E+04  0.12699999809E+01 0. -1.
       -4    1    3    3    0  502 -0.11155397699E+03  0.13187452674E+04  0.13481071364E+03  0.13303040673E+04  0.12699999809E+01 0.  1.
</event>
<event>
 5   0  0.9342133E-06  0.2735433E+04  0.7818609E-02  0.8323599E-01
       -2   -1    0    0    0  501  0.00000000000E+00  0.00000000000E+00  0.14705316101E+04  0.14705316101E+04  0.25500000920E-02 0. -1.
        2   -1    0    0  501    0  0.00000000000E+00  0.00000000000E+00 -0.12720899890E+04  0.12720899890E+04  0.25500000920E-02 0.  1.
    10030    2    1    2    0    0  0.00000000000E+00  0.00000000000E+00  0.19844162111E+03  0.27426215992E+04  0.27354330844E+04 0.  0.
        2    1    3    3  502    0 -0.55714366249E+03  0.10460328346E+04  0.78369690319E+03  0.14208358764E+04  0.25500000920E-02 0. -1.
       -2    1    3    3    0  502  0.55714366249E+03 -0.10460328346E+04 -0.58525528208E+03  0.13217857227E+04  0.25500000920E-02 0.  1.
</event>
<event>
 5   0  0.9252359E-06  0.2757259E+04  0.7818609E-02  0.8316662E-01
        2   -1    0    0  501    0  0.00000000000E+00  0.00000000000E+00  0.20975859703E+04  0.20975859703E+04  0.25500000920E-02 0.  1.
       -2   -1    0    0    0  501  0.00000000000E+00  0.00000000000E+00 -0.90609814219E+03  0.90609814220E+03  0.25500000920E-02 0. -1.
    10030    2    1    2    0    0  0.00000000000E+00  0.00000000000E+00  0.11914878281E+04  0.30036841125E+04  0.27572586029E+04 0.  0.
        5    1    3    3  502    0 -0.54444575491E+03  0.11957390069E+04  0.14082948608E+03  0.13213886585E+04  0.46999998093E+01 0.  1.
       -5    1    3    3    0  502  0.54444575491E+03 -0.11957390069E+04  0.10506583420E+04  0.16822954540E+04  0.46999998093E+01 0. -1.
</event>
<event>
 5   0  0.3397882E-06  0.2803552E+04  0.7818609E-02  0.8302166E-01
       -1   -1    0    0    0  501  0.00000000000E+00  0.00000000000E+00  0.84941303972E+03  0.84941303974E+03  0.50400001928E-02 0. -1.
        1   -1    0    0  501    0  0.00000000000E+00  0.00000000000E+00 -0.23133337914E+04  0.23133337914E+04  0.50400001928E-02 0.  1.
    10030    2    1    2    0    0  0.00000000000E+00  0.00000000000E+00 -0.14639207516E+04  0.31627468311E+04  0.28035519525E+04 0.  0.
        2    1    3    3  502    0  0.10437333906E+04  0.31445817409E+03 -0.17261883605E+04  0.20415654753E+04  0.25500000920E-02 0.  1.
       -2    1    3    3    0  502 -0.10437333906E+04 -0.31445817409E+03  0.26226760887E+03  0.11211813558E+04  0.25500000920E-02 0. -1.
</event>
<event>
 5   0  0.9426937E-06  0.2780850E+04  0.7818609E-02  0.8309238E-01
       -2   -1    0    0    0  501  0.00000000000E+00  0.00000000000E+00  0.77111752929E+03  0.77111752929E+03  0.25500000920E-02 0. -1.
        2   -1    0    0  501    0  0.00000000000E+00  0.00000000000E+00 -0.25071166970E+04  0.25071166970E+04  0.25500000920E-02 0.  1.
    10030    2    1    2    0    0  0.00000000000E+00  0.00000000000E+00 -0.17359991677E+04  0.32782342263E+04  0.27808499658E+04 0.  0.
        4    1    3    3  502    0 -0.81188348356E+03  0.56130405920E+03 -0.20224784478E+04  0.22504749993E+04  0.12699999809E+01 0.  1.
       -4    1    3    3    0  502  0.81188348356E+03 -0.56130405920E+03  0.28647928013E+03  0.10277592270E+04  0.12699999809E+01 0. -1.
</event>
<event>
 5   0  0.9065579E-06  0.2806094E+04  0.7818609E-02  0.8301379E-01
        2   -1    0    0  501    0  0.00000000000E+00  0.00000000000E+00  0.21812671067E+04  0.21812671067E+04  0.25500000920E-02 0.  1.
       -2   -1    0    0    0  501  0.00000000000E+00  0.00000000000E+00 -0.90247590698E+03  0.90247590698E+03  0.25500000920E-02 0. -1.
    10030    2    1    2    0    0  0.00000000000E+00  0.00000000000E+00  0.12787911997E+04  0.30837430136E+04  0.28060940900E+04 0.  0.
        3    1    3    3  502    0  0.29750608672E+03 -0.13125259984E+04  0.10752580602E+04  0.17226184355E+04  0.10100000352E+00 0.  1.
       -3    1    3    3    0  502 -0.29750608672E+03  0.13125259984E+04  0.20353313944E+03  0.13611245781E+04  0.10100000352E+00 0. -1.
</event>
<event>
 5   0  0.3438130E-06  0.2808046E+04  0.7818609E-02  0.8300775E-01
       -1   -1    0    0    0  501  0.00000000000E+00  0.00000000000E+00  0.14781392373E+04  0.14781392373E+04  0.50400001928E-02 0. -1.
        1   -1    0    0  501    0  0.00000000000E+00  0.00000000000E+00 -0.13336234427E+04  0.13336234427E+04  0.50400001928E-02 0.  1.
    10030    2    1    2    0    0  0.00000000000E+00  0.00000000000E+00  0.14451579464E+03  0.28117626800E+04  0.28080463945E+04 0.  0.
        3    1    3    3  502    0  0.13148416271E+04 -0.43540268842E+03 -0.15804023097E+03  0.13940447375E+04  0.10100000352E+00 0. -1.
       -3    1    3    3    0  502 -0.13148416271E+04  0.43540268842E+03  0.30255602561E+03  0.14177179424E+04  0.10100000352E+00 0.  1.
</event>
<event>
 5   0  0.9065579E-06  0.2719214E+04  0.7818609E-02  0.8328798E-01
        2   -1    0    0  501    0  0.00000000000E+00  0.00000000000E+00  0.16773363969E+04  0.16773363969E+04  0.25500000920E-02 0. -1.
       -2   -1    0    0    0  501  0.00000000000E+00  0.00000000000E+00 -0.11020634987E+04  0.11020634987E+04  0.25500000920E-02 0.  1.
    10030    2    1    2    0    0  0.00000000000E+00  0.00000000000E+00  0.57527289818E+03  0.27793998956E+04  0.27192140173E+04 0.  0.
        3    1    3    3  502    0 -0.11346534391E+03 -0.15283322153E+03 -0.10883765972E+04  0.11048963777E+04  0.10100000352E+00 0.  1.
       -3    1    3    3    0  502  0.11346534391E+03  0.15283322153E+03  0.16636494954E+04  0.16745035179E+04  0.10100000352E+00 0. -1.
</event>
<event>
 5   0  0.3397882E-06  0.2840655E+04  0.7818609E-02  0.8290757E-01
       -1   -1    0    0    0  501  0.00000000000E+00  0.00000000000E+00  0.16024684615E+04  0.16024684615E+04  0.50400001928E-02 0. -1.
        1   -1    0    0  501    0  0.00000000000E+00  0.00000000000E+00 -0.12588888079E+04  0.12588888079E+04  0.50400001928E-02 0.  1.
    10030    2    1    2    0    0  0.00000000000E+00  0.00000000000E+00  0.34357965364E+03  0.28613572694E+04  0.28406545803E+04 0.  0.
        2    1    3    3  502    0  0.61265999714E+03 -0.11078575511E+04  0.82039960180E+03  0.15085609475E+04  0.25500000920E-02 0. -1.
       -2    1    3    3    0  502 -0.61265999714E+03  0.11078575511E+04 -0.47681994817E+03  0.13527963219E+04  0.25500000920E-02 0.  1.
</event>
<event>
 5   0  0.3371603E-06  0.2767217E+04  0.7818609E-02  0.8313519E-01
       -1   -1    0    0    0  501  0.00000000000E+00  0.00000000000E+00  0.18477792517E+04  0.18477792517E+04  0.50400001928E-02 0.  1.
        1   -1    0    0  501    0  0.00000000000E+00  0.00000000000E+00 -0.10360394591E+04  0.10360394591E+04  0.50400001928E-02 0. -1.
    10030    2    1    2    0    0  0.00000000000E+00  0.00000000000E+00  0.81173979262E+03  0.28838187108E+04  0.27672168086E+04 0.  0.
        1    1    3    3  502    0 -0.48204838513E+03 -0.12244036174E+04 -0.39742465594E+02  0.13164780012E+04  0.50400001928E-02 0. -1.
       -1    1    3    3    0  502  0.48204838513E+03  0.12244036174E+04  0.85148225821E+03  0.15673407096E+04  0.50400001928E-02 0.  1.
</event>
<event>
 5   0  0.9426937E-06  0.2778382E+04  0.7818609E-02  0.8310011E-01
        2   -1    0    0  501    0  0.00000000000E+00  0.00000000000E+00  0.20032687942E+04  0.20032687942E+04  0.25500000920E-02 0.  1.
       -2   -1    0    0    0  501  0.00000000000E+00  0.00000000000E+00 -0.96335139407E+03  0.96335139407E+03  0.25500000920E-02 0. -1.
    10030    2    1    2    0    0  0.00000000000E+00  0.00000000000E+00  0.10399174001E+04  0.29666201882E+04  0.27783821088E+04 0.  0.
        4    1    3    3  502    0 -0.12155705344E+04 -0.30504641348E+03 -0.11996640890E+03  0.12589911003E+04  0.12699999809E+01 0. -1.
       -4    1    3    3    0  502  0.12155705344E+04  0.30504641348E+03  0.11598838090E+04  0.17076290879E+04  0.12699999809E+01 0.  1.
</event>
<event>
 5   0  0.9426937E-06  0.2787572E+04  0.7818609E-02  0.8307137E-01
       -2   -1    0    0    0  501  0.00000000000E+00  0.00000000000E+00  0.13032322543E+04  0.13032322543E+04  0.25500000920E-02 0.  1.
        2   -1    0    0  501    0  0.00000000000E+00  0.00000000000E+00 -0.14906319436E+04  0.14906319436E+04  0.25500000920E-02 0. -1.
    10030    2    1    2    0    0  0.00000000000E+00  0.00000000000E+00 -0.18739968929E+03  0.27938641979E+04  0.27875721538E+04 0.  0.
        4    1    3    3  502    0 -0.12156403401E+04  0.67913368436E+03 -0.15411872800E+03  0.14009847226E+04  0.12699999809E+01 0. -1.
       -4    1    3    3    0  502  0.12156403401E+04 -0.67913368436E+03 -0.33280961299E+02  0.13928794754E+04  0.12699999809E+01 0.  1.
</event>
<event>
 5   0  0.9426937E-06  0.2727306E+04  0.7818609E-02  0.8326199E-01
        2   -1    0    0  501    0  0.00000000000E+00  0.00000000000E+00  0.14382718806E+04  0.14382718806E+04  0.25500000920E-02 0. -1.
       -2   -1    0    0    0  501  0.00000000000E+00  0.00000000000E+00 -0.12929058174E+04  0.12929058174E+04  0.25500000920E-02 0.  1.
    10030    2    1    2    0    0  0.00000000000E+00  0.00000000000E+00  0.14536606314E+03  0.27311776980E+04  0.27273064232E+04 0.  0.
        4    1    3    3  502    0 -0.92266994409E+03 -0.30038924011E+03  0.10321635642E+04  0.14166568948E+04  0.12699999809E+01 0. -1.
       -4    1    3    3    0  502  0.92266994409E+03  0.30038924011E+03 -0.88679750109E+03  0.13145208032E+04  0.12699999809E+01 0.  1.
</event>
<event>
 5   0  0.3371603E-06  0.2916284E+04  0.7818609E-02  0.8268049E-01
        1   -1    0    0  501    0  0.00000000000E+00  0.00000000000E+00  0.19880615085E+04  0.19880615085E+04  0.50400001928E-02 0. -1.
       -1   -1    0    0    0  501  0.00000000000E+00  0.00000000000E+00 -0.10694728738E+04  0.10694728738E+04  0.50400001928E-02 0.  1.
    10030    2    1    2    0    0  0.00000000000E+00  0.00000000000E+00  0.91858863468E+03  0.30575343823E+04  0.29162838372E+04 0.  0.
        1    1    3    3  502    0 -0.12110564387E+04 -0.21143560577E+03 -0.36278521581E+03  0.12817861857E+04  0.50400001928E-02 0.  1.
       -1    1    3    3    0  502  0.12110564387E+04  0.21143560577E+03  0.12813738505E+04  0.17757481966E+04  0.50400001928E-02 0. -1.
</event>
<event>
 5   0  0.9252359E-06  0.2789441E+04  0.7818609E-02  0.8306554E-01
       -2   -1    0    0    0  501  0.00000000000E+00  0.00000000000E+00  0.75641773713E+03  0.75641773713E+03  0.25500000920E-02 0.  1.
        2   -1    0    0  501    0  0.00000000000E+00  0.00000000000E+00 -0.25716555826E+04  0.25716555826E+04  0.25500000920E-02 0. -1.
    10030    2    1    2    0    0  0.00000000000E+00  0.00000000000E+00 -0.18152378455E+04  0.33280733198E+04  0.27894414470E+04 0.  0.
        5    1    3    3  502    0  0.19061868305E+03 -0.18639966990E+03 -0.25409606416E+04  0.25549135781E+04  0.46999998093E+01 0. -1.
       -5    1    3    3    0  502 -0.19061868305E+03  0.18639966990E+03  0.72572279614E+03  0.77315974165E+03  0.46999998093E+01 0.  1.
</event>
<event>
 5   0  0.9065579E-06  0.2849483E+04  0.7818609E-02  0.8288069E-01
        2   -1    0    0  501    0  0.00000000000E+00  0.00000000000E+00  0.21072761628E+04  0.21072761628E+04  0.25500000920E-02 0. -1.
       -2   -1    0    0    0  501  0.00000000000E+00  0.00000000000E+00 -0.96327571604E+03  0.96327571604E+03  0.25500000920E-02 0.  1.
    10030    2    1    2    0    0  0.00000000000E+00  0.00000000000E+00  0.11440004468E+04  0.30705518788E+04  0.28494827282E+04 0.  0.
        3    1    3    3  502    0  0.50618961747E+03 -0.38788558985E+03  0.19448944151E+04  0.20467773342E+04  0.10100000352E+00 0. -1.
       -3    1    3    3    0  502 -0.50618961747E+03  0.38788558985E+03 -0.80089396831E+03  0.10237745447E+04  0.10100000352E+00 0.  1.
</event>
<event>
 5   0  0.3397882E-06  0.2854882E+04  0.7818609E-02  0.8286429E-01
       -1   -1    0    0    0  501  0.00000000000E+00  0.00000000000E+00  0.12068695321E+04  0.12068695322E+04  0.50400001928E-02 0. -1.
        1   -1    0    0  501    0  0.00000000000E+00  0.00000000000E+00 -0.16883244925E+04  0.16883244925E+04  0.50400001928E-02 0.  1.
    10030    2    1    2    0    0  0.00000000000E+00  0.00000000000E+00 -0.48145496035E+03  0.28951940247E+04  0.28548817071E+04 0.  0.
        2    1    3    3  502    0  0.12010591354E+04  0.43796315426E+03 -0.88470007285E+03  0.15546861388E+04  0.25500000920E-02 0.  1.
       -2    1    3    3    0  502 -0.12010591354E+04 -0.43796315426E+03  0.40324511249E+03  0.13405078859E+04  0.25500000920E-02 0. -1.
</event>
<event>
 5   0  0.3371603E-06  0.2802541E+04  0.7818609E-02  0.8302480E-01
        1   -1    0    0  501    0  0.00000000000E+00  0.00000000000E+00  0.12128133151E+04  0.12128133151E+04  0.50400001928E-02 0.  1.
       -1   -1    0    0    0  501  0.00000000000E+00  0.00000000000E+00 -0.16190119727E+04  0.16190119728E+04  0.50400001928E-02 0. -1.
    10030    2    1    2    0    0  0.00000000000E+00  0.00000000000E+00 -0.40619865766E+03  0.28318252879E+04  0.28025411882E+04 0.  0.
        1    1    3    3  502    0  0.27481601929E+03 -0.69019316980E+03  0.99745236021E+03  0.12437048151E+04  0.50400001928E-02 0.  1.
       -1    1    3    3    0  502 -0.27481601929E+03  0.69019316980E+03 -0.14036510179E+04  0.15881204728E+04  0.50400001928E-02 0. -1.
</event>
<event>
 5   0  0.3397882E-06  0.2778433E+04  0.7818609E-02  0.8309995E-01
       -1   -1    0    0    0  501  0.00000000000E+00  0.00000000000E+00  0.27754092522E+04  0.27754092522E+04  0.50400001928E-02 0.  1.
        1   -1    0    0  501    0  0.00000000000E+00  0.00000000000E+00 -0.69536510838E+03  0.69536510839E+03  0.50400001928E-02 0. -1.
    10030    2    1    2    0    0  0.00000000000E+00  0.00000000000E+00  0.20800441438E+04  0.34707743605E+04  0.27784331955E+04 0.  0.
        2    1    3    3  502    0  0.90889997329E+03  0.10306524586E+04  0.12947426211E+04  0.18880418710E+04  0.25500000920E-02 0.  1.
       -2    1    3    3    0  502 -0.90889997329E+03 -0.10306524586E+04  0.78530152271E+03  0.15827324895E+04  0.25500000920E-02 0. -1.
</event>
<event>
 5   0  0.9065579E-06  0.2621335E+04  0.7818609E-02  0.8360990E-01
        2   -1    0    0  501    0  0.00000000000E+00  0.00000000000E+00  0.14621815934E+04  0.14621815934E+04  0.25500000920E-02 0. -1.
       -2   -1    0    0    0  501  0.00000000000E+00  0.00000000000E+00 -0.11748533962E+04  0.11748533962E+04  0.25500000920E-02 0.  1.
    10030    2    1    2    0    0  0.00000000000E+00  0.00000000000E+00  0.28732819712E+03  0.26370349896E+04  0.26213347828E+04 0.  0.
        3    1    3    3  502    0 -0.68346068112E+03  0.10555779784E+04  0.51531643368E+03  0.13590122914E+04  0.10100000352E+00 0. -1.
       -3    1    3    3    0  502  0.68346068112E+03 -0.10555779784E+04 -0.22798823656E+03  0.12780226983E+04  0.10100000352E+00 0.  1.
</event>
<event>
 5   0  0.3397882E-06  0.2778434E+04  0.7818609E-02  0.8309995E-01
       -1   -1    0    0    0  501  0.00000000000E+00  0.00000000000E+00  0.15796445233E+04  0.15796445233E+04  0.50400001928E-02 0.  1.
        1   -1    0    0  501    0  0.00000000000E+00  0.00000000000E+00 -0.12217461192E+04  0.12217461192E+04  0.50400001928E-02 0. -1.
    10030    2    1    2    0    0  0.00000000000E+00  0.00000000000E+00  0.35789840410E+03  0.28013906425E+04  0.27784344988E+04 0.  0.
        2    1    3    3  502    0  0.41314975969E+03  0.68261197653E+03 -0.96766831203E+03  0.12542064410E+04  0.25500000920E-02 0. -1.
       -2    1    3    3    0  502 -0.41314975969E+03 -0.68261197653E+03  0.13255667161E+04  0.15471842015E+04  0.25500000920E-02 0.  1.
</event>
<event>
 5   0  0.9426937E-06  0.2810676E+04  0.7818609E-02  0.8299962E-01
        2   -1    0    0  501    0  0.00000000000E+00  0.00000000000E+00  0.14069335033E+04  0.14069335033E+04  0.25500000920E-02 0.  1.
       -2   -1    0    0    0  501  0.00000000000E+00  0.00000000000E+00 -0.14037438205E+04  0.14037438205E+04  0.25500000920E-02 0. -1.
    10030    2    1    2    0    0  0.00000000000E+00  0.00000000000E+00  0.31896828187E+01  0.28106773239E+04  0.28106755140E+04 0.  0.
        4    1    3    3  502    0  0.70043145642E+02  0.12879126508E+04  0.55958046921E+03  0.14059718891E+04  0.12699999809E+01 0.  1.
       -4    1    3    3    0  502 -0.70043145642E+02 -0.12879126508E+04 -0.55639078640E+03  0.14047054348E+04  0.12699999809E+01 0. -1.
</event>
<event>
 5   0  0.3438130E-06  0.2798571E+04  0.7818609E-02  0.8303712E-01
       -1   -1    0    0    0  501  0.00000000000E+00  0.00000000000E+00  0.14126097412E+04  0.14126097412E+04  0.50400001928E-02 0.  1.
        1   -1    0    0  501    0  0.00000000000E+00  0.00000000000E+00 -0.13860867100E+04  0.13860867100E+04  0.50400001928E-02 0. -1.
    10030    2    1    2    0    0  0.00000000000E+00  0.00000000000E+00  0.26523031211E+02  0.27986964512E+04  0.27985707700E+04 0.  0.
        3    1    3    3  502    0  0.75760688362E+03 -0.70278237437E+03 -0.93024697616E+03  0.13904066681E+04  0.10100000352E+00 0. -1.
       -3    1    3    3    0  502 -0.75760688362E+03  0.70278237437E+03  0.95677000737E+03  0.14082897831E+04  0.10100000352E+00 0.  1.
</event>
<event>
 5   0  0.3371603E-06  0.2773187E+04  0.7818609E-02  0.8311641E-01
       -1   -1    0    0    0  501  0.00000000000E+00  0.00000000000E+00  0.89059776601E+03  0.89059776603E+03  0.50400001928E-02 0.  1.
        1   -1    0    0  501    0  0.00000000000E+00  0.00000000000E+00 -0.21588220640E+04  0.21588220641E+04  0.50400001928E-02 0. -1.
    10030    2    1    2    0    0  0.00000000000E+00  0.00000000000E+00 -0.12682242980E+04  0.30494198301E+04  0.27731874134E+04 0.  0.
        1    1    3    3  502    0  0.78266826814E+02  0.10495428586E+04 -0.16267948704E+04  0.19375570852E+04  0.50400001928E-02 0. -1.
       -1    1    3    3    0  502 -0.78266826814E+02 -0.10495428586E+04  0.35857057231E+03  0.11118627449E+04  0.50400001928E-02 0.  1.
</event>
<event>
 5   0  0.9426937E-06  0.2787477E+04  0.7818609E-02  0.8307167E-01
       -2   -1    0    0    0  501  0.00000000000E+00  0.00000000000E+00  0.10985675140E+04  0.10985675140E+04  0.25500000920E-02 0.  1.
        2   -1    0    0  501    0  0.00000000000E+00  0.00000000000E+00 -0.17682180494E+04  0.17682180494E+04  0.25500000920E-02 0. -1.
    10030    2    1    2    0    0  0.00000000000E+00  0.00000000000E+00 -0.66965053539E+03  0.28667855634E+04  0.27874769285E+04 0.  0.
        4    1    3    3  502    0  0.96968311834E+03 -0.98563867965E+03 -0.51513118583E+03  0.14755103213E+04  0.12699999809E+01 0. -1.
       -4    1    3    3    0  502 -0.96968311834E+03  0.98563867965E+03 -0.15451934955E+03  0.13912752420E+04  0.12699999809E+01 0.  1.
</event>
<event>
 5   0  0.9252359E-06  0.2752768E+04  0.7818609E-02  0.8318084E-01
       -2   -1    0    0    0  501  0.00000000000E+00  0.00000000000E+00  0.96996799763E+03  0.96996799763E+03  0.25500000920E-02 0. -1.
        2   -1    0    0  501    0  0.00000000000E+00  0.00000000000E+00 -0.19530876114E+04  0.19530876114E+04  0.25500000920E-02 0.  1.
    10030    2    1    2    0    0  0.00000000000E+00  0.00000000000E+00 -0.98311961381E+03  0.29230556091E+04  0.27527676834E+04 0.  0.
        5    1    3    3  502    0  0.53147108621E+03 -0.83794693949E+03  0.52127589843E+03  0.11208778886E+04  0.46999998093E+01 0. -1.
       -5    1    3    3    0  502 -0.53147108621E+03  0.83794693949E+03 -0.15043955122E+04  0.18021777205E+04  0.46999998093E+01 0.  1.
</event>
<event>
 5   0  0.3397882E-06  0.2861058E+04  0.7818609E-02  0.8284559E-01
       -1   -1    0    0    0  501  0.00000000000E+00  0.00000000000E+00  0.12217843873E+04  0.12217843873E+04  0.50400001928E-02 0. -1.
        1   -1    0    0  501    0  0.00000000000E+00  0.00000000000E+00 -0.16749383416E+04  0.16749383416E+04  0.50400001928E-02 0.  1.
    10030    2    1    2    0    0  0.00000000000E+00  0.00000000000E+00 -0.45315395423E+03  0.28967227289E+04  0.28610582067E+04 0.  0.
        2    1    3    3  502    0 -0.35296036789E+03 -0.12822674021E+04 -0.76004427467E+03  0.15318152667E+04  0.25500000920E-02 0.  1.
       -2    1    3    3    0  502  0.35296036789E+03  0.12822674021E+04  0.30689032045E+03  0.13649074622E+04  0.25500000920E-02 0. -1.
</event>
<event>
 5   0  0.3357244E-06  0.2807866E+04  0.7818609E-02  0.8300831E-01
       -1   -1    0    0    0  501  0.00000000000E+00  0.00000000000E+00  0.13167155109E+04  0.13167155109E+04  0.50400001928E-02 0.  1.
        1   -1    0    0  501    0  0.00000000000E+00  0.00000000000E+00 -0.14969273233E+04  0.14969273233E+04  0.50400001928E-02 0. -1.
    10030    2    1    2    0    0  0.00000000000E+00  0.00000000000E+00 -0.18021181242E+03  0.28136428342E+04  0.28078656843E+04 0.  0.
        4    1    3    3  502    0 -0.12575422774E+04 -0.47517861945E+03 -0.49568366119E+03  0.14327983824E+04  0.12699999809E+01 0. -1.
       -4    1    3    3    0  502  0.12575422774E+04  0.47517861945E+03  0.31547184877E+03  0.13808444518E+04  0.12699999809E+01 0.  1.
</event>
<event>
 5   0  0.3371603E-06  0.2812883E+04  0.7818609E-02  0.8299280E-01
       -1   -1    0    0    0  501  0.00000000000E+00  0.00000000000E+00  0.88074573633E+03  0.88074573634E+03  0.50400001928E-02 0.  1.
        1   -1    0    0  501    0  0.00000000000E+00  0.00000000000E+00 -0.22459124044E+04  0.22459124044E+04  0.50400001928E-02 0. -1.
    10030    2    1    2    0    0  0.00000000000E+00  0.00000000000E+00 -0.13651666681E+04  0.31266581408E+04  0.28128830579E+04 0.  0.
        1    1    3    3  502    0  0.10967689343E+04  0.77550555666E+03 -0.21923016560E+03  0.13610190407E+04  0.50400001928E-02 0.  1.
       -1    1    3    3    0  502 -0.10967689343E+04 -0.77550555666E+03 -0.11459365025E+04  0.17656391000E+04  0.50400001928E-02 0. -1.
</event>
<event>
 5   0  0.3600963E-06  0.2545909E+04  0.7818609E-02  0.8386810E-01
        1   -1    0    0  501    0  0.00000000000E+00  0.00000000000E+00  0.20449156058E+04  0.20449156058E+04  0.50400001928E-02 0. -1.
       -1   -1    0    0    0  501  0.00000000000E+00  0.00000000000E+00 -0.79241091297E+03  0.79241091299E+03  0.50400001928E-02 0.  1.
    10030    2    1    2    0    0  0.00000000000E+00  0.00000000000E+00  0.12525046928E+04  0.28373265188E+04  0.25459092224E+04 0.  0.
        5    1    3    3  502    0  0.38311353064E+02  0.12593559056E+04  0.42396454404E+03  0.13293656688E+04  0.46999998093E+01 0.  1.
       -5    1    3    3    0  502 -0.38311353064E+02 -0.12593559056E+04  0.82854014875E+03  0.15079608499E+04  0.46999998093E+01 0. -1.
</event>
<event>
 5   0  0.3438130E-06  0.2721648E+04  0.7818609E-02  0.8328015E-01
       -1   -1    0    0    0  501  0.00000000000E+00  0.00000000000E+00  0.15664077059E+04  0.15664077059E+04  0.50400001928E-02 0. -1.
        1   -1    0    0  501    0  0.00000000000E+00  0.00000000000E+00 -0.11822219492E+04  0.11822219492E+04  0.50400001928E-02 0.  1.
    10030    2    1    2    0    0  0.00000000000E+00  0.00000000000E+00  0.38418575672E+03  0.27486296551E+04  0.27216477151E+04 0.  0.
        3    1    3    3  502    0  0.44296539051E+03 -0.12435695660E+04  0.52575892806E+03  0.14209525197E+04  0.10100000352E+00 0.  1.
       -3    1    3    3    0  502 -0.44296539051E+03  0.12435695660E+04 -0.14157317134E+03  0.13276771354E+04  0.10100000352E+00 0. -1.
</event>
<event>
 5   0  0.9260173E-06  0.2883994E+04  0.7818609E-02  0.8277656E-01
        2   -1    0    0  501    0  0.00000000000E+00  0.00000000000E+00  0.16554012266E+04  0.16554012266E+04  0.25500000920E-02 0.  1.
       -2   -1    0    0    0  501  0.00000000000E+00  0.00000000000E+00 -0.12561034411E+04  0.12561034411E+04  0.25500000920E-02 0. -1.
    10030    2    1    2    0    0  0.00000000000E+00  0.00000000000E+00  0.39929778551E+03  0.29115046677E+04  0.28839938815E+04 0.  0.
        1    1    3    3  502    0 -0.48165882787E+03 -0.13252607315E+04  0.50426207107E+03  0.14975284536E+04  0.50400001928E-02 0.  1.
       -1    1    3    3    0  502  0.48165882787E+03  0.13252607315E+04 -0.10496428556E+03  0.14139762142E+04  0.50400001928E-02 0. -1.
</event>
<event>
 5   0  0.3600963E-06  0.2777399E+04  0.7818609E-02  0.8310319E-01
        1   -1    0    0  501    0  0.00000000000E+00  0.00000000000E+00  0.14678040544E+04  0.14678040544E+04  0.50400001928E-02 0. -1.
       -1   -1    0    0    0  501  0.00000000000E+00  0.00000000000E+00 -0.13138585527E+04  0.13138585527E+04  0.50400001928E-02 0.  1.
    10030    2    1    2    0    0  0.00000000000E+00  0.00000000000E+00  0.15394550171E+03  0.27816626071E+04  0.27773994387E+04 0.  0.
        5    1    3    3  502    0  0.35874737791E+03 -0.13314356182E+04  0.24167679146E+03  0.13999465162E+04  0.46999998093E+01 0.  1.
       -5    1    3    3    0  502 -0.35874737791E+03  0.13314356182E+04 -0.87731289744E+02  0.13817160909E+04  0.46999998093E+01 0. -1.
</event>
<event>
 5   0  0.3371603E-06  0.2793687E+04  0.7818609E-02  0.8305231E-01
        1   -1    0    0  501    0  0.00000000000E+00  0.00000000000E+00  0.10844381477E+04  0.10844381477E+04  0.50400001928E-02 0. -1.
       -1   -1    0    0    0  501  0.00000000000E+00  0.00000000000E+00 -0.17992472953E+04  0.17992472953E+04  0.50400001928E-02 0.  1.
    10030    2    1    2    0    0  0.00000000000E+00  0.00000000000E+00 -0.71480914768E+03  0.28836854430E+04  0.27936874587E+04 0.  0.
        1    1    3    3  502    0  0.90452196215E+03  0.57535308612E+03  0.56697890400E+03  0.12127061603E+04  0.50400001928E-02 0. -1.
       -1    1    3    3    0  502 -0.90452196215E+03 -0.57535308612E+03 -0.12817880517E+04  0.16709792827E+04  0.50400001928E-02 0.  1.
</event>
<event>
 5   0  0.3438130E-06  0.2797141E+04  0.7818609E-02  0.8304156E-01
        1   -1    0    0  501    0  0.00000000000E+00  0.00000000000E+00  0.20228321997E+04  0.20228321997E+04  0.50400001928E-02 0.  1.
       -1   -1    0    0    0  501  0.00000000000E+00  0.00000000000E+00 -0.96696105624E+03  0.96696105625E+03  0.50400001928E-02 0. -1.
    10030    2    1    2    0    0  0.00000000000E+00  0.00000000000E+00  0.10558711434E+04  0.29897932559E+04  0.27971413696E+04 0.  0.
        3    1    3    3  502    0 -0.25306435004E+03  0.10454910779E+04  0.14833126071E+04  0.18322962260E+04  0.10100000352E+00 0.  1.
       -3    1    3    3    0  502  0.25306435004E+03 -0.10454910779E+04 -0.42744146367E+03  0.11574970299E+04  0.10100000352E+00 0. -1.
</event>
<event>
 5   0  0.3357244E-06  0.2805171E+04  0.7818609E-02  0.8301665E-01
        1   -1    0    0  501    0  0.00000000000E+00  0.00000000000E+00  0.91065210100E+03  0.91065210101E+03  0.50400001928E-02 0. -1.
       -1   -1    0    0    0  501  0.00000000000E+00  0.00000000000E+00 -0.21602612848E+04  0.21602612848E+04  0.50400001928E-02 0.  1.
    10030    2    1    2    0    0  0.00000000000E+00  0.00000000000E+00 -0.12496091838E+04  0.30709133858E+04  0.28051712801E+04 0.  0.
        4    1    3    3  502    0  0.13942379635E+04 -0.31767016982E+02 -0.46119338523E+03  0.14688803878E+04  0.12699999809E+01 0. -1.
       -4    1    3    3    0  502 -0.13942379635E+04  0.31767016982E+02 -0.78841579855E+03  0.16020329980E+04  0.12699999809E+01 0.  1.
</event>
<event>
 5   0  0.3438130E-06  0.2762707E+04  0.7818609E-02  0.8314941E-01
        1   -1    0    0  501    0  0.00000000000E+00  0.00000000000E+00  0.19027165639E+04  0.19027165639E+04  0.50400001928E-02 0.  1.
       -1   -1    0    0    0  501  0.00000000000E+00  0.00000000000E+00 -0.10028487652E+04  0.10028487652E+04  0.50400001928E-02 0. -1.
    10030    2    1    2    0    0  0.00000000000E+00  0.00000000000E+00  0.89986779870E+03  0.29055653291E+04  0.27627066124E+04 0.  0.
        3    1    3    3  502    0 -0.38466876658E+03  0.12594982319E+04  0.11443989373E+02  0.13169801940E+04  0.10100000352E+00 0. -1.
       -3    1    3    3    0  502  0.38466876658E+03 -0.12594982319E+04  0.88842380933E+03  0.15885851351E+04  0.10100000352E+00 0.  1.
</event>
<event>
 5   0  0.9260173E-06  0.2782192E+04  0.7818609E-02  0.8308818E-01
        2   -1    0    0  501    0  0.00000000000E+00  0.00000000000E+00  0.12120373498E+04  0.12120373498E+04  0.25500000920E-02 0.  1.
       -2   -1    0    0    0  501  0.00000000000E+00  0.00000000000E+00 -0.15966077220E+04  0.15966077220E+04  0.25500000920E-02 0. -1.
    10030    2    1    2    0    0  0.00000000000E+00  0.00000000000E+00 -0.38457037215E+03  0.28086450718E+04  0.27821920796E+04 0.  0.
        1    1    3    3  502    0  0.50770236405E+03  0.59116639758E+03  0.97102056234E+03  0.12450382856E+04  0.50400001928E-02 0.  1.
       -1    1    3    3    0  502 -0.50770236405E+03 -0.59116639758E+03 -0.13555909345E+04  0.15636067862E+04  0.50400001928E-02 0. -1.
</event>
<event>
 5   0  0.9252359E-06  0.2798348E+04  0.7818609E-02  0.8303782E-01
       -2   -1    0    0    0  501  0.00000000000E+00  0.00000000000E+00  0.10147895108E+04  0.10147895108E+04  0.25500000920E-02 0.  1.
        2   -1    0    0  501    0  0.00000000000E+00  0.00000000000E+00 -0.19291559575E+04  0.19291559575E+04  0.25500000920E-02 0. -1.
    10030    2    1    2    0    0  0.00000000000E+00  0.00000000000E+00 -0.91436644667E+03  0.29439454684E+04  0.27983475342E+04 0.  0.
        5    1    3    3  502    0  0.51201031620E+03 -0.93334485636E+03  0.49801014034E+03  0.11752971431E+04  0.46999998093E+01 0.  1.
       -5    1    3    3    0  502 -0.51201031620E+03  0.93334485636E+03 -0.14123765870E+04  0.17686483252E+04  0.46999998093E+01 0. -1.
</event>
<event>
 5   0  0.3438130E-06  0.2797230E+04  0.7818609E-02  0.8304129E-01
       -1   -1    0    0    0  501  0.00000000000E+00  0.00000000000E+00  0.16113457591E+04  0.16113457591E+04  0.50400001928E-02 0. -1.
        1   -1    0    0  501    0  0.00000000000E+00  0.00000000000E+00 -0.12139694979E+04  0.12139694979E+04  0.50400001928E-02 0.  1.
    10030    2    1    2    0    0  0.00000000000E+00  0.00000000000E+00  0.39737626127E+03  0.28253152570E+04  0.27972304890E+04 0.  0.
        3    1    3    3  502    0 -0.97359601757E+03 -0.83937368634E+03 -0.35792302464E+03  0.13343711225E+04  0.10100000352E+00 0.  1.
       -3    1    3    3    0  502  0.97359601757E+03  0.83937368634E+03  0.75529928591E+03  0.14909441345E+04  0.10100000352E+00 0. -1.
</event>
<event>
 5   0  0.3397882E-06  0.2874565E+04  0.7818609E-02  0.8280486E-01
        1   -1    0    0  501    0  0.00000000000E+00  0.00000000000E+00  0.11481172217E+04  0.11481172217E+04  0.50400001928E-02 0.  1.
       -1   -1    0    0    0  501  0.00000000000E+00  0.00000000000E+00 -0.17992773722E+04  0.17992773722E+04  0.50400001928E-02 0. -1.
    10030    2    1    2    0    0  0.00000000000E+00  0.00000000000E+00 -0.65116015054E+03  0.29473945939E+04  0.28745652455E+04 0.  0.
        2    1    3    3  502    0  0.11334573828E+04 -0.77311680630E+03 -0.76461791595E+03  0.15706927746E+04  0.25500000920E-02 0. -1.
       -2    1    3    3    0  502 -0.11334573828E+04  0.77311680630E+03  0.11345776540E+03  0.13767018193E+04  0.25500000920E-02 0.  1.
</event>
<event>
 5   0  0.3357244E-06  0.2809998E+04  0.7818609E-02  0.8300171E-01
        1   -1    0    0  501    0  0.00000000000E+00  0.00000000000E+00  0.21169041555E+04  0.21169041555E+04  0.50400001928E-02 0.  1.
       -1   -1    0    0    0  501  0.00000000000E+00  0.00000000000E+00 -0.93250443716E+03  0.93250443717E+03  0.50400001928E-02 0. -1.
    10030    2    1    2    0    0  0.00000000000E+00  0.00000000000E+00  0.11843997183E+04  0.30494085926E+04  0.28099982335E+04 0.  0.
        4    1    3    3  502    0  0.51082960147E+03  0.71234302079E+02 -0.82605234625E+03  0.97385075816E+03  0.12699999809E+01 0. -1.
       -4    1    3    3    0  502 -0.51082960147E+03 -0.71234302079E+02  0.20104520646E+04  0.20755578345E+04  0.12699999809E+01 0.  1.
</event>
<event>
 5   0  0.3397882E-06  0.2707826E+04  0.7818609E-02  0.8332470E-01
       -1   -1    0    0    0  501  0.00000000000E+00  0.00000000000E+00  0.76986521873E+03  0.76986521875E+03  0.50400001928E-02 0.  1.
        1   -1    0    0  501    0  0.00000000000E+00  0.00000000000E+00 -0.23810398964E+04  0.23810398964E+04  0.50400001928E-02 0. -1.
    10030    2    1    2    0    0  0.00000000000E+00  0.00000000000E+00 -0.16111746777E+04  0.31509051151E+04  0.27078255488E+04 0.  0.
        2    1    3    3  502    0  0.46159843717E+03  0.82478884246E+03  0.32243110503E+03  0.99865487999E+03  0.25500000920E-02 0.  1.
       -2    1    3    3    0  502 -0.46159843717E+03 -0.82478884246E+03 -0.19336057827E+04  0.21522502351E+04  0.25500000920E-02 0. -1.
</event>
<event>
 5   0  0.3371603E-06  0.2827604E+04  0.7818609E-02  0.8294749E-01
       -1   -1    0    0    0  501  0.00000000000E+00  0.00000000000E+00  0.87857579213E+03  0.87857579214E+03  0.50400001928E-02 0. -1.
        1   -1    0    0  501    0  0.00000000000E+00  0.00000000000E+00 -0.22750871843E+04  0.22750871843E+04  0.50400001928E-02 0.  1.
    10030    2    1    2    0    0  0.00000000000E+00  0.00000000000E+00 -0.13965113922E+04  0.31536629765E+04  0.28276043041E+04 0.  0.
        1    1    3    3  502    0  0.13180791090E+04  0.76007820301E+02 -0.13424834238E+03  0.13270766157E+04  0.50400001928E-02 0. -1.
       -1    1    3    3    0  502 -0.13180791090E+04 -0.76007820301E+02 -0.12622630498E+04  0.18265863608E+04  0.50400001928E-02 0.  1.
</event>
<event>
 5   0  0.3600963E-06  0.2815524E+04  0.7818609E-02  0.8298465E-01
        1   -1    0    0  501    0  0.00000000000E+00  0.00000000000E+00  0.92249884069E+03  0.92249884070E+03  0.50400001928E-02 0. -1.
       -1   -1    0    0    0  501  0.00000000000E+00  0.00000000000E+00 -0.21482884156E+04  0.21482884156E+04  0.50400001928E-02 0.  1.
    10030    2    1    2    0    0  0.00000000000E+00  0.00000000000E+00 -0.12257895749E+04  0.30707872563E+04  0.28155238041E+04 0.  0.
        5    1    3    3  502    0 -0.81442819266E+03  0.39782866701E+02 -0.18644966108E+04  0.20350050759E+04  0.46999998093E+01 0.  1.
       -5    1    3    3    0  502  0.81442819266E+03 -0.39782866701E+02  0.63870703588E+03  0.10357821804E+04  0.46999998093E+01 0. -1.
</event>
<event>
 5   0  0.9252359E-06  0.2762052E+04  0.7818609E-02  0.8315147E-01
        2   -1    0    0  501    0  0.00000000000E+00  0.00000000000E+00  0.16873794892E+04  0.16873794892E+04  0.25500000920E-02 0.  1.
       -2   -1    0    0    0  501  0.00000000000E+00  0.00000000000E+00 -0.11302930797E+04  0.11302930797E+04  0.25500000920E-02 0. -1.
    10030    2    1    2    0    0  0.00000000000E+00  0.00000000000E+00  0.55708640949E+03  0.28176725690E+04  0.27620523960E+04 0.  0.
        5    1    3    3  502    0  0.31447066414E+03 -0.12293229927E+04 -0.27748724045E+03  0.12989026436E+04  0.46999998093E+01 0. -1.
       -5    1    3    3    0  502 -0.31447066414E+03  0.12293229927E+04  0.83457364994E+03  0.15187699254E+04  0.46999998093E+01 0.  1.
</event>
<event>
 5   0  0.9426937E-06  0.2662679E+04  0.7818609E-02  0.8347217E-01
       -2   -1    0    0    0  501  0.00000000000E+00  0.00000000000E+00  0.10347836398E+04  0.10347836398E+04  0.25500000920E-02 0.  1.
        2   -1    0    0  501    0  0.00000000000E+00  0.00000000000E+00 -0.17128847988E+04  0.17128847988E+04  0.25500000920E-02 0. -1.
    10030    2    1    2    0    0  0.00000000000E+00  0.00000000000E+00 -0.67810115894E+03  0.27476684386E+04  0.26626792272E+04 0.  0.
        4    1    3    3  502    0  0.12669922378E+04 -0.36846494283E+03 -0.15611316831E+03  0.13286868250E+04  0.12699999809E+01 0.  1.
       -4    1    3    3    0  502 -0.12669922378E+04  0.36846494283E+03 -0.52198799063E+03  0.14189816137E+04  0.12699999809E+01 0. -1.
</event>
<event>
 5   0  0.3600963E-06  0.2772621E+04  0.7818609E-02  0.8311819E-01
       -1   -1    0    0    0  501  0.00000000000E+00  0.00000000000E+00  0.99919378510E+03  0.99919378511E+03  0.50400001928E-02 0.  1.
        1   -1    0    0  501    0  0.00000000000E+00  0.00000000000E+00 -0.19234071582E+04  0.19234071583E+04  0.50400001928E-02 0. -1.
    10030    2    1    2    0    0  0.00000000000E+00  0.00000000000E+00 -0.92421337315E+03  0.29226009434E+04  0.27726207665E+04 0.  0.
        5    1    3    3  502    0  0.12045470354E+04  0.68509733408E+03 -0.42070790440E+03  0.14482089450E+04  0.46999998093E+01 0. -1.
       -5    1    3    3    0  502 -0.12045470354E+04 -0.68509733408E+03 -0.50350546875E+03  0.14743919983E+04  0.46999998093E+01 0.  1.
</event>
<event>
 5   0  0.9065579E-06  0.2793544E+04  0.7818609E-02  0.8305276E-01
       -2   -1    0    0    0  501  0.00000000000E+00  0.00000000000E+00  0.10294050023E+04  0.10294050023E+04  0.25500000920E-02 0.  1.
        2   -1    0    0  501    0  0.00000000000E+00  0.00000000000E+00 -0.18952417373E+04  0.18952417373E+04  0.25500000920E-02 0. -1.
    10030    2    1    2    0    0  0.00000000000E+00  0.00000000000E+00 -0.86583673500E+03  0.29246467396E+04  0.27935435024E+04 0.  0.
        3    1    3    3  502    0  0.11315587102E+04 -0.64612493054E+03 -0.95958676354E+03  0.16182426602E+04  0.10100000352E+00 0. -1.
       -3    1    3    3    0  502 -0.11315587102E+04  0.64612493054E+03  0.93750028540E+02  0.13064040793E+04  0.10100000352E+00 0.  1.
</event>
<event>
 5   0  0.9426937E-06  0.2839891E+04  0.7818609E-02  0.8290990E-01
       -2   -1    0    0    0  501  0.00000000000E+00  0.00000000000E+00  0.90372106343E+03  0.90372106343E+03  0.25500000920E-02 0. -1.
        2   -1    0    0  501    0  0.00000000000E+00  0.00000000000E+00 -0.22310483141E+04  0.22310483141E+04  0.25500000920E-02 0.  1.
    10030    2    1    2    0    0  0.00000000000E+00  0.00000000000E+00 -0.13273272507E+04  0.31347693776E+04  0.28398910930E+04 0.  0.
        4    1    3    3  502    0  0.10829459195E+03 -0.13403334175E+02 -0.22264125691E+04  0.22290854423E+04  0.12699999809E+01 0.  1.
       -4    1    3    3    0  502 -0.10829459195E+03  0.13403334175E+02  0.89908531841E+03  0.90568393532E+03  0.12699999809E+01 0. -1.
</event>
<event>
 5   0  0.9426937E-06  0.2964173E+04  0.7818609E-02  0.8254036E-01
       -2   -1    0    0    0  501  0.00000000000E+00  0.00000000000E+00  0.20487805787E+04  0.20487805787E+04  0.25500000920E-02 0. -1.
        2   -1    0    0  501    0  0.00000000000E+00  0.00000000000E+00 -0.10721405355E+04  0.10721405355E+04  0.25500000920E-02 0.  1.
    10030    2    1    2    0    0  0.00000000000E+00  0.00000000000E+00  0.97664004317E+03  0.31209211142E+04  0.29641732114E+04 0.  0.
        4    1    3    3  502    0  0.21870072085E+03 -0.22660243124E+03  0.20131446199E+04  0.20376289016E+04  0.12699999809E+01 0. -1.
       -4    1    3    3    0  502 -0.21870072085E+03  0.22660243124E+03 -0.10365045768E+04  0.10832922125E+04  0.12699999809E+01 0.  1.
</event>
<event>
 5   0  0.3371603E-06  0.2640782E+04  0.7818609E-02  0.8354479E-01
        1   -1    0    0  501    0  0.00000000000E+00  0.00000000000E+00  0.14907703408E+04  0.14907703408E+04  0.50400001928E-02 0.  1.
       -1   -1    0    0    0  501  0.00000000000E+00  0.00000000000E+00 -0.11694839645E+04  0.11694839645E+04  0.50400001928E-02 0. -1.
    10030    2    1    2    0    0  0.00000000000E+00  0.00000000000E+00  0.32128637623E+03  0.26602543053E+04  0.26407817088E+04 0.  0.
        1    1    3    3  502    0 -0.11657255957E+04 -0.18225420020E+03  0.75771870468E+03  0.14022376380E+04  0.50400001928E-02 0.  1.
       -1    1    3    3    0  502  0.11657255957E+04  0.18225420020E+03 -0.43643232844E+03  0.12580166673E+04  0.50400001928E-02 0. -1.
</event>
<event>
 5   0  0.3438130E-06  0.2776238E+04  0.7818609E-02  0.8310684E-01
       -1   -1    0    0    0  501  0.00000000000E+00  0.00000000000E+00  0.95612651777E+03  0.95612651778E+03  0.50400001928E-02 0.  1.
        1   -1    0    0  501    0  0.00000000000E+00  0.00000000000E+00 -0.20152915784E+04  0.20152915784E+04  0.50400001928E-02 0. -1.
    10030    2    1    2    0    0  0.00000000000E+00  0.00000000000E+00 -0.10591650606E+04  0.29714180962E+04  0.27762375397E+04 0.  0.
        3    1    3    3  502    0  0.23983972049E+03 -0.18420468356E+03  0.92044010896E+03  0.96884697520E+03  0.10100000352E+00 0.  1.
       -3    1    3    3    0  502 -0.23983972049E+03  0.18420468356E+03 -0.19796051696E+04  0.20025711210E+04  0.10100000352E+00 0. -1.
</event>
<event>
 5   0  0.3438130E-06  0.2786827E+04  0.7818609E-02  0.8307370E-01
       -1   -1    0    0    0  501  0.00000000000E+00  0.00000000000E+00  0.12248519578E+04  0.12248519579E+04  0.50400001928E-02 0. -1.
        1   -1    0    0  501    0  0.00000000000E+00  0.00000000000E+00 -0.15851723136E+04  0.15851723136E+04  0.50400001928E-02 0.  1.
    10030    2    1    2    0    0  0.00000000000E+00  0.00000000000E+00 -0.36032035576E+03  0.28100242715E+04  0.27868271650E+04 0.  0.
        3    1    3    3  502    0 -0.25068022942E+03  0.12911694909E+04  0.28371500533E+03  0.13455309160E+04  0.10100000352E+00 0.  1.
       -3    1    3    3    0  502  0.25068022942E+03 -0.12911694909E+04 -0.64403536109E+03  0.14644933554E+04  0.10100000352E+00 0. -1.
</event>
<event>
 5   0  0.9260173E-06  0.2810451E+04  0.7818609E-02  0.8300031E-01
       -2   -1    0    0    0  501  0.00000000000E+00  0.00000000000E+00  0.96005945533E+03  0.96005945534E+03  0.25500000920E-02 0.  1.
        2   -1    0    0  501    0  0.00000000000E+00  0.00000000000E+00 -0.20568088608E+04  0.20568088608E+04  0.25500000920E-02 0. -1.
    10030    2    1    2    0    0  0.00000000000E+00  0.00000000000E+00 -0.10967494055E+04  0.30168683162E+04  0.28104510632E+04 0.  0.
        1    1    3    3  502    0  0.29343291521E+03 -0.49603048534E+03  0.82735874042E+03  0.10083013456E+04  0.50400001928E-02 0.  1.
       -1    1    3    3    0  502 -0.29343291521E+03  0.49603048534E+03 -0.19241081459E+04  0.20085669706E+04  0.50400001928E-02 0. -1.
</event>
<event>
 5   0  0.3357244E-06  0.2725284E+04  0.7818609E-02  0.8326848E-01
        1   -1    0    0  501    0  0.00000000000E+00  0.00000000000E+00  0.24251395978E+04  0.24251395978E+04  0.50400001928E-02 0.  1.
       -1   -1    0    0    0  501  0.00000000000E+00  0.00000000000E+00 -0.76564358560E+03  0.76564358562E+03  0.50400001928E-02 0. -1.
    10030    2    1    2    0    0  0.00000000000E+00  0.00000000000E+00  0.16594960122E+04  0.31907831834E+04  0.27252835282E+04 0.  0.
        4    1    3    3  502    0 -0.11778285399E+04  0.19955223912E+03  0.15972210398E+04  0.19945470234E+04  0.12699999809E+01 0.  1.
       -4    1    3    3    0  502  0.11778285399E+04 -0.19955223912E+03  0.62274972337E+02  0.11962361600E+04  0.12699999809E+01 0. -1.
</event>
<event>
 5   0  0.9065579E-06  0.2766938E+04  0.7818609E-02  0.8313607E-01
       -2   -1    0    0    0  501  0.00000000000E+00  0.00000000000E+00  0.15948758728E+04  0.15948758728E+04  0.25500000920E-02 0.  1.
        2   -1    0    0  501    0  0.00000000000E+00  0.00000000000E+00 -0.12000847870E+04  0.12000847870E+04  0.25500000920E-02 0. -1.
    10030    2    1    2    0    0  0.00000000000E+00  0.00000000000E+00  0.39479108572E+03  0.27949606598E+04  0.27669378541E+04 0.  0.
        3    1    3    3  502    0 -0.55086298489E+03  0.77713114246E+03  0.12108529368E+04  0.15406322356E+04  0.10100000352E+00 0.  1.
       -3    1    3    3    0  502  0.55086298489E+03 -0.77713114246E+03 -0.81606185108E+03  0.12543284242E+04  0.10100000352E+00 0. -1.
</event>
<event>
 5   0  0.3600963E-06  0.2783283E+04  0.7818609E-02  0.8308477E-01
       -1   -1    0    0    0  501  0.00000000000E+00  0.00000000000E+00  0.75082384613E+03  0.75082384615E+03  0.50400001928E-02 0.  1.
        1   -1    0    0  501    0  0.00000000000E+00  0.00000000000E+00 -0.25793882859E+04  0.25793882859E+04  0.50400001928E-02 0. -1.
    10030    2    1    2    0    0  0.00000000000E+00  0.00000000000E+00 -0.18285644398E+04  0.33302121321E+04  0.27832831215E+04 0.  0.
        5    1    3    3  502    0  0.77542317582E+02 -0.20675002467E+03 -0.25582843201E+04  0.25678004471E+04  0.46999998093E+01 0. -1.
       -5    1    3    3    0  502 -0.77542317582E+02  0.20675002467E+03  0.72971988029E+03  0.76241168499E+03  0.46999998093E+01 0.  1.
</event>
<event>
 5   0  0.9065579E-06  0.2814445E+04  0.7818609E-02  0.8298798E-01
        2   -1    0    0  501    0  0.00000000000E+00  0.00000000000E+00  0.20140537544E+04  0.20140537544E+04  0.25500000920E-02 0.  1.
       -2   -1    0    0    0  501  0.00000000000E+00  0.00000000000E+00 -0.98322881195E+03  0.98322881195E+03  0.25500000920E-02 0. -1.
    10030    2    1    2    0    0  0.00000000000E+00  0.00000000000E+00  0.10308249425E+04  0.29972825664E+04  0.28144453664E+04 0.  0.
        3    1    3    3  502    0 -0.88091678777E+02  0.40473868590E+03 -0.91683607167E+03  0.10060625926E+04  0.10100000352E+00 0. -1.
       -3    1    3    3    0  502  0.88091678777E+02 -0.40473868590E+03  0.19476610141E+04  0.19912199738E+04  0.10100000352E+00 0.  1.
</event>
<event>
 5   0  0.9260173E-06  0.2571975E+04  0.7818609E-02  0.8377784E-01
       -2   -1    0    0    0  501  0.00000000000E+00  0.00000000000E+00  0.79986538356E+03  0.79986538357E+03  0.25500000920E-02 0. -1.
        2   -1    0    0  501    0  0.00000000000E+00  0.00000000000E+00 -0.20675521471E+04  0.20675521471E+04  0.25500000920E-02 0.  1.
    10030    2    1    2    0    0  0.00000000000E+00  0.00000000000E+00 -0.12676867635E+04  0.28674175306E+04  0.25719746431E+04 0.  0.
        1    1    3    3  502    0 -0.11703731009E+04 -0.35139118080E+03 -0.18717902349E+03  0.12362382230E+04  0.50400001928E-02 0. -1.
       -1    1    3    3    0  502  0.11703731009E+04  0.35139118080E+03 -0.10805077400E+04  0.16311793076E+04  0.50400001928E-02 0.  1.
</event>
<event>
 5   0  0.3600963E-06  0.2793138E+04  0.7818609E-02  0.8305402E-01
        1   -1    0    0  501    0  0.00000000000E+00  0.00000000000E+00  0.16534144052E+04  0.16534144052E+04  0.50400001928E-02 0. -1.
       -1   -1    0    0    0  501  0.00000000000E+00  0.00000000000E+00 -0.11796226414E+04  0.11796226414E+04  0.50400001928E-02 0.  1.
    10030    2    1    2    0    0  0.00000000000E+00  0.00000000000E+00  0.47379176372E+03  0.28330370466E+04  0.27931380689E+04 0.  0.
        5    1    3    3  502    0 -0.48510175554E+03 -0.57039663038E+03 -0.95880201173E+03  0.12165522664E+04  0.46999998093E+01 0.  1.
       -5    1    3    3    0  502  0.48510175554E+03  0.57039663038E+03  0.14325937755E+04  0.16164847802E+04  0.46999998093E+01 0. -1.
</event>
<event>
 5   0  0.3397882E-06  0.2796483E+04  0.7818609E-02  0.8304361E-01
       -1   -1    0    0    0  501  0.00000000000E+00  0.00000000000E+00  0.12140008772E+04  0.12140008772E+04  0.50400001928E-02 0.  1.
        1   -1    0    0  501    0  0.00000000000E+00  0.00000000000E+00 -0.16104425146E+04  0.16104425146E+04  0.50400001928E-02 0. -1.
    10030    2    1    2    0    0  0.00000000000E+00  0.00000000000E+00 -0.39644163738E+03  0.28244433919E+04  0.27964825231E+04 0.  0.
        2    1    3    3  502    0 -0.36483272260E+03  0.59268580563E+03  0.10266285996E+04  0.12403006334E+04  0.25500000920E-02 0.  1.
       -2    1    3    3    0  502  0.36483272260E+03 -0.59268580563E+03 -0.14230702370E+04  0.15841427584E+04  0.25500000920E-02 0. -1.
</event>
<event>
 5   0  0.9342133E-06  0.2812268E+04  0.7818609E-02  0.8299470E-01
        2   -1    0    0  501    0  0.00000000000E+00  0.00000000000E+00  0.19441210816E+04  0.19441210816E+04  0.25500000920E-02 0. -1.
       -2   -1    0    0    0  501  0.00000000000E+00  0.00000000000E+00 -0.10170217238E+04  0.10170217238E+04  0.25500000920E-02 0.  1.
    10030    2    1    2    0    0  0.00000000000E+00  0.00000000000E+00  0.92709935777E+03  0.29611428054E+04  0.28122683896E+04 0.  0.
        2    1    3    3  502    0  0.78394163758E+03  0.87258115682E+03 -0.35290201718E+03  0.12249498766E+04  0.25500000920E-02 0.  1.
       -2    1    3    3    0  502 -0.78394163758E+03 -0.87258115682E+03  0.12800013750E+04  0.17361929289E+04  0.25500000920E-02 0. -1.
</event>
<event>
 5   0  0.9342133E-06  0.2802381E+04  0.7818609E-02  0.8302530E-01
        2   -1    0    0  501    0  0.00000000000E+00  0.00000000000E+00  0.28135423181E+04  0.28135423181E+04  0.25500000920E-02 0. -1.
       -2   -1    0    0    0  501  0.00000000000E+00  0.00000000000E+00 -0.69781588909E+03  0.69781588909E+03  0.25500000920E-02 0.  1.
    10030    2    1    2    0    0  0.00000000000E+00  0.00000000000E+00  0.21157264290E+04  0.35113582072E+04  0.28023807980E+04 0.  0.
        2    1    3    3  502    0  0.25042006728E+02  0.12696460217E+04  0.31583598896E+03  0.13085795713E+04  0.25500000920E-02 0.  1.
       -2    1    3    3    0  502 -0.25042006728E+02 -0.12696460217E+04  0.17998904400E+04  0.22027786359E+04  0.25500000920E-02 0. -1.
</event>
<event>
 5   0  0.3438130E-06  0.2804147E+04  0.7818609E-02  0.8301982E-01
        1   -1    0    0  501    0  0.00000000000E+00  0.00000000000E+00  0.17252681762E+04  0.17252681763E+04  0.50400001928E-02 0.  1.
       -1   -1    0    0    0  501  0.00000000000E+00  0.00000000000E+00 -0.11394230192E+04  0.11394230192E+04  0.50400001928E-02 0. -1.
    10030    2    1    2    0    0  0.00000000000E+00  0.00000000000E+00  0.58584515703E+03  0.28646911955E+04  0.28041471248E+04 0.  0.
        3    1    3    3  502    0  0.14908185103E+03  0.41926836677E+03  0.16512155308E+04  0.17101240016E+04  0.10100000352E+00 0.  1.
       -3    1    3    3    0  502 -0.14908185103E+03 -0.41926836677E+03 -0.10653703737E+04  0.11545671939E+04  0.10100000352E+00 0. -1.
</event>
<event>
 5   0  0.3397882E-06  0.2724879E+04  0.7818609E-02  0.8326977E-01
        1   -1    0    0  501    0  0.00000000000E+00  0.00000000000E+00  0.11652671099E+04  0.11652671099E+04  0.50400001928E-02 0.  1.
       -1   -1    0    0    0  501  0.00000000000E+00  0.00000000000E+00 -0.15929755579E+04  0.15929755579E+04  0.50400001928E-02 0. -1.
    10030    2    1    2    0    0  0.00000000000E+00  0.00000000000E+00 -0.42770844796E+03  0.27582426678E+04  0.27248794648E+04 0.  0.
        2    1    3    3  502    0 -0.63609419931E+03 -0.10879350844E+04  0.31019438180E+03  0.12978594426E+04  0.25500000920E-02 0. -1.
       -2    1    3    3    0  502  0.63609419931E+03  0.10879350844E+04 -0.73790282976E+03  0.14603832252E+04  0.25500000920E-02 0.  1.
</event>
<event>
 5   0  0.9260173E-06  0.2805441E+04  0.7818609E-02  0.8301581E-01
       -2   -1    0    0    0  501  0.00000000000E+00  0.00000000000E+00  0.12963274939E+04  0.12963274939E+04  0.25500000920E-02 0.  1.
        2   -1    0    0  501    0  0.00000000000E+00  0.00000000000E+00 -0.15178453593E+04  0.15178453593E+04  0.25500000920E-02 0. -1.
    10030    2    1    2    0    0  0.00000000000E+00  0.00000000000E+00 -0.22151786540E+03  0.28141728532E+04  0.28054409071E+04 0.  0.
        1    1    3    3  502    0 -0.22288095246E+03 -0.10231729747E+04 -0.10469729285E+04  0.14807805942E+04  0.50400001928E-02 0. -1.
       -1    1    3    3    0  502  0.22288095246E+03  0.10231729747E+04  0.82545506313E+03  0.13333922590E+04  0.50400001928E-02 0.  1.
</event>
<event>
 5   0  0.3357244E-06  0.2810908E+04  0.7818609E-02  0.8299890E-01
        1   -1    0    0  501    0  0.00000000000E+00  0.00000000000E+00  0.14081880692E+04  0.14081880693E+04  0.50400001928E-02 0. -1.
       -1   -1    0    0    0  501  0.00000000000E+00  0.00000000000E+00 -0.14027255066E+04  0.14027255066E+04  0.50400001928E-02 0.  1.
    10030    2    1    2    0    0  0.00000000000E+00  0.00000000000E+00  0.54625626895E+01  0.28109135758E+04  0.28109082680E+04 0.  0.
        4    1    3    3  502    0  0.65009579552E+02  0.21821422963E+02  0.14065135765E+04  0.14081848151E+04  0.12699999809E+01 0. -1.
       -4    1    3    3    0  502 -0.65009579552E+02 -0.21821422963E+02 -0.14010510138E+04  0.14027287607E+04  0.12699999809E+01 0.  1.
</event>
<event>
 5   0  0.9260173E-06  0.2724799E+04  0.7818609E-02  0.8327003E-01
        2   -1    0    0  501    0  0.00000000000E+00  0.00000000000E+00  0.18918159976E+04  0.18918159976E+04  0.25500000920E-02 0.  1.
       -2   -1    0    0    0  501  0.00000000000E+00  0.00000000000E+00 -0.98113759149E+03  0.98113759149E+03  0.25500000920E-02 0. -1.
    10030    2    1    2    0    0  0.00000000000E+00  0.00000000000E+00  0.91067840615E+03  0.28729535891E+04  0.27247985551E+04 0.  0.
        1    1    3    3  502    0 -0.17775036190E+03 -0.13498513410E+04  0.40327883076E+03  0.14199745242E+04  0.50400001928E-02 0.  1.
       -1    1    3    3    0  502  0.17775036190E+03  0.13498513410E+04  0.50739957540E+03  0.14529790649E+04  0.50400001928E-02 0. -1.
</event>
<event>
 5   0  0.3371603E-06  0.2817171E+04  0.7818609E-02  0.8297957E-01
        1   -1    0    0  501    0  0.00000000000E+00  0.00000000000E+00  0.23747012414E+04  0.23747012414E+04  0.50400001928E-02 0. -1.
       -1   -1    0    0    0  501  0.00000000000E+00  0.00000000000E+00 -0.83552102688E+03  0.83552102690E+03  0.50400001928E-02 0.  1.
    10030    2    1    2    0    0  0.00000000000E+00  0.00000000000E+00  0.15391802145E+04  0.32102222683E+04  0.28171707934E+04 0.  0.
        1    1    3    3  502    0 -0.13882193981E+04  0.73432987641E+02  0.10283572920E+04  0.17291802165E+04  0.50400001928E-02 0. -1.
       -1    1    3    3    0  502  0.13882193981E+04 -0.73432987641E+02  0.51082292250E+03  0.14810420518E+04  0.50400001928E-02 0.  1.
</event>
<event>
 5   0  0.9426937E-06  0.2770920E+04  0.7818609E-02  0.8312354E-01
        2   -1    0    0  501    0  0.00000000000E+00  0.00000000000E+00  0.17768649111E+04  0.17768649111E+04  0.25500000920E-02 0. -1.
       -2   -1    0    0    0  501  0.00000000000E+00  0.00000000000E+00 -0.10802730341E+04  0.10802730341E+04  0.25500000920E-02 0.  1.
    10030    2    1    2    0    0  0.00000000000E+00  0.00000000000E+00  0.69659187695E+03  0.28571379452E+04  0.27709198825E+04 0.  0.
        4    1    3    3  502    0  0.10711245349E+04  0.87468356999E+03  0.26129938168E+03  0.14073585530E+04  0.12699999809E+01 0. -1.
       -4    1    3    3    0  502 -0.10711245349E+04 -0.87468356999E+03  0.43529249527E+03  0.14497793923E+04  0.12699999809E+01 0.  1.
</event>
<event>
 5   0  0.3006875E-06  0.2788689E+04  0.7818609E-02  0.8306788E-01
       -3   -1    0    0    0  501  0.00000000000E+00  0.00000000000E+00  0.18379553688E+04  0.18379553716E+04  0.10100000352E+00 0. -1.
        3   -1    0    0  501    0  0.00000000000E+00  0.00000000000E+00 -0.10578042280E+04  0.10578042329E+04  0.10100000352E+00 0.  1.
    10030    2    1    2    0    0  0.00000000000E+00  0.00000000000E+00  0.78015114081E+03  0.28957596045E+04  0.27886892771E+04 0.  0.
        5    1    3    3  502    0 -0.71093255458E+03  0.49214787249E+03 -0.74578764648E+03  0.11418651099E+04  0.46999998093E+01 0.  1.
       -5    1    3    3    0  502  0.71093255458E+03 -0.49214787249E+03  0.15259387873E+04  0.17538944946E+04  0.46999998093E+01 0. -1.
</event>
<event>
 5   0  0.9065579E-06  0.2838484E+04  0.7818609E-02  0.8291419E-01
       -2   -1    0    0    0  501  0.00000000000E+00  0.00000000000E+00  0.74477599294E+03  0.74477599294E+03  0.25500000920E-02 0.  1.
        2   -1    0    0  501    0  0.00000000000E+00  0.00000000000E+00 -0.27045009761E+04  0.27045009761E+04  0.25500000920E-02 0. -1.
    10030    2    1    2    0    0  0.00000000000E+00  0.00000000000E+00 -0.19597249832E+04  0.34492769690E+04  0.28384836796E+04 0.  0.
        3    1    3    3  502    0  0.68702423516E+02 -0.28108216830E+03  0.70855110230E+03  0.76535735647E+03  0.10100000352E+00 0.  1.
       -3    1    3    3    0  502 -0.68702423516E+02  0.28108216830E+03 -0.26682760855E+04  0.26839196126E+04  0.10100000352E+00 0. -1.
</event>
<event>
 5   0  0.9342133E-06  0.2836938E+04  0.7818609E-02  0.8291891E-01
        2   -1    0    0  501    0  0.00000000000E+00  0.00000000000E+00  0.94771227802E+03  0.94771227802E+03  0.25500000920E-02 0. -1.
       -2   -1    0    0    0  501  0.00000000000E+00  0.00000000000E+00 -0.21230647228E+04  0.21230647228E+04  0.25500000920E-02 0.  1.
    10030    2    1    2    0    0  0.00000000000E+00  0.00000000000E+00 -0.11753524448E+04  0.30707770009E+04  0.28369381416E+04 0.  0.
        2    1    3    3  502    0 -0.44644866144E+03  0.10079940892E+04  0.37846810746E+03  0.11655928103E+04  0.25500000920E-02 0. -1.
       -2    1    3    3    0  502  0.44644866144E+03 -0.10079940892E+04 -0.15538205523E+04  0.19051841905E+04  0.25500000920E-02 0.  1.
</event>
<event>
 5   0  0.9260173E-06  0.2800334E+04  0.7818609E-02  0.8303165E-01
        2   -1    0    0  501    0  0.00000000000E+00  0.00000000000E+00  0.12315567972E+04  0.12315567972E+04  0.25500000920E-02 0. -1.
       -2   -1    0    0    0  501  0.00000000000E+00  0.00000000000E+00 -0.15918617664E+04  0.15918617664E+04  0.25500000920E-02 0.  1.
    10030    2    1    2    0    0  0.00000000000E+00  0.00000000000E+00 -0.36030496922E+03  0.28234185635E+04  0.28003343933E+04 0.  0.
        1    1    3    3  502    0 -0.56571914025E+03  0.18504532391E+03  0.10976496084E+04  0.12486450979E+04  0.50400001928E-02 0. -1.
       -1    1    3    3    0  502  0.56571914025E+03 -0.18504532391E+03 -0.14579545777E+04  0.15747734656E+04  0.50400001928E-02 0.  1.
</event>
<event>
 5   0  0.3357244E-06  0.2846216E+04  0.7818609E-02  0.8289062E-01
       -1   -1    0    0    0  501  0.00000000000E+00  0.00000000000E+00  0.17049456692E+04  0.17049456693E+04  0.50400001928E-02 0.  1.
        1   -1    0    0  501    0  0.00000000000E+00  0.00000000000E+00 -0.11878595259E+04  0.11878595260E+04  0.50400001928E-02 0. -1.
    10030    2    1    2    0    0  0.00000000000E+00  0.00000000000E+00  0.51708614330E+03  0.28928051952E+04  0.28462157012E+04 0.  0.
        4    1    3    3  502    0 -0.89177227321E+02 -0.50336393016E+03  0.16084044171E+04  0.16876890134E+04  0.12699999809E+01 0.  1.
       -4    1    3    3    0  502  0.89177227321E+02  0.50336393016E+03 -0.10913182738E+04  0.12051161818E+04  0.12699999809E+01 0. -1.
</event>
<event>
 5   0  0.9342133E-06  0.2800464E+04  0.7818609E-02  0.8303124E-01
        2   -1    0    0  501    0  0.00000000000E+00  0.00000000000E+00  0.19908024910E+04  0.19908024910E+04  0.25500000920E-02 0. -1.
       -2   -1    0    0    0  501  0.00000000000E+00  0.00000000000E+00 -0.98485400117E+03  0.98485400117E+03  0.25500000920E-02 0.  1.
    10030    2    1    2    0    0  0.00000000000E+00  0.00000000000E+00  0.10059484898E+04  0.29756564921E+04  0.28004641035E+04 0.  0.
        2    1    3    3  502    0 -0.38919331201E+03 -0.27235875759E+03 -0.89662083871E+03  0.10146820464E+04  0.25500000920E-02 0.  1.
       -2    1    3    3    0  502  0.38919331201E+03  0.27235875759E+03  0.19025693285E+04  0.19609744457E+04  0.25500000920E-02 0. -1.
</event>
<event>
 5   0  0.3600963E-06  0.2811589E+04  0.7818609E-02  0.8299679E-01
        1   -1    0    0  501    0  0.00000000000E+00  0.00000000000E+00  0.20366708584E+04  0.20366708584E+04  0.50400001928E-02 0. -1.
       -1   -1    0    0    0  501  0.00000000000E+00  0.00000000000E+00 -0.97033767183E+03  0.97033767184E+03  0.50400001928E-02 0.  1.
    10030    2    1    2    0    0  0.00000000000E+00  0.00000000000E+00  0.10663331866E+04  0.30070085303E+04  0.28115892012E+04 0.  0.
        5    1    3    3  502    0 -0.85529102960E+03  0.81907579498E+03 -0.27699907913E+03  0.12162065956E+04  0.46999998093E+01 0.  1.
       -5    1    3    3    0  502  0.85529102960E+03 -0.81907579498E+03  0.13433322657E+04  0.17908019347E+04  0.46999998093E+01 0. -1.
</event>
<event>
 5   0  0.3357244E-06  0.2733593E+04  0.7818609E-02  0.8324187E-01
        1   -1    0    0  501    0  0.00000000000E+00  0.00000000000E+00  0.19168952855E+04  0.19168952855E+04  0.50400001928E-02 0. -1.
       -1   -1    0    0    0  501  0.00000000000E+00  0.00000000000E+00 -0.97456181350E+03  0.97456181351E+03  0.50400001928E-02 0.  1.
    10030    2    1    2    0    0  0.00000000000E+00  0.00000000000E+00  0.94233347196E+03  0.28914570990E+04  0.27335932000E+04 0.  0.
        4    1    3    3  502    0 -0.48401942531E+03  0.87049135846E+03 -0.51888989256E+03  0.11230664908E+04  0.12699999809E+01 0.  1.
       -4    1    3    3    0  502  0.48401942531E+03 -0.87049135846E+03  0.14612233645E+04  0.17683906082E+04  0.12699999809E+01 0. -1.
</event>
<event>
 5   0  0.3357244E-06  0.2851479E+04  0.7818609E-02  0.8287462E-01
        1   -1    0    0  501    0  0.00000000000E+00  0.00000000000E+00  0.16245038942E+04  0.16245038942E+04  0.50400001928E-02 0. -1.
       -1   -1    0    0    0  501  0.00000000000E+00  0.00000000000E+00 -0.12512947896E+04  0.12512947896E+04  0.50400001928E-02 0.  1.
    10030    2    1    2    0    0  0.00000000000E+00  0.00000000000E+00  0.37320910459E+03  0.28757986838E+04  0.28514790958E+04 0.  0.
        4    1    3    3  502    0  0.54748698969E+03  0.12113869929E+04  0.70629659071E+03  0.15053427973E+04  0.12699999809E+01 0. -1.
       -4    1    3    3    0  502 -0.54748698969E+03 -0.12113869929E+04 -0.33308748612E+03  0.13704558865E+04  0.12699999809E+01 0.  1.
</event>
<event>
 5   0  0.3600963E-06  0.2274519E+04  0.7818609E-02  0.8488036E-01
        1   -1    0    0  501    0  0.00000000000E+00  0.00000000000E+00  0.87130914983E+03  0.87130914985E+03  0.50400001928E-02 0. -1.
       -1   -1    0    0    0  501  0.00000000000E+00  0.00000000000E+00 -0.14843864455E+04  0.14843864455E+04  0.50400001928E-02 0.  1.
    10030    2    1    2    0    0  0.00000000000E+00  0.00000000000E+00 -0.61307729562E+03  0.23556955953E+04  0.22745192827E+04 0.  0.
        5    1    3    3  502    0  0.98345852566E+03  0.55807830069E+03 -0.43208941556E+03  0.12105227856E+04  0.46999998093E+01 0. -1.
       -5    1    3    3    0  502 -0.98345852566E+03 -0.55807830069E+03 -0.18098788006E+03  0.11451728097E+04  0.46999998093E+01 0.  1.
</event>
<event>
 5   0  0.9065579E-06  0.2769942E+04  0.7818609E-02  0.8312661E-01
       -2   -1    0    0    0  501  0.00000000000E+00  0.00000000000E+00  0.11370191144E+04  0.11370191144E+04  0.25500000920E-02 0.  1.
        2   -1    0    0  501    0  0.00000000000E+00  0.00000000000E+00 -0.16869943869E+04  0.16869943869E+04  0.25500000920E-02 0. -1.
    10030    2    1    2    0    0  0.00000000000E+00  0.00000000000E+00 -0.54997527256E+03  0.28240135013E+04  0.27699421393E+04 0.  0.
        3    1    3    3  502    0  0.12897473448E+04 -0.10039072344E+03  0.22925618045E+03  0.13138055096E+04  0.10100000352E+00 0.  1.
       -3    1    3    3    0  502 -0.12897473448E+04  0.10039072344E+03 -0.77923145301E+03  0.15102079917E+04  0.10100000352E+00 0. -1.
</event>
<event>
 5   0  0.9426937E-06  0.2830312E+04  0.7818609E-02  0.8293919E-01
        2   -1    0    0  501    0  0.00000000000E+00  0.00000000000E+00  0.18547406913E+04  0.18547406913E+04  0.25500000920E-02 0. -1.
       -2   -1    0    0    0  501  0.00000000000E+00  0.00000000000E+00 -0.10797556387E+04  0.10797556387E+04  0.25500000920E-02 0.  1.
    10030    2    1    2    0    0  0.00000000000E+00  0.00000000000E+00  0.77498505260E+03  0.29344963300E+04  0.28303121522E+04 0.  0.
        4    1    3    3  502    0  0.49189726947E+03 -0.12483901374E+04  0.85373931030E+03  0.15903814894E+04  0.12699999809E+01 0. -1.
       -4    1    3    3    0  502 -0.49189726947E+03  0.12483901374E+04 -0.78754257693E+02  0.13441148407E+04  0.12699999809E+01 0.  1.
</event>
<event>
 5   0  0.9252359E-06  0.2806154E+04  0.7818609E-02  0.8301360E-01
       -2   -1    0    0    0  501  0.00000000000E+00  0.00000000000E+00  0.81810149321E+03  0.81810149321E+03  0.25500000920E-02 0. -1.
        2   -1    0    0  501    0  0.00000000000E+00  0.00000000000E+00 -0.24063331418E+04  0.24063331418E+04  0.25500000920E-02 0.  1.
    10030    2    1    2    0    0  0.00000000000E+00  0.00000000000E+00 -0.15882316486E+04  0.32244346350E+04  0.28061537638E+04 0.  0.
        5    1    3    3  502    0  0.15349662398E+03 -0.13740107512E+03 -0.23888509523E+04  0.23977220922E+04  0.46999998093E+01 0.  1.
       -5    1    3    3    0  502 -0.15349662398E+03  0.13740107512E+03  0.80061930371E+03  0.82671254284E+03  0.46999998093E+01 0. -1.
</event>
<event>
 5   0  0.3397882E-06  0.2518529E+04  0.7818609E-02  0.8396414E-01
       -1   -1    0    0    0  501  0.00000000000E+00  0.00000000000E+00  0.50524377862E+03  0.50524377864E+03  0.50400001928E-02 0. -1.
        1   -1    0    0  501    0  0.00000000000E+00  0.00000000000E+00 -0.31385786543E+04  0.31385786543E+04  0.50400001928E-02 0.  1.
    10030    2    1    2    0    0  0.00000000000E+00  0.00000000000E+00 -0.26333348757E+04  0.36438224329E+04  0.25185292048E+04 0.  0.
        2    1    3    3  502    0 -0.80177201318E+03  0.69903447385E+03 -0.22917970792E+04  0.25266225300E+04  0.25500000920E-02 0.  1.
       -2    1    3    3    0  502  0.80177201318E+03 -0.69903447385E+03 -0.34153779646E+03  0.11171999030E+04  0.25500000920E-02 0. -1.
</event>
<event>
 5   0  0.3397882E-06  0.2790522E+04  0.7818609E-02  0.8306217E-01
        1   -1    0    0  501    0  0.00000000000E+00  0.00000000000E+00  0.86386347955E+03  0.86386347956E+03  0.50400001928E-02 0.  1.
       -1   -1    0    0    0  501  0.00000000000E+00  0.00000000000E+00 -0.22535426525E+04  0.22535426525E+04  0.50400001928E-02 0. -1.
    10030    2    1    2    0    0  0.00000000000E+00  0.00000000000E+00 -0.13896791730E+04  0.31174061321E+04  0.27905219563E+04 0.  0.
        2    1    3    3  502    0  0.22141777498E+03 -0.82858904120E+03  0.53460811026E+03  0.10106391353E+04  0.25500000920E-02 0.  1.
       -2    1    3    3    0  502 -0.22141777498E+03  0.82858904120E+03 -0.19242872832E+04  0.21067669968E+04  0.25500000920E-02 0. -1.
</event>
<event>
 5   0  0.3006875E-06  0.2531278E+04  0.7818609E-02  0.8391927E-01
        3   -1    0    0  501    0  0.00000000000E+00  0.00000000000E+00  0.19284557851E+04  0.19284557878E+04  0.10100000352E+00 0. -1.
       -3   -1    0    0    0  501  0.00000000000E+00  0.00000000000E+00 -0.83063451276E+03  0.83063451890E+03  0.10100000352E+00 0.  1.
    10030    2    1    2    0    0  0.00000000000E+00  0.00000000000E+00  0.10978212724E+04  0.27590903067E+04  0.25312778935E+04 0.  0.
        5    1    3    3  502    0 -0.88692876910E+03 -0.72785085858E+03  0.11312296092E+04  0.16112454910E+04  0.46999998093E+01 0. -1.
       -5    1    3    3    0  502  0.88692876910E+03  0.72785085858E+03 -0.33408336796E+02  0.11478448156E+04  0.46999998093E+01 0.  1.
</event>
<event>
 5   0  0.3357244E-06  0.2797115E+04  0.7818609E-02  0.8304164E-01
       -1   -1    0    0    0  501  0.00000000000E+00  0.00000000000E+00  0.12881443608E+04  0.12881443608E+04  0.50400001928E-02 0. -1.
        1   -1    0    0  501    0  0.00000000000E+00  0.00000000000E+00 -0.15184350602E+04  0.15184350602E+04  0.50400001928E-02 0.  1.
    10030    2    1    2    0    0  0.00000000000E+00  0.00000000000E+00 -0.23029069935E+03  0.28065794210E+04  0.27971153427E+04 0.  0.
        4    1    3    3  502    0 -0.62409505247E+03 -0.81949350274E+03  0.83404575543E+03  0.13254049082E+04  0.12699999809E+01 0. -1.
       -4    1    3    3    0  502  0.62409505247E+03  0.81949350274E+03 -0.10643364548E+04  0.14811745128E+04  0.12699999809E+01 0.  1.
</event>
<event>
 5   0  0.3438130E-06  0.2804922E+04  0.7818609E-02  0.8301742E-01
       -1   -1    0    0    0  501  0.00000000000E+00  0.00000000000E+00  0.89774658622E+03  0.89774658623E+03  0.50400001928E-02 0. -1.
        1   -1    0    0  501    0  0.00000000000E+00  0.00000000000E+00 -0.21909262243E+04  0.21909262243E+04  0.50400001928E-02 0.  1.
    10030    2    1    2    0    0  0.00000000000E+00  0.00000000000E+00 -0.12931796381E+04  0.30886728105E+04  0.28049217733E+04 0.  0.
        3    1    3    3  502    0 -0.35936727531E+03 -0.11004308821E+04 -0.15183898493E+04  0.19093456234E+04  0.10100000352E+00 0.  1.
       -3    1    3    3    0  502  0.35936727531E+03  0.11004308821E+04  0.22521021120E+03  0.11793271872E+04  0.10100000352E+00 0. -1.
</event>
<event>
 5   0  0.9426937E-06  0.2777744E+04  0.7818609E-02  0.8310211E-01
       -2   -1    0    0    0  501  0.00000000000E+00  0.00000000000E+00  0.23953539049E+04  0.23953539049E+04  0.25500000920E-02 0.  1.
        2   -1    0    0  501    0  0.00000000000E+00  0.00000000000E+00 -0.80529464207E+03  0.80529464207E+03  0.25500000920E-02 0. -1.
    10030    2    1    2    0    0  0.00000000000E+00  0.00000000000E+00  0.15900592628E+04  0.32006485469E+04  0.27777441678E+04 0.  0.
        4    1    3    3  502    0 -0.81897838047E+03  0.19438446944E+03 -0.47790557702E+03  0.96793918357E+03  0.12699999809E+01 0. -1.
       -4    1    3    3    0  502  0.81897838047E+03 -0.19438446944E+03  0.20679648398E+04  0.22327093634E+04  0.12699999809E+01 0.  1.
</event>
<event>
 5   0  0.9252359E-06  0.2773710E+04  0.7818609E-02  0.8311477E-01
       -2   -1    0    0    0  501  0.00000000000E+00  0.00000000000E+00  0.16654560297E+04  0.16654560297E+04  0.25500000920E-02 0. -1.
        2   -1    0    0  501    0  0.00000000000E+00  0.00000000000E+00 -0.11548589274E+04  0.11548589274E+04  0.25500000920E-02 0.  1.
    10030    2    1    2    0    0  0.00000000000E+00  0.00000000000E+00  0.51059710229E+03  0.28203149572E+04  0.27737099806E+04 0.  0.
        5    1    3    3  502    0 -0.82616821886E+03 -0.45316112877E+03  0.12899596886E+04  0.15974752026E+04  0.46999998093E+01 0. -1.
       -5    1    3    3    0  502  0.82616821886E+03  0.45316112877E+03 -0.77936258634E+03  0.12228397546E+04  0.46999998093E+01 0.  1.
</event>
<event>
 5   0  0.3600963E-06  0.2806522E+04  0.7818609E-02  0.8301246E-01
       -1   -1    0    0    0  501  0.00000000000E+00  0.00000000000E+00  0.91126599708E+03  0.91126599709E+03  0.50400001928E-02 0. -1.
        1   -1    0    0  501    0  0.00000000000E+00  0.00000000000E+00 -0.21608851385E+04  0.21608851385E+04  0.50400001928E-02 0.  1.
    10030    2    1    2    0    0  0.00000000000E+00  0.00000000000E+00 -0.12496191414E+04  0.30721511356E+04  0.28065217978E+04 0.  0.
        5    1    3    3  502    0 -0.22736091850E+03  0.28129525330E+03  0.85935561241E+03  0.93238091217E+03  0.46999998093E+01 0. -1.
       -5    1    3    3    0  502  0.22736091850E+03 -0.28129525330E+03 -0.21089747538E+04  0.21397702234E+04  0.46999998093E+01 0.  1.
</event>
<event>
 5   0  0.9260173E-06  0.2784376E+04  0.7818609E-02  0.8308135E-01
        2   -1    0    0  501    0  0.00000000000E+00  0.00000000000E+00  0.18798608030E+04  0.18798608030E+04  0.25500000920E-02 0. -1.
       -2   -1    0    0    0  501  0.00000000000E+00  0.00000000000E+00 -0.10310270588E+04  0.10310270588E+04  0.25500000920E-02 0.  1.
    10030    2    1    2    0    0  0.00000000000E+00  0.00000000000E+00  0.84883374420E+03  0.29108878617E+04  0.27843759477E+04 0.  0.
        1    1    3    3  502    0  0.43984404686E+03  0.12294883978E+04  0.92913948219E+03  0.16026243113E+04  0.50400001928E-02 0.  1.
       -1    1    3    3    0  502 -0.43984404686E+03 -0.12294883978E+04 -0.80305737989E+02  0.13082635504E+04  0.50400001928E-02 0. -1.
</event>
<event>
 5   0  0.9342133E-06  0.2778204E+04  0.7818609E-02  0.8310067E-01
       -2   -1    0    0    0  501  0.00000000000E+00  0.00000000000E+00  0.72607937532E+03  0.72607937532E+03  0.25500000920E-02 0. -1.
        2   -1    0    0  501    0  0.00000000000E+00  0.00000000000E+00 -0.26575665201E+04  0.26575665201E+04  0.25500000920E-02 0.  1.
    10030    2    1    2    0    0  0.00000000000E+00  0.00000000000E+00 -0.19314871447E+04  0.33836458954E+04  0.27782039081E+04 0.  0.
        2    1    3    3  502    0  0.53911821336E+03  0.12107956029E+04 -0.45927126134E+03  0.14027132748E+04  0.25500000920E-02 0. -1.
       -2    1    3    3    0  502 -0.53911821336E+03 -0.12107956029E+04 -0.14722158834E+04  0.19809326206E+04  0.25500000920E-02 0.  1.
</event>
<event>
 5   0  0.9342133E-06  0.2786913E+04  0.7818609E-02  0.8307343E-01
       -2   -1    0    0    0  501  0.00000000000E+00  0.00000000000E+00  0.10161205452E+04  0.10161205453E+04  0.25500000920E-02 0.  1.
        2   -1    0    0  501    0  0.00000000000E+00  0.00000000000E+00 -0.19109161242E+04  0.19109161242E+04  0.25500000920E-02 0. -1.
    10030    2    1    2    0    0  0.00000000000E+00  0.00000000000E+00 -0.89479557894E+03  0.29270366694E+04  0.27869130837E+04 0.  0.
        2    1    3    3  502    0 -0.36869575593E+02  0.28614116283E+03  0.98440851148E+03  0.10258149191E+04  0.25500000920E-02 0.  1.
       -2    1    3    3    0  502  0.36869575593E+02 -0.28614116283E+03 -0.18792040904E+04  0.19012217504E+04  0.25500000920E-02 0. -1.
</event>
<event>
 5   0  0.3357244E-06  0.2779689E+04  0.7818609E-02  0.8309602E-01
        1   -1    0    0  501    0  0.00000000000E+00  0.00000000000E+00  0.16815599714E+04  0.16815599714E+04  0.50400001928E-02 0.  1.
       -1   -1    0    0    0  501  0.00000000000E+00  0.00000000000E+00 -0.11487352803E+04  0.11487352803E+04  0.50400001928E-02 0. -1.
    10030    2    1    2    0    0  0.00000000000E+00  0.00000000000E+00  0.53282469107E+03  0.28302952517E+04  0.27796886625E+04 0.  0.
        4    1    3    3  502    0  0.11139108882E+04  0.96388568088E+02 -0.57419501239E+03  0.12568968725E+04  0.12699999809E+01 0. -1.
       -4    1    3    3    0  502 -0.11139108882E+04 -0.96388568088E+02  0.11070197035E+04  0.15733983792E+04  0.12699999809E+01 0.  1.
</event>
<event>
 5   0  0.3371603E-06  0.2657570E+04  0.7818609E-02  0.8348905E-01
       -1   -1    0    0    0  501  0.00000000000E+00  0.00000000000E+00  0.94833867708E+03  0.94833867709E+03  0.50400001928E-02 0.  1.
        1   -1    0    0  501    0  0.00000000000E+00  0.00000000000E+00 -0.18618555321E+04  0.18618555321E+04  0.50400001928E-02 0. -1.
    10030    2    1    2    0    0  0.00000000000E+00  0.00000000000E+00 -0.91351685505E+03  0.28101942092E+04  0.26575700271E+04 0.  0.
        1    1    3    3  502    0 -0.58015096208E+03 -0.69098574143E+02 -0.17187468844E+04  0.18153348463E+04  0.50400001928E-02 0. -1.
       -1    1    3    3    0  502  0.58015096208E+03  0.69098574143E+02  0.80523002933E+03  0.99485936288E+03  0.50400001928E-02 0.  1.
</event>
<event>
 5   0  0.9252359E-06  0.2767734E+04  0.7818609E-02  0.8313356E-01
        2   -1    0    0  501    0  0.00000000000E+00  0.00000000000E+00  0.23030440488E+04  0.23030440488E+04  0.25500000920E-02 0.  1.
       -2   -1    0    0    0  501  0.00000000000E+00  0.00000000000E+00 -0.83154617493E+03  0.83154617493E+03  0.25500000920E-02 0. -1.
    10030    2    1    2    0    0  0.00000000000E+00  0.00000000000E+00  0.14714978739E+04  0.31345902238E+04  0.27677337079E+04 0.  0.
        5    1    3    3  502    0 -0.66930767245E+03 -0.14852137999E+03  0.20971795360E+04  0.22064032852E+04  0.46999998093E+01 0.  1.
       -5    1    3    3    0  502  0.66930767245E+03  0.14852137999E+03 -0.62568166208E+03  0.92818693859E+03  0.46999998093E+01 0. -1.
</event>
<event>
 5   0  0.3600963E-06  0.2248793E+04  0.7818609E-02  0.8498390E-01
       -1   -1    0    0    0  501  0.00000000000E+00  0.00000000000E+00  0.56745182768E+03  0.56745182770E+03  0.50400001928E-02 0.  1.
        1   -1    0    0  501    0  0.00000000000E+00  0.00000000000E+00 -0.22279725012E+04  0.22279725012E+04  0.50400001928E-02 0. -1.
    10030    2    1    2    0    0  0.00000000000E+00  0.00000000000E+00 -0.16605206735E+04  0.27954243289E+04  0.22487926253E+04 0.  0.
        5    1    3    3  502    0  0.26418518964E+03  0.29804017089E+02 -0.21883266753E+04  0.22044223328E+04  0.46999998093E+01 0. -1.
       -5    1    3    3    0  502 -0.26418518964E+03 -0.29804017089E+02  0.52780600175E+03  0.59100199605E+03  0.46999998093E+01 0.  1.
</event>
<event>
 5   0  0.9342133E-06  0.2790098E+04  0.7818609E-02  0.8306349E-01
        2   -1    0    0  501    0  0.00000000000E+00  0.00000000000E+00  0.18088522385E+04  0.18088522385E+04  0.25500000920E-02 0. -1.
       -2   -1    0    0    0  501  0.00000000000E+00  0.00000000000E+00 -0.10759097273E+04  0.10759097274E+04  0.25500000920E-02 0.  1.
    10030    2    1    2    0    0  0.00000000000E+00  0.00000000000E+00  0.73294251113E+03  0.28847619658E+04  0.27900980045E+04 0.  0.
        2    1    3    3  502    0 -0.14481306748E+03  0.33020973979E+03  0.17598419497E+04  0.17964000069E+04  0.25500000920E-02 0. -1.
       -2    1    3    3    0  502  0.14481306748E+03 -0.33020973979E+03 -0.10268994386E+04  0.10883619590E+04  0.25500000920E-02 0.  1.
</event>
<event>
 5   0  0.9426937E-06  0.2765943E+04  0.7818609E-02  0.8313920E-01
        2   -1    0    0  501    0  0.00000000000E+00  0.00000000000E+00  0.19244938112E+04  0.19244938112E+04  0.25500000920E-02 0.  1.
       -2   -1    0    0    0  501  0.00000000000E+00  0.00000000000E+00 -0.99382521794E+03  0.99382521794E+03  0.25500000920E-02 0. -1.
    10030    2    1    2    0    0  0.00000000000E+00  0.00000000000E+00  0.93066859329E+03  0.29183190292E+04  0.27659432253E+04 0.  0.
        4    1    3    3  502    0 -0.86017796402E+03  0.10528054649E+04  0.73288521509E+03  0.15444830294E+04  0.12699999809E+01 0.  1.
       -4    1    3    3    0  502  0.86017796402E+03 -0.10528054649E+04  0.19778337820E+03  0.13738359998E+04  0.12699999809E+01 0. -1.
</event>
<event>
 5   0  0.3357244E-06  0.2791388E+04  0.7818609E-02  0.8305947E-01
        1   -1    0    0  501    0  0.00000000000E+00  0.00000000000E+00  0.10520814649E+04  0.10520814649E+04  0.50400001928E-02 0.  1.
       -1   -1    0    0    0  501  0.00000000000E+00  0.00000000000E+00 -0.18515310328E+04  0.18515310328E+04  0.50400001928E-02 0. -1.
    10030    2    1    2    0    0  0.00000000000E+00  0.00000000000E+00 -0.79944956789E+03  0.29036124977E+04  0.27913878135E+04 0.  0.
        4    1    3    3  502    0 -0.13114965602E+04 -0.29867031506E+03 -0.78716783211E+03  0.15584806683E+04  0.12699999809E+01 0. -1.
       -4    1    3    3    0  502  0.13114965602E+04  0.29867031506E+03 -0.12281735781E+02  0.13451318294E+04  0.12699999809E+01 0.  1.
</event>
<event>
 5   0  0.9252359E-06  0.2750512E+04  0.7818609E-02  0.8318799E-01
        2   -1    0    0  501    0  0.00000000000E+00  0.00000000000E+00  0.18723199285E+04  0.18723199285E+04  0.25500000920E-02 0.  1.
       -2   -1    0    0    0  501  0.00000000000E+00  0.00000000000E+00 -0.10101529247E+04  0.10101529247E+04  0.25500000920E-02 0. -1.
    10030    2    1    2    0    0  0.00000000000E+00  0.00000000000E+00  0.86216700381E+03  0.28824728531E+04  0.27505122808E+04 0.  0.
        5    1    3    3  502    0  0.59096313523E+03 -0.49370043066E+03  0.16251930016E+04  0.17984026037E+04  0.46999998093E+01 0.  1.
       -5    1    3    3    0  502 -0.59096313523E+03  0.49370043066E+03 -0.76302599780E+03  0.10840702495E+04  0.46999998093E+01 0. -1.
</event>
<event>
 5   0  0.9065579E-06  0.2783241E+04  0.7818609E-02  0.8308490E-01
        2   -1    0    0  501    0  0.00000000000E+00  0.00000000000E+00  0.21848820666E+04  0.21848820666E+04  0.25500000920E-02 0. -1.
       -2   -1    0    0    0  501  0.00000000000E+00  0.00000000000E+00 -0.88636726830E+03  0.88636726831E+03  0.25500000920E-02 0.  1.
    10030    2    1    2    0    0  0.00000000000E+00  0.00000000000E+00  0.12985147983E+04  0.30712493349E+04  0.27832412392E+04 0.  0.
        3    1    3    3  502    0  0.55432538742E+03  0.12666679019E+04  0.82332661191E+03  0.16092205967E+04  0.10100000352E+00 0.  1.
       -3    1    3    3    0  502 -0.55432538742E+03 -0.12666679019E+04  0.47518818640E+03  0.14620287382E+04  0.10100000352E+00 0. -1.
</event>
<event>
 5   0  0.9426937E-06  0.2766516E+04  0.7818609E-02  0.8313740E-01
        2   -1    0    0  501    0  0.00000000000E+00  0.00000000000E+00  0.16428857827E+04  0.16428857827E+04  0.25500000920E-02 0. -1.
       -2   -1    0    0    0  501  0.00000000000E+00  0.00000000000E+00 -0.11646594640E+04  0.11646594640E+04  0.25500000920E-02 0.  1.
    10030    2    1    2    0    0  0.00000000000E+00  0.00000000000E+00  0.47822631873E+03  0.28075452467E+04  0.27665158414E+04 0.  0.
        4    1    3    3  502    0  0.13115747933E+04 -0.13095506049E+03 -0.18666026820E+03  0.13312480366E+04  0.12699999809E+01 0. -1.
       -4    1    3    3    0  502 -0.13115747933E+04  0.13095506049E+03  0.66488658694E+03  0.14762972101E+04  0.12699999809E+01 0.  1.
</event>
<event>
 5   0  0.3397882E-06  0.2795029E+04  0.7818609E-02  0.8304813E-01
       -1   -1    0    0    0  501  0.00000000000E+00  0.00000000000E+00  0.13145842252E+04  0.13145842252E+04  0.50400001928E-02 0. -1.
        1   -1    0    0  501    0  0.00000000000E+00  0.00000000000E+00 -0.14856766457E+04  0.14856766457E+04  0.50400001928E-02 0.  1.
    10030    2    1    2    0    0  0.00000000000E+00  0.00000000000E+00 -0.17109242055E+03  0.28002608709E+04  0.27950292179E+04 0.  0.
        2    1    3    3  502    0  0.11084136520E+04 -0.52377443702E+03 -0.75771675539E+03  0.14411992112E+04  0.25500000920E-02 0.  1.
       -2    1    3    3    0  502 -0.11084136520E+04  0.52377443702E+03  0.58662433484E+03  0.13590616598E+04  0.25500000920E-02 0. -1.
</event>
<event>
 5   0  0.9252359E-06  0.2844198E+04  0.7818609E-02  0.8289676E-01
        2   -1    0    0  501    0  0.00000000000E+00  0.00000000000E+00  0.18433589986E+04  0.18433589986E+04  0.25500000920E-02 0.  1.
       -2   -1    0    0    0  501  0.00000000000E+00  0.00000000000E+00 -0.10971091200E+04  0.10971091200E+04  0.25500000920E-02 0. -1.
    10030    2    1    2    0    0  0.00000000000E+00  0.00000000000E+00  0.74624987855E+03  0.29404681186E+04  0.28441982834E+04 0.  0.
        5    1    3    3  502    0  0.29031215704E+03  0.11240093169E+04 -0.47605738996E+03  0.12547234044E+04  0.46999998093E+01 0. -1.
       -5    1    3    3    0  502 -0.29031215704E+03 -0.11240093169E+04  0.12223072685E+04  0.16857447142E+04  0.46999998093E+01 0.  1.
</event>
<event>
 5   0  0.3600963E-06  0.3002522E+04  0.7818609E-02  0.8243011E-01
       -1   -1    0    0    0  501  0.00000000000E+00  0.00000000000E+00  0.14991594383E+04  0.14991594383E+04  0.50400001928E-02 0. -1.
        1   -1    0    0  501    0  0.00000000000E+00  0.00000000000E+00 -0.15033652197E+04  0.15033652197E+04  0.50400001928E-02 0.  1.
    10030    2    1    2    0    0  0.00000000000E+00  0.00000000000E+00 -0.42057813686E+01  0.30025246581E+04  0.30025217124E+04 0.  0.
        5    1    3    3  502    0 -0.23096884244E+03  0.98272516141E+03 -0.11132595592E+04  0.15028187799E+04  0.46999998093E+01 0.  1.
       -5    1    3    3    0  502  0.23096884244E+03 -0.98272516141E+03  0.11090537778E+04  0.14997058782E+04  0.46999998093E+01 0. -1.
</event>
<event>
 5   0  0.9426937E-06  0.2795287E+04  0.7818609E-02  0.8304733E-01
        2   -1    0    0  501    0  0.00000000000E+00  0.00000000000E+00  0.19516537119E+04  0.19516537119E+04  0.25500000920E-02 0.  1.
       -2   -1    0    0    0  501  0.00000000000E+00  0.00000000000E+00 -0.10008986548E+04  0.10008986548E+04  0.25500000920E-02 0. -1.
    10030    2    1    2    0    0  0.00000000000E+00  0.00000000000E+00  0.95075505712E+03  0.29525523667E+04  0.27952871587E+04 0.  0.
        4    1    3    3  502    0 -0.97435895925E+03  0.11017736702E+03 -0.57659226630E+03  0.11375300823E+04  0.12699999809E+01 0. -1.
       -4    1    3    3    0  502  0.97435895925E+03 -0.11017736702E+03  0.15273473234E+04  0.18150222844E+04  0.12699999809E+01 0.  1.
</event>
<event>
 5   0  0.3371603E-06  0.2787708E+04  0.7818609E-02  0.8307095E-01
       -1   -1    0    0    0  501  0.00000000000E+00  0.00000000000E+00  0.11553512902E+04  0.11553512902E+04  0.50400001928E-02 0. -1.
        1   -1    0    0  501    0  0.00000000000E+00  0.00000000000E+00 -0.16815913319E+04  0.16815913319E+04  0.50400001928E-02 0.  1.
    10030    2    1    2    0    0  0.00000000000E+00  0.00000000000E+00 -0.52624004166E+03  0.28369426221E+04  0.27877078146E+04 0.  0.
        1    1    3    3  502    0  0.42134291987E+03 -0.17666865383E+03  0.10769847292E+04  0.11698879333E+04  0.50400001928E-02 0. -1.
       -1    1    3    3    0  502 -0.42134291987E+03  0.17666865383E+03 -0.16032247709E+04  0.16670546888E+04  0.50400001928E-02 0.  1.
</event>
<event>
 5   0  0.9252359E-06  0.2481481E+04  0.7818609E-02  0.8409613E-01
       -2   -1    0    0    0  501  0.00000000000E+00  0.00000000000E+00  0.71581799900E+03  0.71581799901E+03  0.25500000920E-02 0. -1.
        2   -1    0    0  501    0  0.00000000000E+00  0.00000000000E+00 -0.21505990428E+04  0.21505990428E+04  0.25500000920E-02 0.  1.
    10030    2    1    2    0    0  0.00000000000E+00  0.00000000000E+00 -0.14347810438E+04  0.28664170418E+04  0.24814814152E+04 0.  0.
        5    1    3    3  502    0 -0.10388251303E+04  0.56893564772E+03 -0.29051034240E+03  0.12195342437E+04  0.46999998093E+01 0. -1.
       -5    1    3    3    0  502  0.10388251303E+04 -0.56893564772E+03 -0.11442707014E+04  0.16468827981E+04  0.46999998093E+01 0.  1.
</event>
<event>
 5   0  0.3600963E-06  0.2876423E+04  0.7818609E-02  0.8279927E-01
        1   -1    0    0  501    0  0.00000000000E+00  0.00000000000E+00  0.14935480874E+04  0.14935480874E+04  0.50400001928E-02 0. -1.
       -1   -1    0    0    0  501  0.00000000000E+00  0.00000000000E+00 -0.13849248421E+04  0.13849248421E+04  0.50400001928E-02 0.  1.
    10030    2    1    2    0    0  0.00000000000E+00  0.00000000000E+00  0.10862324525E+03  0.28784729295E+04  0.28764226735E+04 0.  0.
        5    1    3    3  502    0  0.80668054940E+03 -0.36310428768E+03 -0.10804505718E+04  0.13964146092E+04  0.46999998093E+01 0.  1.
       -5    1    3    3    0  502 -0.80668054940E+03  0.36310428768E+03  0.11890738171E+04  0.14820583204E+04  0.46999998093E+01 0. -1.
</event>
<event>
 5   0  0.3600963E-06  0.2752624E+04  0.7818609E-02  0.8318130E-01
        1   -1    0    0  501    0  0.00000000000E+00  0.00000000000E+00  0.12691276330E+04  0.12691276330E+04  0.50400001928E-02 0.  1.
       -1   -1    0    0    0  501  0.00000000000E+00  0.00000000000E+00 -0.14925484133E+04  0.14925484133E+04  0.50400001928E-02 0. -1.
    10030    2    1    2    0    0  0.00000000000E+00  0.00000000000E+00 -0.22342078025E+03  0.27616760463E+04  0.27526237919E+04 0.  0.
        5    1    3    3  502    0  0.10868193138E+04 -0.78756142797E+03 -0.41731532500E+03  0.14055615939E+04  0.46999998093E+01 0. -1.
       -5    1    3    3    0  502 -0.10868193138E+04  0.78756142797E+03  0.19389454475E+03  0.13561144525E+04  0.46999998093E+01 0.  1.
</event>
<event>
 5   0  0.9252359E-06  0.2794880E+04  0.7818609E-02  0.8304860E-01
        2   -1    0    0  501    0  0.00000000000E+00  0.00000000000E+00  0.21325363750E+04  0.21325363750E+04  0.25500000920E-02 0. -1.
       -2   -1    0    0    0  501  0.00000000000E+00  0.00000000000E+00 -0.91573533035E+03  0.91573533035E+03  0.25500000920E-02 0.  1.
    10030    2    1    2    0    0  0.00000000000E+00  0.00000000000E+00  0.12168010447E+04  0.30482717054E+04  0.27948802492E+04 0.  0.
        5    1    3    3  502    0  0.89423199642E+03 -0.74883706820E+03  0.14478630060E+04  0.18592302687E+04  0.46999998093E+01 0. -1.
       -5    1    3    3    0  502 -0.89423199642E+03  0.74883706820E+03 -0.23106196129E+03  0.11890414367E+04  0.46999998093E+01 0.  1.
</event>
<event>
 5   0  0.3371603E-06  0.2781322E+04  0.7818609E-02  0.8309091E-01
       -1   -1    0    0    0  501  0.00000000000E+00  0.00000000000E+00  0.86315213901E+03  0.86315213902E+03  0.50400001928E-02 0. -1.
        1   -1    0    0  501    0  0.00000000000E+00  0.00000000000E+00 -0.22405534454E+04  0.22405534454E+04  0.50400001928E-02 0.  1.
    10030    2    1    2    0    0  0.00000000000E+00  0.00000000000E+00 -0.13774013064E+04  0.31037055844E+04  0.27813223466E+04 0.  0.
        1    1    3    3  502    0 -0.13690502425E+04  0.52849611191E+02 -0.95476237580E+03  0.16699289932E+04  0.50400001928E-02 0.  1.
       -1    1    3    3    0  502  0.13690502425E+04 -0.52849611191E+02 -0.42263893057E+03  0.14337765912E+04  0.50400001928E-02 0. -1.
</event>
<event>
 5   0  0.3357244E-06  0.2816541E+04  0.7818609E-02  0.8298151E-01
        1   -1    0    0  501    0  0.00000000000E+00  0.00000000000E+00  0.20249064523E+04  0.20249064523E+04  0.50400001928E-02 0. -1.
       -1   -1    0    0    0  501  0.00000000000E+00  0.00000000000E+00 -0.97941633013E+03  0.97941633015E+03  0.50400001928E-02 0.  1.
    10030    2    1    2    0    0  0.00000000000E+00  0.00000000000E+00  0.10454901221E+04  0.30043227824E+04  0.28165414582E+04 0.  0.
        4    1    3    3  502    0 -0.65629723108E+03 -0.76883215496E+03  0.15686243784E+04  0.18661224481E+04  0.12699999809E+01 0. -1.
       -4    1    3    3    0  502  0.65629723108E+03  0.76883215496E+03 -0.52313425626E+03  0.11382003343E+04  0.12699999809E+01 0.  1.
</event>
<event>
 5   0  0.3600963E-06  0.2756710E+04  0.7818609E-02  0.8316835E-01
       -1   -1    0    0    0  501  0.00000000000E+00  0.00000000000E+00  0.11127676452E+04  0.11127676452E+04  0.50400001928E-02 0. -1.
        1   -1    0    0  501    0  0.00000000000E+00  0.00000000000E+00 -0.17073313469E+04  0.17073313469E+04  0.50400001928E-02 0.  1.
    10030    2    1    2    0    0  0.00000000000E+00  0.00000000000E+00 -0.59456370167E+03  0.28200989921E+04  0.27567104182E+04 0.  0.
        5    1    3    3  502    0  0.58299103177E+03 -0.25567815034E+03 -0.15479278740E+04  0.16737241866E+04  0.46999998093E+01 0.  1.
       -5    1    3    3    0  502 -0.58299103177E+03  0.25567815034E+03  0.95336417231E+03  0.11463748055E+04  0.46999998093E+01 0. -1.
</event>
<event>
 5   0  0.3357244E-06  0.2621732E+04  0.7818609E-02  0.8360857E-01
       -1   -1    0    0    0  501  0.00000000000E+00  0.00000000000E+00  0.63976040530E+03  0.63976040532E+03  0.50400001928E-02 0. -1.
        1   -1    0    0  501    0  0.00000000000E+00  0.00000000000E+00 -0.26859586999E+04  0.26859586999E+04  0.50400001928E-02 0.  1.
    10030    2    1    2    0    0  0.00000000000E+00  0.00000000000E+00 -0.20461982946E+04  0.33257191052E+04  0.26217322720E+04 0.  0.
        4    1    3    3  502    0 -0.19195575256E+02 -0.12301903497E+04 -0.15969296437E+04  0.20159173263E+04  0.12699999809E+01 0.  1.
       -4    1    3    3    0  502  0.19195575256E+02  0.12301903497E+04 -0.44926865088E+03  0.13098017789E+04  0.12699999809E+01 0. -1.
</event>
<event>
 5   0  0.3357244E-06  0.2801340E+04  0.7818609E-02  0.8302853E-01
        1   -1    0    0  501    0  0.00000000000E+00  0.00000000000E+00  0.12328181933E+04  0.12328181933E+04  0.50400001928E-02 0.  1.
       -1   -1    0    0    0  501  0.00000000000E+00  0.00000000000E+00 -0.15913748951E+04  0.15913748951E+04  0.50400001928E-02 0. -1.
    10030    2    1    2    0    0  0.00000000000E+00  0.00000000000E+00 -0.35855670188E+03  0.28241930884E+04  0.28013396246E+04 0.  0.
        4    1    3    3  502    0 -0.13281813503E+04  0.39509079436E+03  0.26622659274E+02  0.13859555599E+04  0.12699999809E+01 0.  1.
       -4    1    3    3    0  502  0.13281813503E+04 -0.39509079436E+03 -0.38517936115E+03  0.14382375285E+04  0.12699999809E+01 0. -1.
</event>
<event>
 5   0  0.3357244E-06  0.2778191E+04  0.7818609E-02  0.8310071E-01
       -1   -1    0    0    0  501  0.00000000000E+00  0.00000000000E+00  0.94176196176E+03  0.94176196177E+03  0.50400001928E-02 0. -1.
        1   -1    0    0  501    0  0.00000000000E+00  0.00000000000E+00 -0.20489103721E+04  0.20489103721E+04  0.50400001928E-02 0.  1.
    10030    2    1    2    0    0  0.00000000000E+00  0.00000000000E+00 -0.11071484103E+04  0.29906723339E+04  0.27781906713E+04 0.  0.
        4    1    3    3  502    0  0.43541491256E+03  0.12667736234E+04 -0.15763556872E+03  0.13487594835E+04  0.12699999809E+01 0. -1.
       -4    1    3    3    0  502 -0.43541491256E+03 -0.12667736234E+04 -0.94951284162E+03  0.16419128504E+04  0.12699999809E+01 0.  1.
</event>
<event>
 5   0  0.3438130E-06  0.2801596E+04  0.7818609E-02  0.8302773E-01
        1   -1    0    0  501    0  0.00000000000E+00  0.00000000000E+00  0.19551158603E+04  0.19551158603E+04  0.50400001928E-02 0. -1.
       -1   -1    0    0    0  501  0.00000000000E+00  0.00000000000E+00 -0.10036415973E+04  0.10036415973E+04  0.50400001928E-02 0.  1.
    10030    2    1    2    0    0  0.00000000000E+00  0.00000000000E+00  0.95147426299E+03  0.29587574576E+04  0.28015964056E+04 0.  0.
        3    1    3    3  502    0  0.89608298454E+03  0.71950842826E+03 -0.37018170437E+03  0.12073489959E+04  0.10100000352E+00 0.  1.
       -3    1    3    3    0  502 -0.89608298454E+03 -0.71950842826E+03  0.13216559674E+04  0.17514084617E+04  0.10100000352E+00 0. -1.
</event>
<event>
 5   0  0.9342133E-06  0.2812621E+04  0.7818609E-02  0.8299361E-01
       -2   -1    0    0    0  501  0.00000000000E+00  0.00000000000E+00  0.20296218490E+04  0.20296218490E+04  0.25500000920E-02 0.  1.
        2   -1    0    0  501    0  0.00000000000E+00  0.00000000000E+00 -0.97442231711E+03  0.97442231711E+03  0.25500000920E-02 0. -1.
    10030    2    1    2    0    0  0.00000000000E+00  0.00000000000E+00  0.10551995319E+04  0.30040441662E+04  0.28126207174E+04 0.  0.
        2    1    3    3  502    0  0.44190175660E+03 -0.51096859756E+03  0.18449725208E+04  0.19647619888E+04  0.25500000920E-02 0.  1.
       -2    1    3    3    0  502 -0.44190175660E+03  0.51096859756E+03 -0.78977298887E+03  0.10392821773E+04  0.25500000920E-02 0. -1.
</event>
<event>
 5   0  0.3371603E-06  0.2813137E+04  0.7818609E-02  0.8299201E-01
        1   -1    0    0  501    0  0.00000000000E+00  0.00000000000E+00  0.27277537600E+04  0.27277537600E+04  0.50400001928E-02 0. -1.
       -1   -1    0    0    0  501  0.00000000000E+00  0.00000000000E+00 -0.72529826050E+03  0.72529826052E+03  0.50400001928E-02 0.  1.
    10030    2    1    2    0    0  0.00000000000E+00  0.00000000000E+00  0.20024554995E+04  0.34530520205E+04  0.28131370797E+04 0.  0.
        1    1    3    3  502    0  0.66666402754E+03  0.95731372572E+03  0.36629705926E+02  0.11671470475E+04  0.50400001928E-02 0.  1.
       -1    1    3    3    0  502 -0.66666402754E+03 -0.95731372572E+03  0.19658257936E+04  0.22859049731E+04  0.50400001928E-02 0. -1.
</event>
<event>
 5   0  0.3371603E-06  0.2814673E+04  0.7818609E-02  0.8298727E-01
       -1   -1    0    0    0  501  0.00000000000E+00  0.00000000000E+00  0.15067762914E+04  0.15067762914E+04  0.50400001928E-02 0. -1.
        1   -1    0    0  501    0  0.00000000000E+00  0.00000000000E+00 -0.13144590139E+04  0.13144590139E+04  0.50400001928E-02 0.  1.
    10030    2    1    2    0    0  0.00000000000E+00  0.00000000000E+00  0.19231727750E+03  0.28212353054E+04  0.28146727542E+04 0.  0.
        1    1    3    3  502    0 -0.16765767405E+03  0.13638960928E+04 -0.20831601580E+03  0.13898622990E+04  0.50400001928E-02 0.  1.
       -1    1    3    3    0  502  0.16765767405E+03 -0.13638960928E+04  0.40063329330E+03  0.14313730064E+04  0.50400001928E-02 0. -1.
</event>
<event>
 5   0  0.3006875E-06  0.2783655E+04  0.7818609E-02  0.8308361E-01
        4   -1    0    0  501    0  0.00000000000E+00  0.00000000000E+00  0.20653006890E+04  0.20653010795E+04  0.12699999809E+01 0.  1.
       -4   -1    0    0    0  501  0.00000000000E+00  0.00000000000E+00 -0.93796605621E+03  0.93796691600E+03  0.12699999809E+01 0. -1.
    10030    2    1    2    0    0  0.00000000000E+00  0.00000000000E+00  0.11273346328E+04  0.30032679955E+04  0.27836550214E+04 0.  0.
        3    1    3    3  502    0 -0.77887186430E+03  0.25290519682E+03 -0.65054665887E+03  0.10458553366E+04  0.10100000352E+00 0. -1.
       -3    1    3    3    0  502  0.77887186430E+03 -0.25290519682E+03  0.17778812916E+04  0.19574126588E+04  0.10100000352E+00 0.  1.
</event>
<event>
 5   0  0.3397882E-06  0.2725912E+04  0.7818609E-02  0.8326646E-01
       -1   -1    0    0    0  501  0.00000000000E+00  0.00000000000E+00  0.14284630654E+04  0.14284630654E+04  0.50400001928E-02 0.  1.
        1   -1    0    0  501    0  0.00000000000E+00  0.00000000000E+00 -0.13004533578E+04  0.13004533578E+04  0.50400001928E-02 0. -1.
    10030    2    1    2    0    0  0.00000000000E+00  0.00000000000E+00  0.12800970762E+03  0.27289164233E+04  0.27259123904E+04 0.  0.
        2    1    3    3  502    0 -0.87942485795E+03 -0.10041915389E+04  0.33973689058E+03  0.13773924214E+04  0.25500000920E-02 0. -1.
       -2    1    3    3    0  502  0.87942485795E+03  0.10041915389E+04 -0.21172718296E+03  0.13515240019E+04  0.25500000920E-02 0.  1.
</event>
<event>
 5   0  0.3438130E-06  0.2813538E+04  0.7818609E-02  0.8299078E-01
       -1   -1    0    0    0  501  0.00000000000E+00  0.00000000000E+00  0.91577350989E+03  0.91577350991E+03  0.50400001928E-02 0.  1.
        1   -1    0    0  501    0  0.00000000000E+00  0.00000000000E+00 -0.21610134702E+04  0.21610134702E+04  0.50400001928E-02 0. -1.
    10030    2    1    2    0    0  0.00000000000E+00  0.00000000000E+00 -0.12452399603E+04  0.30767869801E+04  0.28135379084E+04 0.  0.
        3    1    3    3  502    0 -0.84567916141E+03  0.35710332377E+03  0.54309319912E+03  0.10666050164E+04  0.10100000352E+00 0.  1.
       -3    1    3    3    0  502  0.84567916141E+03 -0.35710332377E+03 -0.17883331594E+04  0.20101819637E+04  0.10100000352E+00 0. -1.
</event>
<event>
 5   0  0.3357244E-06  0.2812116E+04  0.7818609E-02  0.8299517E-01
        1   -1    0    0  501    0  0.00000000000E+00  0.00000000000E+00  0.17361724715E+04  0.17361724715E+04  0.50400001928E-02 0. -1.
       -1   -1    0    0    0  501  0.00000000000E+00  0.00000000000E+00 -0.11387110277E+04  0.11387110277E+04  0.50400001928E-02 0.  1.
    10030    2    1    2    0    0  0.00000000000E+00  0.00000000000E+00  0.59746144379E+03  0.28748834993E+04  0.28121157440E+04 0.  0.
        4    1    3    3  502    0  0.69798123081E+03  0.16422171352E+02  0.15464432874E+04  0.16967427443E+04  0.12699999809E+01 0. -1.
       -4    1    3    3    0  502 -0.69798123081E+03 -0.16422171352E+02 -0.94898184358E+03  0.11781407550E+04  0.12699999809E+01 0.  1.
</event>
<event>
 5   0  0.3357244E-06  0.2785682E+04  0.7818609E-02  0.8307727E-01
        1   -1    0    0  501    0  0.00000000000E+00  0.00000000000E+00  0.12504206476E+04  0.12504206476E+04  0.50400001928E-02 0.  1.
       -1   -1    0    0    0  501  0.00000000000E+00  0.00000000000E+00 -0.15514828562E+04  0.15514828562E+04  0.50400001928E-02 0. -1.
    10030    2    1    2    0    0  0.00000000000E+00  0.00000000000E+00 -0.30106220859E+03  0.28019035038E+04  0.27856821052E+04 0.  0.
        4    1    3    3  502    0  0.55171550511E+03 -0.52180035325E+03  0.10238891853E+04  0.12747612654E+04  0.12699999809E+01 0.  1.
       -4    1    3    3    0  502 -0.55171550511E+03  0.52180035325E+03 -0.13249513939E+04  0.15271422384E+04  0.12699999809E+01 0. -1.
</event>
<event>
 5   0  0.9426937E-06  0.2613868E+04  0.7818609E-02  0.8363506E-01
       -2   -1    0    0    0  501  0.00000000000E+00  0.00000000000E+00  0.13474850637E+04  0.13474850637E+04  0.25500000920E-02 0. -1.
        2   -1    0    0  501    0  0.00000000000E+00  0.00000000000E+00 -0.12676030304E+04  0.12676030304E+04  0.25500000920E-02 0.  1.
    10030    2    1    2    0    0  0.00000000000E+00  0.00000000000E+00  0.79882033321E+02  0.26150880941E+04  0.26138677474E+04 0.  0.
        4    1    3    3  502    0  0.10001302677E+04  0.45636519227E+03 -0.66717379293E+03  0.12859440983E+04  0.12699999809E+01 0.  1.
       -4    1    3    3    0  502 -0.10001302677E+04 -0.45636519227E+03  0.74705582625E+03  0.13291439958E+04  0.12699999809E+01 0. -1.
</event>
<event>
 5   0  0.3438130E-06  0.2761191E+04  0.7818609E-02  0.8315419E-01
        1   -1    0    0  501    0  0.00000000000E+00  0.00000000000E+00  0.91211246753E+03  0.91211246754E+03  0.50400001928E-02 0. -1.
       -1   -1    0    0    0  501  0.00000000000E+00  0.00000000000E+00 -0.20897022800E+04  0.20897022800E+04  0.50400001928E-02 0.  1.
    10030    2    1    2    0    0  0.00000000000E+00  0.00000000000E+00 -0.11775898125E+04  0.30018147475E+04  0.27611906874E+04 0.  0.
        3    1    3    3  502    0 -0.64747749426E+03 -0.64809881330E+03 -0.17116553890E+04  0.19413972696E+04  0.10100000352E+00 0.  1.
       -3    1    3    3    0  502  0.64747749426E+03  0.64809881330E+03  0.53406557653E+03  0.10604174780E+04  0.10100000352E+00 0. -1.
</event>
<event>
 5   0  0.9342133E-06  0.2859936E+04  0.7818609E-02  0.8284898E-01
        2   -1    0    0  501    0  0.00000000000E+00  0.00000000000E+00  0.13516619098E+04  0.13516619098E+04  0.25500000920E-02 0.  1.
       -2   -1    0    0    0  501  0.00000000000E+00  0.00000000000E+00 -0.15128106497E+04  0.15128106497E+04  0.25500000920E-02 0. -1.
    10030    2    1    2    0    0  0.00000000000E+00  0.00000000000E+00 -0.16114873983E+03  0.28644725595E+04  0.28599360356E+04 0.  0.
        2    1    3    3  502    0  0.26089999459E+03 -0.46147983583E+03 -0.14107533211E+04  0.15070691355E+04  0.25500000920E-02 0. -1.
       -2    1    3    3    0  502 -0.26089999459E+03  0.46147983583E+03  0.12496045813E+04  0.13574034241E+04  0.25500000920E-02 0.  1.
</event>
<event>
 5   0  0.9252359E-06  0.2798776E+04  0.7818609E-02  0.8303648E-01
       -2   -1    0    0    0  501  0.00000000000E+00  0.00000000000E+00  0.20899694787E+04  0.20899694787E+04  0.25500000920E-02 0.  1.
        2   -1    0    0  501    0  0.00000000000E+00  0.00000000000E+00 -0.93699316793E+03  0.93699316793E+03  0.25500000920E-02 0. -1.
    10030    2    1    2    0    0  0.00000000000E+00  0.00000000000E+00  0.11529763108E+04  0.30269626466E+04  0.27987762488E+04 0.  0.
        5    1    3    3  502    0 -0.39941213846E+03 -0.11384050294E+04  0.13433605649E+04  0.18055846046E+04  0.46999998093E+01 0.  1.
       -5    1    3    3    0  502  0.39941213846E+03  0.11384050294E+04 -0.19038425411E+03  0.12213780420E+04  0.46999998093E+01 0. -1.
</event>
<event>
 5   0  0.9065579E-06  0.2796781E+04  0.7818609E-02  0.8304268E-01
       -2   -1    0    0    0  501  0.00000000000E+00  0.00000000000E+00  0.16509409890E+04  0.16509409891E+04  0.25500000920E-02 0.  1.
        2   -1    0    0  501    0  0.00000000000E+00  0.00000000000E+00 -0.11844737756E+04  0.11844737756E+04  0.25500000920E-02 0. -1.
    10030    2    1    2    0    0  0.00000000000E+00  0.00000000000E+00  0.46646721345E+03  0.28354147646E+04  0.27967812260E+04 0.  0.
        3    1    3    3  502    0 -0.76275839573E+03  0.11505120346E+04  0.64972343062E+01  0.13804059317E+04  0.10100000352E+00 0.  1.
       -3    1    3    3    0  502  0.76275839573E+03 -0.11505120346E+04  0.45996997915E+03  0.14550088329E+04  0.10100000352E+00 0. -1.
</event>
<event>
 5   0  0.3397882E-06  0.2826749E+04  0.7818609E-02  0.8295012E-01
       -1   -1    0    0    0  501  0.00000000000E+00  0.00000000000E+00  0.10752333953E+04  0.10752333954E+04  0.50400001928E-02 0. -1.
        1   -1    0    0  501    0  0.00000000000E+00  0.00000000000E+00 -0.18578550145E+04  0.18578550145E+04  0.50400001928E-02 0.  1.
    10030    2    1    2    0    0  0.00000000000E+00  0.00000000000E+00 -0.78262161918E+03  0.29330884099E+04  0.28267491968E+04 0.  0.
        2    1    3    3  502    0  0.25951630438E+03 -0.39862243080E+03  0.98968908948E+03  0.10980587636E+04  0.25500000920E-02 0. -1.
       -2    1    3    3    0  502 -0.25951630438E+03  0.39862243080E+03 -0.17723107087E+04  0.18350296462E+04  0.25500000920E-02 0.  1.
</event>
<event>
 5   0  0.9065579E-06  0.2788298E+04  0.7818609E-02  0.8306910E-01
        2   -1    0    0  501    0  0.00000000000E+00  0.00000000000E+00  0.15913324665E+04  0.15913324665E+04  0.25500000920E-02 0. -1.
       -2   -1    0    0    0  501  0.00000000000E+00  0.00000000000E+00 -0.12213990896E+04  0.12213990896E+04  0.25500000920E-02 0.  1.
    10030    2    1    2    0    0  0.00000000000E+00  0.00000000000E+00  0.36993337687E+03  0.28127315562E+04  0.27882984244E+04 0.  0.
        3    1    3    3  502    0 -0.10167261756E+03  0.51607544762E+03  0.14873965189E+04  0.15776627027E+04  0.10100000352E+00 0. -1.
       -3    1    3    3    0  502  0.10167261756E+03 -0.51607544762E+03 -0.11174631420E+04  0.12350688535E+04  0.10100000352E+00 0.  1.
</event>
<event>
 5   0  0.3600963E-06  0.2801010E+04  0.7818609E-02  0.8302955E-01
       -1   -1    0    0    0  501  0.00000000000E+00  0.00000000000E+00  0.13698924338E+04  0.13698924338E+04  0.50400001928E-02 0. -1.
        1   -1    0    0  501    0  0.00000000000E+00  0.00000000000E+00 -0.14318012433E+04  0.14318012433E+04  0.50400001928E-02 0.  1.
    10030    2    1    2    0    0  0.00000000000E+00  0.00000000000E+00 -0.61908809459E+02  0.28016936771E+04  0.28010095965E+04 0.  0.
        5    1    3    3  502    0 -0.72184526886E+03  0.82125438998E+03  0.84440059347E+03  0.13815041866E+04  0.46999998093E+01 0. -1.
       -5    1    3    3    0  502  0.72184526886E+03 -0.82125438998E+03 -0.90630940293E+03  0.14201894906E+04  0.46999998093E+01 0.  1.
</event>
<event>
 5   0  0.3438130E-06  0.2809587E+04  0.7818609E-02  0.8300298E-01
       -1   -1    0    0    0  501  0.00000000000E+00  0.00000000000E+00  0.13884869674E+04  0.13884869674E+04  0.50400001928E-02 0. -1.
        1   -1    0    0  501    0  0.00000000000E+00  0.00000000000E+00 -0.14212912288E+04  0.14212912288E+04  0.50400001928E-02 0.  1.
    10030    2    1    2    0    0  0.00000000000E+00  0.00000000000E+00 -0.32804261384E+02  0.28097781962E+04  0.28095866943E+04 0.  0.
        3    1    3    3  502    0  0.69885240835E+03  0.11960649263E+04 -0.24982399786E+03  0.14076143068E+04  0.10100000352E+00 0.  1.
       -3    1    3    3    0  502 -0.69885240835E+03 -0.11960649263E+04  0.21701973648E+03  0.14021638894E+04  0.10100000352E+00 0. -1.
</event>
<event>
 5   0  0.3371603E-06  0.2709906E+04  0.7818609E-02  0.8331798E-01
        1   -1    0    0  501    0  0.00000000000E+00  0.00000000000E+00  0.11695794389E+04  0.11695794389E+04  0.50400001928E-02 0.  1.
       -1   -1    0    0    0  501  0.00000000000E+00  0.00000000000E+00 -0.15697069360E+04  0.15697069360E+04  0.50400001928E-02 0. -1.
    10030    2    1    2    0    0  0.00000000000E+00  0.00000000000E+00 -0.40012749704E+03  0.27392863749E+04  0.27099055020E+04 0.  0.
        1    1    3    3  502    0 -0.81265831027E+03 -0.10841459059E+04 -0.21071761013E+03  0.13711993968E+04  0.50400001928E-02 0. -1.
       -1    1    3    3    0  502  0.81265831027E+03  0.10841459059E+04 -0.18940988691E+03  0.13680869781E+04  0.50400001928E-02 0.  1.
</event>
<event>
 5   0  0.9426937E-06  0.2817788E+04  0.7818609E-02  0.8297767E-01
       -2   -1    0    0    0  501  0.00000000000E+00  0.00000000000E+00  0.18281583443E+04  0.18281583443E+04  0.25500000920E-02 0.  1.
        2   -1    0    0  501    0  0.00000000000E+00  0.00000000000E+00 -0.10857823587E+04  0.10857823587E+04  0.25500000920E-02 0. -1.
    10030    2    1    2    0    0  0.00000000000E+00  0.00000000000E+00  0.74237598554E+03  0.29139407030E+04  0.28177878410E+04 0.  0.
        4    1    3    3  502    0  0.43800605820E+01 -0.89656512232E+03  0.14950725022E+04  0.17432990573E+04  0.12699999809E+01 0.  1.
       -4    1    3    3    0  502 -0.43800605820E+01  0.89656512232E+03 -0.75269651669E+03  0.11706416457E+04  0.12699999809E+01 0. -1.
</event>
<event>
 5   0  0.3357244E-06  0.2754212E+04  0.7818609E-02  0.8317626E-01
       -1   -1    0    0    0  501  0.00000000000E+00  0.00000000000E+00  0.92588282194E+03  0.92588282195E+03  0.50400001928E-02 0. -1.
        1   -1    0    0  501    0  0.00000000000E+00  0.00000000000E+00 -0.20482303719E+04  0.20482303719E+04  0.50400001928E-02 0.  1.
    10030    2    1    2    0    0  0.00000000000E+00  0.00000000000E+00 -0.11223475500E+04  0.29741131939E+04  0.27542122770E+04 0.  0.
        4    1    3    3  502    0 -0.16850929358E+03 -0.52900404871E+03 -0.19220223836E+04  0.20006029895E+04  0.12699999809E+01 0.  1.
       -4    1    3    3    0  502  0.16850929358E+03  0.52900404871E+03  0.79967483364E+03  0.97351020438E+03  0.12699999809E+01 0. -1.
</event>
<event>
 5   0  0.3397882E-06  0.2793547E+04  0.7818609E-02  0.8305275E-01
        1   -1    0    0  501    0  0.00000000000E+00  0.00000000000E+00  0.20909192166E+04  0.20909192166E+04  0.50400001928E-02 0. -1.
       -1   -1    0    0    0  501  0.00000000000E+00  0.00000000000E+00 -0.93307077367E+03  0.93307077368E+03  0.50400001928E-02 0.  1.
    10030    2    1    2    0    0  0.00000000000E+00  0.00000000000E+00  0.11578484429E+04  0.30239899903E+04  0.27935465710E+04 0.  0.
        2    1    3    3  502    0  0.35147017990E+03 -0.12718337848E+04  0.10748460420E+04  0.17018773392E+04  0.25500000920E-02 0. -1.
       -2    1    3    3    0  502 -0.35147017990E+03  0.12718337848E+04  0.83002400884E+02  0.13221126511E+04  0.25500000920E-02 0.  1.
</event>
<event>
 5   0  0.3438130E-06  0.2596167E+04  0.7818609E-02  0.8369505E-01
       -1   -1    0    0    0  501  0.00000000000E+00  0.00000000000E+00  0.19959878157E+04  0.19959878157E+04  0.50400001928E-02 0.  1.
        1   -1    0    0  501    0  0.00000000000E+00  0.00000000000E+00 -0.84420361491E+03  0.84420361492E+03  0.50400001928E-02 0. -1.
    10030    2    1    2    0    0  0.00000000000E+00  0.00000000000E+00  0.11517842008E+04  0.28401914306E+04  0.25961665042E+04 0.  0.
        3    1    3    3  502    0 -0.12011627920E+04  0.40592086812E+03  0.27142281619E+03  0.12966241396E+04  0.10100000352E+00 0. -1.
       -3    1    3    3    0  502  0.12011627920E+04 -0.40592086812E+03  0.88036138462E+03  0.15435672910E+04  0.10100000352E+00 0.  1.
</event>
<event>
 5   0  0.9342133E-06  0.2784950E+04  0.7818609E-02  0.8307956E-01
        2   -1    0    0  501    0  0.00000000000E+00  0.00000000000E+00  0.18349234035E+04  0.18349234035E+04  0.25500000920E-02 0. -1.
       -2   -1    0    0    0  501  0.00000000000E+00  0.00000000000E+00 -0.10567127295E+04  0.10567127295E+04  0.25500000920E-02 0.  1.
    10030    2    1    2    0    0  0.00000000000E+00  0.00000000000E+00  0.77821067405E+03  0.28916361330E+04  0.27849502100E+04 0.  0.
        2    1    3    3  502    0 -0.27348216138E+03  0.13611246591E+04  0.50061636879E+03  0.14758284382E+04  0.25500000920E-02 0.  1.
       -2    1    3    3    0  502  0.27348216138E+03 -0.13611246591E+04  0.27759430526E+03  0.14158076948E+04  0.25500000920E-02 0. -1.
</event>
<event>
 5   0  0.9426937E-06  0.2816131E+04  0.7818609E-02  0.8298278E-01
        2   -1    0    0  501    0  0.00000000000E+00  0.00000000000E+00  0.15773046857E+04  0.15773046857E+04  0.25500000920E-02 0. -1.
       -2   -1    0    0    0  501  0.00000000000E+00  0.00000000000E+00 -0.12569850893E+04  0.12569850893E+04  0.25500000920E-02 0.  1.
    10030    2    1    2    0    0  0.00000000000E+00  0.00000000000E+00  0.32031959635E+03  0.28342897750E+04  0.28161310134E+04 0.  0.
        4    1    3    3  502    0  0.63435518661E+03  0.74731382559E+03  0.11775003438E+04  0.15321204683E+04  0.12699999809E+01 0. -1.
       -4    1    3    3    0  502 -0.63435518661E+03 -0.74731382559E+03 -0.85718074746E+03  0.13021693067E+04  0.12699999809E+01 0.  1.
</event>
<event>
 5   0  0.9342133E-06  0.2807058E+04  0.7818609E-02  0.8301080E-01
       -2   -1    0    0    0  501  0.00000000000E+00  0.00000000000E+00  0.72545988859E+03  0.72545988860E+03  0.25500000920E-02 0.  1.
        2   -1    0    0  501    0  0.00000000000E+00  0.00000000000E+00 -0.27153728042E+04  0.27153728042E+04  0.25500000920E-02 0. -1.
    10030    2    1    2    0    0  0.00000000000E+00  0.00000000000E+00 -0.19899129156E+04  0.34408326928E+04  0.28070582837E+04 0.  0.
        2    1    3    3  502    0 -0.24247351606E+02 -0.83304455677E+03  0.38932884389E+03  0.91985222525E+03  0.25500000920E-02 0.  1.
       -2    1    3    3    0  502  0.24247351606E+02  0.83304455677E+03 -0.23792417594E+04  0.25209804675E+04  0.25500000920E-02 0. -1.
</event>
<event>
 5   0  0.3357244E-06  0.2772086E+04  0.7818609E-02  0.8311987E-01
       -1   -1    0    0    0  501  0.00000000000E+00  0.00000000000E+00  0.10990911026E+04  0.10990911027E+04  0.50400001928E-02 0.  1.
        1   -1    0    0  501    0  0.00000000000E+00  0.00000000000E+00 -0.17479126649E+04  0.17479126649E+04  0.50400001928E-02 0. -1.
    10030    2    1    2    0    0  0.00000000000E+00  0.00000000000E+00 -0.64882156223E+03  0.28470037675E+04  0.27720860435E+04 0.  0.
        4    1    3    3  502    0 -0.65385166232E+03  0.30692280007E+03  0.89051773414E+03  0.11466241970E+04  0.12699999809E+01 0.  1.
       -4    1    3    3    0  502  0.65385166232E+03 -0.30692280007E+03 -0.15393392964E+04  0.17003795705E+04  0.12699999809E+01 0. -1.
</event>
<event>
 5   0  0.9252359E-06  0.2779639E+04  0.7818609E-02  0.8309618E-01
        2   -1    0    0  501    0  0.00000000000E+00  0.00000000000E+00  0.20762233438E+04  0.20762233438E+04  0.25500000920E-02 0. -1.
       -2   -1    0    0    0  501  0.00000000000E+00  0.00000000000E+00 -0.93034207141E+03  0.93034207141E+03  0.25500000920E-02 0.  1.
    10030    2    1    2    0    0  0.00000000000E+00  0.00000000000E+00  0.11458812724E+04  0.30065654152E+04  0.27796387725E+04 0.  0.
        5    1    3    3  502    0 -0.48939582037E+03 -0.50398172879E+03 -0.72415592329E+03  0.10089250434E+04  0.46999998093E+01 0.  1.
       -5    1    3    3    0  502  0.48939582037E+03  0.50398172879E+03  0.18700371957E+04  0.19976403718E+04  0.46999998093E+01 0. -1.
</event>
<event>
 5   0  0.3397882E-06  0.2775769E+04  0.7818609E-02  0.8310831E-01
        1   -1    0    0  501    0  0.00000000000E+00  0.00000000000E+00  0.11719411366E+04  0.11719411366E+04  0.50400001928E-02 0. -1.
       -1   -1    0    0    0  501  0.00000000000E+00  0.00000000000E+00 -0.16436173988E+04  0.16436173988E+04  0.50400001928E-02 0.  1.
    10030    2    1    2    0    0  0.00000000000E+00  0.00000000000E+00 -0.47167626220E+03  0.28155585355E+04  0.27757686090E+04 0.  0.
        2    1    3    3  502    0  0.81307470475E+03  0.78721959028E+03  0.57905701499E+03  0.12712640109E+04  0.25500000920E-02 0. -1.
       -2    1    3    3    0  502 -0.81307470475E+03 -0.78721959028E+03 -0.10507332772E+04  0.15442945246E+04  0.25500000920E-02 0.  1.
</event>
<event>
 5   0  0.3371603E-06  0.2795894E+04  0.7818609E-02  0.8304544E-01
       -1   -1    0    0    0  501  0.00000000000E+00  0.00000000000E+00  0.12727876113E+04  0.12727876113E+04  0.50400001928E-02 0. -1.
        1   -1    0    0  501    0  0.00000000000E+00  0.00000000000E+00 -0.15354139739E+04  0.15354139740E+04  0.50400001928E-02 0.  1.
    10030    2    1    2    0    0  0.00000000000E+00  0.00000000000E+00 -0.26262636269E+03  0.28082015852E+04  0.27958940496E+04 0.  0.
        1    1    3    3  502    0 -0.13113557934E+04 -0.27913375135E+03  0.26626538812E+03  0.13669187704E+04  0.50400001928E-02 0. -1.
       -1    1    3    3    0  502  0.13113557934E+04  0.27913375135E+03 -0.52889175081E+03  0.14412828148E+04  0.50400001928E-02 0.  1.
</event>
<event>
 5   0  0.3600963E-06  0.2805374E+04  0.7818609E-02  0.8301602E-01
       -1   -1    0    0    0  501  0.00000000000E+00  0.00000000000E+00  0.19696042135E+04  0.19696042135E+04  0.50400001928E-02 0.  1.
        1   -1    0    0  501    0  0.00000000000E+00  0.00000000000E+00 -0.99894721638E+03  0.99894721639E+03  0.50400001928E-02 0. -1.
    10030    2    1    2    0    0  0.00000000000E+00  0.00000000000E+00  0.97065699713E+03  0.29685514299E+04  0.28053738763E+04 0.  0.
        5    1    3    3  502    0 -0.13665035892E+04 -0.10581313165E+03  0.80097444838E+03  0.15874856330E+04  0.46999998093E+01 0.  1.
       -5    1    3    3    0  502  0.13665035892E+04  0.10581313165E+03  0.16968254875E+03  0.13810657969E+04  0.46999998093E+01 0. -1.
</event>
<event>
 5   0  0.3357244E-06  0.2671879E+04  0.7818609E-02  0.8344187E-01
        1   -1    0    0  501    0  0.00000000000E+00  0.00000000000E+00  0.96908561926E+03  0.96908561927E+03  0.50400001928E-02 0.  1.
       -1   -1    0    0    0  501  0.00000000000E+00  0.00000000000E+00 -0.18416681858E+04  0.18416681858E+04  0.50400001928E-02 0. -1.
    10030    2    1    2    0    0  0.00000000000E+00  0.00000000000E+00 -0.87258256658E+03  0.28107538051E+04  0.26718788553E+04 0.  0.
        4    1    3    3  502    0 -0.10134533873E+04  0.80363099048E+03 -0.84512469023E+02  0.12961691662E+04  0.12699999809E+01 0.  1.
       -4    1    3    3    0  502  0.10134533873E+04 -0.80363099048E+03 -0.78807009756E+03  0.15145846390E+04  0.12699999809E+01 0. -1.
</event>
<event>
 5   0  0.9260173E-06  0.2771327E+04  0.7818609E-02  0.8312226E-01
       -2   -1    0    0    0  501  0.00000000000E+00  0.00000000000E+00  0.90428442329E+03  0.90428442329E+03  0.25500000920E-02 0. -1.
        2   -1    0    0  501    0  0.00000000000E+00  0.00000000000E+00 -0.21232955125E+04  0.21232955125E+04  0.25500000920E-02 0.  1.
    10030    2    1    2    0    0  0.00000000000E+00  0.00000000000E+00 -0.12190110892E+04  0.30275799358E+04  0.27713267999E+04 0.  0.
        1    1    3    3  502    0  0.31447847451E+03  0.12853202966E+04 -0.16024022049E+03  0.13328998102E+04  0.50400001928E-02 0. -1.
       -1    1    3    3    0  502 -0.31447847451E+03 -0.12853202966E+04 -0.10587708687E+04  0.16946801256E+04  0.50400001928E-02 0.  1.
</event>
<event>
 5   0  0.3371603E-06  0.2792924E+04  0.7818609E-02  0.8305468E-01
        1   -1    0    0  501    0  0.00000000000E+00  0.00000000000E+00  0.20688324207E+04  0.20688324207E+04  0.50400001928E-02 0. -1.
       -1   -1    0    0    0  501  0.00000000000E+00  0.00000000000E+00 -0.94261209092E+03  0.94261209093E+03  0.50400001928E-02 0.  1.
    10030    2    1    2    0    0  0.00000000000E+00  0.00000000000E+00  0.11262203298E+04  0.30114445117E+04  0.27929242409E+04 0.  0.
        1    1    3    3  502    0  0.58906727098E+03  0.50201696731E+03 -0.69019570348E+03  0.10370107976E+04  0.50400001928E-02 0.  1.
       -1    1    3    3    0  502 -0.58906727098E+03 -0.50201696731E+03  0.18164160333E+04  0.19744337141E+04  0.50400001928E-02 0. -1.
</event>
<event>
 5   0  0.9065579E-06  0.2762713E+04  0.7818609E-02  0.8314939E-01
        2   -1    0    0  501    0  0.00000000000E+00  0.00000000000E+00  0.83967368134E+03  0.83967368134E+03  0.25500000920E-02 0.  1.
       -2   -1    0    0    0  501  0.00000000000E+00  0.00000000000E+00 -0.22724857238E+04  0.22724857238E+04  0.25500000920E-02 0. -1.
    10030    2    1    2    0    0  0.00000000000E+00  0.00000000000E+00 -0.14328120425E+04  0.31121594051E+04  0.27627134875E+04 0.  0.
        3    1    3    3  502    0 -0.33787075207E+03 -0.55161348223E+03 -0.20913252848E+04  0.21890809798E+04  0.10100000352E+00 0. -1.
       -3    1    3    3    0  502  0.33787075207E+03  0.55161348223E+03  0.65851324234E+03  0.92307842539E+03  0.10100000352E+00 0.  1.
</event>
<event>
 5   0  0.9065579E-06  0.2787885E+04  0.7818609E-02  0.8307040E-01
        2   -1    0    0  501    0  0.00000000000E+00  0.00000000000E+00  0.22958960478E+04  0.22958960478E+04  0.25500000920E-02 0. -1.
       -2   -1    0    0    0  501  0.00000000000E+00  0.00000000000E+00 -0.84632542058E+03  0.84632542059E+03  0.25500000920E-02 0.  1.
    10030    2    1    2    0    0  0.00000000000E+00  0.00000000000E+00  0.14495706272E+04  0.31422214684E+04  0.27878846377E+04 0.  0.
        3    1    3    3  502    0 -0.62917995606E+03  0.36820762880E+03  0.20639147953E+04  0.21888783811E+04  0.10100000352E+00 0. -1.
       -3    1    3    3    0  502  0.62917995606E+03 -0.36820762880E+03 -0.61434416806E+03  0.95334308726E+03  0.10100000352E+00 0.  1.
</event>
<event>
 5   0  0.9260173E-06  0.2741084E+04  0.7818609E-02  0.8321796E-01
        2   -1    0    0  501    0  0.00000000000E+00  0.00000000000E+00  0.13486343144E+04  0.13486343144E+04  0.25500000920E-02 0.  1.
       -2   -1    0    0    0  501  0.00000000000E+00  0.00000000000E+00 -0.13928057883E+04  0.13928057883E+04  0.25500000920E-02 0. -1.
    10030    2    1    2    0    0  0.00000000000E+00  0.00000000000E+00 -0.44171473825E+02  0.27414401027E+04  0.27410842230E+04 0.  0.
        1    1    3    3  502    0 -0.11548381223E+04  0.58273440880E+03  0.43091368273E+03  0.13634210949E+04  0.50400001928E-02 0. -1.
       -1    1    3    3    0  502  0.11548381223E+04 -0.58273440880E+03 -0.47508515655E+03  0.13780190078E+04  0.50400001928E-02 0.  1.
</event>
<event>
 5   0  0.9252359E-06  0.2792450E+04  0.7818609E-02  0.8305616E-01
       -2   -1    0    0    0  501  0.00000000000E+00  0.00000000000E+00  0.15404583824E+04  0.15404583824E+04  0.25500000920E-02 0.  1.
        2   -1    0    0  501    0  0.00000000000E+00  0.00000000000E+00 -0.12654962119E+04  0.12654962119E+04  0.25500000920E-02 0. -1.
    10030    2    1    2    0    0  0.00000000000E+00  0.00000000000E+00  0.27496217050E+03  0.28059545944E+04  0.27924499979E+04 0.  0.
        5    1    3    3  502    0 -0.20503174139E+03 -0.61480849828E+03  0.13801488065E+04  0.15247492655E+04  0.46999998093E+01 0.  1.
       -5    1    3    3    0  502  0.20503174139E+03  0.61480849828E+03 -0.11051866360E+04  0.12812053289E+04  0.46999998093E+01 0. -1.
</event>
<event>
 5   0  0.3600963E-06  0.2932699E+04  0.7818609E-02  0.8263214E-01
       -1   -1    0    0    0  501  0.00000000000E+00  0.00000000000E+00  0.12824087459E+04  0.12824087459E+04  0.50400001928E-02 0. -1.
        1   -1    0    0  501    0  0.00000000000E+00  0.00000000000E+00 -0.16766738163E+04  0.16766738163E+04  0.50400001928E-02 0.  1.
    10030    2    1    2    0    0  0.00000000000E+00  0.00000000000E+00 -0.39426507041E+03  0.29590825622E+04  0.29326992113E+04 0.  0.
        5    1    3    3  502    0  0.10606007409E+04 -0.17832342071E+03 -0.12028370845E+04  0.16135403050E+04  0.46999998093E+01 0. -1.
       -5    1    3    3    0  502 -0.10606007409E+04  0.17832342071E+03  0.80857201406E+03  0.13455422572E+04  0.46999998093E+01 0.  1.
</event>
<event>
 5   0  0.9065579E-06  0.2793922E+04  0.7818609E-02  0.8305158E-01
       -2   -1    0    0    0  501  0.00000000000E+00  0.00000000000E+00  0.10466009429E+04  0.10466009429E+04  0.25500000920E-02 0.  1.
        2   -1    0    0  501    0  0.00000000000E+00  0.00000000000E+00 -0.18646070673E+04  0.18646070673E+04  0.25500000920E-02 0. -1.
    10030    2    1    2    0    0  0.00000000000E+00  0.00000000000E+00 -0.81800612438E+03  0.29112080102E+04  0.27939216272E+04 0.  0.
        3    1    3    3  502    0 -0.86815590629E+03  0.10399530305E+04 -0.53655301488E+02  0.13557565728E+04  0.10100000352E+00 0. -1.
       -3    1    3    3    0  502  0.86815590629E+03 -0.10399530305E+04 -0.76435082289E+03  0.15554514373E+04  0.10100000352E+00 0.  1.
</event>
<event>
 5   0  0.3357244E-06  0.2821959E+04  0.7818609E-02  0.8296483E-01
       -1   -1    0    0    0  501  0.00000000000E+00  0.00000000000E+00  0.16835698900E+04  0.16835698900E+04  0.50400001928E-02 0.  1.
        1   -1    0    0  501    0  0.00000000000E+00  0.00000000000E+00 -0.11825249522E+04  0.11825249522E+04  0.50400001928E-02 0. -1.
    10030    2    1    2    0    0  0.00000000000E+00  0.00000000000E+00  0.50104493776E+03  0.28660948422E+04  0.28219591802E+04 0.  0.
        4    1    3    3  502    0 -0.27758209248E+03  0.92535100817E+03  0.12949716277E+04  0.16156359231E+04  0.12699999809E+01 0.  1.
       -4    1    3    3    0  502  0.27758209248E+03 -0.92535100817E+03 -0.79392668998E+03  0.12504589191E+04  0.12699999809E+01 0. -1.
</event>
<event>
 5   0  0.3371603E-06  0.2703894E+04  0.7818609E-02  0.8333743E-01
        1   -1    0    0  501    0  0.00000000000E+00  0.00000000000E+00  0.16218916256E+04  0.16218916256E+04  0.50400001928E-02 0. -1.
       -1   -1    0    0    0  501  0.00000000000E+00  0.00000000000E+00 -0.11269314967E+04  0.11269314967E+04  0.50400001928E-02 0.  1.
    10030    2    1    2    0    0  0.00000000000E+00  0.00000000000E+00  0.49496012893E+03  0.27488231223E+04  0.27038940490E+04 0.  0.
        1    1    3    3  502    0  0.22355347301E+03  0.13103567975E+04 -0.30899333542E+01  0.13292932858E+04  0.50400001928E-02 0.  1.
       -1    1    3    3    0  502 -0.22355347301E+03 -0.13103567975E+04  0.49805006228E+03  0.14195298365E+04  0.50400001928E-02 0. -1.
</event>
<event>
 5   0  0.3438130E-06  0.2812975E+04  0.7818609E-02  0.8299252E-01
       -1   -1    0    0    0  501  0.00000000000E+00  0.00000000000E+00  0.93390039732E+03  0.93390039733E+03  0.50400001928E-02 0.  1.
        1   -1    0    0  501    0  0.00000000000E+00  0.00000000000E+00 -0.21182201779E+04  0.21182201779E+04  0.50400001928E-02 0. -1.
    10030    2    1    2    0    0  0.00000000000E+00  0.00000000000E+00 -0.11843197805E+04  0.30521205752E+04  0.28129747000E+04 0.  0.
        3    1    3    3  502    0 -0.10849458585E+04 -0.89424262863E+03 -0.63317950600E+03  0.15419772021E+04  0.10100000352E+00 0. -1.
       -3    1    3    3    0  502  0.10849458585E+04  0.89424262863E+03 -0.55114027455E+03  0.15101433731E+04  0.10100000352E+00 0.  1.
</event>
<event>
 5   0  0.3438130E-06  0.2794386E+04  0.7818609E-02  0.8305013E-01
       -1   -1    0    0    0  501  0.00000000000E+00  0.00000000000E+00  0.90272923209E+03  0.90272923210E+03  0.50400001928E-02 0. -1.
        1   -1    0    0  501    0  0.00000000000E+00  0.00000000000E+00 -0.21624965853E+04  0.21624965853E+04  0.50400001928E-02 0.  1.
    10030    2    1    2    0    0  0.00000000000E+00  0.00000000000E+00 -0.12597673532E+04  0.30652258174E+04  0.27943864313E+04 0.  0.
        3    1    3    3  502    0  0.78868551026E+03  0.91458901809E+03 -0.14005848255E+04  0.18493609085E+04  0.10100000352E+00 0.  1.
       -3    1    3    3    0  502 -0.78868551026E+03 -0.91458901809E+03  0.14081747230E+03  0.12158649089E+04  0.10100000352E+00 0. -1.
</event>
<event>
 5   0  0.9342133E-06  0.2809305E+04  0.7818609E-02  0.8300385E-01
        2   -1    0    0  501    0  0.00000000000E+00  0.00000000000E+00  0.12689706263E+04  0.12689706263E+04  0.25500000920E-02 0.  1.
       -2   -1    0    0    0  501  0.00000000000E+00  0.00000000000E+00 -0.15548417884E+04  0.15548417884E+04  0.25500000920E-02 0. -1.
    10030    2    1    2    0    0  0.00000000000E+00  0.00000000000E+00 -0.28587116205E+03  0.28238124147E+04  0.28093049375E+04 0.  0.
        2    1    3    3  502    0  0.27474536041E+03 -0.44086588713E+03  0.11688712522E+04  0.12791042755E+04  0.25500000920E-02 0.  1.
       -2    1    3    3    0  502 -0.27474536041E+03  0.44086588713E+03 -0.14547424142E+04  0.15447081392E+04  0.25500000920E-02 0. -1.
</event>
<event>
 5   0  0.3600963E-06  0.2637647E+04  0.7818609E-02  0.8355525E-01
       -1   -1    0    0    0  501  0.00000000000E+00  0.00000000000E+00  0.79881489655E+03  0.79881489657E+03  0.50400001928E-02 0. -1.
        1   -1    0    0  501    0  0.00000000000E+00  0.00000000000E+00 -0.21773451910E+04  0.21773451910E+04  0.50400001928E-02 0.  1.
    10030    2    1    2    0    0  0.00000000000E+00  0.00000000000E+00 -0.13785302944E+04  0.29761600875E+04  0.26376472649E+04 0.  0.
        5    1    3    3  502    0  0.35783789083E+03  0.10402557221E+04  0.13147540382E+03  0.11079204824E+04  0.46999998093E+01 0. -1.
       -5    1    3    3    0  502 -0.35783789083E+03 -0.10402557221E+04 -0.15100056982E+04  0.18682396051E+04  0.46999998093E+01 0.  1.
</event>
<event>
 5   0  0.9252359E-06  0.3024109E+04  0.7818609E-02  0.8236880E-01
        2   -1    0    0  501    0  0.00000000000E+00  0.00000000000E+00  0.26198948406E+04  0.26198948406E+04  0.25500000920E-02 0. -1.
       -2   -1    0    0    0  501  0.00000000000E+00  0.00000000000E+00 -0.87267210105E+03  0.87267210106E+03  0.25500000920E-02 0.  1.
    10030    2    1    2    0    0  0.00000000000E+00  0.00000000000E+00  0.17472227395E+04  0.34925669417E+04  0.30241092144E+04 0.  0.
        5    1    3    3  502    0 -0.63106338891E+03 -0.75142390723E+03  0.22022111335E+04  0.24109406579E+04  0.46999998093E+01 0. -1.
       -5    1    3    3    0  502  0.63106338891E+03  0.75142390723E+03 -0.45498839395E+03  0.10816262838E+04  0.46999998093E+01 0.  1.
</event>
<event>
 5   0  0.3397882E-06  0.2807440E+04  0.7818609E-02  0.8300962E-01
        1   -1    0    0  501    0  0.00000000000E+00  0.00000000000E+00  0.18690431976E+04  0.18690431976E+04  0.50400001928E-02 0. -1.
       -1   -1    0    0    0  501  0.00000000000E+00  0.00000000000E+00 -0.10542451321E+04  0.10542451321E+04  0.50400001928E-02 0.  1.
    10030    2    1    2    0    0  0.00000000000E+00  0.00000000000E+00  0.81479806551E+03  0.29232883298E+04  0.28074398963E+04 0.  0.
        2    1    3    3  502    0  0.75980983310E+01 -0.48285629188E+03 -0.96502658539E+03  0.10791127097E+04  0.25500000920E-02 0.  1.
       -2    1    3    3    0  502 -0.75980983310E+01  0.48285629188E+03  0.17798246509E+04  0.18441756201E+04  0.25500000920E-02 0. -1.
</event>
<event>
 5   0  0.3397882E-06  0.2956889E+04  0.7818609E-02  0.8256150E-01
       -1   -1    0    0    0  501  0.00000000000E+00  0.00000000000E+00  0.28070297148E+04  0.28070297148E+04  0.50400001928E-02 0.  1.
        1   -1    0    0  501    0  0.00000000000E+00  0.00000000000E+00 -0.77868733877E+03  0.77868733879E+03  0.50400001928E-02 0. -1.
    10030    2    1    2    0    0  0.00000000000E+00  0.00000000000E+00  0.20283423760E+04  0.35857170536E+04  0.29568892428E+04 0.  0.
        2    1    3    3  502    0  0.82288438697E+03  0.39043627448E+03  0.24264027703E+04  0.25917194297E+04  0.25500000920E-02 0.  1.
       -2    1    3    3    0  502 -0.82288438697E+03 -0.39043627448E+03 -0.39806039427E+03  0.99399762386E+03  0.25500000920E-02 0. -1.
</event>
<event>
 5   0  0.3371603E-06  0.2646302E+04  0.7818609E-02  0.8352641E-01
        1   -1    0    0  501    0  0.00000000000E+00  0.00000000000E+00  0.16975720595E+04  0.16975720595E+04  0.50400001928E-02 0. -1.
       -1   -1    0    0    0  501  0.00000000000E+00  0.00000000000E+00 -0.10313131500E+04  0.10313131501E+04  0.50400001928E-02 0.  1.
    10030    2    1    2    0    0  0.00000000000E+00  0.00000000000E+00  0.66625890949E+03  0.27288852096E+04  0.26463018635E+04 0.  0.
        1    1    3    3  502    0  0.12050205929E+04  0.46526818991E+03  0.62874483449E+03  0.14366172715E+04  0.50400001928E-02 0.  1.
       -1    1    3    3    0  502 -0.12050205929E+04 -0.46526818991E+03  0.37514075006E+02  0.12922679381E+04  0.50400001928E-02 0. -1.
</event>
<event>
 5   0  0.3397882E-06  0.2867980E+04  0.7818609E-02  0.8282469E-01
        1   -1    0    0  501    0  0.00000000000E+00  0.00000000000E+00  0.13366447847E+04  0.13366447847E+04  0.50400001928E-02 0.  1.
       -1   -1    0    0    0  501  0.00000000000E+00  0.00000000000E+00 -0.15384242509E+04  0.15384242509E+04  0.50400001928E-02 0. -1.
    10030    2    1    2    0    0  0.00000000000E+00  0.00000000000E+00 -0.20177946618E+03  0.28750690356E+04  0.28679796036E+04 0.  0.
        2    1    3    3  502    0 -0.13887149293E+04 -0.30860586556E+03  0.80000254268E+02  0.14248392105E+04  0.25500000920E-02 0.  1.
       -2    1    3    3    0  502  0.13887149293E+04  0.30860586556E+03 -0.28177972045E+03  0.14502298252E+04  0.25500000920E-02 0. -1.
</event>
<event>
 5   0  0.9260173E-06  0.2577248E+04  0.7818609E-02  0.8375971E-01
       -2   -1    0    0    0  501  0.00000000000E+00  0.00000000000E+00  0.10142723425E+04  0.10142723425E+04  0.25500000920E-02 0. -1.
        2   -1    0    0  501    0  0.00000000000E+00  0.00000000000E+00 -0.16371858271E+04  0.16371858271E+04  0.25500000920E-02 0.  1.
    10030    2    1    2    0    0  0.00000000000E+00  0.00000000000E+00 -0.62291348461E+03  0.26514581697E+04  0.25772483808E+04 0.  0.
        1    1    3    3  502    0  0.40264889868E+03  0.18608236213E+03  0.93325648615E+03  0.10333055937E+04  0.50400001928E-02 0. -1.
       -1    1    3    3    0  502 -0.40264889868E+03 -0.18608236213E+03 -0.15561699708E+04  0.16181525759E+04  0.50400001928E-02 0.  1.
</event>
<event>
 5   0  0.9260173E-06  0.2768108E+04  0.7818609E-02  0.8313238E-01
       -2   -1    0    0    0  501  0.00000000000E+00  0.00000000000E+00  0.89084704303E+03  0.89084704303E+03  0.25500000920E-02 0. -1.
        2   -1    0    0  501    0  0.00000000000E+00  0.00000000000E+00 -0.21503197074E+04  0.21503197074E+04  0.25500000920E-02 0.  1.
    10030    2    1    2    0    0  0.00000000000E+00  0.00000000000E+00 -0.12594726643E+04  0.30411667504E+04  0.27681083453E+04 0.  0.
        1    1    3    3  502    0  0.74854676239E+02 -0.10830178912E+03  0.88395225363E+03  0.89370245988E+03  0.50400001928E-02 0. -1.
       -1    1    3    3    0  502 -0.74854676239E+02  0.10830178912E+03 -0.21434249180E+04  0.21474642905E+04  0.50400001928E-02 0.  1.
</event>
<event>
 5   0  0.3357244E-06  0.2788095E+04  0.7818609E-02  0.8306974E-01
       -1   -1    0    0    0  501  0.00000000000E+00  0.00000000000E+00  0.10727558098E+04  0.10727558098E+04  0.50400001928E-02 0. -1.
        1   -1    0    0  501    0  0.00000000000E+00  0.00000000000E+00 -0.18115670756E+04  0.18115670757E+04  0.50400001928E-02 0.  1.
    10030    2    1    2    0    0  0.00000000000E+00  0.00000000000E+00 -0.73881126583E+03  0.28843228855E+04  0.27880954828E+04 0.  0.
        4    1    3    3  502    0 -0.86020911276E+03 -0.54316373789E+03 -0.13553904715E+04  0.16947187103E+04  0.12699999809E+01 0.  1.
       -4    1    3    3    0  502  0.86020911276E+03  0.54316373789E+03  0.61657920570E+03  0.11896041752E+04  0.12699999809E+01 0. -1.
</event>
<event>
 5   0  0.9252359E-06  0.2820075E+04  0.7818609E-02  0.8297063E-01
       -2   -1    0    0    0  501  0.00000000000E+00  0.00000000000E+00  0.17290653126E+04  0.17290653126E+04  0.25500000920E-02 0. -1.
        2   -1    0    0  501    0  0.00000000000E+00  0.00000000000E+00 -0.11498728500E+04  0.11498728500E+04  0.25500000920E-02 0.  1.
    10030    2    1    2    0    0  0.00000000000E+00  0.00000000000E+00  0.57919246262E+03  0.28789381627E+04  0.28200746507E+04 0.  0.
        5    1    3    3  502    0 -0.46233559465E+03  0.10541563461E+04 -0.54176265610E+03  0.12722140817E+04  0.46999998093E+01 0.  1.
       -5    1    3    3    0  502  0.46233559465E+03 -0.10541563461E+04  0.11209551187E+04  0.16067240810E+04  0.46999998093E+01 0. -1.
</event>
<event>
 5   0  0.3600963E-06  0.2818106E+04  0.7818609E-02  0.8297669E-01
        1   -1    0    0  501    0  0.00000000000E+00  0.00000000000E+00  0.20876037823E+04  0.20876037823E+04  0.50400001928E-02 0. -1.
       -1   -1    0    0    0  501  0.00000000000E+00  0.00000000000E+00 -0.95105729417E+03  0.95105729418E+03  0.50400001928E-02 0.  1.
    10030    2    1    2    0    0  0.00000000000E+00  0.00000000000E+00  0.11365464881E+04  0.30386610764E+04  0.28181063177E+04 0.  0.
        5    1    3    3  502    0  0.30272778904E+03 -0.29604504413E+03 -0.88082697616E+03  0.97732544955E+03  0.46999998093E+01 0.  1.
       -5    1    3    3    0  502 -0.30272778904E+03  0.29604504413E+03  0.20173734643E+04  0.20613356269E+04  0.46999998093E+01 0. -1.
</event>
<event>
 5   0  0.3397882E-06  0.2817850E+04  0.7818609E-02  0.8297748E-01
       -1   -1    0    0    0  501  0.00000000000E+00  0.00000000000E+00  0.86532042115E+03  0.86532042117E+03  0.50400001928E-02 0.  1.
        1   -1    0    0  501    0  0.00000000000E+00  0.00000000000E+00 -0.22940277047E+04  0.22940277047E+04  0.50400001928E-02 0. -1.
    10030    2    1    2    0    0  0.00000000000E+00  0.00000000000E+00 -0.14287072836E+04  0.31593481259E+04  0.28178495486E+04 0.  0.
        2    1    3    3  502    0  0.70131322812E+03 -0.15540033279E+03  0.64459277460E+03  0.96513696045E+03  0.25500000920E-02 0.  1.
       -2    1    3    3    0  502 -0.70131322812E+03  0.15540033279E+03 -0.20733000582E+04  0.21942111654E+04  0.25500000920E-02 0. -1.
</event>
<event>
 5   0  0.9252359E-06  0.2845989E+04  0.7818609E-02  0.8289131E-01
        2   -1    0    0  501    0  0.00000000000E+00  0.00000000000E+00  0.12226228372E+04  0.12226228372E+04  0.25500000920E-02 0. -1.
       -2   -1    0    0    0  501  0.00000000000E+00  0.00000000000E+00 -0.16562038810E+04  0.16562038810E+04  0.25500000920E-02 0.  1.
    10030    2    1    2    0    0  0.00000000000E+00  0.00000000000E+00 -0.43358104383E+03  0.28788267182E+04  0.28459885369E+04 0.  0.
        5    1    3    3  502    0 -0.55999868630E+02  0.76691759072E+03 -0.14279328037E+04  0.16218238986E+04  0.46999998093E+01 0. -1.
       -5    1    3    3    0  502  0.55999868630E+02 -0.76691759072E+03  0.99435175985E+03  0.12570028196E+04  0.46999998093E+01 0.  1.
</event>
<event>
 5   0  0.9260173E-06  0.2883098E+04  0.7818609E-02  0.8277924E-01
       -2   -1    0    0    0  501  0.00000000000E+00  0.00000000000E+00  0.84258241387E+03  0.84258241387E+03  0.25500000920E-02 0.  1.
        2   -1    0    0  501    0  0.00000000000E+00  0.00000000000E+00 -0.24663022433E+04  0.24663022434E+04  0.25500000920E-02 0. -1.
    10030    2    1    2    0    0  0.00000000000E+00  0.00000000000E+00 -0.16237198295E+04  0.33088846572E+04  0.28830975686E+04 0.  0.
        1    1    3    3  502    0 -0.12304010838E+04 -0.57704175763E+03 -0.13637024244E+04  0.19252398083E+04  0.50400001928E-02 0. -1.
       -1    1    3    3    0  502  0.12304010838E+04  0.57704175763E+03 -0.26001740512E+03  0.13836448490E+04  0.50400001928E-02 0.  1.
</event>
<event>
 5   0  0.3357244E-06  0.2851951E+04  0.7818609E-02  0.8287319E-01
        1   -1    0    0  501    0  0.00000000000E+00  0.00000000000E+00  0.14199191126E+04  0.14199191126E+04  0.50400001928E-02 0. -1.
       -1   -1    0    0    0  501  0.00000000000E+00  0.00000000000E+00 -0.14320580060E+04  0.14320580060E+04  0.50400001928E-02 0.  1.
    10030    2    1    2    0    0  0.00000000000E+00  0.00000000000E+00 -0.12138893330E+02  0.28519771186E+04  0.28519512850E+04 0.  0.
        4    1    3    3  502    0 -0.12643645082E+04  0.22842411043E+03  0.61249071038E+03  0.14233557767E+04  0.12699999809E+01 0. -1.
       -4    1    3    3    0  502  0.12643645082E+04 -0.22842411043E+03 -0.62462960371E+03  0.14286213419E+04  0.12699999809E+01 0.  1.
</event>
<event>
 5   0  0.3006875E-06  0.2811185E+04  0.7818609E-02  0.8299804E-01
       -3   -1    0    0    0  501  0.00000000000E+00  0.00000000000E+00  0.10255792074E+04  0.10255792124E+04  0.10100000352E+00 0.  1.
        3   -1    0    0  501    0  0.00000000000E+00  0.00000000000E+00 -0.19264147929E+04  0.19264147955E+04  0.10100000352E+00 0. -1.
    10030    2    1    2    0    0  0.00000000000E+00  0.00000000000E+00 -0.90083558542E+03  0.29519940079E+04  0.28111854921E+04 0.  0.
        4    1    3    3  502    0 -0.53020653124E+02  0.11190820542E+04  0.44094204859E+03  0.12039880967E+04  0.12699999809E+01 0.  1.
       -4    1    3    3    0  502  0.53020653124E+02 -0.11190820542E+04 -0.13417776340E+04  0.17480059113E+04  0.12699999809E+01 0. -1.
</event>
<event>
 5   0  0.3438130E-06  0.2831959E+04  0.7818609E-02  0.8293414E-01
       -1   -1    0    0    0  501  0.00000000000E+00  0.00000000000E+00  0.86271872405E+03  0.86271872406E+03  0.50400001928E-02 0. -1.
        1   -1    0    0  501    0  0.00000000000E+00  0.00000000000E+00 -0.23240461601E+04  0.23240461601E+04  0.50400001928E-02 0.  1.
    10030    2    1    2    0    0  0.00000000000E+00  0.00000000000E+00 -0.14613274361E+04  0.31867648842E+04  0.28319591367E+04 0.  0.
        3    1    3    3  502    0 -0.23304736438E+03 -0.10799174390E+04 -0.17273303789E+04  0.20504153231E+04  0.10100000352E+00 0.  1.
       -3    1    3    3    0  502  0.23304736438E+03  0.10799174390E+04  0.26600294281E+03  0.11363495611E+04  0.10100000352E+00 0. -1.
</event>
<event>
 5   0  0.3438130E-06  0.2798567E+04  0.7818609E-02  0.8303713E-01
       -1   -1    0    0    0  501  0.00000000000E+00  0.00000000000E+00  0.10717231487E+04  0.10717231487E+04  0.50400001928E-02 0.  1.
        1   -1    0    0  501    0  0.00000000000E+00  0.00000000000E+00 -0.18269588406E+04  0.18269588406E+04  0.50400001928E-02 0. -1.
    10030    2    1    2    0    0  0.00000000000E+00  0.00000000000E+00 -0.75523569195E+03  0.28986819893E+04  0.27985668341E+04 0.  0.
        3    1    3    3  502    0  0.37769294697E+03  0.57397259692E+03 -0.16401990649E+04  0.17782996055E+04  0.10100000352E+00 0. -1.
       -3    1    3    3    0  502 -0.37769294697E+03 -0.57397259692E+03  0.88496337299E+03  0.11203823838E+04  0.10100000352E+00 0.  1.
</event>
<event>
 5   0  0.3600963E-06  0.2791726E+04  0.7818609E-02  0.8305842E-01
       -1   -1    0    0    0  501  0.00000000000E+00  0.00000000000E+00  0.10653720095E+04  0.10653720095E+04  0.50400001928E-02 0.  1.
        1   -1    0    0  501    0  0.00000000000E+00  0.00000000000E+00 -0.18288764580E+04  0.18288764580E+04  0.50400001928E-02 0. -1.
    10030    2    1    2    0    0  0.00000000000E+00  0.00000000000E+00 -0.76350444842E+03  0.28942484675E+04  0.27917261952E+04 0.  0.
        5    1    3    3  502    0 -0.28381116268E+03  0.40057712967E+03  0.97290912987E+03  0.10897637716E+04  0.46999998093E+01 0.  1.
       -5    1    3    3    0  502  0.28381116268E+03 -0.40057712967E+03 -0.17364135783E+04  0.18044846959E+04  0.46999998093E+01 0. -1.
</event>
<event>
 5   0  0.3357244E-06  0.2800221E+04  0.7818609E-02  0.8303200E-01
        1   -1    0    0  501    0  0.00000000000E+00  0.00000000000E+00  0.17833963938E+04  0.17833963938E+04  0.50400001928E-02 0.  1.
       -1   -1    0    0    0  501  0.00000000000E+00  0.00000000000E+00 -0.10991999782E+04  0.10991999782E+04  0.50400001928E-02 0. -1.
    10030    2    1    2    0    0  0.00000000000E+00  0.00000000000E+00  0.68419641559E+03  0.28825963721E+04  0.28002209036E+04 0.  0.
        4    1    3    3  502    0  0.17674811538E+03 -0.57780063244E+03  0.16422709158E+04  0.17498996660E+04  0.12699999809E+01 0.  1.
       -4    1    3    3    0  502 -0.17674811538E+03  0.57780063244E+03 -0.95807450021E+03  0.11326967061E+04  0.12699999809E+01 0. -1.
</event>
<event>
 5   0  0.3600963E-06  0.2806215E+04  0.7818609E-02  0.8301342E-01
        1   -1    0    0  501    0  0.00000000000E+00  0.00000000000E+00  0.14779193688E+04  0.14779193688E+04  0.50400001928E-02 0. -1.
       -1   -1    0    0    0  501  0.00000000000E+00  0.00000000000E+00 -0.13320824359E+04  0.13320824359E+04  0.50400001928E-02 0.  1.
    10030    2    1    2    0    0  0.00000000000E+00  0.00000000000E+00  0.14583693294E+03  0.28100018047E+04  0.28062148406E+04 0.  0.
        5    1    3    3  502    0  0.60383011272E+03 -0.81888123560E+03 -0.89456915156E+03  0.13547890389E+04  0.46999998093E+01 0.  1.
       -5    1    3    3    0  502 -0.60383011272E+03  0.81888123560E+03  0.10404060845E+04  0.14552127658E+04  0.46999998093E+01 0. -1.
</event>
<event>
 5   0  0.9426937E-06  0.2991126E+04  0.7818609E-02  0.8246269E-01
       -2   -1    0    0    0  501  0.00000000000E+00  0.00000000000E+00  0.15261190252E+04  0.15261190252E+04  0.25500000920E-02 0.  1.
        2   -1    0    0  501    0  0.00000000000E+00  0.00000000000E+00 -0.14656190254E+04  0.14656190254E+04  0.25500000920E-02 0. -1.
    10030    2    1    2    0    0  0.00000000000E+00  0.00000000000E+00  0.60499999816E+02  0.29917380506E+04  0.29911262617E+04 0.  0.
        4    1    3    3  502    0 -0.43054693424E+03  0.51402353310E+03 -0.13068542367E+04  0.14688296239E+04  0.12699999809E+01 0. -1.
       -4    1    3    3    0  502  0.43054693424E+03 -0.51402353310E+03  0.13673542365E+04  0.15229084267E+04  0.12699999809E+01 0.  1.
</event>
<event>
 5   0  0.3600963E-06  0.2801767E+04  0.7818609E-02  0.8302720E-01
        1   -1    0    0  501    0  0.00000000000E+00  0.00000000000E+00  0.15494145150E+04  0.15494145150E+04  0.50400001928E-02 0.  1.
       -1   -1    0    0    0  501  0.00000000000E+00  0.00000000000E+00 -0.12665907804E+04  0.12665907804E+04  0.50400001928E-02 0. -1.
    10030    2    1    2    0    0  0.00000000000E+00  0.00000000000E+00  0.28282373463E+03  0.28160052954E+04  0.28017666853E+04 0.  0.
        5    1    3    3  502    0  0.55674238854E+03 -0.12098863965E+04 -0.29515122848E+03  0.13641567056E+04  0.46999998093E+01 0. -1.
       -5    1    3    3    0  502 -0.55674238854E+03  0.12098863965E+04  0.57797496311E+03  0.14518485898E+04  0.46999998093E+01 0.  1.
</event>
<event>
 5   0  0.9065579E-06  0.2791162E+04  0.7818609E-02  0.8306017E-01
        2   -1    0    0  501    0  0.00000000000E+00  0.00000000000E+00  0.24158022452E+04  0.24158022452E+04  0.25500000920E-02 0.  1.
       -2   -1    0    0    0  501  0.00000000000E+00  0.00000000000E+00 -0.80621115313E+03  0.80621115313E+03  0.25500000920E-02 0. -1.
    10030    2    1    2    0    0  0.00000000000E+00  0.00000000000E+00  0.16095910921E+04  0.32220133983E+04  0.27911622768E+04 0.  0.
        3    1    3    3  502    0  0.12651876015E+04 -0.11056973762E+03  0.13693778801E+03  0.12773712467E+04  0.10100000352E+00 0. -1.
       -3    1    3    3    0  502 -0.12651876015E+04  0.11056973762E+03  0.14726533040E+04  0.19446421516E+04  0.10100000352E+00 0.  1.
</event>
<event>
 5   0  0.9252359E-06  0.2749054E+04  0.7818609E-02  0.8319262E-01
       -2   -1    0    0    0  501  0.00000000000E+00  0.00000000000E+00  0.92112616709E+03  0.92112616709E+03  0.25500000920E-02 0.  1.
        2   -1    0    0  501    0  0.00000000000E+00  0.00000000000E+00 -0.20511032591E+04  0.20511032591E+04  0.25500000920E-02 0. -1.
    10030    2    1    2    0    0  0.00000000000E+00  0.00000000000E+00 -0.11299770920E+04  0.29722294262E+04  0.27490542980E+04 0.  0.
        5    1    3    3  502    0  0.11063360428E+04 -0.20195125613E+03 -0.14194231106E+04  0.18109521823E+04  0.46999998093E+01 0. -1.
       -5    1    3    3    0  502 -0.11063360428E+04  0.20195125613E+03  0.28944601862E+03  0.11612772439E+04  0.46999998093E+01 0.  1.
</event>
<event>
 5   0  0.3397882E-06  0.2802522E+04  0.7818609E-02  0.8302486E-01
       -1   -1    0    0    0  501  0.00000000000E+00  0.00000000000E+00  0.11084934365E+04  0.11084934365E+04  0.50400001928E-02 0. -1.
        1   -1    0    0  501    0  0.00000000000E+00  0.00000000000E+00 -0.17713521345E+04  0.17713521345E+04  0.50400001928E-02 0.  1.
    10030    2    1    2    0    0  0.00000000000E+00  0.00000000000E+00 -0.66285869792E+03  0.28798455710E+04  0.28025218749E+04 0.  0.
        2    1    3    3  502    0 -0.57822331360E+03 -0.14384157249E+03  0.97182946112E+03  0.11399496041E+04  0.25500000920E-02 0. -1.
       -2    1    3    3    0  502  0.57822331360E+03  0.14384157249E+03 -0.16346881590E+04  0.17398959669E+04  0.25500000920E-02 0.  1.
</event>
<event>
 5   0  0.9252359E-06  0.2811791E+04  0.7818609E-02  0.8299617E-01
        2   -1    0    0  501    0  0.00000000000E+00  0.00000000000E+00  0.14858675336E+04  0.14858675336E+04  0.25500000920E-02 0.  1.
       -2   -1    0    0    0  501  0.00000000000E+00  0.00000000000E+00 -0.13302276315E+04  0.13302276315E+04  0.25500000920E-02 0. -1.
    10030    2    1    2    0    0  0.00000000000E+00  0.00000000000E+00  0.15563990215E+03  0.28160951651E+04  0.28117909239E+04 0.  0.
        5    1    3    3  502    0 -0.29486236236E+03  0.10093568751E+03  0.14508262906E+04  0.14839308748E+04  0.46999998093E+01 0.  1.
       -5    1    3    3    0  502  0.29486236236E+03 -0.10093568751E+03 -0.12951863884E+04  0.13321642903E+04  0.46999998093E+01 0. -1.
</event>
<event>
 5   0  0.3600963E-06  0.2772087E+04  0.7818609E-02  0.8311987E-01
       -1   -1    0    0    0  501  0.00000000000E+00  0.00000000000E+00  0.10745771858E+04  0.10745771858E+04  0.50400001928E-02 0.  1.
        1   -1    0    0  501    0  0.00000000000E+00  0.00000000000E+00 -0.17877887441E+04  0.17877887441E+04  0.50400001928E-02 0. -1.
    10030    2    1    2    0    0  0.00000000000E+00  0.00000000000E+00 -0.71321155832E+03  0.28623659299E+04  0.27720872984E+04 0.  0.
        5    1    3    3  502    0 -0.52053334485E+02  0.10903875127E+04 -0.12384932376E+04  0.16509215812E+04  0.46999998093E+01 0. -1.
       -5    1    3    3    0  502  0.52053334485E+02 -0.10903875127E+04  0.52528167929E+03  0.12114443488E+04  0.46999998093E+01 0.  1.
</event>
<event>
 5   0  0.3397882E-06  0.2812410E+04  0.7818609E-02  0.8299426E-01
        1   -1    0    0  501    0  0.00000000000E+00  0.00000000000E+00  0.15346929233E+04  0.15346929233E+04  0.50400001928E-02 0.  1.
       -1   -1    0    0    0  501  0.00000000000E+00  0.00000000000E+00 -0.12884743427E+04  0.12884743427E+04  0.50400001928E-02 0. -1.
    10030    2    1    2    0    0  0.00000000000E+00  0.00000000000E+00  0.24621858063E+03  0.28231672660E+04  0.28124099670E+04 0.  0.
        2    1    3    3  502    0  0.25686121898E+03  0.13730782783E+04  0.28525362318E+03  0.14257248240E+04  0.25500000920E-02 0. -1.
       -2    1    3    3    0  502 -0.25686121898E+03 -0.13730782783E+04 -0.39035042547E+02  0.13974424420E+04  0.25500000920E-02 0.  1.
</event>
<event>
 5   0  0.9252359E-06  0.2734344E+04  0.7818609E-02  0.8323947E-01
        2   -1    0    0  501    0  0.00000000000E+00  0.00000000000E+00  0.15967397279E+04  0.15967397279E+04  0.25500000920E-02 0. -1.
       -2   -1    0    0    0  501  0.00000000000E+00  0.00000000000E+00 -0.11706095751E+04  0.11706095751E+04  0.25500000920E-02 0.  1.
    10030    2    1    2    0    0  0.00000000000E+00  0.00000000000E+00  0.42613015278E+03  0.27673493029E+04  0.27343436612E+04 0.  0.
        5    1    3    3  502    0  0.28442105922E+02 -0.69692580603E+03 -0.97697789855E+03  0.12004259397E+04  0.46999998093E+01 0.  1.
       -5    1    3    3    0  502 -0.28442105922E+02  0.69692580603E+03  0.14031080513E+04  0.15669233632E+04  0.46999998093E+01 0. -1.
</event>
<event>
 5   0  0.9260173E-06  0.2928933E+04  0.7818609E-02  0.8264321E-01
        2   -1    0    0  501    0  0.00000000000E+00  0.00000000000E+00  0.12443787341E+04  0.12443787341E+04  0.25500000920E-02 0.  1.
       -2   -1    0    0    0  501  0.00000000000E+00  0.00000000000E+00 -0.17234804278E+04  0.17234804278E+04  0.25500000920E-02 0. -1.
    10030    2    1    2    0    0  0.00000000000E+00  0.00000000000E+00 -0.47910169375E+03  0.29678591619E+04  0.29289331799E+04 0.  0.
        1    1    3    3  502    0  0.60240383127E+03 -0.70510180695E+03  0.90891574809E+03  0.12985325453E+04  0.50400001928E-02 0.  1.
       -1    1    3    3    0  502 -0.60240383127E+03  0.70510180695E+03 -0.13880174418E+04  0.16693266166E+04  0.50400001928E-02 0. -1.
</event>
<event>
 5   0  0.3397882E-06  0.2792969E+04  0.7818609E-02  0.8305454E-01
       -1   -1    0    0    0  501  0.00000000000E+00  0.00000000000E+00  0.25742329170E+04  0.25742329171E+04  0.50400001928E-02 0.  1.
        1   -1    0    0  501    0  0.00000000000E+00  0.00000000000E+00 -0.75757299007E+03  0.75757299009E+03  0.50400001928E-02 0. -1.
    10030    2    1    2    0    0  0.00000000000E+00  0.00000000000E+00  0.18166599270E+04  0.33318059071E+04  0.27929692645E+04 0.  0.
        2    1    3    3  502    0  0.62534026268E+03 -0.37677807397E+03  0.23284417962E+04  0.24402158428E+04  0.25500000920E-02 0.  1.
       -2    1    3    3    0  502 -0.62534026268E+03  0.37677807397E+03 -0.51178186923E+03  0.89159006434E+03  0.25500000920E-02 0. -1.
</event>
<event>
 5   0  0.9065579E-06  0.2716555E+04  0.7818609E-02  0.8329653E-01
        2   -1    0    0  501    0  0.00000000000E+00  0.00000000000E+00  0.22149399036E+04  0.22149399036E+04  0.25500000920E-02 0.  1.
       -2   -1    0    0    0  501  0.00000000000E+00  0.00000000000E+00 -0.83294262374E+03  0.83294262374E+03  0.25500000920E-02 0. -1.
    10030    2    1    2    0    0  0.00000000000E+00  0.00000000000E+00  0.13819972799E+04  0.30478825273E+04  0.27165550646E+04 0.  0.
        3    1    3    3  502    0 -0.10887210777E+04  0.79448304418E+03  0.50191839300E+03  0.14382068613E+04  0.10100000352E+00 0. -1.
       -3    1    3    3    0  502  0.10887210777E+04 -0.79448304418E+03  0.88007888686E+03  0.16096756660E+04  0.10100000352E+00 0.  1.
</event>
<event>
 5   0  0.3357244E-06  0.2815284E+04  0.7818609E-02  0.8298539E-01
        1   -1    0    0  501    0  0.00000000000E+00  0.00000000000E+00  0.18141984490E+04  0.18141984490E+04  0.50400001928E-02 0. -1.
       -1   -1    0    0    0  501  0.00000000000E+00  0.00000000000E+00 -0.10921939537E+04  0.10921939537E+04  0.50400001928E-02 0.  1.
    10030    2    1    2    0    0  0.00000000000E+00  0.00000000000E+00  0.72200449537E+03  0.29063924027E+04  0.28152844096E+04 0.  0.
        4    1    3    3  502    0  0.35691692697E+03 -0.50398717539E+03 -0.94486914135E+03  0.11287923072E+04  0.12699999809E+01 0.  1.
       -4    1    3    3    0  502 -0.35691692697E+03  0.50398717539E+03  0.16668736367E+04  0.17776000955E+04  0.12699999809E+01 0. -1.
</event>
<event>
 5   0  0.9065579E-06  0.2740580E+04  0.7818609E-02  0.8321957E-01
        2   -1    0    0  501    0  0.00000000000E+00  0.00000000000E+00  0.13203070915E+04  0.13203070915E+04  0.25500000920E-02 0. -1.
       -2   -1    0    0    0  501  0.00000000000E+00  0.00000000000E+00 -0.14221653610E+04  0.14221653610E+04  0.25500000920E-02 0.  1.
    10030    2    1    2    0    0  0.00000000000E+00  0.00000000000E+00 -0.10185826953E+03  0.27424724525E+04  0.27405802388E+04 0.  0.
        3    1    3    3  502    0 -0.42019172924E+03  0.12860771878E+04 -0.26819509028E+03  0.13793057090E+04  0.10100000352E+00 0.  1.
       -3    1    3    3    0  502  0.42019172924E+03 -0.12860771878E+04  0.16633682075E+03  0.13631667434E+04  0.10100000352E+00 0. -1.
</event>
<event>
 5   0  0.3357244E-06  0.2623963E+04  0.7818609E-02  0.8360107E-01
        1   -1    0    0  501    0  0.00000000000E+00  0.00000000000E+00  0.19986799970E+04  0.19986799971E+04  0.50400001928E-02 0. -1.
       -1   -1    0    0    0  501  0.00000000000E+00  0.00000000000E+00 -0.86121588195E+03  0.86121588197E+03  0.50400001928E-02 0.  1.
    10030    2    1    2    0    0  0.00000000000E+00  0.00000000000E+00  0.11374641151E+04  0.28598958790E+04  0.26239626190E+04 0.  0.
        4    1    3    3  502    0 -0.24360945730E+03  0.23529589341E+03  0.19502109233E+04  0.19794024309E+04  0.12699999809E+01 0. -1.
       -4    1    3    3    0  502  0.24360945730E+03 -0.23529589341E+03 -0.81274680818E+03  0.88049344816E+03  0.12699999809E+01 0.  1.
</event>
<event>
 5   0  0.9065579E-06  0.2788006E+04  0.7818609E-02  0.8307002E-01
       -2   -1    0    0    0  501  0.00000000000E+00  0.00000000000E+00  0.73832206736E+03  0.73832206737E+03  0.25500000920E-02 0.  1.
        2   -1    0    0  501    0  0.00000000000E+00  0.00000000000E+00 -0.26319730105E+04  0.26319730105E+04  0.25500000920E-02 0. -1.
    10030    2    1    2    0    0  0.00000000000E+00  0.00000000000E+00 -0.18936509432E+04  0.33702950779E+04  0.27880055627E+04 0.  0.
        3    1    3    3  502    0 -0.89073593845E+03  0.10580786466E+04 -0.11572593890E+04  0.18033829981E+04  0.10100000352E+00 0. -1.
       -3    1    3    3    0  502  0.89073593845E+03 -0.10580786466E+04 -0.73639155419E+03  0.15669120798E+04  0.10100000352E+00 0.  1.
</event>
<event>
 5   0  0.9426937E-06  0.2832716E+04  0.7818609E-02  0.8293183E-01
       -2   -1    0    0    0  501  0.00000000000E+00  0.00000000000E+00  0.22404743439E+04  0.22404743439E+04  0.25500000920E-02 0.  1.
        2   -1    0    0  501    0  0.00000000000E+00  0.00000000000E+00 -0.89537725415E+03  0.89537725416E+03  0.25500000920E-02 0. -1.
    10030    2    1    2    0    0  0.00000000000E+00  0.00000000000E+00  0.13450970898E+04  0.31358515981E+04  0.28327158460E+04 0.  0.
        4    1    3    3  502    0 -0.10536073733E+04  0.72073651330E+03 -0.67265153898E+01  0.12765564921E+04  0.12699999809E+01 0. -1.
       -4    1    3    3    0  502  0.10536073733E+04 -0.72073651330E+03  0.13518236052E+04  0.18592951060E+04  0.12699999809E+01 0.  1.
</event>
<event>
 5   0  0.9342133E-06  0.2740464E+04  0.7818609E-02  0.8321994E-01
        2   -1    0    0  501    0  0.00000000000E+00  0.00000000000E+00  0.13114540915E+04  0.13114540915E+04  0.25500000920E-02 0.  1.
       -2   -1    0    0    0  501  0.00000000000E+00  0.00000000000E+00 -0.14316447207E+04  0.14316447207E+04  0.25500000920E-02 0. -1.
    10030    2    1    2    0    0  0.00000000000E+00  0.00000000000E+00 -0.12019062928E+03  0.27430988122E+04  0.27404644325E+04 0.  0.
        2    1    3    3  502    0  0.19308698787E+03 -0.81651793008E+03  0.10242522047E+04  0.13240380259E+04  0.25500000920E-02 0.  1.
       -2    1    3    3    0  502 -0.19308698787E+03  0.81651793008E+03 -0.11444428340E+04  0.14190607863E+04  0.25500000920E-02 0. -1.
</event>
<event>
 5   0  0.9342133E-06  0.2800081E+04  0.7818609E-02  0.8303243E-01
       -2   -1    0    0    0  501  0.00000000000E+00  0.00000000000E+00  0.13471383467E+04  0.13471383467E+04  0.25500000920E-02 0. -1.
        2   -1    0    0  501    0  0.00000000000E+00  0.00000000000E+00 -0.14550198413E+04  0.14550198413E+04  0.25500000920E-02 0.  1.
    10030    2    1    2    0    0  0.00000000000E+00  0.00000000000E+00 -0.10788149464E+03  0.28021581880E+04  0.28000807299E+04 0.  0.
        2    1    3    3  502    0  0.11124505324E+04  0.46472715044E+03 -0.76622405167E+03  0.14285015956E+04  0.25500000920E-02 0.  1.
       -2    1    3    3    0  502 -0.11124505324E+04 -0.46472715044E+03  0.65834255702E+03  0.13736565924E+04  0.25500000920E-02 0. -1.
</event>
<event>
 5   0  0.3357244E-06  0.2751614E+04  0.7818609E-02  0.8318450E-01
       -1   -1    0    0    0  501  0.00000000000E+00  0.00000000000E+00  0.15593251244E+04  0.15593251244E+04  0.50400001928E-02 0. -1.
        1   -1    0    0  501    0  0.00000000000E+00  0.00000000000E+00 -0.12138870309E+04  0.12138870310E+04  0.50400001928E-02 0.  1.
    10030    2    1    2    0    0  0.00000000000E+00  0.00000000000E+00  0.34543809343E+03  0.27732121553E+04  0.27516137414E+04 0.  0.
        4    1    3    3  502    0  0.52746669975E+03  0.49528941118E+03 -0.10066413747E+04  0.12397020571E+04  0.12699999809E+01 0.  1.
       -4    1    3    3    0  502 -0.52746669975E+03 -0.49528941118E+03  0.13520794682E+04  0.15335100982E+04  0.12699999809E+01 0. -1.
</event>
<event>
 5   0  0.9342133E-06  0.2844650E+04  0.7818609E-02  0.8289539E-01
        2   -1    0    0  501    0  0.00000000000E+00  0.00000000000E+00  0.16132437172E+04  0.16132437172E+04  0.25500000920E-02 0.  1.
       -2   -1    0    0    0  501  0.00000000000E+00  0.00000000000E+00 -0.12540006525E+04  0.12540006525E+04  0.25500000920E-02 0. -1.
    10030    2    1    2    0    0  0.00000000000E+00  0.00000000000E+00  0.35924306470E+03  0.28672443697E+04  0.28446501887E+04 0.  0.
        2    1    3    3  502    0 -0.11284867456E+04 -0.68192162335E+03  0.71725219165E+03  0.15009830585E+04  0.25500000920E-02 0.  1.
       -2    1    3    3    0  502  0.11284867456E+04  0.68192162335E+03 -0.35800912696E+03  0.13662613112E+04  0.25500000920E-02 0. -1.
</event>
<event>
 5   0  0.3006875E-06  0.2763347E+04  0.7818609E-02  0.8314739E-01
       -4   -1    0    0    0  501  0.00000000000E+00  0.00000000000E+00  0.12522681703E+04  0.12522688142E+04  0.12699999809E+01 0. -1.
        4   -1    0    0  501    0  0.00000000000E+00  0.00000000000E+00 -0.15244494175E+04  0.15244499465E+04  0.12699999809E+01 0.  1.
    10030    2    1    2    0    0  0.00000000000E+00  0.00000000000E+00 -0.27218124722E+03  0.27767187607E+04  0.27633466024E+04 0.  0.
        3    1    3    3  502    0 -0.22677972319E+03  0.92158167971E+03 -0.11450808317E+04  0.14872632439E+04  0.10100000352E+00 0.  1.
       -3    1    3    3    0  502  0.22677972319E+03 -0.92158167971E+03  0.87289958446E+03  0.12894555169E+04  0.10100000352E+00 0. -1.
</event>
<event>
 5   0  0.9252359E-06  0.2786217E+04  0.7818609E-02  0.8307560E-01
        2   -1    0    0  501    0  0.00000000000E+00  0.00000000000E+00  0.15958652606E+04  0.15958652606E+04  0.25500000920E-02 0.  1.
       -2   -1    0    0    0  501  0.00000000000E+00  0.00000000000E+00 -0.12161118192E+04  0.12161118192E+04  0.25500000920E-02 0. -1.
    10030    2    1    2    0    0  0.00000000000E+00  0.00000000000E+00  0.37975344139E+03  0.28119770798E+04  0.27862165065E+04 0.  0.
        5    1    3    3  502    0 -0.83962318428E+03 -0.65430137073E+03  0.10968799240E+04  0.15284780119E+04  0.46999998093E+01 0.  1.
       -5    1    3    3    0  502  0.83962318428E+03  0.65430137073E+03 -0.71712648258E+03  0.12834990679E+04  0.46999998093E+01 0. -1.
</event>
<event>
 5   0  0.9065579E-06  0.2802418E+04  0.7818609E-02  0.8302518E-01
       -2   -1    0    0    0  501  0.00000000000E+00  0.00000000000E+00  0.12098615496E+04  0.12098615496E+04  0.25500000920E-02 0.  1.
        2   -1    0    0  501    0  0.00000000000E+00  0.00000000000E+00 -0.16228188046E+04  0.16228188046E+04  0.25500000920E-02 0. -1.
    10030    2    1    2    0    0  0.00000000000E+00  0.00000000000E+00 -0.41295725495E+03  0.28326803542E+04  0.28024175804E+04 0.  0.
        3    1    3    3  502    0  0.72183828580E+03  0.62988616187E+03  0.82709910144E+03  0.12656618907E+04  0.10100000352E+00 0.  1.
       -3    1    3    3    0  502 -0.72183828580E+03 -0.62988616187E+03 -0.12400563564E+04  0.15670184635E+04  0.10100000352E+00 0. -1.
</event>
<event>
 5   0  0.3600963E-06  0.2774039E+04  0.7818609E-02  0.8311374E-01
        1   -1    0    0  501    0  0.00000000000E+00  0.00000000000E+00  0.19515012736E+04  0.19515012736E+04  0.50400001928E-02 0.  1.
       -1   -1    0    0    0  501  0.00000000000E+00  0.00000000000E+00 -0.98581702551E+03  0.98581702552E+03  0.50400001928E-02 0. -1.
    10030    2    1    2    0    0  0.00000000000E+00  0.00000000000E+00  0.96568424809E+03  0.29373182991E+04  0.27740390631E+04 0.  0.
        5    1    3    3  502    0 -0.15913701634E+03 -0.13739786001E+04  0.59216295660E+03  0.15045998939E+04  0.46999998093E+01 0. -1.
       -5    1    3    3    0  502  0.15913701634E+03  0.13739786001E+04  0.37352129149E+03  0.14327184052E+04  0.46999998093E+01 0.  1.
</event>
<event>
 5   0  0.3371603E-06  0.2810159E+04  0.7818609E-02  0.8300121E-01
        1   -1    0    0  501    0  0.00000000000E+00  0.00000000000E+00  0.13393718682E+04  0.13393718682E+04  0.50400001928E-02 0. -1.
       -1   -1    0    0    0  501  0.00000000000E+00  0.00000000000E+00 -0.14740103484E+04  0.14740103484E+04  0.50400001928E-02 0.  1.
    10030    2    1    2    0    0  0.00000000000E+00  0.00000000000E+00 -0.13463848021E+03  0.28133822166E+04  0.28101587102E+04 0.  0.
        1    1    3    3  502    0 -0.13385476497E+04 -0.33965364928E+03  0.19215672973E+03  0.13942735100E+04  0.50400001928E-02 0. -1.
       -1    1    3    3    0  502  0.13385476497E+04  0.33965364928E+03 -0.32679520994E+03  0.14191087066E+04  0.50400001928E-02 0.  1.
</event>
<event>
 5   0  0.9065579E-06  0.2758216E+04  0.7818609E-02  0.8316359E-01
       -2   -1    0    0    0  501  0.00000000000E+00  0.00000000000E+00  0.98922888137E+03  0.98922888137E+03  0.25500000920E-02 0. -1.
        2   -1    0    0  501    0  0.00000000000E+00  0.00000000000E+00 -0.19226484044E+04  0.19226484044E+04  0.25500000920E-02 0.  1.
    10030    2    1    2    0    0  0.00000000000E+00  0.00000000000E+00 -0.93341952305E+03  0.29118772858E+04  0.27582163297E+04 0.  0.
        3    1    3    3  502    0 -0.57771609988E+03  0.26969133492E+03 -0.17577229940E+04  0.18697805866E+04  0.10100000352E+00 0.  1.
       -3    1    3    3    0  502  0.57771609988E+03 -0.26969133492E+03  0.82430347091E+03  0.10420966992E+04  0.10100000352E+00 0. -1.
</event>
<event>
 5   0  0.3397882E-06  0.2793811E+04  0.7818609E-02  0.8305192E-01
        1   -1    0    0  501    0  0.00000000000E+00  0.00000000000E+00  0.16059472322E+04  0.16059472322E+04  0.50400001928E-02 0.  1.
       -1   -1    0    0    0  501  0.00000000000E+00  0.00000000000E+00 -0.12150738195E+04  0.12150738195E+04  0.50400001928E-02 0. -1.
    10030    2    1    2    0    0  0.00000000000E+00  0.00000000000E+00  0.39087341265E+03  0.28210210518E+04  0.27938106145E+04 0.  0.
        2    1    3    3  502    0 -0.10604033901E+04 -0.23950036468E+03 -0.69033491984E+03  0.12877802903E+04  0.25500000920E-02 0. -1.
       -2    1    3    3    0  502  0.10604033901E+04  0.23950036468E+03  0.10812083325E+04  0.15332407615E+04  0.25500000920E-02 0.  1.
</event>
<event>
 5   0  0.9426937E-06  0.2804937E+04  0.7818609E-02  0.8301737E-01
        2   -1    0    0  501    0  0.00000000000E+00  0.00000000000E+00  0.11947922953E+04  0.11947922953E+04  0.25500000920E-02 0.  1.
       -2   -1    0    0    0  501  0.00000000000E+00  0.00000000000E+00 -0.16462422068E+04  0.16462422068E+04  0.25500000920E-02 0. -1.
    10030    2    1    2    0    0  0.00000000000E+00  0.00000000000E+00 -0.45144991151E+03  0.28410345020E+04  0.28049367229E+04 0.  0.
        4    1    3    3  502    0  0.11266386698E+04  0.81339334280E+03 -0.33566605335E+02  0.13899826446E+04  0.12699999809E+01 0.  1.
       -4    1    3    3    0  502 -0.11266386698E+04 -0.81339334280E+03 -0.41788330618E+03  0.14510518574E+04  0.12699999809E+01 0. -1.
</event>
<event>
 5   0  0.3357244E-06  0.2786624E+04  0.7818609E-02  0.8307433E-01
        1   -1    0    0  501    0  0.00000000000E+00  0.00000000000E+00  0.17839540271E+04  0.17839540271E+04  0.50400001928E-02 0. -1.
       -1   -1    0    0    0  501  0.00000000000E+00  0.00000000000E+00 -0.10882112741E+04  0.10882112742E+04  0.50400001928E-02 0.  1.
    10030    2    1    2    0    0  0.00000000000E+00  0.00000000000E+00  0.69574275298E+03  0.28721653013E+04  0.27866243987E+04 0.  0.
        4    1    3    3  502    0 -0.29039079779E+03 -0.13437166943E+04  0.58158268421E+03  0.14926960178E+04  0.12699999809E+01 0. -1.
       -4    1    3    3    0  502  0.29039079779E+03  0.13437166943E+04  0.11416006877E+03  0.13794692835E+04  0.12699999809E+01 0.  1.
</event>
<event>
 5   0  0.9426937E-06  0.2789733E+04  0.7818609E-02  0.8306463E-01
        2   -1    0    0  501    0  0.00000000000E+00  0.00000000000E+00  0.22115339320E+04  0.22115339320E+04  0.25500000920E-02 0. -1.
       -2   -1    0    0    0  501  0.00000000000E+00  0.00000000000E+00 -0.87977493063E+03  0.87977493063E+03  0.25500000920E-02 0.  1.
    10030    2    1    2    0    0  0.00000000000E+00  0.00000000000E+00  0.13317590014E+04  0.30913088626E+04  0.27897326837E+04 0.  0.
        4    1    3    3  502    0 -0.11123280459E+04 -0.51936863367E+03  0.13997686709E+04  0.18618193802E+04  0.12699999809E+01 0. -1.
       -4    1    3    3    0  502  0.11123280459E+04  0.51936863367E+03 -0.68009669553E+02  0.12294894825E+04  0.12699999809E+01 0.  1.
</event>
<event>
 5   0  0.9260173E-06  0.2778235E+04  0.7818609E-02  0.8310058E-01
       -2   -1    0    0    0  501  0.00000000000E+00  0.00000000000E+00  0.12862650692E+04  0.12862650693E+04  0.25500000920E-02 0.  1.
        2   -1    0    0  501    0  0.00000000000E+00  0.00000000000E+00 -0.15001940987E+04  0.15001940987E+04  0.25500000920E-02 0. -1.
    10030    2    1    2    0    0  0.00000000000E+00  0.00000000000E+00 -0.21392902941E+03  0.27864591679E+04  0.27782348829E+04 0.  0.
        1    1    3    3  502    0  0.90453449468E+02 -0.13570616655E+04 -0.39037679871E+03  0.14149884224E+04  0.50400001928E-02 0.  1.
       -1    1    3    3    0  502 -0.90453449468E+02  0.13570616655E+04  0.17644776930E+03  0.13714707455E+04  0.50400001928E-02 0. -1.
</event>
<event>
 5   0  0.9342133E-06  0.2766329E+04  0.7818609E-02  0.8313799E-01
       -2   -1    0    0    0  501  0.00000000000E+00  0.00000000000E+00  0.78664050850E+03  0.78664050850E+03  0.25500000920E-02 0.  1.
        2   -1    0    0  501    0  0.00000000000E+00  0.00000000000E+00 -0.24320428963E+04  0.24320428963E+04  0.25500000920E-02 0. -1.
    10030    2    1    2    0    0  0.00000000000E+00  0.00000000000E+00 -0.16454023878E+04  0.32186834048E+04  0.27663285854E+04 0.  0.
        2    1    3    3  502    0  0.42934428791E+02 -0.19549369541E+03  0.76970158775E+03  0.79529974495E+03  0.25500000920E-02 0.  1.
       -2    1    3    3    0  502 -0.42934428791E+02  0.19549369541E+03 -0.24151039755E+04  0.24233836598E+04  0.25500000920E-02 0. -1.
</event>
<event>
 5   0  0.3438130E-06  0.2809701E+04  0.7818609E-02  0.8300263E-01
       -1   -1    0    0    0  501  0.00000000000E+00  0.00000000000E+00  0.10948829849E+04  0.10948829849E+04  0.50400001928E-02 0.  1.
        1   -1    0    0  501    0  0.00000000000E+00  0.00000000000E+00 -0.18025713974E+04  0.18025713974E+04  0.50400001928E-02 0. -1.
    10030    2    1    2    0    0  0.00000000000E+00  0.00000000000E+00 -0.70768841251E+03  0.28974543823E+04  0.28097008753E+04 0.  0.
        3    1    3    3  502    0  0.25044737081E+03 -0.24227875103E+03 -0.17572986953E+04  0.17915137715E+04  0.10100000352E+00 0. -1.
       -3    1    3    3    0  502 -0.25044737081E+03  0.24227875103E+03  0.10496102828E+04  0.11059406108E+04  0.10100000352E+00 0.  1.
</event>
<event>
 5   0  0.3371603E-06  0.2825703E+04  0.7818609E-02  0.8295333E-01
        1   -1    0    0  501    0  0.00000000000E+00  0.00000000000E+00  0.20742436209E+04  0.20742436209E+04  0.50400001928E-02 0. -1.
       -1   -1    0    0    0  501  0.00000000000E+00  0.00000000000E+00 -0.96235080541E+03  0.96235080543E+03  0.50400001928E-02 0.  1.
    10030    2    1    2    0    0  0.00000000000E+00  0.00000000000E+00  0.11118928155E+04  0.30365944264E+04  0.28257034659E+04 0.  0.
        1    1    3    3  502    0 -0.28384784009E+03 -0.12758786414E+04  0.11323687301E+04  0.17293625545E+04  0.50400001928E-02 0. -1.
       -1    1    3    3    0  502  0.28384784009E+03  0.12758786414E+04 -0.20475914557E+02  0.13072318719E+04  0.50400001928E-02 0.  1.
</event>
<event>
 5   0  0.3397882E-06  0.2798357E+04  0.7818609E-02  0.8303779E-01
        1   -1    0    0  501    0  0.00000000000E+00  0.00000000000E+00  0.81311089942E+03  0.81311089944E+03  0.50400001928E-02 0. -1.
       -1   -1    0    0    0  501  0.00000000000E+00  0.00000000000E+00 -0.24076679083E+04  0.24076679083E+04  0.50400001928E-02 0.  1.
    10030    2    1    2    0    0  0.00000000000E+00  0.00000000000E+00 -0.15945570089E+04  0.32207788077E+04  0.27983573885E+04 0.  0.
        2    1    3    3  502    0  0.12539764043E+04 -0.12443144095E+03 -0.97407051262E+02  0.12638940381E+04  0.25500000920E-02 0. -1.
       -2    1    3    3    0  502 -0.12539764043E+04  0.12443144095E+03 -0.14971499576E+04  0.19568847696E+04  0.25500000920E-02 0.  1.
</event>
<event>
 5   0  0.9342133E-06  0.2645581E+04  0.7818609E-02  0.8352881E-01
       -2   -1    0    0    0  501  0.00000000000E+00  0.00000000000E+00  0.91239722143E+03  0.91239722143E+03  0.25500000920E-02 0.  1.
        2   -1    0    0  501    0  0.00000000000E+00  0.00000000000E+00 -0.19177766699E+04  0.19177766699E+04  0.25500000920E-02 0. -1.
    10030    2    1    2    0    0  0.00000000000E+00  0.00000000000E+00 -0.10053794485E+04  0.28301738913E+04  0.26455805449E+04 0.  0.
        2    1    3    3  502    0 -0.44876395715E+03  0.31562935666E+03  0.78493949645E+03  0.95767478464E+03  0.25500000920E-02 0.  1.
       -2    1    3    3    0  502  0.44876395715E+03 -0.31562935666E+03 -0.17903189449E+04  0.18724991067E+04  0.25500000920E-02 0. -1.
</event>
<event>
 5   0  0.9252359E-06  0.2865084E+04  0.7818609E-02  0.8283342E-01
        2   -1    0    0  501    0  0.00000000000E+00  0.00000000000E+00  0.15077532031E+04  0.15077532031E+04  0.25500000920E-02 0.  1.
       -2   -1    0    0    0  501  0.00000000000E+00  0.00000000000E+00 -0.13610824950E+04  0.13610824950E+04  0.25500000920E-02 0. -1.
    10030    2    1    2    0    0  0.00000000000E+00  0.00000000000E+00  0.14667070818E+03  0.28688356981E+04  0.28650839370E+04 0.  0.
        5    1    3    3  502    0  0.14261275723E+04  0.13529403168E+03  0.76513470835E+02  0.14345803319E+04  0.46999998093E+01 0.  1.
       -5    1    3    3    0  502 -0.14261275723E+04 -0.13529403168E+03  0.70157237342E+02  0.14342553662E+04  0.46999998093E+01 0. -1.
</event>
<event>
 5   0  0.3371603E-06  0.2786821E+04  0.7818609E-02  0.8307372E-01
        1   -1    0    0  501    0  0.00000000000E+00  0.00000000000E+00  0.15393684192E+04  0.15393684192E+04  0.50400001928E-02 0.  1.
       -1   -1    0    0    0  501  0.00000000000E+00  0.00000000000E+00 -0.12612915210E+04  0.12612915210E+04  0.50400001928E-02 0. -1.
    10030    2    1    2    0    0  0.00000000000E+00  0.00000000000E+00  0.27807689825E+03  0.28006599402E+04  0.27868206507E+04 0.  0.
        1    1    3    3  502    0 -0.61138587575E+03  0.11192773832E+04  0.70309012813E+03  0.14563345350E+04  0.50400001928E-02 0. -1.
       -1    1    3    3    0  502  0.61138587575E+03 -0.11192773832E+04 -0.42501322987E+03  0.13443254052E+04  0.50400001928E-02 0.  1.
</event>
<event>
 5   0  0.9260173E-06  0.2644684E+04  0.7818609E-02  0.8353179E-01
       -2   -1    0    0    0  501  0.00000000000E+00  0.00000000000E+00  0.15349596887E+04  0.15349596887E+04  0.25500000920E-02 0.  1.
        2   -1    0    0  501    0  0.00000000000E+00  0.00000000000E+00 -0.11391758293E+04  0.11391758293E+04  0.25500000920E-02 0. -1.
    10030    2    1    2    0    0  0.00000000000E+00  0.00000000000E+00  0.39578385938E+03  0.26741355180E+04  0.26446844624E+04 0.  0.
        1    1    3    3  502    0 -0.47314525963E+03  0.54491326800E+03  0.13182889900E+04  0.15028914690E+04  0.50400001928E-02 0.  1.
       -1    1    3    3    0  502  0.47314525963E+03 -0.54491326800E+03 -0.92250513063E+03  0.11712440490E+04  0.50400001928E-02 0. -1.
</event>
<event>
 5   0  0.3371603E-06  0.2791818E+04  0.7818609E-02  0.8305813E-01
       -1   -1    0    0    0  501  0.00000000000E+00  0.00000000000E+00  0.11558001020E+04  0.11558001020E+04  0.50400001928E-02 0.  1.
        1   -1    0    0  501    0  0.00000000000E+00  0.00000000000E+00 -0.16858992417E+04  0.16858992417E+04  0.50400001928E-02 0. -1.
    10030    2    1    2    0    0  0.00000000000E+00  0.00000000000E+00 -0.53009913975E+03  0.28416993437E+04  0.27918184149E+04 0.  0.
        1    1    3    3  502    0  0.12800208098E+04  0.10708154424E+03 -0.82129566186E+03  0.15246134903E+04  0.50400001928E-02 0. -1.
       -1    1    3    3    0  502 -0.12800208098E+04 -0.10708154424E+03  0.29119652211E+03  0.13170858534E+04  0.50400001928E-02 0.  1.
</event>
<event>
 5   0  0.9252359E-06  0.2801056E+04  0.7818609E-02  0.8302940E-01
       -2   -1    0    0    0  501  0.00000000000E+00  0.00000000000E+00  0.87981652508E+03  0.87981652509E+03  0.25500000920E-02 0. -1.
        2   -1    0    0  501    0  0.00000000000E+00  0.00000000000E+00 -0.22294185474E+04  0.22294185474E+04  0.25500000920E-02 0.  1.
    10030    2    1    2    0    0  0.00000000000E+00  0.00000000000E+00 -0.13496020223E+04  0.31092350725E+04  0.28010564288E+04 0.  0.
        5    1    3    3  502    0 -0.11075613424E+04 -0.18843470606E+03  0.25341753776E+03  0.11517127698E+04  0.46999998093E+01 0. -1.
       -5    1    3    3    0  502  0.11075613424E+04  0.18843470606E+03 -0.16030195601E+04  0.19575223027E+04  0.46999998093E+01 0.  1.
</event>
<event>
 5   0  0.9260173E-06  0.2656587E+04  0.7818609E-02  0.8349230E-01
       -2   -1    0    0    0  501  0.00000000000E+00  0.00000000000E+00  0.89619089852E+03  0.89619089852E+03  0.25500000920E-02 0.  1.
        2   -1    0    0  501    0  0.00000000000E+00  0.00000000000E+00 -0.19687370156E+04  0.19687370156E+04  0.25500000920E-02 0. -1.
    10030    2    1    2    0    0  0.00000000000E+00  0.00000000000E+00 -0.10725461171E+04  0.28649279142E+04  0.26565874313E+04 0.  0.
        1    1    3    3  502    0 -0.79904245073E+03  0.10395011141E+04 -0.76588570965E+03  0.15184242900E+04  0.50400001928E-02 0.  1.
       -1    1    3    3    0  502  0.79904245073E+03 -0.10395011141E+04 -0.30666040746E+03  0.13465036241E+04  0.50400001928E-02 0. -1.
</event>
<event>
 5   0  0.9252359E-06  0.2768133E+04  0.7818609E-02  0.8313231E-01
       -2   -1    0    0    0  501  0.00000000000E+00  0.00000000000E+00  0.16055710220E+04  0.16055710220E+04  0.25500000920E-02 0. -1.
        2   -1    0    0  501    0  0.00000000000E+00  0.00000000000E+00 -0.11931206370E+04  0.11931206370E+04  0.25500000920E-02 0.  1.
    10030    2    1    2    0    0  0.00000000000E+00  0.00000000000E+00  0.41245038498E+03  0.27986916590E+04  0.27681328874E+04 0.  0.
        5    1    3    3  502    0 -0.49195654420E+03  0.87526386737E+02 -0.10987349241E+04  0.12070305022E+04  0.46999998093E+01 0.  1.
       -5    1    3    3    0  502  0.49195654420E+03 -0.87526386737E+02  0.15111853091E+04  0.15916611568E+04  0.46999998093E+01 0. -1.
</event>
<event>
 5   0  0.9252359E-06  0.2791710E+04  0.7818609E-02  0.8305847E-01
        2   -1    0    0  501    0  0.00000000000E+00  0.00000000000E+00  0.13926004341E+04  0.13926004341E+04  0.25500000920E-02 0. -1.
       -2   -1    0    0    0  501  0.00000000000E+00  0.00000000000E+00 -0.13991175920E+04  0.13991175920E+04  0.25500000920E-02 0.  1.
    10030    2    1    2    0    0  0.00000000000E+00  0.00000000000E+00 -0.65171578478E+01  0.27917180261E+04  0.27917104191E+04 0.  0.
        5    1    3    3  502    0  0.91555401612E+03 -0.65445857701E+03  0.82247637029E+03  0.13939313667E+04  0.46999998093E+01 0. -1.
       -5    1    3    3    0  502 -0.91555401612E+03  0.65445857701E+03 -0.82899352814E+03  0.13977866594E+04  0.46999998093E+01 0.  1.
</event>
<event>
 5   0  0.3397882E-06  0.2779751E+04  0.7818609E-02  0.8309582E-01
       -1   -1    0    0    0  501  0.00000000000E+00  0.00000000000E+00  0.14076893928E+04  0.14076893928E+04  0.50400001928E-02 0. -1.
        1   -1    0    0  501    0  0.00000000000E+00  0.00000000000E+00 -0.13722873186E+04  0.13722873186E+04  0.50400001928E-02 0.  1.
    10030    2    1    2    0    0  0.00000000000E+00  0.00000000000E+00  0.35402074117E+02  0.27799767114E+04  0.27797512855E+04 0.  0.
        2    1    3    3  502    0  0.11314070990E+04  0.14020747847E+03 -0.77735660427E+03  0.13798635624E+04  0.25500000920E-02 0.  1.
       -2    1    3    3    0  502 -0.11314070990E+04 -0.14020747847E+03  0.81275867839E+03  0.14001131490E+04  0.25500000920E-02 0. -1.
</event>
<event>
 5   0  0.9065579E-06  0.2799619E+04  0.7818609E-02  0.8303387E-01
        2   -1    0    0  501    0  0.00000000000E+00  0.00000000000E+00  0.19974099144E+04  0.19974099144E+04  0.25500000920E-02 0.  1.
       -2   -1    0    0    0  501  0.00000000000E+00  0.00000000000E+00 -0.98100400978E+03  0.98100400978E+03  0.25500000920E-02 0. -1.
    10030    2    1    2    0    0  0.00000000000E+00  0.00000000000E+00  0.10164059047E+04  0.29784139242E+04  0.27996193564E+04 0.  0.
        3    1    3    3  502    0  0.38509307054E+03  0.12900866556E+04  0.91588202436E+03  0.16283304777E+04  0.10100000352E+00 0.  1.
       -3    1    3    3    0  502 -0.38509307054E+03 -0.12900866556E+04  0.10052388030E+03  0.13500834465E+04  0.10100000352E+00 0. -1.
</event>
<event>
 5   0  0.3397882E-06  0.2826250E+04  0.7818609E-02  0.8295165E-01
       -1   -1    0    0    0  501  0.00000000000E+00  0.00000000000E+00  0.86929845751E+03  0.86929845752E+03  0.50400001928E-02 0. -1.
        1   -1    0    0  501    0  0.00000000000E+00  0.00000000000E+00 -0.22971646071E+04  0.22971646071E+04  0.50400001928E-02 0.  1.
    10030    2    1    2    0    0  0.00000000000E+00  0.00000000000E+00 -0.14278661496E+04  0.31664630647E+04  0.28262495641E+04 0.  0.
        2    1    3    3  502    0 -0.41405697720E+03  0.46044147127E+03  0.70919717811E+03  0.94149358271E+03  0.25500000920E-02 0. -1.
       -2    1    3    3    0  502  0.41405697720E+03 -0.46044147127E+03 -0.21370633277E+04  0.22249694819E+04  0.25500000920E-02 0.  1.
</event>
<event>
 5   0  0.9426937E-06  0.2890791E+04  0.7818609E-02  0.8275623E-01
       -2   -1    0    0    0  501  0.00000000000E+00  0.00000000000E+00  0.74799267635E+03  0.74799267636E+03  0.25500000920E-02 0. -1.
        2   -1    0    0  501    0  0.00000000000E+00  0.00000000000E+00 -0.27930326515E+04  0.27930326515E+04  0.25500000920E-02 0.  1.
    10030    2    1    2    0    0  0.00000000000E+00  0.00000000000E+00 -0.20450399752E+04  0.35410253279E+04  0.28907908732E+04 0.  0.
        4    1    3    3  502    0  0.68380544679E+03 -0.76994595150E+03  0.21990257426E+03  0.10529793029E+04  0.12699999809E+01 0. -1.
       -4    1    3    3    0  502 -0.68380544679E+03  0.76994595150E+03 -0.22649425494E+04  0.24880460250E+04  0.12699999809E+01 0.  1.
</event>
<event>
 5   0  0.3438130E-06  0.2809918E+04  0.7818609E-02  0.8300196E-01
       -1   -1    0    0    0  501  0.00000000000E+00  0.00000000000E+00  0.85940006245E+03  0.85940006246E+03  0.50400001928E-02 0. -1.
        1   -1    0    0  501    0  0.00000000000E+00  0.00000000000E+00 -0.22968463955E+04  0.22968463955E+04  0.50400001928E-02 0.  1.
    10030    2    1    2    0    0  0.00000000000E+00  0.00000000000E+00 -0.14374463330E+04  0.31562464579E+04  0.28099181025E+04 0.  0.
        3    1    3    3  502    0  0.38457433567E+03  0.10231380085E+04 -0.17102444257E+04  0.20296908163E+04  0.10100000352E+00 0.  1.
       -3    1    3    3    0  502 -0.38457433567E+03 -0.10231380085E+04  0.27279809265E+03  0.11265556416E+04  0.10100000352E+00 0. -1.
</event>
<event>
 5   0  0.9065579E-06  0.2813815E+04  0.7818609E-02  0.8298992E-01
       -2   -1    0    0    0  501  0.00000000000E+00  0.00000000000E+00  0.90163132039E+03  0.90163132039E+03  0.25500000920E-02 0. -1.
        2   -1    0    0  501    0  0.00000000000E+00  0.00000000000E+00 -0.21953416846E+04  0.21953416846E+04  0.25500000920E-02 0.  1.
    10030    2    1    2    0    0  0.00000000000E+00  0.00000000000E+00 -0.12937103642E+04  0.30969730050E+04  0.28138150769E+04 0.  0.
        3    1    3    3  502    0 -0.86103531334E+03 -0.81813395756E+03 -0.14768390852E+04  0.18951988490E+04  0.10100000352E+00 0.  1.
       -3    1    3    3    0  502  0.86103531334E+03  0.81813395756E+03  0.18312872105E+03  0.12017741560E+04  0.10100000352E+00 0. -1.
</event>
<event>
 5   0  0.3357244E-06  0.2534245E+04  0.7818609E-02  0.8390886E-01
        1   -1    0    0  501    0  0.00000000000E+00  0.00000000000E+00  0.20583165470E+04  0.20583165470E+04  0.50400001928E-02 0. -1.
       -1   -1    0    0    0  501  0.00000000000E+00  0.00000000000E+00 -0.78005441792E+03  0.78005441793E+03  0.50400001928E-02 0.  1.
    10030    2    1    2    0    0  0.00000000000E+00  0.00000000000E+00  0.12782621290E+04  0.28383709649E+04  0.25342445943E+04 0.  0.
        4    1    3    3  502    0 -0.88118727173E+03 -0.40345599116E+03  0.15533814798E+04  0.18309187255E+04  0.12699999809E+01 0. -1.
       -4    1    3    3    0  502  0.88118727173E+03  0.40345599116E+03 -0.27511935074E+03  0.10074522394E+04  0.12699999809E+01 0.  1.
</event>
<event>
 5   0  0.9260173E-06  0.2790707E+04  0.7818609E-02  0.8306159E-01
        2   -1    0    0  501    0  0.00000000000E+00  0.00000000000E+00  0.33176194536E+04  0.33176194536E+04  0.25500000920E-02 0. -1.
       -2   -1    0    0    0  501  0.00000000000E+00  0.00000000000E+00 -0.58687018881E+03  0.58687018882E+03  0.25500000920E-02 0.  1.
    10030    2    1    2    0    0  0.00000000000E+00  0.00000000000E+00  0.27307492648E+04  0.39044896424E+04  0.27907074050E+04 0.  0.
        1    1    3    3  502    0 -0.10180930091E+02  0.45350268947E+03 -0.48082958499E+03  0.66103360771E+03  0.50400001928E-02 0.  1.
       -1    1    3    3    0  502  0.10180930091E+02 -0.45350268947E+03  0.32115788497E+04  0.32434560347E+04  0.50400001928E-02 0. -1.
</event>
<event>
 5   0  0.3600963E-06  0.2556554E+04  0.7818609E-02  0.8383110E-01
        1   -1    0    0  501    0  0.00000000000E+00  0.00000000000E+00  0.11183734737E+04  0.11183734738E+04  0.50400001928E-02 0.  1.
       -1   -1    0    0    0  501  0.00000000000E+00  0.00000000000E+00 -0.14610438295E+04  0.14610438296E+04  0.50400001928E-02 0. -1.
    10030    2    1    2    0    0  0.00000000000E+00  0.00000000000E+00 -0.34267035580E+03  0.25794173033E+04  0.25565544492E+04 0.  0.
        5    1    3    3  502    0  0.12503771045E+04  0.36600213082E+02  0.94053411165E+02  0.12544523160E+04  0.46999998093E+01 0.  1.
       -5    1    3    3    0  502 -0.12503771045E+04 -0.36600213082E+02 -0.43672376697E+03  0.13249649873E+04  0.46999998093E+01 0. -1.
</event>
<event>
 5   0  0.3357244E-06  0.2801745E+04  0.7818609E-02  0.8302727E-01
       -1   -1    0    0    0  501  0.00000000000E+00  0.00000000000E+00  0.12523834235E+04  0.12523834235E+04  0.50400001928E-02 0.  1.
        1   -1    0    0  501    0  0.00000000000E+00  0.00000000000E+00 -0.15669667011E+04  0.15669667011E+04  0.50400001928E-02 0. -1.
    10030    2    1    2    0    0  0.00000000000E+00  0.00000000000E+00 -0.31458327755E+03  0.28193501246E+04  0.28017445434E+04 0.  0.
        4    1    3    3  502    0  0.78071981939E+03  0.74901910564E+03 -0.10527646119E+04  0.15095919972E+04  0.12699999809E+01 0. -1.
       -4    1    3    3    0  502 -0.78071981939E+03 -0.74901910564E+03  0.73818133434E+03  0.13097581274E+04  0.12699999809E+01 0.  1.
</event>
<event>
 5   0  0.9065579E-06  0.2804670E+04  0.7818609E-02  0.8301820E-01
        2   -1    0    0  501    0  0.00000000000E+00  0.00000000000E+00  0.16815341308E+04  0.16815341308E+04  0.25500000920E-02 0. -1.
       -2   -1    0    0    0  501  0.00000000000E+00  0.00000000000E+00 -0.11694939030E+04  0.11694939030E+04  0.25500000920E-02 0.  1.
    10030    2    1    2    0    0  0.00000000000E+00  0.00000000000E+00  0.51204022785E+03  0.28510280338E+04  0.28046703291E+04 0.  0.
        3    1    3    3  502    0 -0.81270027079E+03  0.36564758345E+03 -0.84463411856E+03  0.12278382181E+04  0.10100000352E+00 0.  1.
       -3    1    3    3    0  502  0.81270027079E+03 -0.36564758345E+03  0.13566743464E+04  0.16231898157E+04  0.10100000352E+00 0. -1.
</event>
<event>
 5   0  0.3600963E-06  0.2769941E+04  0.7818609E-02  0.8312662E-01
        1   -1    0    0  501    0  0.00000000000E+00  0.00000000000E+00  0.21832953712E+04  0.21832953712E+04  0.50400001928E-02 0. -1.
       -1   -1    0    0    0  501  0.00000000000E+00  0.00000000000E+00 -0.87855406196E+03  0.87855406197E+03  0.50400001928E-02 0.  1.
    10030    2    1    2    0    0  0.00000000000E+00  0.00000000000E+00  0.13047413092E+04  0.30618494332E+04  0.27699408057E+04 0.  0.
        5    1    3    3  502    0  0.96722199599E+03  0.82605715782E+03  0.46692498657E+02  0.12728279919E+04  0.46999998093E+01 0.  1.
       -5    1    3    3    0  502 -0.96722199599E+03 -0.82605715782E+03  0.12580488106E+04  0.17890214413E+04  0.46999998093E+01 0. -1.
</event>
<event>
 5   0  0.3438130E-06  0.2797119E+04  0.7818609E-02  0.8304163E-01
        1   -1    0    0  501    0  0.00000000000E+00  0.00000000000E+00  0.85748955618E+03  0.85748955620E+03  0.50400001928E-02 0.  1.
       -1   -1    0    0    0  501  0.00000000000E+00  0.00000000000E+00 -0.22810413328E+04  0.22810413328E+04  0.50400001928E-02 0. -1.
    10030    2    1    2    0    0  0.00000000000E+00  0.00000000000E+00 -0.14235517767E+04  0.31385308890E+04  0.27971193183E+04 0.  0.
        3    1    3    3  502    0 -0.13176619323E+04 -0.46858784145E+03 -0.72603870024E+03  0.15757346659E+04  0.10100000352E+00 0. -1.
       -3    1    3    3    0  502  0.13176619323E+04  0.46858784145E+03 -0.69751307641E+03  0.15627962231E+04  0.10100000352E+00 0.  1.
</event>
<event>
 5   0  0.3397882E-06  0.2797159E+04  0.7818609E-02  0.8304151E-01
       -1   -1    0    0    0  501  0.00000000000E+00  0.00000000000E+00  0.87679645812E+03  0.87679645814E+03  0.50400001928E-02 0.  1.
        1   -1    0    0  501    0  0.00000000000E+00  0.00000000000E+00 -0.22308770355E+04  0.22308770355E+04  0.50400001928E-02 0. -1.
    10030    2    1    2    0    0  0.00000000000E+00  0.00000000000E+00 -0.13540805774E+04  0.31076734937E+04  0.27971593328E+04 0.  0.
        2    1    3    3  502    0  0.64333008678E+03  0.32075614667E+03  0.65583298130E+03  0.97307502565E+03  0.25500000920E-02 0.  1.
       -2    1    3    3    0  502 -0.64333008678E+03 -0.32075614667E+03 -0.20099135587E+04  0.21345984680E+04  0.25500000920E-02 0. -1.
</event>
<event>
 5   0  0.9342133E-06  0.2834739E+04  0.7818609E-02  0.8292564E-01
        2   -1    0    0  501    0  0.00000000000E+00  0.00000000000E+00  0.18315329828E+04  0.18315329828E+04  0.25500000920E-02 0. -1.
       -2   -1    0    0    0  501  0.00000000000E+00  0.00000000000E+00 -0.10968602053E+04  0.10968602053E+04  0.25500000920E-02 0.  1.
    10030    2    1    2    0    0  0.00000000000E+00  0.00000000000E+00  0.73467277747E+03  0.29283931881E+04  0.28347385372E+04 0.  0.
        2    1    3    3  502    0  0.14102861407E+04  0.12574776513E+01  0.51352886399E+03  0.15008732372E+04  0.25500000920E-02 0.  1.
       -2    1    3    3    0  502 -0.14102861407E+04 -0.12574776513E+01  0.22114391348E+03  0.14275199510E+04  0.25500000920E-02 0. -1.
</event>
<event>
 5   0  0.3357244E-06  0.2805871E+04  0.7818609E-02  0.8301448E-01
       -1   -1    0    0    0  501  0.00000000000E+00  0.00000000000E+00  0.94336999998E+03  0.94336999999E+03  0.50400001928E-02 0.  1.
        1   -1    0    0  501    0  0.00000000000E+00  0.00000000000E+00 -0.20863803969E+04  0.20863803969E+04  0.50400001928E-02 0. -1.
    10030    2    1    2    0    0  0.00000000000E+00  0.00000000000E+00 -0.11430103969E+04  0.30297503969E+04  0.28058714689E+04 0.  0.
        4    1    3    3  502    0 -0.15727557077E+03 -0.13698439742E+04 -0.29196912122E+03  0.14094167940E+04  0.12699999809E+01 0. -1.
       -4    1    3    3    0  502  0.15727557077E+03  0.13698439742E+04 -0.85104127569E+03  0.16203336028E+04  0.12699999809E+01 0.  1.
</event>
<event>
 5   0  0.3397882E-06  0.2796762E+04  0.7818609E-02  0.8304274E-01
        1   -1    0    0  501    0  0.00000000000E+00  0.00000000000E+00  0.12919450098E+04  0.12919450099E+04  0.50400001928E-02 0.  1.
       -1   -1    0    0    0  501  0.00000000000E+00  0.00000000000E+00 -0.15135861131E+04  0.15135861131E+04  0.50400001928E-02 0. -1.
    10030    2    1    2    0    0  0.00000000000E+00  0.00000000000E+00 -0.22164110325E+03  0.28055311230E+04  0.27967624324E+04 0.  0.
        2    1    3    3  502    0  0.83775304750E+03 -0.64828176571E+03  0.80493298296E+03  0.13304196794E+04  0.25500000920E-02 0.  1.
       -2    1    3    3    0  502 -0.83775304750E+03  0.64828176571E+03 -0.10265740862E+04  0.14751114435E+04  0.25500000920E-02 0. -1.
</event>
<event>
 5   0  0.3438130E-06  0.2740416E+04  0.7818609E-02  0.8322009E-01
       -1   -1    0    0    0  501  0.00000000000E+00  0.00000000000E+00  0.86664982585E+03  0.86664982587E+03  0.50400001928E-02 0.  1.
        1   -1    0    0  501    0  0.00000000000E+00  0.00000000000E+00 -0.21663543096E+04  0.21663543096E+04  0.50400001928E-02 0. -1.
    10030    2    1    2    0    0  0.00000000000E+00  0.00000000000E+00 -0.12997044837E+04  0.30330041355E+04  0.27404164539E+04 0.  0.
        3    1    3    3  502    0  0.39089640692E+03  0.12945576946E+03  0.79655022144E+03  0.89668894421E+03  0.10100000352E+00 0.  1.
       -3    1    3    3    0  502 -0.39089640692E+03 -0.12945576946E+03 -0.20962547052E+04  0.21363151913E+04  0.10100000352E+00 0. -1.
</event>
<event>
 5   0  0.9260173E-06  0.2640002E+04  0.7818609E-02  0.8354739E-01
       -2   -1    0    0    0  501  0.00000000000E+00  0.00000000000E+00  0.80831376584E+03  0.80831376584E+03  0.25500000920E-02 0.  1.
        2   -1    0    0  501    0  0.00000000000E+00  0.00000000000E+00 -0.21556010691E+04  0.21556010691E+04  0.25500000920E-02 0. -1.
    10030    2    1    2    0    0  0.00000000000E+00  0.00000000000E+00 -0.13472873033E+04  0.29639148350E+04  0.26400015287E+04 0.  0.
        1    1    3    3  502    0 -0.70109772360E+03  0.94215610649E+03  0.29656625853E+01  0.11743955646E+04  0.50400001928E-02 0.  1.
       -1    1    3    3    0  502  0.70109772360E+03 -0.94215610649E+03 -0.13502529659E+04  0.17895192704E+04  0.50400001928E-02 0. -1.
</event>
<event>
 5   0  0.9426937E-06  0.2805048E+04  0.7818609E-02  0.8301703E-01
       -2   -1    0    0    0  501  0.00000000000E+00  0.00000000000E+00  0.12719190688E+04  0.12719190688E+04  0.25500000920E-02 0. -1.
        2   -1    0    0  501    0  0.00000000000E+00  0.00000000000E+00 -0.15465395265E+04  0.15465395265E+04  0.25500000920E-02 0.  1.
    10030    2    1    2    0    0  0.00000000000E+00  0.00000000000E+00 -0.27462045766E+03  0.28184585954E+04  0.28050476748E+04 0.  0.
        4    1    3    3  502    0  0.85474894612E+03  0.10976903489E+04  0.41166817909E+02  0.13918391369E+04  0.12699999809E+01 0. -1.
       -4    1    3    3    0  502 -0.85474894612E+03 -0.10976903489E+04 -0.31578727557E+03  0.14266194585E+04  0.12699999809E+01 0.  1.
</event>
<event>
 5   0  0.3371603E-06  0.2782273E+04  0.7818609E-02  0.8308793E-01
        1   -1    0    0  501    0  0.00000000000E+00  0.00000000000E+00  0.27010070876E+04  0.27010070876E+04  0.50400001928E-02 0.  1.
       -1   -1    0    0    0  501  0.00000000000E+00  0.00000000000E+00 -0.71649584502E+03  0.71649584504E+03  0.50400001928E-02 0. -1.
    10030    2    1    2    0    0  0.00000000000E+00  0.00000000000E+00  0.19845112426E+04  0.34175029326E+04  0.27822727082E+04 0.  0.
        1    1    3    3  502    0 -0.39945652657E+03 -0.10326311715E+04  0.20267899488E+04  0.23094956484E+04  0.50400001928E-02 0.  1.
       -1    1    3    3    0  502  0.39945652657E+03  0.10326311715E+04 -0.42278706269E+02  0.11080072843E+04  0.50400001928E-02 0. -1.
</event>
<event>
 5   0  0.9260173E-06  0.2752683E+04  0.7818609E-02  0.8318111E-01
        2   -1    0    0  501    0  0.00000000000E+00  0.00000000000E+00  0.94239678699E+03  0.94239678699E+03  0.25500000920E-02 0.  1.
       -2   -1    0    0    0  501  0.00000000000E+00  0.00000000000E+00 -0.20101045109E+04  0.20101045109E+04  0.25500000920E-02 0. -1.
    10030    2    1    2    0    0  0.00000000000E+00  0.00000000000E+00 -0.10677077239E+04  0.29525012979E+04  0.27526830784E+04 0.  0.
        1    1    3    3  502    0  0.65853249764E+03  0.92699340158E+03  0.29789428481E+03  0.11754670655E+04  0.50400001928E-02 0.  1.
       -1    1    3    3    0  502 -0.65853249764E+03 -0.92699340158E+03 -0.13656020087E+04  0.17770342324E+04  0.50400001928E-02 0. -1.
</event>
<event>
 5   0  0.9426937E-06  0.2832470E+04  0.7818609E-02  0.8293258E-01
        2   -1    0    0  501    0  0.00000000000E+00  0.00000000000E+00  0.10172601535E+04  0.10172601535E+04  0.25500000920E-02 0. -1.
       -2   -1    0    0    0  501  0.00000000000E+00  0.00000000000E+00 -0.19716895939E+04  0.19716895939E+04  0.25500000920E-02 0.  1.
    10030    2    1    2    0    0  0.00000000000E+00  0.00000000000E+00 -0.95442944043E+03  0.29889497474E+04  0.28324697767E+04 0.  0.
        4    1    3    3  502    0  0.15375884555E+02  0.72972861374E+03 -0.17579272614E+04  0.19034311484E+04  0.12699999809E+01 0.  1.
       -4    1    3    3    0  502 -0.15375884555E+02 -0.72972861374E+03  0.80349782098E+03  0.10855185990E+04  0.12699999809E+01 0. -1.
</event>
<event>
 5   0  0.9252359E-06  0.2742743E+04  0.7818609E-02  0.8321268E-01
        2   -1    0    0  501    0  0.00000000000E+00  0.00000000000E+00  0.31599772423E+04  0.31599772423E+04  0.25500000920E-02 0. -1.
       -2   -1    0    0    0  501  0.00000000000E+00  0.00000000000E+00 -0.59515000304E+03  0.59515000304E+03  0.25500000920E-02 0.  1.
    10030    2    1    2    0    0  0.00000000000E+00  0.00000000000E+00  0.25648272393E+04  0.37551272454E+04  0.27427434917E+04 0.  0.
        5    1    3    3  502    0  0.22869790710E+03  0.79020887743E+03 -0.21981377379E+03  0.85151217715E+03  0.46999998093E+01 0.  1.
       -5    1    3    3    0  502 -0.22869790710E+03 -0.79020887743E+03  0.27846410131E+04  0.29036150682E+04  0.46999998093E+01 0. -1.
</event>
<event>
 5   0  0.9260173E-06  0.2786498E+04  0.7818609E-02  0.8307473E-01
       -2   -1    0    0    0  501  0.00000000000E+00  0.00000000000E+00  0.93801930360E+03  0.93801930360E+03  0.25500000920E-02 0.  1.
        2   -1    0    0  501    0  0.00000000000E+00  0.00000000000E+00 -0.20694058403E+04  0.20694058403E+04  0.25500000920E-02 0. -1.
    10030    2    1    2    0    0  0.00000000000E+00  0.00000000000E+00 -0.11313865367E+04  0.30074251439E+04  0.27864978917E+04 0.  0.
        1    1    3    3  502    0  0.81238086508E+03 -0.98604550551E+03  0.34154428756E+02  0.12780512251E+04  0.50400001928E-02 0.  1.
       -1    1    3    3    0  502 -0.81238086508E+03  0.98604550551E+03 -0.11655409654E+04  0.17293739188E+04  0.50400001928E-02 0. -1.
</event>
<event>
 5   0  0.9252359E-06  0.2805023E+04  0.7818609E-02  0.8301711E-01
       -2   -1    0    0    0  501  0.00000000000E+00  0.00000000000E+00  0.10408826376E+04  0.10408826376E+04  0.25500000920E-02 0.  1.
        2   -1    0    0  501    0  0.00000000000E+00  0.00000000000E+00 -0.18897797927E+04  0.18897797927E+04  0.25500000920E-02 0. -1.
    10030    2    1    2    0    0  0.00000000000E+00  0.00000000000E+00 -0.84889715503E+03  0.29306624303E+04  0.28050233333E+04 0.  0.
        5    1    3    3  502    0 -0.13385920986E+04 -0.79067503181E+02  0.49800048063E+01  0.13409427158E+04  0.46999998093E+01 0.  1.
       -5    1    3    3    0  502  0.13385920986E+04  0.79067503181E+02 -0.85387715984E+03  0.15897197145E+04  0.46999998093E+01 0. -1.
</event>
<event>
 5   0  0.9260173E-06  0.2810008E+04  0.7818609E-02  0.8300168E-01
       -2   -1    0    0    0  501  0.00000000000E+00  0.00000000000E+00  0.98073611935E+03  0.98073611935E+03  0.25500000920E-02 0.  1.
        2   -1    0    0  501    0  0.00000000000E+00  0.00000000000E+00 -0.20128109263E+04  0.20128109263E+04  0.25500000920E-02 0. -1.
    10030    2    1    2    0    0  0.00000000000E+00  0.00000000000E+00 -0.10320748070E+04  0.29935470457E+04  0.28100080974E+04 0.  0.
        1    1    3    3  502    0 -0.25059243437E+03  0.55873934394E+02  0.95553325743E+03  0.98942522243E+03  0.50400001928E-02 0.  1.
       -1    1    3    3    0  502  0.25059243437E+03 -0.55873934394E+02 -0.19876080644E+04  0.20041218233E+04  0.50400001928E-02 0. -1.
</event>
<event>
 5   0  0.3357244E-06  0.2735678E+04  0.7818609E-02  0.8323521E-01
       -1   -1    0    0    0  501  0.00000000000E+00  0.00000000000E+00  0.10183370236E+04  0.10183370237E+04  0.50400001928E-02 0.  1.
        1   -1    0    0  501    0  0.00000000000E+00  0.00000000000E+00 -0.18372931702E+04  0.18372931702E+04  0.50400001928E-02 0. -1.
    10030    2    1    2    0    0  0.00000000000E+00  0.00000000000E+00 -0.81895614655E+03  0.28556301939E+04  0.27356780940E+04 0.  0.
        4    1    3    3  502    0 -0.87479858598E+03  0.66895281026E+03  0.43739776820E+03  0.11849425509E+04  0.12699999809E+01 0.  1.
       -4    1    3    3    0  502  0.87479858598E+03 -0.66895281026E+03 -0.12563539147E+04  0.16706876430E+04  0.12699999809E+01 0. -1.
</event>
<event>
 5   0  0.3438130E-06  0.2826422E+04  0.7818609E-02  0.8295112E-01
        1   -1    0    0  501    0  0.00000000000E+00  0.00000000000E+00  0.24559391373E+04  0.24559391373E+04  0.50400001928E-02 0. -1.
       -1   -1    0    0    0  501  0.00000000000E+00  0.00000000000E+00 -0.81319831708E+03  0.81319831710E+03  0.50400001928E-02 0.  1.
    10030    2    1    2    0    0  0.00000000000E+00  0.00000000000E+00  0.16427408202E+04  0.32691374544E+04  0.28264221718E+04 0.  0.
        3    1    3    3  502    0  0.11839537441E+04 -0.23560678089E+03 -0.28506927035E+02  0.12075055604E+04  0.10100000352E+00 0.  1.
       -3    1    3    3    0  502 -0.11839537441E+04  0.23560678089E+03  0.16712477473E+04  0.20616318940E+04  0.10100000352E+00 0. -1.
</event>
<event>
 5   0  0.9260173E-06  0.2787938E+04  0.7818609E-02  0.8307023E-01
        2   -1    0    0  501    0  0.00000000000E+00  0.00000000000E+00  0.15275680315E+04  0.15275680315E+04  0.25500000920E-02 0. -1.
       -2   -1    0    0    0  501  0.00000000000E+00  0.00000000000E+00 -0.12720542977E+04  0.12720542977E+04  0.25500000920E-02 0.  1.
    10030    2    1    2    0    0  0.00000000000E+00  0.00000000000E+00  0.25551373377E+03  0.27996223293E+04  0.27879379330E+04 0.  0.
        1    1    3    3  502    0  0.85461698585E+03 -0.78655867542E+03 -0.64625542094E+03  0.13291692185E+04  0.50400001928E-02 0.  1.
       -1    1    3    3    0  502 -0.85461698585E+03  0.78655867542E+03  0.90176915471E+03  0.14704531107E+04  0.50400001928E-02 0. -1.
</event>
<event>
 5   0  0.3397882E-06  0.2806642E+04  0.7818609E-02  0.8301209E-01
       -1   -1    0    0    0  501  0.00000000000E+00  0.00000000000E+00  0.91531701022E+03  0.91531701024E+03  0.50400001928E-02 0. -1.
        1   -1    0    0  501    0  0.00000000000E+00  0.00000000000E+00 -0.21515052115E+04  0.21515052115E+04  0.50400001928E-02 0.  1.
    10030    2    1    2    0    0  0.00000000000E+00  0.00000000000E+00 -0.12361882013E+04  0.30668222217E+04  0.28066416356E+04 0.  0.
        2    1    3    3  502    0 -0.89545278273E+03  0.23999256616E+03  0.53307494408E+03  0.10693928249E+04  0.25500000920E-02 0. -1.
       -2    1    3    3    0  502  0.89545278273E+03 -0.23999256616E+03 -0.17692631453E+04  0.19974293968E+04  0.25500000920E-02 0.  1.
</event>
<event>
 5   0  0.9342133E-06  0.2745554E+04  0.7818609E-02  0.8320374E-01
        2   -1    0    0  501    0  0.00000000000E+00  0.00000000000E+00  0.17428664740E+04  0.17428664740E+04  0.25500000920E-02 0. -1.
       -2   -1    0    0    0  501  0.00000000000E+00  0.00000000000E+00 -0.10812740088E+04  0.10812740088E+04  0.25500000920E-02 0.  1.
    10030    2    1    2    0    0  0.00000000000E+00  0.00000000000E+00  0.66159246511E+03  0.28241404828E+04  0.27455536558E+04 0.  0.
        2    1    3    3  502    0  0.11678186472E+04  0.37644481794E+03  0.96405163338E+03  0.15604187404E+04  0.25500000920E-02 0. -1.
       -2    1    3    3    0  502 -0.11678186472E+04 -0.37644481794E+03 -0.30245916827E+03  0.12637217424E+04  0.25500000920E-02 0.  1.
</event>
<event>
 5   0  0.3357244E-06  0.2773831E+04  0.7818609E-02  0.8311439E-01
       -1   -1    0    0    0  501  0.00000000000E+00  0.00000000000E+00  0.12614254018E+04  0.12614254018E+04  0.50400001928E-02 0.  1.
        1   -1    0    0  501    0  0.00000000000E+00  0.00000000000E+00 -0.15248894556E+04  0.15248894556E+04  0.50400001928E-02 0. -1.
    10030    2    1    2    0    0  0.00000000000E+00  0.00000000000E+00 -0.26346405386E+03  0.27863148574E+04  0.27738307765E+04 0.  0.
        4    1    3    3  502    0  0.25196650102E+02  0.11552880091E+04  0.63866656414E+03  0.13203112694E+04  0.12699999809E+01 0.  1.
       -4    1    3    3    0  502 -0.25196650102E+02 -0.11552880091E+04 -0.90213061799E+03  0.14660035880E+04  0.12699999809E+01 0. -1.
</event>
<event>
 5   0  0.9252359E-06  0.2841668E+04  0.7818609E-02  0.8290448E-01
        2   -1    0    0  501    0  0.00000000000E+00  0.00000000000E+00  0.19544475263E+04  0.19544475263E+04  0.25500000920E-02 0. -1.
       -2   -1    0    0    0  501  0.00000000000E+00  0.00000000000E+00 -0.10329103521E+04  0.10329103521E+04  0.25500000920E-02 0.  1.
    10030    2    1    2    0    0  0.00000000000E+00  0.00000000000E+00  0.92153717419E+03  0.29873578785E+04  0.28416678783E+04 0.  0.
        5    1    3    3  502    0 -0.38783593944E-02 -0.13801127725E+04  0.10576364078E+03  0.13841673680E+04  0.46999998093E+01 0. -1.
       -5    1    3    3    0  502  0.38783593944E-02  0.13801127725E+04  0.81577353341E+03  0.16031905104E+04  0.46999998093E+01 0.  1.
</event>
<event>
 5   0  0.3371603E-06  0.2569171E+04  0.7818609E-02  0.8378749E-01
       -1   -1    0    0    0  501  0.00000000000E+00  0.00000000000E+00  0.82951378794E+03  0.82951378795E+03  0.50400001928E-02 0. -1.
        1   -1    0    0  501    0  0.00000000000E+00  0.00000000000E+00 -0.19893103562E+04  0.19893103562E+04  0.50400001928E-02 0.  1.
    10030    2    1    2    0    0  0.00000000000E+00  0.00000000000E+00 -0.11597965682E+04  0.28188241441E+04  0.25691713598E+04 0.  0.
        1    1    3    3  502    0  0.80785635433E+03 -0.53595968195E+03 -0.15045717359E+04  0.17898661342E+04  0.50400001928E-02 0.  1.
       -1    1    3    3    0  502 -0.80785635433E+03  0.53595968195E+03  0.34477516766E+03  0.10289580099E+04  0.50400001928E-02 0. -1.
</event>
<event>
 5   0  0.9260173E-06  0.2800107E+04  0.7818609E-02  0.8303235E-01
        2   -1    0    0  501    0  0.00000000000E+00  0.00000000000E+00  0.11616445862E+04  0.11616445862E+04  0.25500000920E-02 0.  1.
       -2   -1    0    0    0  501  0.00000000000E+00  0.00000000000E+00 -0.16873915042E+04  0.16873915042E+04  0.25500000920E-02 0. -1.
    10030    2    1    2    0    0  0.00000000000E+00  0.00000000000E+00 -0.52574691797E+03  0.28490360904E+04  0.28001065735E+04 0.  0.
        1    1    3    3  502    0  0.71672751714E+03  0.88578169045E+03 -0.10906258478E+04  0.15772673448E+04  0.50400001928E-02 0. -1.
       -1    1    3    3    0  502 -0.71672751714E+03 -0.88578169045E+03  0.56487892987E+03  0.12717687456E+04  0.50400001928E-02 0.  1.
</event>
<event>
 5   0  0.3397882E-06  0.2797008E+04  0.7818609E-02  0.8304198E-01
        1   -1    0    0  501    0  0.00000000000E+00  0.00000000000E+00  0.99632999211E+03  0.99632999212E+03  0.50400001928E-02 0. -1.
       -1   -1    0    0    0  501  0.00000000000E+00  0.00000000000E+00 -0.19630177477E+04  0.19630177477E+04  0.50400001928E-02 0.  1.
    10030    2    1    2    0    0  0.00000000000E+00  0.00000000000E+00 -0.96668775560E+03  0.29593477398E+04  0.27970080137E+04 0.  0.
        2    1    3    3  502    0  0.62631406670E+03 -0.92674529465E+03  0.40483514894E+03  0.11895451438E+04  0.25500000920E-02 0. -1.
       -2    1    3    3    0  502 -0.62631406670E+03  0.92674529465E+03 -0.13715229045E+04  0.17698025960E+04  0.25500000920E-02 0.  1.
</event>
<event>
 5   0  0.3397882E-06  0.2761230E+04  0.7818609E-02  0.8315407E-01
        1   -1    0    0  501    0  0.00000000000E+00  0.00000000000E+00  0.20116081446E+04  0.20116081446E+04  0.50400001928E-02 0. -1.
       -1   -1    0    0    0  501  0.00000000000E+00  0.00000000000E+00 -0.94754892315E+03  0.94754892316E+03  0.50400001928E-02 0.  1.
    10030    2    1    2    0    0  0.00000000000E+00  0.00000000000E+00  0.10640592214E+04  0.29591570677E+04  0.27612295314E+04 0.  0.
        2    1    3    3  502    0 -0.60358176532E+03  0.64799912853E+03  0.16671432763E+04  0.18877448243E+04  0.25500000920E-02 0. -1.
       -2    1    3    3    0  502  0.60358176532E+03 -0.64799912853E+03 -0.60308405491E+03  0.10714122434E+04  0.25500000920E-02 0.  1.
</event>
<event>
 5   0  0.3600963E-06  0.2787850E+04  0.7818609E-02  0.8307050E-01
        1   -1    0    0  501    0  0.00000000000E+00  0.00000000000E+00  0.21274841770E+04  0.21274841770E+04  0.50400001928E-02 0.  1.
       -1   -1    0    0    0  501  0.00000000000E+00  0.00000000000E+00 -0.91329778531E+03  0.91329778532E+03  0.50400001928E-02 0. -1.
    10030    2    1    2    0    0  0.00000000000E+00  0.00000000000E+00  0.12141863917E+04  0.30407819624E+04  0.27878497716E+04 0.  0.
        5    1    3    3  502    0 -0.46509777090E+03 -0.47165437828E+03 -0.73065119384E+03  0.98622869868E+03  0.46999998093E+01 0. -1.
       -5    1    3    3    0  502  0.46509777090E+03  0.47165437828E+03  0.19448375856E+04  0.20545532637E+04  0.46999998093E+01 0.  1.
</event>
<event>
 5   0  0.3600963E-06  0.2796568E+04  0.7818609E-02  0.8304335E-01
       -1   -1    0    0    0  501  0.00000000000E+00  0.00000000000E+00  0.13660461528E+04  0.13660461528E+04  0.50400001928E-02 0. -1.
        1   -1    0    0  501    0  0.00000000000E+00  0.00000000000E+00 -0.14312827965E+04  0.14312827965E+04  0.50400001928E-02 0.  1.
    10030    2    1    2    0    0  0.00000000000E+00  0.00000000000E+00 -0.65236643672E+02  0.27973289492E+04  0.27965681523E+04 0.  0.
        5    1    3    3  502    0 -0.25523247250E+03  0.93379476092E+03 -0.10418824062E+04  0.14222015711E+04  0.46999998093E+01 0.  1.
       -5    1    3    3    0  502  0.25523247250E+03 -0.93379476092E+03  0.97664576255E+03  0.13751273781E+04  0.46999998093E+01 0. -1.
</event>
<event>
 5   0  0.3357244E-06  0.2784368E+04  0.7818609E-02  0.8308138E-01
       -1   -1    0    0    0  501  0.00000000000E+00  0.00000000000E+00  0.12620182435E+04  0.12620182435E+04  0.50400001928E-02 0. -1.
        1   -1    0    0  501    0  0.00000000000E+00  0.00000000000E+00 -0.15357752475E+04  0.15357752475E+04  0.50400001928E-02 0.  1.
    10030    2    1    2    0    0  0.00000000000E+00  0.00000000000E+00 -0.27375700400E+03  0.27977934909E+04  0.27843680649E+04 0.  0.
        4    1    3    3  502    0 -0.56222343651E+03  0.26686682799E+03 -0.13882191227E+04  0.15213372545E+04  0.12699999809E+01 0.  1.
       -4    1    3    3    0  502  0.56222343651E+03 -0.26686682799E+03  0.11144621187E+04  0.12764562364E+04  0.12699999809E+01 0. -1.
</event>
<event>
 5   0  0.9426937E-06  0.2803794E+04  0.7818609E-02  0.8302092E-01
       -2   -1    0    0    0  501  0.00000000000E+00  0.00000000000E+00  0.16324145724E+04  0.16324145724E+04  0.25500000920E-02 0. -1.
        2   -1    0    0  501    0  0.00000000000E+00  0.00000000000E+00 -0.12039311075E+04  0.12039311075E+04  0.25500000920E-02 0.  1.
    10030    2    1    2    0    0  0.00000000000E+00  0.00000000000E+00  0.42848346494E+03  0.28363456800E+04  0.28037936330E+04 0.  0.
        4    1    3    3  502    0  0.66158941505E+03 -0.15510086324E+03 -0.10261902430E+04  0.12307822146E+04  0.12699999809E+01 0.  1.
       -4    1    3    3    0  502 -0.66158941505E+03  0.15510086324E+03  0.14546737080E+04  0.16055634654E+04  0.12699999809E+01 0. -1.
</event>
<event>
 5   0  0.9260173E-06  0.2763284E+04  0.7818609E-02  0.8314759E-01
       -2   -1    0    0    0  501  0.00000000000E+00  0.00000000000E+00  0.11271587678E+04  0.11271587678E+04  0.25500000920E-02 0.  1.
        2   -1    0    0  501    0  0.00000000000E+00  0.00000000000E+00 -0.16935810914E+04  0.16935810914E+04  0.25500000920E-02 0. -1.
    10030    2    1    2    0    0  0.00000000000E+00  0.00000000000E+00 -0.56642232361E+03  0.28207398592E+04  0.27632841158E+04 0.  0.
        1    1    3    3  502    0 -0.43636013993E+03  0.86194485309E+03 -0.12914605714E+04  0.16128327591E+04  0.50400001928E-02 0. -1.
       -1    1    3    3    0  502  0.43636013993E+03 -0.86194485309E+03  0.72503824779E+03  0.12079071000E+04  0.50400001928E-02 0.  1.
</event>
<event>
 5   0  0.9252359E-06  0.2829969E+04  0.7818609E-02  0.8294024E-01
        2   -1    0    0  501    0  0.00000000000E+00  0.00000000000E+00  0.15590149539E+04  0.15590149539E+04  0.25500000920E-02 0.  1.
       -2   -1    0    0    0  501  0.00000000000E+00  0.00000000000E+00 -0.12842607913E+04  0.12842607913E+04  0.25500000920E-02 0. -1.
    10030    2    1    2    0    0  0.00000000000E+00  0.00000000000E+00  0.27475416264E+03  0.28432757452E+04  0.28299694544E+04 0.  0.
        5    1    3    3  502    0  0.11099651232E+04 -0.33757963510E+03 -0.67647929129E+03  0.13429925190E+04  0.46999998093E+01 0. -1.
       -5    1    3    3    0  502 -0.11099651232E+04  0.33757963510E+03  0.95123345393E+03  0.15002832261E+04  0.46999998093E+01 0.  1.
</event>
<event>
 5   0  0.9342133E-06  0.2845425E+04  0.7818609E-02  0.8289303E-01
        2   -1    0    0  501    0  0.00000000000E+00  0.00000000000E+00  0.11890762513E+04  0.11890762513E+04  0.25500000920E-02 0. -1.
       -2   -1    0    0    0  501  0.00000000000E+00  0.00000000000E+00 -0.17022549981E+04  0.17022549981E+04  0.25500000920E-02 0.  1.
    10030    2    1    2    0    0  0.00000000000E+00  0.00000000000E+00 -0.51317874681E+03  0.28913312494E+04  0.28454250944E+04 0.  0.
        2    1    3    3  502    0  0.85557041509E+03  0.10864524133E+04  0.83065877496E+02  0.13853806414E+04  0.25500000920E-02 0. -1.
       -2    1    3    3    0  502 -0.85557041509E+03 -0.10864524133E+04 -0.59624462430E+03  0.15059506080E+04  0.25500000920E-02 0.  1.
</event>
<event>
 5   0  0.3397882E-06  0.2789446E+04  0.7818609E-02  0.8306552E-01
        1   -1    0    0  501    0  0.00000000000E+00  0.00000000000E+00  0.15124510400E+04  0.15124510400E+04  0.50400001928E-02 0. -1.
       -1   -1    0    0    0  501  0.00000000000E+00  0.00000000000E+00 -0.12861587425E+04  0.12861587425E+04  0.50400001928E-02 0.  1.
    10030    2    1    2    0    0  0.00000000000E+00  0.00000000000E+00  0.22629229754E+03  0.27986097825E+04  0.27894459146E+04 0.  0.
        2    1    3    3  502    0 -0.51970362601E+03 -0.56851833193E+03  0.12796985824E+04  0.14936309499E+04  0.25500000920E-02 0. -1.
       -2    1    3    3    0  502  0.51970362601E+03  0.56851833193E+03 -0.10534062848E+04  0.13049788326E+04  0.25500000920E-02 0.  1.
</event>
<event>
 5   0  0.3371603E-06  0.2796662E+04  0.7818609E-02  0.8304305E-01
       -1   -1    0    0    0  501  0.00000000000E+00  0.00000000000E+00  0.86540187855E+03  0.86540187856E+03  0.50400001928E-02 0.  1.
        1   -1    0    0  501    0  0.00000000000E+00  0.00000000000E+00 -0.22594474594E+04  0.22594474594E+04  0.50400001928E-02 0. -1.
    10030    2    1    2    0    0  0.00000000000E+00  0.00000000000E+00 -0.13940455809E+04  0.31248493380E+04  0.27966623506E+04 0.  0.
        1    1    3    3  502    0  0.66598619639E+03 -0.14501198530E+03 -0.20612713171E+04  0.21710378929E+04  0.50400001928E-02 0. -1.
       -1    1    3    3    0  502 -0.66598619639E+03  0.14501198530E+03  0.66722573623E+03  0.95381144508E+03  0.50400001928E-02 0.  1.
</event>
<event>
 5   0  0.9252359E-06  0.2800732E+04  0.7818609E-02  0.8303041E-01
       -2   -1    0    0    0  501  0.00000000000E+00  0.00000000000E+00  0.13757144690E+04  0.13757144690E+04  0.25500000920E-02 0. -1.
        2   -1    0    0  501    0  0.00000000000E+00  0.00000000000E+00 -0.14254589324E+04  0.14254589324E+04  0.25500000920E-02 0.  1.
    10030    2    1    2    0    0  0.00000000000E+00  0.00000000000E+00 -0.49744463400E+02  0.28011734015E+04  0.28007316746E+04 0.  0.
        5    1    3    3  502    0  0.19787859371E+03  0.11268482282E+04 -0.83250161510E+03  0.14149289368E+04  0.46999998093E+01 0. -1.
       -5    1    3    3    0  502 -0.19787859371E+03 -0.11268482282E+04  0.78275715170E+03  0.13862444646E+04  0.46999998093E+01 0.  1.
</event>
<event>
 5   0  0.9260173E-06  0.2801472E+04  0.7818609E-02  0.8302812E-01
       -2   -1    0    0    0  501  0.00000000000E+00  0.00000000000E+00  0.13543057665E+04  0.13543057665E+04  0.25500000920E-02 0. -1.
        2   -1    0    0  501    0  0.00000000000E+00  0.00000000000E+00 -0.14487578695E+04  0.14487578695E+04  0.25500000920E-02 0.  1.
    10030    2    1    2    0    0  0.00000000000E+00  0.00000000000E+00 -0.94452103021E+02  0.28030636361E+04  0.28014718539E+04 0.  0.
        1    1    3    3  502    0 -0.90165209602E+03 -0.10146790762E+04 -0.39312611903E+03  0.14131872754E+04  0.50400001928E-02 0.  1.
       -1    1    3    3    0  502  0.90165209602E+03  0.10146790762E+04  0.29867401600E+03  0.13898763606E+04  0.50400001928E-02 0. -1.
</event>
<event>
 5   0  0.3006875E-06  0.2806245E+04  0.7818609E-02  0.8301332E-01
        3   -1    0    0  501    0  0.00000000000E+00  0.00000000000E+00  0.13247563538E+04  0.13247563577E+04  0.10100000352E+00 0. -1.
       -3   -1    0    0    0  501  0.00000000000E+00  0.00000000000E+00 -0.14861248512E+04  0.14861248547E+04  0.10100000352E+00 0.  1.
    10030    2    1    2    0    0  0.00000000000E+00  0.00000000000E+00 -0.16136849738E+03  0.28108812124E+04  0.28062454273E+04 0.  0.
        2    1    3    3  502    0  0.11271989238E+04 -0.55083576577E+03 -0.71001818887E+03  0.14415697289E+04  0.25500000920E-02 0.  1.
       -2    1    3    3    0  502 -0.11271989238E+04  0.55083576577E+03  0.54864969149E+03  0.13693114835E+04  0.25500000920E-02 0. -1.
</event>
<event>
 5   0  0.3438130E-06  0.2796047E+04  0.7818609E-02  0.8304497E-01
       -1   -1    0    0    0  501  0.00000000000E+00  0.00000000000E+00  0.13527473431E+04  0.13527473431E+04  0.50400001928E-02 0.  1.
        1   -1    0    0  501    0  0.00000000000E+00  0.00000000000E+00 -0.14448150120E+04  0.14448150120E+04  0.50400001928E-02 0. -1.
    10030    2    1    2    0    0  0.00000000000E+00  0.00000000000E+00 -0.92067668917E+02  0.27975623551E+04  0.27960469730E+04 0.  0.
        3    1    3    3  502    0  0.12755923631E+04  0.53466174401E+03 -0.24978752249E+03  0.14054867036E+04  0.10100000352E+00 0. -1.
       -3    1    3    3    0  502 -0.12755923631E+04 -0.53466174401E+03  0.15771985357E+03  0.13920756516E+04  0.10100000352E+00 0.  1.
</event>
<event>
 5   0  0.9252359E-06  0.2784295E+04  0.7818609E-02  0.8308161E-01
        2   -1    0    0  501    0  0.00000000000E+00  0.00000000000E+00  0.20607853536E+04  0.20607853536E+04  0.25500000920E-02 0.  1.
       -2   -1    0    0    0  501  0.00000000000E+00  0.00000000000E+00 -0.94045409069E+03  0.94045409069E+03  0.25500000920E-02 0. -1.
    10030    2    1    2    0    0  0.00000000000E+00  0.00000000000E+00  0.11203312629E+04  0.30012394443E+04  0.27842945360E+04 0.  0.
        5    1    3    3  502    0 -0.11759076726E+04 -0.55824388893E+03  0.28088287419E+02  0.13020008202E+04  0.46999998093E+01 0. -1.
       -5    1    3    3    0  502  0.11759076726E+04  0.55824388893E+03  0.10922429755E+04  0.16992386240E+04  0.46999998093E+01 0.  1.
</event>
<event>
 5   0  0.3438130E-06  0.2787856E+04  0.7818609E-02  0.8307048E-01
       -1   -1    0    0    0  501  0.00000000000E+00  0.00000000000E+00  0.22445917341E+04  0.22445917341E+04  0.50400001928E-02 0. -1.
        1   -1    0    0  501    0  0.00000000000E+00  0.00000000000E+00 -0.86565206763E+03  0.86565206764E+03  0.50400001928E-02 0.  1.
    10030    2    1    2    0    0  0.00000000000E+00  0.00000000000E+00  0.13789396665E+04  0.31102438018E+04  0.27878561481E+04 0.  0.
        3    1    3    3  502    0  0.17768897187E+03 -0.82263847122E+03  0.19291502141E+04  0.21047394100E+04  0.10100000352E+00 0. -1.
       -3    1    3    3    0  502 -0.17768897187E+03  0.82263847122E+03 -0.55021054761E+03  0.10055043918E+04  0.10100000352E+00 0.  1.
</event>
<event>
 5   0  0.9252359E-06  0.2923396E+04  0.7818609E-02  0.8265950E-01
       -2   -1    0    0    0  501  0.00000000000E+00  0.00000000000E+00  0.10429105764E+04  0.10429105764E+04  0.25500000920E-02 0.  1.
        2   -1    0    0  501    0  0.00000000000E+00  0.00000000000E+00 -0.20486526694E+04  0.20486526694E+04  0.25500000920E-02 0. -1.
    10030    2    1    2    0    0  0.00000000000E+00  0.00000000000E+00 -0.10057420930E+04  0.30915632458E+04  0.29233963374E+04 0.  0.
        5    1    3    3  502    0 -0.65018097153E+03 -0.92071382157E+03 -0.14870453048E+04  0.18659515175E+04  0.46999998093E+01 0. -1.
       -5    1    3    3    0  502  0.65018097153E+03  0.92071382157E+03  0.48130321181E+03  0.12256117283E+04  0.46999998093E+01 0.  1.
</event>
<event>
 5   0  0.3397882E-06  0.2785869E+04  0.7818609E-02  0.8307669E-01
        1   -1    0    0  501    0  0.00000000000E+00  0.00000000000E+00  0.22913149957E+04  0.22913149957E+04  0.50400001928E-02 0.  1.
       -1   -1    0    0    0  501  0.00000000000E+00  0.00000000000E+00 -0.84679146376E+03  0.84679146378E+03  0.50400001928E-02 0. -1.
    10030    2    1    2    0    0  0.00000000000E+00  0.00000000000E+00  0.14445235320E+04  0.31381064595E+04  0.27858686108E+04 0.  0.
        2    1    3    3  502    0 -0.46545464294E+03 -0.82414437969E+03  0.18734366486E+04  0.20989585178E+04  0.25500000920E-02 0.  1.
       -2    1    3    3    0  502  0.46545464294E+03  0.82414437969E+03 -0.42891311659E+03  0.10391479417E+04  0.25500000920E-02 0. -1.
</event>
<event>
 5   0  0.9260173E-06  0.2812382E+04  0.7818609E-02  0.8299435E-01
       -2   -1    0    0    0  501  0.00000000000E+00  0.00000000000E+00  0.13455450914E+04  0.13455450914E+04  0.25500000920E-02 0.  1.
        2   -1    0    0  501    0  0.00000000000E+00  0.00000000000E+00 -0.14695699953E+04  0.14695699953E+04  0.25500000920E-02 0. -1.
    10030    2    1    2    0    0  0.00000000000E+00  0.00000000000E+00 -0.12402490386E+03  0.28151150867E+04  0.28123816908E+04 0.  0.
        1    1    3    3  502    0  0.12027161165E+04  0.47702474748E+03 -0.61326907597E+03  0.14318441348E+04  0.50400001928E-02 0. -1.
       -1    1    3    3    0  502 -0.12027161165E+04 -0.47702474748E+03  0.48924417211E+03  0.13832709520E+04  0.50400001928E-02 0.  1.
</event>
<event>
 5   0  0.3397882E-06  0.2652867E+04  0.7818609E-02  0.8350462E-01
       -1   -1    0    0    0  501  0.00000000000E+00  0.00000000000E+00  0.11839714534E+04  0.11839714534E+04  0.50400001928E-02 0. -1.
        1   -1    0    0  501    0  0.00000000000E+00  0.00000000000E+00 -0.14860377537E+04  0.14860377537E+04  0.50400001928E-02 0.  1.
    10030    2    1    2    0    0  0.00000000000E+00  0.00000000000E+00 -0.30206630026E+03  0.26700092071E+04  0.26528673386E+04 0.  0.
        2    1    3    3  502    0 -0.74898876774E+03  0.89917239443E+03  0.47744642633E+03  0.12639027886E+04  0.25500000920E-02 0. -1.
       -2    1    3    3    0  502  0.74898876774E+03 -0.89917239443E+03 -0.77951272659E+03  0.14061064185E+04  0.25500000920E-02 0.  1.
</event>
<event>
 5   0  0.9426937E-06  0.2745630E+04  0.7818609E-02  0.8320350E-01
       -2   -1    0    0    0  501  0.00000000000E+00  0.00000000000E+00  0.12574531956E+04  0.12574531956E+04  0.25500000920E-02 0.  1.
        2   -1    0    0  501    0  0.00000000000E+00  0.00000000000E+00 -0.14987602656E+04  0.14987602656E+04  0.25500000920E-02 0. -1.
    10030    2    1    2    0    0  0.00000000000E+00  0.00000000000E+00 -0.24130706997E+03  0.27562134612E+04  0.27456298989E+04 0.  0.
        4    1    3    3  502    0 -0.49113294242E+03 -0.53608052701E+03  0.10483202233E+04  0.12757628315E+04  0.12699999809E+01 0.  1.
       -4    1    3    3    0  502  0.49113294242E+03  0.53608052701E+03 -0.12896272933E+04  0.14804506297E+04  0.12699999809E+01 0. -1.
</event>
<event>
 5   0  0.3357244E-06  0.2796792E+04  0.7818609E-02  0.8304265E-01
       -1   -1    0    0    0  501  0.00000000000E+00  0.00000000000E+00  0.27619400754E+04  0.27619400754E+04  0.50400001928E-02 0.  1.
        1   -1    0    0  501    0  0.00000000000E+00  0.00000000000E+00 -0.70802113893E+03  0.70802113895E+03  0.50400001928E-02 0. -1.
    10030    2    1    2    0    0  0.00000000000E+00  0.00000000000E+00  0.20539189365E+04  0.34699612144E+04  0.27967924184E+04 0.  0.
        4    1    3    3  502    0  0.54812566982E+03 -0.48083649589E+03  0.25074266096E+04  0.26112899687E+04  0.12699999809E+01 0.  1.
       -4    1    3    3    0  502 -0.54812566982E+03  0.48083649589E+03 -0.45350767304E+03  0.85867124565E+03  0.12699999809E+01 0. -1.
</event>
<event>
 5   0  0.3397882E-06  0.2830706E+04  0.7818609E-02  0.8293798E-01
       -1   -1    0    0    0  501  0.00000000000E+00  0.00000000000E+00  0.19222376723E+04  0.19222376724E+04  0.50400001928E-02 0.  1.
        1   -1    0    0  501    0  0.00000000000E+00  0.00000000000E+00 -0.10421313252E+04  0.10421313252E+04  0.50400001928E-02 0. -1.
    10030    2    1    2    0    0  0.00000000000E+00  0.00000000000E+00  0.88010634718E+03  0.29643689975E+04  0.28307059846E+04 0.  0.
        2    1    3    3  502    0  0.13033445372E+04 -0.39225395305E+03  0.84652247944E+03  0.16028632052E+04  0.25500000920E-02 0.  1.
       -2    1    3    3    0  502 -0.13033445372E+04  0.39225395305E+03  0.33583867748E+02  0.13615057923E+04  0.25500000920E-02 0. -1.
</event>
<event>
 5   0  0.3600963E-06  0.2777605E+04  0.7818609E-02  0.8310255E-01
        1   -1    0    0  501    0  0.00000000000E+00  0.00000000000E+00  0.19151312924E+04  0.19151312924E+04  0.50400001928E-02 0.  1.
       -1   -1    0    0    0  501  0.00000000000E+00  0.00000000000E+00 -0.10071231124E+04  0.10071231124E+04  0.50400001928E-02 0. -1.
    10030    2    1    2    0    0  0.00000000000E+00  0.00000000000E+00  0.90800817998E+03  0.29222544049E+04  0.27776054349E+04 0.  0.
        5    1    3    3  502    0 -0.12403838378E+04  0.59989120166E+03  0.27078141143E+03  0.14041959200E+04  0.46999998093E+01 0.  1.
       -5    1    3    3    0  502  0.12403838378E+04 -0.59989120166E+03  0.63722676855E+03  0.15180584849E+04  0.46999998093E+01 0. -1.
</event>
<event>
 5   0  0.3397882E-06  0.2799079E+04  0.7818609E-02  0.8303554E-01
       -1   -1    0    0    0  501  0.00000000000E+00  0.00000000000E+00  0.80700894006E+03  0.80700894008E+03  0.50400001928E-02 0. -1.
        1   -1    0    0  501    0  0.00000000000E+00  0.00000000000E+00 -0.24271234490E+04  0.24271234490E+04  0.50400001928E-02 0.  1.
    10030    2    1    2    0    0  0.00000000000E+00  0.00000000000E+00 -0.16201145090E+04  0.32341323891E+04  0.27990786499E+04 0.  0.
        2    1    3    3  502    0 -0.61957470844E+03 -0.11394797551E+04 -0.14175346004E+04  0.19213774421E+04  0.25500000920E-02 0.  1.
       -2    1    3    3    0  502  0.61957470844E+03  0.11394797551E+04 -0.20257990855E+03  0.13127549470E+04  0.25500000920E-02 0. -1.
</event>
<event>
 5   0  0.3438130E-06  0.2815517E+04  0.7818609E-02  0.8298467E-01
        1   -1    0    0  501    0  0.00000000000E+00  0.00000000000E+00  0.23436330839E+04  0.23436330839E+04  0.50400001928E-02 0. -1.
       -1   -1    0    0    0  501  0.00000000000E+00  0.00000000000E+00 -0.84560350293E+03  0.84560350295E+03  0.50400001928E-02 0.  1.
    10030    2    1    2    0    0  0.00000000000E+00  0.00000000000E+00  0.14980295810E+04  0.31892365868E+04  0.28155172494E+04 0.  0.
        3    1    3    3  502    0  0.83568861460E+03  0.49325510485E+03 -0.40621351454E+03  0.10519912018E+04  0.10100000352E+00 0.  1.
       -3    1    3    3    0  502 -0.83568861460E+03 -0.49325510485E+03  0.19042430955E+04  0.21372453851E+04  0.10100000352E+00 0. -1.
</event>
<event>
 5   0  0.3600963E-06  0.2775483E+04  0.7818609E-02  0.8310920E-01
       -1   -1    0    0    0  501  0.00000000000E+00  0.00000000000E+00  0.18680444957E+04  0.18680444957E+04  0.50400001928E-02 0. -1.
        1   -1    0    0  501    0  0.00000000000E+00  0.00000000000E+00 -0.10309319685E+04  0.10309319685E+04  0.50400001928E-02 0.  1.
    10030    2    1    2    0    0  0.00000000000E+00  0.00000000000E+00  0.83711252726E+03  0.28989764642E+04  0.27754832294E+04 0.  0.
        5    1    3    3  502    0 -0.44242796399E+03 -0.12550717955E+04  0.82958433234E+03  0.15681772762E+04  0.46999998093E+01 0. -1.
       -5    1    3    3    0  502  0.44242796399E+03  0.12550717955E+04  0.75281949190E+01  0.13307991880E+04  0.46999998093E+01 0.  1.
</event>
<event>
 5   0  0.3600963E-06  0.2777894E+04  0.7818609E-02  0.8310164E-01
        1   -1    0    0  501    0  0.00000000000E+00  0.00000000000E+00  0.15486058844E+04  0.15486058844E+04  0.50400001928E-02 0.  1.
       -1   -1    0    0    0  501  0.00000000000E+00  0.00000000000E+00 -0.12457488229E+04  0.12457488229E+04  0.50400001928E-02 0. -1.
    10030    2    1    2    0    0  0.00000000000E+00  0.00000000000E+00  0.30285706150E+03  0.27943547074E+04  0.27778941360E+04 0.  0.
        5    1    3    3  502    0  0.36931935622E+03 -0.12946104406E+04 -0.19226678925E+03  0.13599270524E+04  0.46999998093E+01 0. -1.
       -5    1    3    3    0  502 -0.36931935622E+03  0.12946104406E+04  0.49512385075E+03  0.14344276549E+04  0.46999998093E+01 0.  1.
</event>
<event>
 5   0  0.3600963E-06  0.2765998E+04  0.7818609E-02  0.8313903E-01
       -1   -1    0    0    0  501  0.00000000000E+00  0.00000000000E+00  0.11390493103E+04  0.11390493103E+04  0.50400001928E-02 0.  1.
        1   -1    0    0  501    0  0.00000000000E+00  0.00000000000E+00 -0.16791955212E+04  0.16791955212E+04  0.50400001928E-02 0. -1.
    10030    2    1    2    0    0  0.00000000000E+00  0.00000000000E+00 -0.54014621091E+03  0.28182448316E+04  0.27659981926E+04 0.  0.
        5    1    3    3  502    0  0.40292033380E+03 -0.11568004581E+04  0.38402841947E+03  0.12837569911E+04  0.46999998093E+01 0.  1.
       -5    1    3    3    0  502 -0.40292033380E+03  0.11568004581E+04 -0.92417463038E+03  0.15344878405E+04  0.46999998093E+01 0. -1.
</event>
<event>
 5   0  0.9426937E-06  0.2735474E+04  0.7818609E-02  0.8323586E-01
        2   -1    0    0  501    0  0.00000000000E+00  0.00000000000E+00  0.21024752432E+04  0.21024752432E+04  0.25500000920E-02 0. -1.
       -2   -1    0    0    0  501  0.00000000000E+00  0.00000000000E+00 -0.88976286883E+03  0.88976286883E+03  0.25500000920E-02 0.  1.
    10030    2    1    2    0    0  0.00000000000E+00  0.00000000000E+00  0.12127123744E+04  0.29922381120E+04  0.27354739290E+04 0.  0.
        4    1    3    3  502    0  0.30649771419E+03 -0.93591923550E+03  0.16445582503E+04  0.19168878725E+04  0.12699999809E+01 0. -1.
       -4    1    3    3    0  502 -0.30649771419E+03  0.93591923550E+03 -0.43184587593E+03  0.10753502395E+04  0.12699999809E+01 0.  1.
</event>
<event>
 5   0  0.3357244E-06  0.2790197E+04  0.7818609E-02  0.8306318E-01
        1   -1    0    0  501    0  0.00000000000E+00  0.00000000000E+00  0.94249055881E+03  0.94249055883E+03  0.50400001928E-02 0.  1.
       -1   -1    0    0    0  501  0.00000000000E+00  0.00000000000E+00 -0.20650598928E+04  0.20650598928E+04  0.50400001928E-02 0. -1.
    10030    2    1    2    0    0  0.00000000000E+00  0.00000000000E+00 -0.11225693340E+04  0.30075504517E+04  0.27901967331E+04 0.  0.
        4    1    3    3  502    0 -0.13501242355E+04  0.31750932459E+03 -0.39906097537E+03  0.14432251721E+04  0.12699999809E+01 0.  1.
       -4    1    3    3    0  502  0.13501242355E+04 -0.31750932459E+03 -0.72350835864E+03  0.15643252796E+04  0.12699999809E+01 0. -1.
</event>
<event>
 5   0  0.9065579E-06  0.2821209E+04  0.7818609E-02  0.8296714E-01
       -2   -1    0    0    0  501  0.00000000000E+00  0.00000000000E+00  0.15223006245E+04  0.15223006245E+04  0.25500000920E-02 0. -1.
        2   -1    0    0  501    0  0.00000000000E+00  0.00000000000E+00 -0.13071034720E+04  0.13071034720E+04  0.25500000920E-02 0.  1.
    10030    2    1    2    0    0  0.00000000000E+00  0.00000000000E+00  0.21519715248E+03  0.28294040966E+04  0.28212085579E+04 0.  0.
        3    1    3    3  502    0  0.97246653213E+03 -0.78843656428E+03  0.75947218986E+03  0.14642818681E+04  0.10100000352E+00 0. -1.
       -3    1    3    3    0  502 -0.97246653213E+03  0.78843656428E+03 -0.54427503738E+03  0.13651222284E+04  0.10100000352E+00 0.  1.
</event>
<event>
 5   0  0.9260173E-06  0.2781492E+04  0.7818609E-02  0.8309037E-01
        2   -1    0    0  501    0  0.00000000000E+00  0.00000000000E+00  0.15753886892E+04  0.15753886892E+04  0.25500000920E-02 0.  1.
       -2   -1    0    0    0  501  0.00000000000E+00  0.00000000000E+00 -0.12277442065E+04  0.12277442065E+04  0.25500000920E-02 0. -1.
    10030    2    1    2    0    0  0.00000000000E+00  0.00000000000E+00  0.34764448267E+03  0.28031328956E+04  0.27814919278E+04 0.  0.
        1    1    3    3  502    0  0.12429218984E+04  0.26135730796E+03 -0.39716501441E+03  0.13307526204E+04  0.50400001928E-02 0. -1.
       -1    1    3    3    0  502 -0.12429218984E+04 -0.26135730796E+03  0.74480949708E+03  0.14723802753E+04  0.50400001928E-02 0.  1.
</event>
<event>
 5   0  0.3357244E-06  0.2833719E+04  0.7818609E-02  0.8292876E-01
       -1   -1    0    0    0  501  0.00000000000E+00  0.00000000000E+00  0.99571108553E+03  0.99571108554E+03  0.50400001928E-02 0.  1.
        1   -1    0    0  501    0  0.00000000000E+00  0.00000000000E+00 -0.20161376455E+04  0.20161376455E+04  0.50400001928E-02 0. -1.
    10030    2    1    2    0    0  0.00000000000E+00  0.00000000000E+00 -0.10204265600E+04  0.30118487311E+04  0.28337188312E+04 0.  0.
        4    1    3    3  502    0 -0.85956775139E+03  0.10782987707E+04 -0.85609901256E+03  0.16231118539E+04  0.12699999809E+01 0.  1.
       -4    1    3    3    0  502  0.85956775139E+03 -0.10782987707E+04 -0.16432754744E+03  0.13887368771E+04  0.12699999809E+01 0. -1.
</event>
<event>
 5   0  0.9260173E-06  0.2766954E+04  0.7818609E-02  0.8313602E-01
       -2   -1    0    0    0  501  0.00000000000E+00  0.00000000000E+00  0.13329539242E+04  0.13329539242E+04  0.25500000920E-02 0.  1.
        2   -1    0    0  501    0  0.00000000000E+00  0.00000000000E+00 -0.14359152409E+04  0.14359152409E+04  0.25500000920E-02 0. -1.
    10030    2    1    2    0    0  0.00000000000E+00  0.00000000000E+00 -0.10296131668E+03  0.27688691650E+04  0.27669541775E+04 0.  0.
        1    1    3    3  502    0 -0.43307882640E+03  0.50703970163E+02  0.12623944070E+04  0.13355777032E+04  0.50400001928E-02 0.  1.
       -1    1    3    3    0  502  0.43307882640E+03 -0.50703970163E+02 -0.13653557237E+04  0.14332914618E+04  0.50400001928E-02 0. -1.
</event>
<event>
 5   0  0.9065579E-06  0.2708339E+04  0.7818609E-02  0.8332304E-01
       -2   -1    0    0    0  501  0.00000000000E+00  0.00000000000E+00  0.14354849896E+04  0.14354849896E+04  0.25500000920E-02 0. -1.
        2   -1    0    0  501    0  0.00000000000E+00  0.00000000000E+00 -0.12774606960E+04  0.12774606960E+04  0.25500000920E-02 0.  1.
    10030    2    1    2    0    0  0.00000000000E+00  0.00000000000E+00  0.15802429352E+03  0.27129456856E+04  0.27083394573E+04 0.  0.
        3    1    3    3  502    0 -0.92859970413E+03  0.66751955176E+03  0.80543230413E+03  0.13987855337E+04  0.10100000352E+00 0. -1.
       -3    1    3    3    0  502  0.92859970413E+03 -0.66751955176E+03 -0.64740801061E+03  0.13141601519E+04  0.10100000352E+00 0.  1.
</event>
<event>
 5   0  0.3397882E-06  0.2794923E+04  0.7818609E-02  0.8304846E-01
        1   -1    0    0  501    0  0.00000000000E+00  0.00000000000E+00  0.14833450637E+04  0.14833450637E+04  0.50400001928E-02 0.  1.
       -1   -1    0    0    0  501  0.00000000000E+00  0.00000000000E+00 -0.13165502318E+04  0.13165502319E+04  0.50400001928E-02 0. -1.
    10030    2    1    2    0    0  0.00000000000E+00  0.00000000000E+00  0.16679483188E+03  0.27998952956E+04  0.27949227450E+04 0.  0.
        2    1    3    3  502    0 -0.59331627796E+03 -0.10729471295E+04 -0.58836144765E+03  0.13599297561E+04  0.25500000920E-02 0.  1.
       -2    1    3    3    0  502  0.59331627796E+03  0.10729471295E+04  0.75515627953E+03  0.14399655395E+04  0.25500000920E-02 0. -1.
</event>
<event>
 5   0  0.9065579E-06  0.2816201E+04  0.7818609E-02  0.8298256E-01
        2   -1    0    0  501    0  0.00000000000E+00  0.00000000000E+00  0.10322839027E+04  0.10322839027E+04  0.25500000920E-02 0.  1.
       -2   -1    0    0    0  501  0.00000000000E+00  0.00000000000E+00 -0.19207382063E+04  0.19207382063E+04  0.25500000920E-02 0. -1.
    10030    2    1    2    0    0  0.00000000000E+00  0.00000000000E+00 -0.88845430354E+03  0.29530221090E+04  0.28162010807E+04 0.  0.
        3    1    3    3  502    0 -0.80227207381E+03 -0.10815476517E+04 -0.87575631414E+03  0.16063420978E+04  0.10100000352E+00 0. -1.
       -3    1    3    3    0  502  0.80227207381E+03  0.10815476517E+04 -0.12697989405E+02  0.13466800112E+04  0.10100000352E+00 0.  1.
</event>
<event>
 5   0  0.3371603E-06  0.2777229E+04  0.7818609E-02  0.8310373E-01
        1   -1    0    0  501    0  0.00000000000E+00  0.00000000000E+00  0.85144049567E+03  0.85144049569E+03  0.50400001928E-02 0.  1.
       -1   -1    0    0    0  501  0.00000000000E+00  0.00000000000E+00 -0.22646913922E+04  0.22646913922E+04  0.50400001928E-02 0. -1.
    10030    2    1    2    0    0  0.00000000000E+00  0.00000000000E+00 -0.14132508965E+04  0.31161318879E+04  0.27772288069E+04 0.  0.
        1    1    3    3  502    0 -0.83361525622E+03  0.50545990916E+03 -0.18161562594E+04  0.20612684623E+04  0.50400001928E-02 0. -1.
       -1    1    3    3    0  502  0.83361525622E+03 -0.50545990916E+03  0.40290536286E+03  0.10548634256E+04  0.50400001928E-02 0.  1.
</event>
<event>
 5   0  0.3397882E-06  0.2670074E+04  0.7818609E-02  0.8344781E-01
       -1   -1    0    0    0  501  0.00000000000E+00  0.00000000000E+00  0.12271138256E+04  0.12271138257E+04  0.50400001928E-02 0. -1.
        1   -1    0    0  501    0  0.00000000000E+00  0.00000000000E+00 -0.14524521504E+04  0.14524521504E+04  0.50400001928E-02 0.  1.
    10030    2    1    2    0    0  0.00000000000E+00  0.00000000000E+00 -0.22533832479E+03  0.26795659761E+04  0.26700742423E+04 0.  0.
        2    1    3    3  502    0 -0.41480815103E+02  0.80842178641E+03 -0.11780728295E+04  0.14293781985E+04  0.25500000920E-02 0.  1.
       -2    1    3    3    0  502  0.41480815103E+02 -0.80842178641E+03  0.95273450471E+03  0.12501877776E+04  0.25500000920E-02 0. -1.
</event>
<event>
 5   0  0.3371603E-06  0.2817541E+04  0.7818609E-02  0.8297843E-01
        1   -1    0    0  501    0  0.00000000000E+00  0.00000000000E+00  0.13037357150E+04  0.13037357150E+04  0.50400001928E-02 0.  1.
       -1   -1    0    0    0  501  0.00000000000E+00  0.00000000000E+00 -0.15222673995E+04  0.15222673995E+04  0.50400001928E-02 0. -1.
    10030    2    1    2    0    0  0.00000000000E+00  0.00000000000E+00 -0.21853168447E+03  0.28260031146E+04  0.28175410390E+04 0.  0.
        1    1    3    3  502    0  0.31924961351E+03  0.13674430168E+04 -0.22280323724E+03  0.14217812780E+04  0.50400001928E-02 0.  1.
       -1    1    3    3    0  502 -0.31924961351E+03 -0.13674430168E+04  0.42715527674E+01  0.14042218365E+04  0.50400001928E-02 0. -1.
</event>
<event>
 5   0  0.9260173E-06  0.2769974E+04  0.7818609E-02  0.8312651E-01
       -2   -1    0    0    0  501  0.00000000000E+00  0.00000000000E+00  0.97157128527E+03  0.97157128527E+03  0.25500000920E-02 0.  1.
        2   -1    0    0  501    0  0.00000000000E+00  0.00000000000E+00 -0.19743161965E+04  0.19743161965E+04  0.25500000920E-02 0. -1.
    10030    2    1    2    0    0  0.00000000000E+00  0.00000000000E+00 -0.10027449112E+04  0.29458874818E+04  0.27699739526E+04 0.  0.
        1    1    3    3  502    0 -0.89331224413E+03  0.98582694956E+03 -0.91780763442E+02  0.13335236213E+04  0.50400001928E-02 0. -1.
       -1    1    3    3    0  502  0.89331224413E+03 -0.98582694956E+03 -0.91096414779E+03  0.16123638605E+04  0.50400001928E-02 0.  1.
</event>
<event>
 5   0  0.3371603E-06  0.2816071E+04  0.7818609E-02  0.8298296E-01
        1   -1    0    0  501    0  0.00000000000E+00  0.00000000000E+00  0.21134448256E+04  0.21134448256E+04  0.50400001928E-02 0. -1.
       -1   -1    0    0    0  501  0.00000000000E+00  0.00000000000E+00 -0.93807240018E+03  0.93807240019E+03  0.50400001928E-02 0.  1.
    10030    2    1    2    0    0  0.00000000000E+00  0.00000000000E+00  0.11753724254E+04  0.30515172258E+04  0.28160712066E+04 0.  0.
        1    1    3    3  502    0 -0.31762452011E+03 -0.55161410552E+02 -0.89754316362E+03  0.95368330570E+03  0.50400001928E-02 0.  1.
       -1    1    3    3    0  502  0.31762452011E+03  0.55161410552E+02  0.20729155890E+04  0.20978339201E+04  0.50400001928E-02 0. -1.
</event>
<event>
 5   0  0.3357244E-06  0.2771262E+04  0.7818609E-02  0.8312246E-01
       -1   -1    0    0    0  501  0.00000000000E+00  0.00000000000E+00  0.12246573667E+04  0.12246573668E+04  0.50400001928E-02 0.  1.
        1   -1    0    0  501    0  0.00000000000E+00  0.00000000000E+00 -0.15677631744E+04  0.15677631744E+04  0.50400001928E-02 0. -1.
    10030    2    1    2    0    0  0.00000000000E+00  0.00000000000E+00 -0.34310580764E+03  0.27924205412E+04  0.27712616050E+04 0.  0.
        4    1    3    3  502    0 -0.92983781566E+03  0.15677905622E+03 -0.11945844946E+04  0.15219105636E+04  0.12699999809E+01 0. -1.
       -4    1    3    3    0  502  0.92983781566E+03 -0.15677905622E+03  0.85147868695E+03  0.12705099776E+04  0.12699999809E+01 0.  1.
</event>
<event>
 5   0  0.9342133E-06  0.2786722E+04  0.7818609E-02  0.8307403E-01
       -2   -1    0    0    0  501  0.00000000000E+00  0.00000000000E+00  0.58779017378E+03  0.58779017378E+03  0.25500000920E-02 0.  1.
        2   -1    0    0  501    0  0.00000000000E+00  0.00000000000E+00 -0.33029717730E+04  0.33029717730E+04  0.25500000920E-02 0. -1.
    10030    2    1    2    0    0  0.00000000000E+00  0.00000000000E+00 -0.27151815992E+04  0.38907619468E+04  0.27867216240E+04 0.  0.
        2    1    3    3  502    0  0.97979477997E+03  0.46240465546E+03 -0.13432892753E+03  0.10917234709E+04  0.25500000920E-02 0.  1.
       -2    1    3    3    0  502 -0.97979477997E+03 -0.46240465546E+03 -0.25808526717E+04  0.27990384758E+04  0.25500000920E-02 0. -1.
</event>
<event>
 5   0  0.9342133E-06  0.2798201E+04  0.7818609E-02  0.8303827E-01
       -2   -1    0    0    0  501  0.00000000000E+00  0.00000000000E+00  0.10190095293E+04  0.10190095293E+04  0.25500000920E-02 0. -1.
        2   -1    0    0  501    0  0.00000000000E+00  0.00000000000E+00 -0.19209652356E+04  0.19209652356E+04  0.25500000920E-02 0.  1.
    10030    2    1    2    0    0  0.00000000000E+00  0.00000000000E+00 -0.90195570629E+03  0.29399747649E+04  0.27982007652E+04 0.  0.
        2    1    3    3  502    0 -0.12275110695E+04  0.55999848332E+03 -0.84000839888E+03  0.15893381758E+04  0.25500000920E-02 0.  1.
       -2    1    3    3    0  502  0.12275110695E+04 -0.55999848332E+03 -0.61947307409E+02  0.13506365891E+04  0.25500000920E-02 0. -1.
</event>
<event>
 5   0  0.3397882E-06  0.2785074E+04  0.7818609E-02  0.8307917E-01
        1   -1    0    0  501    0  0.00000000000E+00  0.00000000000E+00  0.13516412239E+04  0.13516412239E+04  0.50400001928E-02 0. -1.
       -1   -1    0    0    0  501  0.00000000000E+00  0.00000000000E+00 -0.14346701682E+04  0.14346701682E+04  0.50400001928E-02 0.  1.
    10030    2    1    2    0    0  0.00000000000E+00  0.00000000000E+00 -0.83028944295E+02  0.27863113921E+04  0.27850740328E+04 0.  0.
        2    1    3    3  502    0 -0.87410635448E+03  0.48577732639E+03  0.92799698450E+03  0.13642653455E+04  0.25500000920E-02 0. -1.
       -2    1    3    3    0  502  0.87410635448E+03 -0.48577732639E+03 -0.10110259288E+04  0.14220460465E+04  0.25500000920E-02 0.  1.
</event>
<event>
 5   0  0.9260173E-06  0.2798517E+04  0.7818609E-02  0.8303729E-01
        2   -1    0    0  501    0  0.00000000000E+00  0.00000000000E+00  0.19582370604E+04  0.19582370604E+04  0.25500000920E-02 0.  1.
       -2   -1    0    0    0  501  0.00000000000E+00  0.00000000000E+00 -0.99984053619E+03  0.99984053619E+03  0.25500000920E-02 0. -1.
    10030    2    1    2    0    0  0.00000000000E+00  0.00000000000E+00  0.95839652418E+03  0.29580775966E+04  0.27985173163E+04 0.  0.
        1    1    3    3  502    0  0.61786849115E+03 -0.10671365413E+04  0.11782550783E+04  0.17055283345E+04  0.50400001928E-02 0.  1.
       -1    1    3    3    0  502 -0.61786849115E+03  0.10671365413E+04 -0.21985855413E+03  0.12525492621E+04  0.50400001928E-02 0. -1.
</event>
<event>
 5   0  0.3438130E-06  0.2799902E+04  0.7818609E-02  0.8303299E-01
        1   -1    0    0  501    0  0.00000000000E+00  0.00000000000E+00  0.18165307053E+04  0.18165307053E+04  0.50400001928E-02 0.  1.
       -1   -1    0    0    0  501  0.00000000000E+00  0.00000000000E+00 -0.10789044199E+04  0.10789044199E+04  0.50400001928E-02 0. -1.
    10030    2    1    2    0    0  0.00000000000E+00  0.00000000000E+00  0.73762628538E+03  0.28954351252E+04  0.27999021461E+04 0.  0.
        3    1    3    3  502    0  0.13354588626E+04 -0.19459880791E+03 -0.16101765114E+02  0.13496586038E+04  0.10100000352E+00 0. -1.
       -3    1    3    3    0  502 -0.13354588626E+04  0.19459880791E+03  0.75372805049E+03  0.15457765214E+04  0.10100000352E+00 0.  1.
</event>
<event>
 5   0  0.9426937E-06  0.2779412E+04  0.7818609E-02  0.8309689E-01
       -2   -1    0    0    0  501  0.00000000000E+00  0.00000000000E+00  0.13455258145E+04  0.13455258145E+04  0.25500000920E-02 0.  1.
        2   -1    0    0  501    0  0.00000000000E+00  0.00000000000E+00 -0.14353371347E+04  0.14353371347E+04  0.25500000920E-02 0. -1.
    10030    2    1    2    0    0  0.00000000000E+00  0.00000000000E+00 -0.89811320163E+02  0.27808629492E+04  0.27794122885E+04 0.  0.
        4    1    3    3  502    0 -0.23320813191E+03 -0.13417845832E+04 -0.32165381305E+03  0.13993693897E+04  0.12699999809E+01 0. -1.
       -4    1    3    3    0  502  0.23320813191E+03  0.13417845832E+04  0.23184249288E+03  0.13814935595E+04  0.12699999809E+01 0.  1.
</event>
<event>
 5   0  0.3006875E-06  0.2796420E+04  0.7818609E-02  0.8304381E-01
       -4   -1    0    0    0  501  0.00000000000E+00  0.00000000000E+00  0.17263553447E+04  0.17263558118E+04  0.12699999809E+01 0. -1.
        4   -1    0    0  501    0  0.00000000000E+00  0.00000000000E+00 -0.11324373087E+04  0.11324380209E+04  0.12699999809E+01 0.  1.
    10030    2    1    2    0    0  0.00000000000E+00  0.00000000000E+00  0.59391803597E+03  0.28587938327E+04  0.27964197726E+04 0.  0.
        1    1    3    3  502    0 -0.74541324743E+03  0.10399862382E+04 -0.27933325526E+03  0.13096714674E+04  0.50400001928E-02 0.  1.
       -1    1    3    3    0  502  0.74541324743E+03 -0.10399862382E+04  0.87325129122E+03  0.15491223653E+04  0.50400001928E-02 0. -1.
</event>
<event>
 5   0  0.9065579E-06  0.2861347E+04  0.7818609E-02  0.8284472E-01
       -2   -1    0    0    0  501  0.00000000000E+00  0.00000000000E+00  0.14666559188E+04  0.14666559188E+04  0.25500000920E-02 0. -1.
        2   -1    0    0  501    0  0.00000000000E+00  0.00000000000E+00 -0.13955740083E+04  0.13955740083E+04  0.25500000920E-02 0.  1.
    10030    2    1    2    0    0  0.00000000000E+00  0.00000000000E+00  0.71081910519E+02  0.28622299271E+04  0.28613471509E+04 0.  0.
        3    1    3    3  502    0  0.86403944027E+03  0.50902819382E+03 -0.98514290383E+03  0.14057668397E+04  0.10100000352E+00 0. -1.
       -3    1    3    3    0  502 -0.86403944027E+03 -0.50902819382E+03  0.10562248143E+04  0.14564630874E+04  0.10100000352E+00 0.  1.
</event>
<event>
 5   0  0.3371603E-06  0.2720599E+04  0.7818609E-02  0.8328352E-01
       -1   -1    0    0    0  501  0.00000000000E+00  0.00000000000E+00  0.12662177198E+04  0.12662177198E+04  0.50400001928E-02 0.  1.
        1   -1    0    0  501    0  0.00000000000E+00  0.00000000000E+00 -0.14613711927E+04  0.14613711927E+04  0.50400001928E-02 0. -1.
    10030    2    1    2    0    0  0.00000000000E+00  0.00000000000E+00 -0.19515347288E+03  0.27275889124E+04  0.27205985366E+04 0.  0.
        1    1    3    3  502    0 -0.72115203699E+03  0.10988983283E+03 -0.12486897638E+04  0.14461542664E+04  0.50400001928E-02 0. -1.
       -1    1    3    3    0  502  0.72115203699E+03 -0.10988983283E+03  0.10535362909E+04  0.12814346461E+04  0.50400001928E-02 0.  1.
</event>
<event>
 5   0  0.3397882E-06  0.2784704E+04  0.7818609E-02  0.8308033E-01
       -1   -1    0    0    0  501  0.00000000000E+00  0.00000000000E+00  0.10987575464E+04  0.10987575464E+04  0.50400001928E-02 0.  1.
        1   -1    0    0  501    0  0.00000000000E+00  0.00000000000E+00 -0.17643960136E+04  0.17643960136E+04  0.50400001928E-02 0. -1.
    10030    2    1    2    0    0  0.00000000000E+00  0.00000000000E+00 -0.66563846722E+03  0.28631535601E+04  0.27847035281E+04 0.  0.
        2    1    3    3  502    0 -0.73977210004E+03  0.10920681841E+04 -0.79121293743E+03  0.15381461540E+04  0.25500000920E-02 0. -1.
       -2    1    3    3    0  502  0.73977210004E+03 -0.10920681841E+04  0.12557447021E+03  0.13250074061E+04  0.25500000920E-02 0.  1.
</event>
<event>
 5   0  0.3397882E-06  0.2743479E+04  0.7818609E-02  0.8321034E-01
       -1   -1    0    0    0  501  0.00000000000E+00  0.00000000000E+00  0.13846433867E+04  0.13846433867E+04  0.50400001928E-02 0. -1.
        1   -1    0    0  501    0  0.00000000000E+00  0.00000000000E+00 -0.13589556389E+04  0.13589556389E+04  0.50400001928E-02 0.  1.
    10030    2    1    2    0    0  0.00000000000E+00  0.00000000000E+00  0.25687747726E+02  0.27435990256E+04  0.27434787684E+04 0.  0.
        2    1    3    3  502    0  0.63925597280E+03  0.23973982184E+03 -0.11769752962E+04  0.13606594831E+04  0.25500000920E-02 0.  1.
       -2    1    3    3    0  502 -0.63925597280E+03 -0.23973982184E+03  0.12026630440E+04  0.13829395425E+04  0.25500000920E-02 0. -1.
</event>
<event>
 5   0  0.9342133E-06  0.2719916E+04  0.7818609E-02  0.8328572E-01
       -2   -1    0    0    0  501  0.00000000000E+00  0.00000000000E+00  0.76375330410E+03  0.76375330410E+03  0.25500000920E-02 0. -1.
        2   -1    0    0  501    0  0.00000000000E+00  0.00000000000E+00 -0.24215743421E+04  0.24215743421E+04  0.25500000920E-02 0.  1.
    10030    2    1    2    0    0  0.00000000000E+00  0.00000000000E+00 -0.16578210380E+04  0.31853276462E+04  0.27199157376E+04 0.  0.
        2    1    3    3  502    0 -0.11315255706E+04 -0.41751541910E+03 -0.15647720891E+04  0.19756469656E+04  0.25500000920E-02 0.  1.
       -2    1    3    3    0  502  0.11315255706E+04  0.41751541910E+03 -0.93048948968E+02  0.12096806806E+04  0.25500000920E-02 0. -1.
</event>
<event>
 5   0  0.9426937E-06  0.2798980E+04  0.7818609E-02  0.8303585E-01
        2   -1    0    0  501    0  0.00000000000E+00  0.00000000000E+00  0.16824534379E+04  0.16824534379E+04  0.25500000920E-02 0. -1.
       -2   -1    0    0    0  501  0.00000000000E+00  0.00000000000E+00 -0.11641168427E+04  0.11641168427E+04  0.25500000920E-02 0.  1.
    10030    2    1    2    0    0  0.00000000000E+00  0.00000000000E+00  0.51833659521E+03  0.28465702807E+04  0.27989800887E+04 0.  0.
        4    1    3    3  502    0 -0.21432097306E+03  0.41863761183E+03  0.15996765470E+04  0.16673804597E+04  0.12699999809E+01 0. -1.
       -4    1    3    3    0  502  0.21432097306E+03 -0.41863761183E+03 -0.10813399518E+04  0.11791898209E+04  0.12699999809E+01 0.  1.
</event>
<event>
 5   0  0.9252359E-06  0.2798184E+04  0.7818609E-02  0.8303833E-01
        2   -1    0    0  501    0  0.00000000000E+00  0.00000000000E+00  0.27461627028E+04  0.27461627028E+04  0.25500000920E-02 0. -1.
       -2   -1    0    0    0  501  0.00000000000E+00  0.00000000000E+00 -0.71279747933E+03  0.71279747934E+03  0.25500000920E-02 0.  1.
    10030    2    1    2    0    0  0.00000000000E+00  0.00000000000E+00  0.20333652235E+04  0.34589601821E+04  0.27981835911E+04 0.  0.
        5    1    3    3  502    0 -0.17021042109E+03 -0.95643949471E+03 -0.22789343629E+03  0.99785049120E+03  0.46999998093E+01 0.  1.
       -5    1    3    3    0  502  0.17021042109E+03  0.95643949471E+03  0.22612586598E+04  0.24611096909E+04  0.46999998093E+01 0. -1.
</event>
<event>
 5   0  0.3371603E-06  0.2782211E+04  0.7818609E-02  0.8308812E-01
        1   -1    0    0  501    0  0.00000000000E+00  0.00000000000E+00  0.16363044944E+04  0.16363044944E+04  0.50400001928E-02 0. -1.
       -1   -1    0    0    0  501  0.00000000000E+00  0.00000000000E+00 -0.11826497655E+04  0.11826497655E+04  0.50400001928E-02 0.  1.
    10030    2    1    2    0    0  0.00000000000E+00  0.00000000000E+00  0.45365472886E+03  0.28189542599E+04  0.27822114417E+04 0.  0.
        1    1    3    3  502    0 -0.52432518397E+03  0.12876646470E+04  0.17954215556E+03  0.14018675142E+04  0.50400001928E-02 0. -1.
       -1    1    3    3    0  502  0.52432518397E+03 -0.12876646470E+04  0.27411257330E+03  0.14170867456E+04  0.50400001928E-02 0.  1.
</event>
<event>
 5   0  0.3357244E-06  0.2794626E+04  0.7818609E-02  0.8304939E-01
       -1   -1    0    0    0  501  0.00000000000E+00  0.00000000000E+00  0.10134442767E+04  0.10134442767E+04  0.50400001928E-02 0.  1.
        1   -1    0    0  501    0  0.00000000000E+00  0.00000000000E+00 -0.19265819128E+04  0.19265819128E+04  0.50400001928E-02 0. -1.
    10030    2    1    2    0    0  0.00000000000E+00  0.00000000000E+00 -0.91313763609E+03  0.29400261896E+04  0.27946258520E+04 0.  0.
        4    1    3    3  502    0  0.97475050620E+03 -0.49991314963E+03  0.45598945232E+03  0.11865832040E+04  0.12699999809E+01 0.  1.
       -4    1    3    3    0  502 -0.97475050620E+03  0.49991314963E+03 -0.13691270884E+04  0.17534429856E+04  0.12699999809E+01 0. -1.
</event>
<event>
 5   0  0.9342133E-06  0.2787571E+04  0.7818609E-02  0.8307137E-01
        2   -1    0    0  501    0  0.00000000000E+00  0.00000000000E+00  0.89378184109E+03  0.89378184110E+03  0.25500000920E-02 0.  1.
       -2   -1    0    0    0  501  0.00000000000E+00  0.00000000000E+00 -0.21735041588E+04  0.21735041588E+04  0.25500000920E-02 0. -1.
    10030    2    1    2    0    0  0.00000000000E+00  0.00000000000E+00 -0.12797223177E+04  0.30672859999E+04  0.27875713793E+04 0.  0.
        2    1    3    3  502    0  0.81383154958E+03 -0.43007855159E+03  0.51174657447E+03  0.10531732565E+04  0.25500000920E-02 0.  1.
       -2    1    3    3    0  502 -0.81383154958E+03  0.43007855159E+03 -0.17914688922E+04  0.20141127435E+04  0.25500000920E-02 0. -1.
</event>
<event>
 5   0  0.9260173E-06  0.2801360E+04  0.7818609E-02  0.8302846E-01
       -2   -1    0    0    0  501  0.00000000000E+00  0.00000000000E+00  0.14604414687E+04  0.14604414687E+04  0.25500000920E-02 0. -1.
        2   -1    0    0  501    0  0.00000000000E+00  0.00000000000E+00 -0.13433642176E+04  0.13433642176E+04  0.25500000920E-02 0.  1.
    10030    2    1    2    0    0  0.00000000000E+00  0.00000000000E+00  0.11707725115E+03  0.28038056863E+04  0.28013602488E+04 0.  0.
        1    1    3    3  502    0 -0.13316090550E+04 -0.26540559758E+03  0.40276035957E+03  0.14162763550E+04  0.50400001928E-02 0.  1.
       -1    1    3    3    0  502  0.13316090550E+04  0.26540559758E+03 -0.28568310842E+03  0.13875293312E+04  0.50400001928E-02 0. -1.
</event>
<event>
 5   0  0.9260173E-06  0.2770768E+04  0.7818609E-02  0.8312402E-01
       -2   -1    0    0    0  501  0.00000000000E+00  0.00000000000E+00  0.97943908415E+03  0.97943908415E+03  0.25500000920E-02 0.  1.
        2   -1    0    0  501    0  0.00000000000E+00  0.00000000000E+00 -0.19595789710E+04  0.19595789710E+04  0.25500000920E-02 0. -1.
    10030    2    1    2    0    0  0.00000000000E+00  0.00000000000E+00 -0.98013988681E+03  0.29390180551E+04  0.27707675706E+04 0.  0.
        1    1    3    3  502    0  0.13426709241E+03 -0.32061276008E+03  0.93243413487E+03  0.99511487273E+03  0.50400001928E-02 0.  1.
       -1    1    3    3    0  502 -0.13426709241E+03  0.32061276008E+03 -0.19125740217E+04  0.19439031824E+04  0.50400001928E-02 0. -1.
</event>
<event>
 5   0  0.3397882E-06  0.2788603E+04  0.7818609E-02  0.8306815E-01
       -1   -1    0    0    0  501  0.00000000000E+00  0.00000000000E+00  0.14439948515E+04  0.14439948516E+04  0.50400001928E-02 0.  1.
        1   -1    0    0  501    0  0.00000000000E+00  0.00000000000E+00 -0.13463182079E+04  0.13463182080E+04  0.50400001928E-02 0. -1.
    10030    2    1    2    0    0  0.00000000000E+00  0.00000000000E+00  0.97676643603E+02  0.27903130595E+04  0.27886029196E+04 0.  0.
        2    1    3    3  502    0  0.11110246994E+04 -0.41555983941E+03  0.78209786304E+03  0.14208247359E+04  0.25500000920E-02 0. -1.
       -2    1    3    3    0  502 -0.11110246994E+04  0.41555983941E+03 -0.68442121944E+03  0.13694883236E+04  0.25500000920E-02 0.  1.
</event>
<event>
 5   0  0.9252359E-06  0.2774381E+04  0.7818609E-02  0.8311266E-01
       -2   -1    0    0    0  501  0.00000000000E+00  0.00000000000E+00  0.13758092903E+04  0.13758092903E+04  0.25500000920E-02 0.  1.
        2   -1    0    0  501    0  0.00000000000E+00  0.00000000000E+00 -0.13986661642E+04  0.13986661642E+04  0.25500000920E-02 0. -1.
    10030    2    1    2    0    0  0.00000000000E+00  0.00000000000E+00 -0.22856873839E+02  0.27744754545E+04  0.27743813024E+04 0.  0.
        5    1    3    3  502    0  0.63872961696E+03  0.11536391233E+04  0.41918699163E+03  0.13836902017E+04  0.46999998093E+01 0. -1.
       -5    1    3    3    0  502 -0.63872961696E+03 -0.11536391233E+04 -0.44204386547E+03  0.13907852528E+04  0.46999998093E+01 0.  1.
</event>
<event>
 5   0  0.3357244E-06  0.2801128E+04  0.7818609E-02  0.8302918E-01
        1   -1    0    0  501    0  0.00000000000E+00  0.00000000000E+00  0.17019630837E+04  0.17019630837E+04  0.50400001928E-02 0.  1.
       -1   -1    0    0    0  501  0.00000000000E+00  0.00000000000E+00 -0.11525396407E+04  0.11525396407E+04  0.50400001928E-02 0. -1.
    10030    2    1    2    0    0  0.00000000000E+00  0.00000000000E+00  0.54942344299E+03  0.28545027245E+04  0.28011282877E+04 0.  0.
        4    1    3    3  502    0 -0.86744024672E+03  0.66396777857E+03 -0.61850143417E+03  0.12553292116E+04  0.12699999809E+01 0. -1.
       -4    1    3    3    0  502  0.86744024672E+03 -0.66396777857E+03  0.11679248772E+04  0.15991735128E+04  0.12699999809E+01 0.  1.
</event>
<event>
 5   0  0.3371603E-06  0.2805176E+04  0.7818609E-02  0.8301663E-01
       -1   -1    0    0    0  501  0.00000000000E+00  0.00000000000E+00  0.18593186956E+04  0.18593186956E+04  0.50400001928E-02 0. -1.
        1   -1    0    0  501    0  0.00000000000E+00  0.00000000000E+00 -0.10580502110E+04  0.10580502110E+04  0.50400001928E-02 0.  1.
    10030    2    1    2    0    0  0.00000000000E+00  0.00000000000E+00  0.80126848457E+03  0.29173689066E+04  0.28051756011E+04 0.  0.
        1    1    3    3  502    0 -0.13547145780E+04 -0.34750485003E+03  0.29036861961E+03  0.14283995044E+04  0.50400001928E-02 0.  1.
       -1    1    3    3    0  502  0.13547145780E+04  0.34750485003E+03  0.51089986496E+03  0.14889694022E+04  0.50400001928E-02 0. -1.
</event>
<event>
 5   0  0.3371603E-06  0.2811456E+04  0.7818609E-02  0.8299721E-01
        1   -1    0    0  501    0  0.00000000000E+00  0.00000000000E+00  0.85903300225E+03  0.85903300226E+03  0.50400001928E-02 0. -1.
       -1   -1    0    0    0  501  0.00000000000E+00  0.00000000000E+00 -0.23003436282E+04  0.23003436282E+04  0.50400001928E-02 0.  1.
    10030    2    1    2    0    0  0.00000000000E+00  0.00000000000E+00 -0.14413106260E+04  0.31593766305E+04  0.28114559169E+04 0.  0.
        1    1    3    3  502    0  0.15989750834E+02 -0.68844960280E+03  0.65650270041E+03  0.95142751873E+03  0.50400001928E-02 0. -1.
       -1    1    3    3    0  502 -0.15989750834E+02  0.68844960280E+03 -0.20978133264E+04  0.22079491118E+04  0.50400001928E-02 0.  1.
</event>
<event>
 5   0  0.3397882E-06  0.2917078E+04  0.7818609E-02  0.8267814E-01
       -1   -1    0    0    0  501  0.00000000000E+00  0.00000000000E+00  0.34208292756E+04  0.34208292756E+04  0.50400001928E-02 0.  1.
        1   -1    0    0  501    0  0.00000000000E+00  0.00000000000E+00 -0.62187745702E+03  0.62187745704E+03  0.50400001928E-02 0. -1.
    10030    2    1    2    0    0  0.00000000000E+00  0.00000000000E+00  0.27989518186E+04  0.40427067326E+04  0.29170784089E+04 0.  0.
        2    1    3    3  502    0 -0.23372760352E+03  0.13049777513E+04  0.55677591352E+03  0.14379133986E+04  0.25500000920E-02 0. -1.
       -2    1    3    3    0  502  0.23372760352E+03 -0.13049777513E+04  0.22421759050E+04  0.26047933341E+04  0.25500000920E-02 0.  1.
</event>
<event>
 5   0  0.3438130E-06  0.2649422E+04  0.7818609E-02  0.8351605E-01
       -1   -1    0    0    0  501  0.00000000000E+00  0.00000000000E+00  0.87309243936E+03  0.87309243937E+03  0.50400001928E-02 0.  1.
        1   -1    0    0  501    0  0.00000000000E+00  0.00000000000E+00 -0.20099356610E+04  0.20099356610E+04  0.50400001928E-02 0. -1.
    10030    2    1    2    0    0  0.00000000000E+00  0.00000000000E+00 -0.11368432216E+04  0.28830281004E+04  0.26494222987E+04 0.  0.
        3    1    3    3  502    0  0.31837636129E+03  0.10757256885E+03  0.82593624322E+03  0.89168719463E+03  0.10100000352E+00 0.  1.
       -3    1    3    3    0  502 -0.31837636129E+03 -0.10757256885E+03 -0.19627794649E+04  0.19913409057E+04  0.10100000352E+00 0. -1.
</event>
<event>
 5   0  0.9065579E-06  0.2809310E+04  0.7818609E-02  0.8300384E-01
        2   -1    0    0  501    0  0.00000000000E+00  0.00000000000E+00  0.14454991217E+04  0.14454991217E+04  0.25500000920E-02 0. -1.
       -2   -1    0    0    0  501  0.00000000000E+00  0.00000000000E+00 -0.13649650355E+04  0.13649650355E+04  0.25500000920E-02 0.  1.
    10030    2    1    2    0    0  0.00000000000E+00  0.00000000000E+00  0.80534086243E+02  0.28104641572E+04  0.28093100647E+04 0.  0.
        3    1    3    3  502    0 -0.14651790379E+03 -0.94958641235E+03  0.10653215165E+04  0.14346051005E+04  0.10100000352E+00 0. -1.
       -3    1    3    3    0  502  0.14651790379E+03  0.94958641235E+03 -0.98478743030E+03  0.13758590566E+04  0.10100000352E+00 0.  1.
</event>
<event>
 5   0  0.3438130E-06  0.2620613E+04  0.7818609E-02  0.8361233E-01
       -1   -1    0    0    0  501  0.00000000000E+00  0.00000000000E+00  0.22056321567E+04  0.22056321567E+04  0.50400001928E-02 0. -1.
        1   -1    0    0  501    0  0.00000000000E+00  0.00000000000E+00 -0.77841753356E+03  0.77841753357E+03  0.50400001928E-02 0.  1.
    10030    2    1    2    0    0  0.00000000000E+00  0.00000000000E+00  0.14272146231E+04  0.29840496902E+04  0.26206127095E+04 0.  0.
        3    1    3    3  502    0  0.97446624907E+03 -0.87173182298E+03  0.81157312785E+03  0.15388800453E+04  0.10100000352E+00 0. -1.
       -3    1    3    3    0  502 -0.97446624907E+03  0.87173182298E+03  0.61564149526E+03  0.14451696449E+04  0.10100000352E+00 0.  1.
</event>
<event>
 5   0  0.9426937E-06  0.2813482E+04  0.7818609E-02  0.8299095E-01
        2   -1    0    0  501    0  0.00000000000E+00  0.00000000000E+00  0.20784364018E+04  0.20784364018E+04  0.25500000920E-02 0. -1.
       -2   -1    0    0    0  501  0.00000000000E+00  0.00000000000E+00 -0.95211968016E+03  0.95211968017E+03  0.25500000920E-02 0.  1.
    10030    2    1    2    0    0  0.00000000000E+00  0.00000000000E+00  0.11263167216E+04  0.30305560819E+04  0.28134819723E+04 0.  0.
        4    1    3    3  502    0 -0.58352055852E+03  0.61296666318E+02  0.19403442977E+04  0.20271139904E+04  0.12699999809E+01 0. -1.
       -4    1    3    3    0  502  0.58352055852E+03 -0.61296666318E+02 -0.81402757610E+03  0.10034420915E+04  0.12699999809E+01 0.  1.
</event>
<event>
 5   0  0.9065579E-06  0.2786076E+04  0.7818609E-02  0.8307604E-01
       -2   -1    0    0    0  501  0.00000000000E+00  0.00000000000E+00  0.15659993460E+04  0.15659993460E+04  0.25500000920E-02 0. -1.
        2   -1    0    0  501    0  0.00000000000E+00  0.00000000000E+00 -0.12391794920E+04  0.12391794920E+04  0.25500000920E-02 0.  1.
    10030    2    1    2    0    0  0.00000000000E+00  0.00000000000E+00  0.32681985393E+03  0.28051788380E+04  0.27860755726E+04 0.  0.
        3    1    3    3  502    0  0.18353956418E+02  0.97407671254E+03  0.11659237197E+04  0.15193881795E+04  0.10100000352E+00 0. -1.
       -3    1    3    3    0  502 -0.18353956418E+02 -0.97407671254E+03 -0.83910386580E+03  0.12857906585E+04  0.10100000352E+00 0.  1.
</event>
<event>
 5   0  0.9342133E-06  0.2800793E+04  0.7818609E-02  0.8303022E-01
        2   -1    0    0  501    0  0.00000000000E+00  0.00000000000E+00  0.23281657674E+04  0.23281657674E+04  0.25500000920E-02 0. -1.
       -2   -1    0    0    0  501  0.00000000000E+00  0.00000000000E+00 -0.84234144153E+03  0.84234144154E+03  0.25500000920E-02 0.  1.
    10030    2    1    2    0    0  0.00000000000E+00  0.00000000000E+00  0.14858243259E+04  0.31705072090E+04  0.28007931082E+04 0.  0.
        2    1    3    3  502    0  0.37849338561E+03  0.78677080658E+03  0.19823627784E+04  0.21661088916E+04  0.25500000920E-02 0. -1.
       -2    1    3    3    0  502 -0.37849338561E+03 -0.78677080658E+03 -0.49653845254E+03  0.10043983173E+04  0.25500000920E-02 0.  1.
</event>
<event>
 5   0  0.3600963E-06  0.2847615E+04  0.7818609E-02  0.8288636E-01
        1   -1    0    0  501    0  0.00000000000E+00  0.00000000000E+00  0.12589701568E+04  0.12589701568E+04  0.50400001928E-02 0. -1.
       -1   -1    0    0    0  501  0.00000000000E+00  0.00000000000E+00 -0.16102273295E+04  0.16102273295E+04  0.50400001928E-02 0.  1.
    10030    2    1    2    0    0  0.00000000000E+00  0.00000000000E+00 -0.35125717266E+03  0.28691974863E+04  0.28476152504E+04 0.  0.
        5    1    3    3  502    0 -0.44921088385E+03 -0.87196470419E+03 -0.12154839530E+04  0.15619014673E+04  0.46999998093E+01 0.  1.
       -5    1    3    3    0  502  0.44921088385E+03  0.87196470419E+03  0.86422678036E+03  0.13072960190E+04  0.46999998093E+01 0. -1.
</event>
<event>
 5   0  0.3371603E-06  0.2797603E+04  0.7818609E-02  0.8304013E-01
       -1   -1    0    0    0  501  0.00000000000E+00  0.00000000000E+00  0.76266081534E+03  0.76266081535E+03  0.50400001928E-02 0. -1.
        1   -1    0    0  501    0  0.00000000000E+00  0.00000000000E+00 -0.25655512267E+04  0.25655512267E+04  0.50400001928E-02 0.  1.
    10030    2    1    2    0    0  0.00000000000E+00  0.00000000000E+00 -0.18028904114E+04  0.33282120421E+04  0.27976028241E+04 0.  0.
        1    1    3    3  502    0 -0.69474166536E+03 -0.10372196144E+04 -0.16521184754E+04  0.20707452685E+04  0.50400001928E-02 0.  1.
       -1    1    3    3    0  502  0.69474166536E+03  0.10372196144E+04 -0.15077193596E+03  0.12574667736E+04  0.50400001928E-02 0. -1.
</event>
<event>
 5   0  0.9260173E-06  0.2812307E+04  0.7818609E-02  0.8299458E-01
       -2   -1    0    0    0  501  0.00000000000E+00  0.00000000000E+00  0.16164822180E+04  0.16164822180E+04  0.25500000920E-02 0. -1.
        2   -1    0    0  501    0  0.00000000000E+00  0.00000000000E+00 -0.12231913494E+04  0.12231913494E+04  0.25500000920E-02 0.  1.
    10030    2    1    2    0    0  0.00000000000E+00  0.00000000000E+00  0.39329086855E+03  0.28396735674E+04  0.28123065733E+04 0.  0.
        1    1    3    3  502    0  0.70379053958E+02  0.27550263900E+03 -0.11938581784E+04  0.12272539531E+04  0.50400001928E-02 0.  1.
       -1    1    3    3    0  502 -0.70379053958E+02 -0.27550263900E+03  0.15871490469E+04  0.16124196143E+04  0.50400001928E-02 0. -1.
</event>
<event>
 5   0  0.9426937E-06  0.2786996E+04  0.7818609E-02  0.8307317E-01
        2   -1    0    0  501    0  0.00000000000E+00  0.00000000000E+00  0.10461329031E+04  0.10461329031E+04  0.25500000920E-02 0.  1.
       -2   -1    0    0    0  501  0.00000000000E+00  0.00000000000E+00 -0.18562039624E+04  0.18562039624E+04  0.25500000920E-02 0. -1.
    10030    2    1    2    0    0  0.00000000000E+00  0.00000000000E+00 -0.81007105931E+03  0.29023368655E+04  0.27869955436E+04 0.  0.
        4    1    3    3  502    0  0.44748596599E+03  0.12055619265E+04  0.15403545679E+03  0.12951261650E+04  0.12699999809E+01 0.  1.
       -4    1    3    3    0  502 -0.44748596599E+03 -0.12055619265E+04 -0.96410651610E+03  0.16072107005E+04  0.12699999809E+01 0. -1.
</event>
<event>
 5   0  0.3397882E-06  0.2791830E+04  0.7818609E-02  0.8305809E-01
        1   -1    0    0  501    0  0.00000000000E+00  0.00000000000E+00  0.14713356286E+04  0.14713356286E+04  0.50400001928E-02 0. -1.
       -1   -1    0    0    0  501  0.00000000000E+00  0.00000000000E+00 -0.13243601721E+04  0.13243601721E+04  0.50400001928E-02 0.  1.
    10030    2    1    2    0    0  0.00000000000E+00  0.00000000000E+00  0.14697545656E+03  0.27956958007E+04  0.27918297271E+04 0.  0.
        2    1    3    3  502    0  0.98808909036E+01 -0.33509000733E+03 -0.12834515999E+04  0.13265108195E+04  0.25500000920E-02 0.  1.
       -2    1    3    3    0  502 -0.98808909036E+01  0.33509000733E+03  0.14304270565E+04  0.14691849812E+04  0.25500000920E-02 0. -1.
</event>
<event>
 5   0  0.9065579E-06  0.2874636E+04  0.7818609E-02  0.8280464E-01
        2   -1    0    0  501    0  0.00000000000E+00  0.00000000000E+00  0.14778813565E+04  0.14778813565E+04  0.25500000920E-02 0.  1.
       -2   -1    0    0    0  501  0.00000000000E+00  0.00000000000E+00 -0.13978676931E+04  0.13978676931E+04  0.25500000920E-02 0. -1.
    10030    2    1    2    0    0  0.00000000000E+00  0.00000000000E+00  0.80013663429E+02  0.28757490496E+04  0.28746357004E+04 0.  0.
        3    1    3    3  502    0 -0.14286809373E+03  0.12001543721E+04 -0.73817668535E+03  0.14162226654E+04  0.10100000352E+00 0.  1.
       -3    1    3    3    0  502  0.14286809373E+03 -0.12001543721E+04  0.81819034878E+03  0.14595263842E+04  0.10100000352E+00 0. -1.
</event>
<event>
 5   0  0.9426937E-06  0.2789023E+04  0.7818609E-02  0.8306684E-01
       -2   -1    0    0    0  501  0.00000000000E+00  0.00000000000E+00  0.11345765754E+04  0.11345765754E+04  0.25500000920E-02 0. -1.
        2   -1    0    0  501    0  0.00000000000E+00  0.00000000000E+00 -0.17139981959E+04  0.17139981959E+04  0.25500000920E-02 0.  1.
    10030    2    1    2    0    0  0.00000000000E+00  0.00000000000E+00 -0.57942162057E+03  0.28485747713E+04  0.27890229137E+04 0.  0.
        4    1    3    3  502    0 -0.53992052919E+03  0.75428837154E+03  0.77376920835E+03  0.12079675186E+04  0.12699999809E+01 0. -1.
       -4    1    3    3    0  502  0.53992052919E+03 -0.75428837154E+03 -0.13531908289E+04  0.16406072527E+04  0.12699999809E+01 0.  1.
</event>
<event>
 5   0  0.3600963E-06  0.2798324E+04  0.7818609E-02  0.8303789E-01
        1   -1    0    0  501    0  0.00000000000E+00  0.00000000000E+00  0.16695829741E+04  0.16695829741E+04  0.50400001928E-02 0.  1.
       -1   -1    0    0    0  501  0.00000000000E+00  0.00000000000E+00 -0.11725405158E+04  0.11725405158E+04  0.50400001928E-02 0. -1.
    10030    2    1    2    0    0  0.00000000000E+00  0.00000000000E+00  0.49704245832E+03  0.28421234899E+04  0.27983235564E+04 0.  0.
        5    1    3    3  502    0  0.53674694275E+03  0.34263223435E+03  0.15138695885E+04  0.16423511651E+04  0.46999998093E+01 0.  1.
       -5    1    3    3    0  502 -0.53674694275E+03 -0.34263223435E+03 -0.10168271302E+04  0.11997723247E+04  0.46999998093E+01 0. -1.
</event>
<event>
 5   0  0.3397882E-06  0.2497088E+04  0.7818609E-02  0.8404024E-01
       -1   -1    0    0    0  501  0.00000000000E+00  0.00000000000E+00  0.60779033880E+03  0.60779033883E+03  0.50400001928E-02 0.  1.
        1   -1    0    0  501    0  0.00000000000E+00  0.00000000000E+00 -0.25648013788E+04  0.25648013788E+04  0.50400001928E-02 0. -1.
    10030    2    1    2    0    0  0.00000000000E+00  0.00000000000E+00 -0.19570110400E+04  0.31725917176E+04  0.24970875027E+04 0.  0.
        2    1    3    3  502    0 -0.12977855234E+03  0.38706736374E+03 -0.24776065736E+04  0.25110153226E+04  0.25500000920E-02 0. -1.
       -2    1    3    3    0  502  0.12977855234E+03 -0.38706736374E+03  0.52059553366E+03  0.66157639498E+03  0.25500000920E-02 0.  1.
</event>
<event>
 5   0  0.9426937E-06  0.2814901E+04  0.7818609E-02  0.8298657E-01
        2   -1    0    0  501    0  0.00000000000E+00  0.00000000000E+00  0.11606084951E+04  0.11606084951E+04  0.25500000920E-02 0. -1.
       -2   -1    0    0    0  501  0.00000000000E+00  0.00000000000E+00 -0.17067920709E+04  0.17067920710E+04  0.25500000920E-02 0.  1.
    10030    2    1    2    0    0  0.00000000000E+00  0.00000000000E+00 -0.54618357587E+03  0.28674005660E+04  0.28149013318E+04 0.  0.
        4    1    3    3  502    0 -0.37634356882E+02  0.21927627253E+02 -0.17061047803E+04  0.17066611556E+04  0.12699999809E+01 0.  1.
       -4    1    3    3    0  502  0.37634356882E+02 -0.21927627253E+02  0.11599212044E+04  0.11607394105E+04  0.12699999809E+01 0. -1.
</event>
<event>
 5   0  0.9065579E-06  0.2787771E+04  0.7818609E-02  0.8307075E-01
        2   -1    0    0  501    0  0.00000000000E+00  0.00000000000E+00  0.14105730234E+04  0.14105730234E+04  0.25500000920E-02 0.  1.
       -2   -1    0    0    0  501  0.00000000000E+00  0.00000000000E+00 -0.13773953955E+04  0.13773953955E+04  0.25500000920E-02 0. -1.
    10030    2    1    2    0    0  0.00000000000E+00  0.00000000000E+00  0.33177627876E+02  0.27879684188E+04  0.27877710002E+04 0.  0.
        3    1    3    3  502    0  0.81420227459E+03 -0.25749371206E+03  0.11183421096E+04  0.14070953912E+04  0.10100000352E+00 0.  1.
       -3    1    3    3    0  502 -0.81420227459E+03  0.25749371206E+03 -0.10851644818E+04  0.13808730276E+04  0.10100000352E+00 0. -1.
</event>
<event>
 5   0  0.9342133E-06  0.2650797E+04  0.7818609E-02  0.8351148E-01
       -2   -1    0    0    0  501  0.00000000000E+00  0.00000000000E+00  0.15587210702E+04  0.15587210702E+04  0.25500000920E-02 0.  1.
        2   -1    0    0  501    0  0.00000000000E+00  0.00000000000E+00 -0.11270018782E+04  0.11270018782E+04  0.25500000920E-02 0. -1.
    10030    2    1    2    0    0  0.00000000000E+00  0.00000000000E+00  0.43171919202E+03  0.26857229484E+04  0.26507972942E+04 0.  0.
        2    1    3    3  502    0  0.31858646749E+03 -0.11175398190E+04 -0.42994661554E+03  0.12390507159E+04  0.25500000920E-02 0. -1.
       -2    1    3    3    0  502 -0.31858646749E+03  0.11175398190E+04  0.86166580756E+03  0.14466722325E+04  0.25500000920E-02 0.  1.
</event>
<event>
 5   0  0.9426937E-06  0.2803545E+04  0.7818609E-02  0.8302169E-01
        2   -1    0    0  501    0  0.00000000000E+00  0.00000000000E+00  0.25608363987E+04  0.25608363987E+04  0.25500000920E-02 0.  1.
       -2   -1    0    0    0  501  0.00000000000E+00  0.00000000000E+00 -0.76731415216E+03  0.76731415216E+03  0.25500000920E-02 0. -1.
    10030    2    1    2    0    0  0.00000000000E+00  0.00000000000E+00  0.17935222466E+04  0.33281505509E+04  0.28035449061E+04 0.  0.
        4    1    3    3  502    0 -0.89093695509E+02  0.12223947848E+04  0.17043338782E+04  0.20992718447E+04  0.12699999809E+01 0.  1.
       -4    1    3    3    0  502  0.89093695509E+02 -0.12223947848E+04  0.89188368355E+02  0.12288787062E+04  0.12699999809E+01 0. -1.
</event>
<event>
 5   0  0.3371603E-06  0.2777622E+04  0.7818609E-02  0.8310250E-01
       -1   -1    0    0    0  501  0.00000000000E+00  0.00000000000E+00  0.14158157766E+04  0.14158157766E+04  0.50400001928E-02 0.  1.
        1   -1    0    0  501    0  0.00000000000E+00  0.00000000000E+00 -0.13623210661E+04  0.13623210661E+04  0.50400001928E-02 0. -1.
    10030    2    1    2    0    0  0.00000000000E+00  0.00000000000E+00  0.53494710459E+02  0.27781368427E+04  0.27776217584E+04 0.  0.
        1    1    3    3  502    0 -0.44569034211E+03  0.13049014133E+04  0.19227148427E+03  0.13922556889E+04  0.50400001928E-02 0. -1.
       -1    1    3    3    0  502  0.44569034211E+03 -0.13049014133E+04 -0.13877677381E+03  0.13858811538E+04  0.50400001928E-02 0.  1.
</event>
<event>
 5   0  0.9342133E-06  0.2782044E+04  0.7818609E-02  0.8308865E-01
       -2   -1    0    0    0  501  0.00000000000E+00  0.00000000000E+00  0.13714722797E+04  0.13714722797E+04  0.25500000920E-02 0. -1.
        2   -1    0    0  501    0  0.00000000000E+00  0.00000000000E+00 -0.14108499782E+04  0.14108499782E+04  0.25500000920E-02 0.  1.
    10030    2    1    2    0    0  0.00000000000E+00  0.00000000000E+00 -0.39377698517E+02  0.27823222578E+04  0.27820435912E+04 0.  0.
        2    1    3    3  502    0  0.12585537420E+04 -0.19183627722E+02  0.57249891322E+03  0.13827800037E+04  0.25500000920E-02 0. -1.
       -2    1    3    3    0  502 -0.12585537420E+04  0.19183627722E+02 -0.61187661174E+03  0.13995422541E+04  0.25500000920E-02 0.  1.
</event>
<event>
 5   0  0.3600963E-06  0.2816170E+04  0.7818609E-02  0.8298266E-01
        1   -1    0    0  501    0  0.00000000000E+00  0.00000000000E+00  0.15574146800E+04  0.15574146801E+04  0.50400001928E-02 0. -1.
       -1   -1    0    0    0  501  0.00000000000E+00  0.00000000000E+00 -0.12730732399E+04  0.12730732399E+04  0.50400001928E-02 0.  1.
    10030    2    1    2    0    0  0.00000000000E+00  0.00000000000E+00  0.28434144014E+03  0.28304879200E+04  0.28161697056E+04 0.  0.
        5    1    3    3  502    0 -0.10873652566E+04 -0.68171460957E+03 -0.44006971665E+03  0.13567540144E+04  0.46999998093E+01 0.  1.
       -5    1    3    3    0  502  0.10873652566E+04  0.68171460957E+03  0.72441115679E+03  0.14737339055E+04  0.46999998093E+01 0. -1.
</event>
<event>
 5   0  0.3438130E-06  0.2757610E+04  0.7818609E-02  0.8316551E-01
        1   -1    0    0  501    0  0.00000000000E+00  0.00000000000E+00  0.23909016758E+04  0.23909016758E+04  0.50400001928E-02 0. -1.
       -1   -1    0    0    0  501  0.00000000000E+00  0.00000000000E+00 -0.79514087735E+03  0.79514087736E+03  0.50400001928E-02 0.  1.
    10030    2    1    2    0    0  0.00000000000E+00  0.00000000000E+00  0.15957607984E+04  0.31860425531E+04  0.27576103105E+04 0.  0.
        3    1    3    3  502    0 -0.25302957673E+03 -0.77622158886E+03  0.20816134721E+04  0.22359916322E+04  0.10100000352E+00 0. -1.
       -3    1    3    3    0  502  0.25302957673E+03  0.77622158886E+03 -0.48585267367E+03  0.95005092097E+03  0.10100000352E+00 0.  1.
</event>
<event>
 5   0  0.3006875E-06  0.2833258E+04  0.7818609E-02  0.8293017E-01
        4   -1    0    0  501    0  0.00000000000E+00  0.00000000000E+00  0.14528757334E+04  0.14528762885E+04  0.12699999809E+01 0.  1.
       -4   -1    0    0    0  501  0.00000000000E+00  0.00000000000E+00 -0.13812851263E+04  0.13812857102E+04  0.12699999809E+01 0. -1.
    10030    2    1    2    0    0  0.00000000000E+00  0.00000000000E+00  0.71590607069E+02  0.28341619987E+04  0.28332576691E+04 0.  0.
        4    1    3    3  502    0 -0.48687479894E+03 -0.98723697002E+03 -0.85620212756E+03  0.13945492465E+04  0.12699999809E+01 0. -1.
       -4    1    3    3    0  502  0.48687479894E+03  0.98723697002E+03  0.92779273463E+03  0.14396127522E+04  0.12699999809E+01 0.  1.
</event>
<event>
 5   0  0.3600963E-06  0.2666477E+04  0.7818609E-02  0.8345965E-01
        1   -1    0    0  501    0  0.00000000000E+00  0.00000000000E+00  0.11379542128E+04  0.11379542128E+04  0.50400001928E-02 0.  1.
       -1   -1    0    0    0  501  0.00000000000E+00  0.00000000000E+00 -0.15620351293E+04  0.15620351293E+04  0.50400001928E-02 0. -1.
    10030    2    1    2    0    0  0.00000000000E+00  0.00000000000E+00 -0.42408091647E+03  0.26999893420E+04  0.26664766685E+04 0.  0.
        5    1    3    3  502    0  0.11750388790E+04 -0.35863593144E+03 -0.73639657122E+03  0.14323540409E+04  0.46999998093E+01 0. -1.
       -5    1    3    3    0  502 -0.11750388790E+04  0.35863593144E+03  0.31231565474E+03  0.12676353011E+04  0.46999998093E+01 0.  1.
</event>
<event>
 5   0  0.9065579E-06  0.2612735E+04  0.7818609E-02  0.8363888E-01
       -2   -1    0    0    0  501  0.00000000000E+00  0.00000000000E+00  0.94844059526E+03  0.94844059526E+03  0.25500000920E-02 0.  1.
        2   -1    0    0  501    0  0.00000000000E+00  0.00000000000E+00 -0.17993702897E+04  0.17993702897E+04  0.25500000920E-02 0. -1.
    10030    2    1    2    0    0  0.00000000000E+00  0.00000000000E+00 -0.85092969447E+03  0.27478108850E+04  0.26127348344E+04 0.  0.
        3    1    3    3  502    0 -0.14470393974E+03  0.47675545612E+03  0.84459445173E+03  0.98059920111E+03  0.10100000352E+00 0.  1.
       -3    1    3    3    0  502  0.14470393974E+03 -0.47675545612E+03 -0.16955241462E+04  0.17672116839E+04  0.10100000352E+00 0. -1.
</event>
<event>
 5   0  0.3371603E-06  0.2818454E+04  0.7818609E-02  0.8297562E-01
        1   -1    0    0  501    0  0.00000000000E+00  0.00000000000E+00  0.17296757298E+04  0.17296757298E+04  0.50400001928E-02 0.  1.
       -1   -1    0    0    0  501  0.00000000000E+00  0.00000000000E+00 -0.11481464042E+04  0.11481464042E+04  0.50400001928E-02 0. -1.
    10030    2    1    2    0    0  0.00000000000E+00  0.00000000000E+00  0.58152932557E+03  0.28778221340E+04  0.28184541647E+04 0.  0.
        1    1    3    3  502    0 -0.11638771190E+04  0.29214345306E+03 -0.46369264063E+03  0.12864558330E+04  0.50400001928E-02 0. -1.
       -1    1    3    3    0  502  0.11638771190E+04 -0.29214345306E+03  0.10452219662E+04  0.15913663010E+04  0.50400001928E-02 0.  1.
</event>
<event>
 5   0  0.3600963E-06  0.2792639E+04  0.7818609E-02  0.8305557E-01
       -1   -1    0    0    0  501  0.00000000000E+00  0.00000000000E+00  0.15139273446E+04  0.15139273446E+04  0.50400001928E-02 0.  1.
        1   -1    0    0  501    0  0.00000000000E+00  0.00000000000E+00 -0.12878480249E+04  0.12878480250E+04  0.50400001928E-02 0. -1.
    10030    2    1    2    0    0  0.00000000000E+00  0.00000000000E+00  0.22607931967E+03  0.28017753696E+04  0.27926391394E+04 0.  0.
        5    1    3    3  502    0 -0.59399328116E+03  0.17546753584E+03 -0.11424813694E+04  0.12995778713E+04  0.46999998093E+01 0. -1.
       -5    1    3    3    0  502  0.59399328116E+03 -0.17546753584E+03  0.13685606891E+04  0.15021974983E+04  0.46999998093E+01 0.  1.
</event>
<event>
 5   0  0.9065579E-06  0.2784183E+04  0.7818609E-02  0.8308196E-01
       -2   -1    0    0    0  501  0.00000000000E+00  0.00000000000E+00  0.83724934474E+03  0.83724934474E+03  0.25500000920E-02 0.  1.
        2   -1    0    0  501    0  0.00000000000E+00  0.00000000000E+00 -0.23146253432E+04  0.23146253432E+04  0.25500000920E-02 0. -1.
    10030    2    1    2    0    0  0.00000000000E+00  0.00000000000E+00 -0.14773759985E+04  0.31518746880E+04  0.27841828618E+04 0.  0.
        3    1    3    3  502    0 -0.23855859269E+03 -0.82576607919E+03 -0.19783471157E+04  0.21570018869E+04  0.10100000352E+00 0. -1.
       -3    1    3    3    0  502  0.23855859269E+03  0.82576607919E+03  0.50097111726E+03  0.99487280102E+03  0.10100000352E+00 0.  1.
</event>
<event>
 5   0  0.9252359E-06  0.2748826E+04  0.7818609E-02  0.8319334E-01
        2   -1    0    0  501    0  0.00000000000E+00  0.00000000000E+00  0.97786743048E+03  0.97786743048E+03  0.25500000920E-02 0.  1.
       -2   -1    0    0    0  501  0.00000000000E+00  0.00000000000E+00 -0.19317658407E+04  0.19317658407E+04  0.25500000920E-02 0. -1.
    10030    2    1    2    0    0  0.00000000000E+00  0.00000000000E+00 -0.95389841022E+03  0.29096332712E+04  0.27488258577E+04 0.  0.
        5    1    3    3  502    0 -0.92166468373E+03 -0.97393467159E+03 -0.79621348312E+03  0.15594847016E+04  0.46999998093E+01 0. -1.
       -5    1    3    3    0  502  0.92166468373E+03  0.97393467159E+03 -0.15768492710E+03  0.13501485696E+04  0.46999998093E+01 0.  1.
</event>
<event>
 5   0  0.9252359E-06  0.2807273E+04  0.7818609E-02  0.8301014E-01
        2   -1    0    0  501    0  0.00000000000E+00  0.00000000000E+00  0.95381909221E+03  0.95381909221E+03  0.25500000920E-02 0. -1.
       -2   -1    0    0    0  501  0.00000000000E+00  0.00000000000E+00 -0.20655858310E+04  0.20655858310E+04  0.25500000920E-02 0.  1.
    10030    2    1    2    0    0  0.00000000000E+00  0.00000000000E+00 -0.11117667388E+04  0.30194049232E+04  0.28072728419E+04 0.  0.
        5    1    3    3  502    0 -0.86051095767E+03  0.74775153315E+03 -0.14366403424E+04  0.18340035515E+04  0.46999998093E+01 0. -1.
       -5    1    3    3    0  502  0.86051095767E+03 -0.74775153315E+03  0.32487360364E+03  0.11854013717E+04  0.46999998093E+01 0.  1.
</event>
<event>
 5   0  0.3357244E-06  0.2790333E+04  0.7818609E-02  0.8306276E-01
       -1   -1    0    0    0  501  0.00000000000E+00  0.00000000000E+00  0.88238955052E+03  0.88238955053E+03  0.50400001928E-02 0.  1.
        1   -1    0    0  501    0  0.00000000000E+00  0.00000000000E+00 -0.22059295998E+04  0.22059295998E+04  0.50400001928E-02 0. -1.
    10030    2    1    2    0    0  0.00000000000E+00  0.00000000000E+00 -0.13235400493E+04  0.30883191504E+04  0.27903327602E+04 0.  0.
        4    1    3    3  502    0  0.13498866037E+04  0.30087777241E+03 -0.86514998625E+03  0.16313207497E+04  0.12699999809E+01 0. -1.
       -4    1    3    3    0  502 -0.13498866037E+04 -0.30087777241E+03 -0.45839006306E+03  0.14569984007E+04  0.12699999809E+01 0.  1.
</event>
<event>
 5   0  0.3006875E-06  0.2801287E+04  0.7818609E-02  0.8302869E-01
       -3   -1    0    0    0  501  0.00000000000E+00  0.00000000000E+00  0.17751158297E+04  0.17751158326E+04  0.10100000352E+00 0.  1.
        3   -1    0    0  501    0  0.00000000000E+00  0.00000000000E+00 -0.11051687030E+04  0.11051687077E+04  0.10100000352E+00 0. -1.
    10030    2    1    2    0    0  0.00000000000E+00  0.00000000000E+00  0.66994712668E+03  0.28802845403E+04  0.28012871828E+04 0.  0.
        1    1    3    3  502    0 -0.62437493475E+03  0.96495190778E+03  0.11580646485E+04  0.16315912398E+04  0.50400001928E-02 0.  1.
       -1    1    3    3    0  502  0.62437493475E+03 -0.96495190778E+03 -0.48811752187E+03  0.12486933005E+04  0.50400001928E-02 0. -1.
</event>
<event>
 5   0  0.3357244E-06  0.3129288E+04  0.7818609E-02  0.8207746E-01
        1   -1    0    0  501    0  0.00000000000E+00  0.00000000000E+00  0.24197850923E+04  0.24197850923E+04  0.50400001928E-02 0.  1.
       -1   -1    0    0    0  501  0.00000000000E+00  0.00000000000E+00 -0.10117058942E+04  0.10117058942E+04  0.50400001928E-02 0. -1.
    10030    2    1    2    0    0  0.00000000000E+00  0.00000000000E+00  0.14080791982E+04  0.34314909865E+04  0.31292879960E+04 0.  0.
        4    1    3    3  502    0  0.65605461288E+02 -0.15474671714E+04  0.46093044158E+03  0.16159879975E+04  0.12699999809E+01 0. -1.
       -4    1    3    3    0  502 -0.65605461288E+02  0.15474671714E+04  0.94714875661E+03  0.18155029890E+04  0.12699999809E+01 0.  1.
</event>
<event>
 5   0  0.3438130E-06  0.2764563E+04  0.7818609E-02  0.8314355E-01
        1   -1    0    0  501    0  0.00000000000E+00  0.00000000000E+00  0.18572521975E+04  0.18572521976E+04  0.50400001928E-02 0.  1.
       -1   -1    0    0    0  501  0.00000000000E+00  0.00000000000E+00 -0.10287790423E+04  0.10287790423E+04  0.50400001928E-02 0. -1.
    10030    2    1    2    0    0  0.00000000000E+00  0.00000000000E+00  0.82847315527E+03  0.28860312398E+04  0.27645629941E+04 0.  0.
        3    1    3    3  502    0 -0.36061546394E+03 -0.89859018238E+03 -0.61561423341E+03  0.11473834247E+04  0.10100000352E+00 0. -1.
       -3    1    3    3    0  502  0.36061546394E+03  0.89859018238E+03  0.14440873887E+04  0.17386478151E+04  0.10100000352E+00 0.  1.
</event>
<event>
 5   0  0.3371603E-06  0.2813616E+04  0.7818609E-02  0.8299053E-01
        1   -1    0    0  501    0  0.00000000000E+00  0.00000000000E+00  0.24763086085E+04  0.24763086085E+04  0.50400001928E-02 0.  1.
       -1   -1    0    0    0  501  0.00000000000E+00  0.00000000000E+00 -0.79921756203E+03  0.79921756204E+03  0.50400001928E-02 0. -1.
    10030    2    1    2    0    0  0.00000000000E+00  0.00000000000E+00  0.16770910464E+04  0.32755261705E+04  0.28136164123E+04 0.  0.
        1    1    3    3  502    0  0.42770770689E+03  0.70272817750E+03 -0.49001028156E+03  0.95753373312E+03  0.50400001928E-02 0. -1.
       -1    1    3    3    0  502 -0.42770770689E+03 -0.70272817750E+03  0.21671013280E+04  0.23179924374E+04  0.50400001928E-02 0.  1.
</event>
<event>
 5   0  0.9252359E-06  0.2787696E+04  0.7818609E-02  0.8307098E-01
        2   -1    0    0  501    0  0.00000000000E+00  0.00000000000E+00  0.23437034988E+04  0.23437034988E+04  0.25500000920E-02 0.  1.
       -2   -1    0    0    0  501  0.00000000000E+00  0.00000000000E+00 -0.82894977516E+03  0.82894977516E+03  0.25500000920E-02 0. -1.
    10030    2    1    2    0    0  0.00000000000E+00  0.00000000000E+00  0.15147537236E+04  0.31726532740E+04  0.27876961731E+04 0.  0.
        5    1    3    3  502    0  0.58497646102E+03 -0.67242864475E+03  0.19770120342E+04  0.21686300781E+04  0.46999998093E+01 0.  1.
       -5    1    3    3    0  502 -0.58497646102E+03  0.67242864475E+03 -0.46225831053E+03  0.10040231959E+04  0.46999998093E+01 0. -1.
</event>
<event>
 5   0  0.9252359E-06  0.2801662E+04  0.7818609E-02  0.8302753E-01
        2   -1    0    0  501    0  0.00000000000E+00  0.00000000000E+00  0.16758363023E+04  0.16758363023E+04  0.25500000920E-02 0.  1.
       -2   -1    0    0    0  501  0.00000000000E+00  0.00000000000E+00 -0.11709542076E+04  0.11709542076E+04  0.25500000920E-02 0. -1.
    10030    2    1    2    0    0  0.00000000000E+00  0.00000000000E+00  0.50488209468E+03  0.28467905099E+04  0.28016620563E+04 0.  0.
        5    1    3    3  502    0 -0.12643547942E+04 -0.38613653484E+03 -0.21828232276E+03  0.13399118373E+04  0.46999998093E+01 0. -1.
       -5    1    3    3    0  502  0.12643547942E+04  0.38613653484E+03  0.72316441744E+03  0.15068786726E+04  0.46999998093E+01 0.  1.
</event>
<event>
 5   0  0.3006875E-06  0.2793361E+04  0.7818609E-02  0.8305332E-01
       -4   -1    0    0    0  501  0.00000000000E+00  0.00000000000E+00  0.18725839425E+04  0.18725843732E+04  0.12699999809E+01 0.  1.
        4   -1    0    0  501    0  0.00000000000E+00  0.00000000000E+00 -0.10417237672E+04  0.10417245413E+04  0.12699999809E+01 0. -1.
    10030    2    1    2    0    0  0.00000000000E+00  0.00000000000E+00  0.83086017535E+03  0.29143089146E+04  0.27933613834E+04 0.  0.
        3    1    3    3  502    0 -0.36982326146E+03 -0.27953643656E+03 -0.95911562490E+03  0.10652758592E+04  0.10100000352E+00 0. -1.
       -3    1    3    3    0  502  0.36982326146E+03  0.27953643656E+03  0.17899758002E+04  0.18490330553E+04  0.10100000352E+00 0.  1.
</event>
<event>
 5   0  0.3371603E-06  0.2825911E+04  0.7818609E-02  0.8295269E-01
       -1   -1    0    0    0  501  0.00000000000E+00  0.00000000000E+00  0.11279824854E+04  0.11279824854E+04  0.50400001928E-02 0.  1.
        1   -1    0    0  501    0  0.00000000000E+00  0.00000000000E+00 -0.17699237405E+04  0.17699237405E+04  0.50400001928E-02 0. -1.
    10030    2    1    2    0    0  0.00000000000E+00  0.00000000000E+00 -0.64194125503E+03  0.28979062259E+04  0.28259108123E+04 0.  0.
        1    1    3    3  502    0 -0.37439616608E+03 -0.84343045453E+03  0.77628751463E+03  0.12058895995E+04  0.50400001928E-02 0.  1.
       -1    1    3    3    0  502  0.37439616608E+03  0.84343045453E+03 -0.14182287697E+04  0.16920166264E+04  0.50400001928E-02 0. -1.
</event>
<event>
 5   0  0.9260173E-06  0.2819385E+04  0.7818609E-02  0.8297275E-01
        2   -1    0    0  501    0  0.00000000000E+00  0.00000000000E+00  0.12700344447E+04  0.12700344447E+04  0.25500000920E-02 0.  1.
       -2   -1    0    0    0  501  0.00000000000E+00  0.00000000000E+00 -0.15647083209E+04  0.15647083209E+04  0.25500000920E-02 0. -1.
    10030    2    1    2    0    0  0.00000000000E+00  0.00000000000E+00 -0.29467387618E+03  0.28347427656E+04  0.28193853681E+04 0.  0.
        1    1    3    3  502    0 -0.13006151001E+03  0.10460898441E+04  0.79371721327E+03  0.13195480184E+04  0.50400001928E-02 0.  1.
       -1    1    3    3    0  502  0.13006151001E+03 -0.10460898441E+04 -0.10883910894E+04  0.15151947472E+04  0.50400001928E-02 0. -1.
</event>
<event>
 5   0  0.9260173E-06  0.2800116E+04  0.7818609E-02  0.8303232E-01
       -2   -1    0    0    0  501  0.00000000000E+00  0.00000000000E+00  0.12043216361E+04  0.12043216361E+04  0.25500000920E-02 0.  1.
        2   -1    0    0  501    0  0.00000000000E+00  0.00000000000E+00 -0.16276076368E+04  0.16276076368E+04  0.25500000920E-02 0. -1.
    10030    2    1    2    0    0  0.00000000000E+00  0.00000000000E+00 -0.42328600068E+03  0.28319292730E+04  0.28001164920E+04 0.  0.
        1    1    3    3  502    0  0.98599255513E+03  0.10272527632E+03 -0.12115255248E+04  0.15654162061E+04  0.50400001928E-02 0. -1.
       -1    1    3    3    0  502 -0.98599255513E+03 -0.10272527632E+03  0.78823952408E+03  0.12665130669E+04  0.50400001928E-02 0.  1.
</event>
<event>
 5   0  0.3438130E-06  0.2817808E+04  0.7818609E-02  0.8297761E-01
        1   -1    0    0  501    0  0.00000000000E+00  0.00000000000E+00  0.19140247412E+04  0.19140247412E+04  0.50400001928E-02 0.  1.
       -1   -1    0    0    0  501  0.00000000000E+00  0.00000000000E+00 -0.10370874367E+04  0.10370874367E+04  0.50400001928E-02 0. -1.
    10030    2    1    2    0    0  0.00000000000E+00  0.00000000000E+00  0.87693730449E+03  0.29511121779E+04  0.28178083772E+04 0.  0.
        3    1    3    3  502    0 -0.14044552118E+03  0.13731386395E+04  0.14265970756E+03  0.13876550256E+04  0.10100000352E+00 0. -1.
       -3    1    3    3    0  502  0.14044552118E+03 -0.13731386395E+04  0.73427759693E+03  0.15634571523E+04  0.10100000352E+00 0.  1.
</event>
<event>
 5   0  0.9426937E-06  0.2820347E+04  0.7818609E-02  0.8296979E-01
       -2   -1    0    0    0  501  0.00000000000E+00  0.00000000000E+00  0.98269128510E+03  0.98269128511E+03  0.25500000920E-02 0. -1.
        2   -1    0    0  501    0  0.00000000000E+00  0.00000000000E+00 -0.20236151344E+04  0.20236151344E+04  0.25500000920E-02 0.  1.
    10030    2    1    2    0    0  0.00000000000E+00  0.00000000000E+00 -0.10409238493E+04  0.30063064195E+04  0.28203467567E+04 0.  0.
        4    1    3    3  502    0  0.13693731549E+04  0.32442219187E+03 -0.61671974290E+03  0.15364821672E+04  0.12699999809E+01 0.  1.
       -4    1    3    3    0  502 -0.13693731549E+04 -0.32442219187E+03 -0.42420410638E+03  0.14698242523E+04  0.12699999809E+01 0. -1.
</event>
<event>
 5   0  0.3397882E-06  0.2789906E+04  0.7818609E-02  0.8306409E-01
        1   -1    0    0  501    0  0.00000000000E+00  0.00000000000E+00  0.21031141236E+04  0.21031141236E+04  0.50400001928E-02 0. -1.
       -1   -1    0    0    0  501  0.00000000000E+00  0.00000000000E+00 -0.92524431512E+03  0.92524431513E+03  0.50400001928E-02 0.  1.
    10030    2    1    2    0    0  0.00000000000E+00  0.00000000000E+00  0.11778698085E+04  0.30283584388E+04  0.27899063690E+04 0.  0.
        2    1    3    3  502    0 -0.47412243901E+03  0.72365515055E+03  0.17767310299E+04  0.19761685193E+04  0.25500000920E-02 0. -1.
       -2    1    3    3    0  502  0.47412243901E+03 -0.72365515055E+03 -0.59886122139E+03  0.10521899194E+04  0.25500000920E-02 0.  1.
</event>
<event>
 5   0  0.9342133E-06  0.2775393E+04  0.7818609E-02  0.8310949E-01
       -2   -1    0    0    0  501  0.00000000000E+00  0.00000000000E+00  0.17380148539E+04  0.17380148539E+04  0.25500000920E-02 0. -1.
        2   -1    0    0  501    0  0.00000000000E+00  0.00000000000E+00 -0.11079892103E+04  0.11079892103E+04  0.25500000920E-02 0.  1.
    10030    2    1    2    0    0  0.00000000000E+00  0.00000000000E+00  0.63002564358E+03  0.28460040642E+04  0.27753930932E+04 0.  0.
        2    1    3    3  502    0  0.99079882446E+03  0.96802927937E+03  0.40043100972E+03  0.14419112281E+04  0.25500000920E-02 0.  1.
       -2    1    3    3    0  502 -0.99079882446E+03 -0.96802927937E+03  0.22959463386E+03  0.14040928360E+04  0.25500000920E-02 0. -1.
</event>
<event>
 5   0  0.3371603E-06  0.2795081E+04  0.7818609E-02  0.8304797E-01
        1   -1    0    0  501    0  0.00000000000E+00  0.00000000000E+00  0.12453749897E+04  0.12453749897E+04  0.50400001928E-02 0. -1.
       -1   -1    0    0    0  501  0.00000000000E+00  0.00000000000E+00 -0.15682984466E+04  0.15682984466E+04  0.50400001928E-02 0.  1.
    10030    2    1    2    0    0  0.00000000000E+00  0.00000000000E+00 -0.32292345684E+03  0.28136734363E+04  0.27950811522E+04 0.  0.
        1    1    3    3  502    0  0.39067314882E+03 -0.84549840817E+03 -0.12103265161E+04  0.15272142427E+04  0.50400001928E-02 0.  1.
       -1    1    3    3    0  502 -0.39067314882E+03  0.84549840817E+03  0.88740305924E+03  0.12864591937E+04  0.50400001928E-02 0. -1.
</event>
<event>
 5   0  0.9342133E-06  0.2310878E+04  0.7818609E-02  0.8473644E-01
       -2   -1    0    0    0  501  0.00000000000E+00  0.00000000000E+00  0.15974662780E+04  0.15974662780E+04  0.25500000920E-02 0.  1.
        2   -1    0    0  501    0  0.00000000000E+00  0.00000000000E+00 -0.83572306215E+03  0.83572306215E+03  0.25500000920E-02 0. -1.
    10030    2    1    2    0    0  0.00000000000E+00  0.00000000000E+00  0.76174321585E+03  0.24331893401E+04  0.23108781098E+04 0.  0.
        2    1    3    3  502    0  0.56166808962E+02  0.49427793211E+01 -0.83427365478E+03  0.83617681896E+03  0.25500000920E-02 0. -1.
       -2    1    3    3    0  502 -0.56166808962E+02 -0.49427793211E+01  0.15960168706E+04  0.15970125212E+04  0.25500000920E-02 0.  1.
</event>
<event>
 5   0  0.9252359E-06  0.2864133E+04  0.7818609E-02  0.8283630E-01
        2   -1    0    0  501    0  0.00000000000E+00  0.00000000000E+00  0.11282536581E+04  0.11282536581E+04  0.25500000920E-02 0. -1.
       -2   -1    0    0    0  501  0.00000000000E+00  0.00000000000E+00 -0.18176895877E+04  0.18176895877E+04  0.25500000920E-02 0.  1.
    10030    2    1    2    0    0  0.00000000000E+00  0.00000000000E+00 -0.68943592962E+03  0.29459432458E+04  0.28641333255E+04 0.  0.
        5    1    3    3  502    0 -0.23857340974E+03 -0.58885104881E+03 -0.16647822610E+04  0.17819048505E+04  0.46999998093E+01 0.  1.
       -5    1    3    3    0  502  0.23857340974E+03  0.58885104881E+03  0.97534633142E+03  0.11640383953E+04  0.46999998093E+01 0. -1.
</event>
<event>
 5   0  0.9252359E-06  0.2809508E+04  0.7818609E-02  0.8300323E-01
       -2   -1    0    0    0  501  0.00000000000E+00  0.00000000000E+00  0.99130238626E+03  0.99130238627E+03  0.25500000920E-02 0. -1.
        2   -1    0    0  501    0  0.00000000000E+00  0.00000000000E+00 -0.19906472153E+04  0.19906472153E+04  0.25500000920E-02 0.  1.
    10030    2    1    2    0    0  0.00000000000E+00  0.00000000000E+00 -0.99934482906E+03  0.29819496016E+04  0.28095076684E+04 0.  0.
        5    1    3    3  502    0 -0.51861629282E+03 -0.12600149533E+04 -0.86227042763E+03  0.16124927665E+04  0.46999998093E+01 0.  1.
       -5    1    3    3    0  502  0.51861629282E+03  0.12600149533E+04 -0.13707440143E+03  0.13694568351E+04  0.46999998093E+01 0. -1.
</event>
<event>
 5   0  0.3397882E-06  0.2810698E+04  0.7818609E-02  0.8299955E-01
       -1   -1    0    0    0  501  0.00000000000E+00  0.00000000000E+00  0.14231126511E+04  0.14231126511E+04  0.50400001928E-02 0. -1.
        1   -1    0    0  501    0  0.00000000000E+00  0.00000000000E+00 -0.13878075173E+04  0.13878075173E+04  0.50400001928E-02 0.  1.
    10030    2    1    2    0    0  0.00000000000E+00  0.00000000000E+00  0.35305133809E+02  0.28109201684E+04  0.28106984435E+04 0.  0.
        2    1    3    3  502    0 -0.10871060518E+04 -0.87556730341E+03 -0.14542091191E+03  0.14034118826E+04  0.25500000920E-02 0.  1.
       -2    1    3    3    0  502  0.10871060518E+04  0.87556730341E+03  0.18072604572E+03  0.14075082857E+04  0.25500000920E-02 0. -1.
</event>
<event>
 5   0  0.3438130E-06  0.2420273E+04  0.7818609E-02  0.8431952E-01
        1   -1    0    0  501    0  0.00000000000E+00  0.00000000000E+00  0.16033089899E+04  0.16033089899E+04  0.50400001928E-02 0. -1.
       -1   -1    0    0    0  501  0.00000000000E+00  0.00000000000E+00 -0.91337989383E+03  0.91337989385E+03  0.50400001928E-02 0.  1.
    10030    2    1    2    0    0  0.00000000000E+00  0.00000000000E+00  0.68992909605E+03  0.25166888837E+04  0.24202728730E+04 0.  0.
        3    1    3    3  502    0 -0.76537508238E+03 -0.40233610175E+03 -0.53537683472E+03  0.10170062541E+04  0.10100000352E+00 0.  1.
       -3    1    3    3    0  502  0.76537508238E+03  0.40233610175E+03  0.12253059308E+04  0.14996826297E+04  0.10100000352E+00 0. -1.
</event>
<event>
 5   0  0.3438130E-06  0.2795903E+04  0.7818609E-02  0.8304541E-01
        1   -1    0    0  501    0  0.00000000000E+00  0.00000000000E+00  0.20202925116E+04  0.20202925116E+04  0.50400001928E-02 0. -1.
       -1   -1    0    0    0  501  0.00000000000E+00  0.00000000000E+00 -0.96731974985E+03  0.96731974986E+03  0.50400001928E-02 0.  1.
    10030    2    1    2    0    0  0.00000000000E+00  0.00000000000E+00  0.10529727617E+04  0.29876122614E+04  0.27959033223E+04 0.  0.
        3    1    3    3  502    0  0.84655720052E+03 -0.11098475431E+04  0.60820334625E+03  0.15226069694E+04  0.10100000352E+00 0.  1.
       -3    1    3    3    0  502 -0.84655720052E+03  0.11098475431E+04  0.44476941547E+03  0.14650052921E+04  0.10100000352E+00 0. -1.
</event>
<event>
 5   0  0.3600963E-06  0.2830863E+04  0.7818609E-02  0.8293750E-01
       -1   -1    0    0    0  501  0.00000000000E+00  0.00000000000E+00  0.13103436246E+04  0.13103436246E+04  0.50400001928E-02 0. -1.
        1   -1    0    0  501    0  0.00000000000E+00  0.00000000000E+00 -0.15289476315E+04  0.15289476315E+04  0.50400001928E-02 0.  1.
    10030    2    1    2    0    0  0.00000000000E+00  0.00000000000E+00 -0.21860400693E+03  0.28392912561E+04  0.28308633180E+04 0.  0.
        5    1    3    3  502    0  0.12671963304E+04  0.37303238621E+03  0.40062581964E+03  0.13803850326E+04  0.46999998093E+01 0.  1.
       -5    1    3    3    0  502 -0.12671963304E+04 -0.37303238621E+03 -0.61922982656E+03  0.14589062235E+04  0.46999998093E+01 0. -1.
</event>
<event>
 5   0  0.9260173E-06  0.2967323E+04  0.7818609E-02  0.8253124E-01
        2   -1    0    0  501    0  0.00000000000E+00  0.00000000000E+00  0.17374132867E+04  0.17374132867E+04  0.25500000920E-02 0.  1.
       -2   -1    0    0    0  501  0.00000000000E+00  0.00000000000E+00 -0.12669707043E+04  0.12669707043E+04  0.25500000920E-02 0. -1.
    10030    2    1    2    0    0  0.00000000000E+00  0.00000000000E+00  0.47044258242E+03  0.30043839909E+04  0.29673231947E+04 0.  0.
        1    1    3    3  502    0  0.14937874556E+03  0.16832483095E+03  0.17200312118E+04  0.17346915080E+04  0.50400001928E-02 0.  1.
       -1    1    3    3    0  502 -0.14937874556E+03 -0.16832483095E+03 -0.12495886294E+04  0.12696924829E+04  0.50400001928E-02 0. -1.
</event>
<event>
 5   0  0.3600963E-06  0.2611645E+04  0.7818609E-02  0.8364256E-01
        1   -1    0    0  501    0  0.00000000000E+00  0.00000000000E+00  0.15242175241E+04  0.15242175241E+04  0.50400001928E-02 0.  1.
       -1   -1    0    0    0  501  0.00000000000E+00  0.00000000000E+00 -0.11187200499E+04  0.11187200499E+04  0.50400001928E-02 0. -1.
    10030    2    1    2    0    0  0.00000000000E+00  0.00000000000E+00  0.40549747419E+03  0.26429375740E+04  0.26116452321E+04 0.  0.
        5    1    3    3  502    0  0.65503189662E+03  0.11261830153E+04  0.11339787353E+03  0.13077599693E+04  0.46999998093E+01 0.  1.
       -5    1    3    3    0  502 -0.65503189662E+03 -0.11261830153E+04  0.29209960065E+03  0.13351776047E+04  0.46999998093E+01 0. -1.
</event>
<event>
 5   0  0.9065579E-06  0.2771380E+04  0.7818609E-02  0.8312209E-01
       -2   -1    0    0    0  501  0.00000000000E+00  0.00000000000E+00  0.13970579945E+04  0.13970579945E+04  0.25500000920E-02 0. -1.
        2   -1    0    0  501    0  0.00000000000E+00  0.00000000000E+00 -0.13744148911E+04  0.13744148911E+04  0.25500000920E-02 0.  1.
    10030    2    1    2    0    0  0.00000000000E+00  0.00000000000E+00  0.22643103417E+02  0.27714728856E+04  0.27713803863E+04 0.  0.
        3    1    3    3  502    0 -0.18106163957E+03 -0.84779866590E+03  0.10923716960E+04  0.13945686888E+04  0.10100000352E+00 0. -1.
       -3    1    3    3    0  502  0.18106163957E+03  0.84779866590E+03 -0.10697285926E+04  0.13769041968E+04  0.10100000352E+00 0.  1.
</event>
<event>
 5   0  0.9065579E-06  0.2803325E+04  0.7818609E-02  0.8302237E-01
       -2   -1    0    0    0  501  0.00000000000E+00  0.00000000000E+00  0.78882109108E+03  0.78882109109E+03  0.25500000920E-02 0. -1.
        2   -1    0    0  501    0  0.00000000000E+00  0.00000000000E+00 -0.24906252994E+04  0.24906252994E+04  0.25500000920E-02 0.  1.
    10030    2    1    2    0    0  0.00000000000E+00  0.00000000000E+00 -0.17018042083E+04  0.32794463905E+04  0.28033250016E+04 0.  0.
        3    1    3    3  502    0 -0.13786158327E+04 -0.18450444035E+03 -0.64816394237E+03  0.15345162134E+04  0.10100000352E+00 0. -1.
       -3    1    3    3    0  502  0.13786158327E+04  0.18450444035E+03 -0.10536402660E+04  0.17449301771E+04  0.10100000352E+00 0.  1.
</event>
<event>
 5   0  0.9342133E-06  0.2993328E+04  0.7818609E-02  0.8245639E-01
       -2   -1    0    0    0  501  0.00000000000E+00  0.00000000000E+00  0.24050277862E+04  0.24050277862E+04  0.25500000920E-02 0. -1.
        2   -1    0    0  501    0  0.00000000000E+00  0.00000000000E+00 -0.93138340624E+03  0.93138340624E+03  0.25500000920E-02 0.  1.
    10030    2    1    2    0    0  0.00000000000E+00  0.00000000000E+00  0.14736443799E+04  0.33364111924E+04  0.29933278949E+04 0.  0.
        2    1    3    3  502    0  0.12874704816E+04  0.23689480969E+02  0.15870496006E+04  0.20437386984E+04  0.25500000920E-02 0. -1.
       -2    1    3    3    0  502 -0.12874704816E+04 -0.23689480969E+02 -0.11340522071E+03  0.12926724940E+04  0.25500000920E-02 0.  1.
</event>
<event>
 5   0  0.3357244E-06  0.2825892E+04  0.7818609E-02  0.8295275E-01
       -1   -1    0    0    0  501  0.00000000000E+00  0.00000000000E+00  0.11958310426E+04  0.11958310426E+04  0.50400001928E-02 0. -1.
        1   -1    0    0  501    0  0.00000000000E+00  0.00000000000E+00 -0.16694802260E+04  0.16694802260E+04  0.50400001928E-02 0.  1.
    10030    2    1    2    0    0  0.00000000000E+00  0.00000000000E+00 -0.47364918344E+03  0.28653112686E+04  0.28258919153E+04 0.  0.
        4    1    3    3  502    0  0.42043728195E+03  0.68821416127E+03  0.93953514150E+03  0.12381979385E+04  0.12699999809E+01 0. -1.
       -4    1    3    3    0  502 -0.42043728195E+03 -0.68821416127E+03 -0.14131843249E+04  0.16271133301E+04  0.12699999809E+01 0.  1.
</event>
<event>
 5   0  0.9252359E-06  0.2823683E+04  0.7818609E-02  0.8295953E-01
       -2   -1    0    0    0  501  0.00000000000E+00  0.00000000000E+00  0.72973468118E+03  0.72973468118E+03  0.25500000920E-02 0.  1.
        2   -1    0    0  501    0  0.00000000000E+00  0.00000000000E+00 -0.27315359133E+04  0.27315359133E+04  0.25500000920E-02 0. -1.
    10030    2    1    2    0    0  0.00000000000E+00  0.00000000000E+00 -0.20018012321E+04  0.34612705945E+04  0.28236830479E+04 0.  0.
        5    1    3    3  502    0  0.16532895134E+03 -0.57058920493E+03  0.56906572903E+03  0.82265642700E+03  0.46999998093E+01 0.  1.
       -5    1    3    3    0  502 -0.16532895134E+03  0.57058920493E+03 -0.25708669611E+04  0.26386141675E+04  0.46999998093E+01 0. -1.
</event>
<event>
 5   0  0.9252359E-06  0.2811714E+04  0.7818609E-02  0.8299641E-01
        2   -1    0    0  501    0  0.00000000000E+00  0.00000000000E+00  0.16156430325E+04  0.16156430325E+04  0.25500000920E-02 0.  1.
       -2   -1    0    0    0  501  0.00000000000E+00  0.00000000000E+00 -0.12233113274E+04  0.12233113274E+04  0.25500000920E-02 0. -1.
    10030    2    1    2    0    0  0.00000000000E+00  0.00000000000E+00  0.39233170513E+03  0.28389543599E+04  0.28117143686E+04 0.  0.
        5    1    3    3  502    0  0.72172293824E+02 -0.70149071622E+03  0.14241367481E+04  0.15891776592E+04  0.46999998093E+01 0.  1.
       -5    1    3    3    0  502 -0.72172293824E+02  0.70149071622E+03 -0.10318050430E+04  0.12497767007E+04  0.46999998093E+01 0. -1.
</event>
<event>
 5   0  0.9260173E-06  0.2490648E+04  0.7818609E-02  0.8406325E-01
       -2   -1    0    0    0  501  0.00000000000E+00  0.00000000000E+00  0.67068178152E+03  0.67068178152E+03  0.25500000920E-02 0. -1.
        2   -1    0    0  501    0  0.00000000000E+00  0.00000000000E+00 -0.23123212060E+04  0.23123212060E+04  0.25500000920E-02 0.  1.
    10030    2    1    2    0    0  0.00000000000E+00  0.00000000000E+00 -0.16416394245E+04  0.29830029875E+04  0.24906478723E+04 0.  0.
        1    1    3    3  502    0 -0.45632477204E+03  0.46486593240E+03 -0.20919989074E+04  0.21910709850E+04  0.50400001928E-02 0.  1.
       -1    1    3    3    0  502  0.45632477204E+03 -0.46486593240E+03  0.45035948295E+03  0.79193200250E+03  0.50400001928E-02 0. -1.
</event>
<event>
 5   0  0.9426937E-06  0.2900333E+04  0.7818609E-02  0.8272778E-01
       -2   -1    0    0    0  501  0.00000000000E+00  0.00000000000E+00  0.15722820721E+04  0.15722820721E+04  0.25500000920E-02 0. -1.
        2   -1    0    0  501    0  0.00000000000E+00  0.00000000000E+00 -0.13375350838E+04  0.13375350838E+04  0.25500000920E-02 0.  1.
    10030    2    1    2    0    0  0.00000000000E+00  0.00000000000E+00  0.23474698832E+03  0.29098171559E+04  0.29003326934E+04 0.  0.
        4    1    3    3  502    0  0.18114801205E+03  0.64682094935E+03 -0.11720487281E+04  0.13508855528E+04  0.12699999809E+01 0.  1.
       -4    1    3    3    0  502 -0.18114801205E+03 -0.64682094935E+03  0.14067957164E+04  0.15589316032E+04  0.12699999809E+01 0. -1.
</event>
<event>
 5   0  0.3357244E-06  0.2777444E+04  0.7818609E-02  0.8310305E-01
       -1   -1    0    0    0  501  0.00000000000E+00  0.00000000000E+00  0.13418003251E+04  0.13418003251E+04  0.50400001928E-02 0.  1.
        1   -1    0    0  501    0  0.00000000000E+00  0.00000000000E+00 -0.14372844259E+04  0.14372844259E+04  0.50400001928E-02 0. -1.
    10030    2    1    2    0    0  0.00000000000E+00  0.00000000000E+00 -0.95484100770E+02  0.27790847510E+04  0.27774439400E+04 0.  0.
        4    1    3    3  502    0 -0.24112518485E+03  0.13462829338E+04 -0.28856660910E+03  0.13978166523E+04  0.12699999809E+01 0. -1.
       -4    1    3    3    0  502  0.24112518485E+03 -0.13462829338E+04  0.19308250833E+03  0.13812680987E+04  0.12699999809E+01 0.  1.
</event>
<event>
 5   0  0.3397882E-06  0.2817718E+04  0.7818609E-02  0.8297789E-01
        1   -1    0    0  501    0  0.00000000000E+00  0.00000000000E+00  0.21664182457E+04  0.21664182457E+04  0.50400001928E-02 0.  1.
       -1   -1    0    0    0  501  0.00000000000E+00  0.00000000000E+00 -0.91620492950E+03  0.91620492951E+03  0.50400001928E-02 0. -1.
    10030    2    1    2    0    0  0.00000000000E+00  0.00000000000E+00  0.12502133162E+04  0.30826231752E+04  0.28177175700E+04 0.  0.
        2    1    3    3  502    0  0.27308015688E+03  0.10910986280E+04 -0.30307535946E+03  0.11648706630E+04  0.25500000920E-02 0. -1.
       -2    1    3    3    0  502 -0.27308015688E+03 -0.10910986280E+04  0.15532886757E+04  0.19177525122E+04  0.25500000920E-02 0.  1.
</event>
<event>
 5   0  0.9252359E-06  0.2798040E+04  0.7818609E-02  0.8303877E-01
       -2   -1    0    0    0  501  0.00000000000E+00  0.00000000000E+00  0.99972291002E+03  0.99972291002E+03  0.25500000920E-02 0. -1.
        2   -1    0    0  501    0  0.00000000000E+00  0.00000000000E+00 -0.19577995810E+04  0.19577995810E+04  0.25500000920E-02 0.  1.
    10030    2    1    2    0    0  0.00000000000E+00  0.00000000000E+00 -0.95807667096E+03  0.29575224910E+04  0.27980400957E+04 0.  0.
        5    1    3    3  502    0 -0.81679827751E+03  0.67963999682E+02 -0.16774411219E+04  0.18669786658E+04  0.46999998093E+01 0.  1.
       -5    1    3    3    0  502  0.81679827751E+03 -0.67963999682E+02  0.71936445090E+03  0.10905438252E+04  0.46999998093E+01 0. -1.
</event>
<event>
 5   0  0.9065579E-06  0.2880559E+04  0.7818609E-02  0.8278685E-01
       -2   -1    0    0    0  501  0.00000000000E+00  0.00000000000E+00  0.11421687373E+04  0.11421687374E+04  0.25500000920E-02 0.  1.
        2   -1    0    0  501    0  0.00000000000E+00  0.00000000000E+00 -0.18161985761E+04  0.18161985761E+04  0.25500000920E-02 0. -1.
    10030    2    1    2    0    0  0.00000000000E+00  0.00000000000E+00 -0.67402983875E+03  0.29583673134E+04  0.28805591363E+04 0.  0.
        3    1    3    3  502    0  0.99744897296E+02  0.13916117010E+04  0.30237628514E+02  0.13955094035E+04  0.10100000352E+00 0.  1.
       -3    1    3    3    0  502 -0.99744897296E+02 -0.13916117010E+04 -0.70426746726E+03  0.15628579099E+04  0.10100000352E+00 0. -1.
</event>
<event>
 5   0  0.3397882E-06  0.2771902E+04  0.7818609E-02  0.8312045E-01
       -1   -1    0    0    0  501  0.00000000000E+00  0.00000000000E+00  0.11300199869E+04  0.11300199869E+04  0.50400001928E-02 0. -1.
        1   -1    0    0  501    0  0.00000000000E+00  0.00000000000E+00 -0.16998466375E+04  0.16998466375E+04  0.50400001928E-02 0.  1.
    10030    2    1    2    0    0  0.00000000000E+00  0.00000000000E+00 -0.56982665066E+03  0.28298666244E+04  0.27719023612E+04 0.  0.
        2    1    3    3  502    0 -0.34825148508E+03 -0.12844724592E+04  0.11010428770E+03  0.13353919086E+04  0.25500000920E-02 0. -1.
       -2    1    3    3    0  502  0.34825148508E+03  0.12844724592E+04 -0.67993093836E+03  0.14944747158E+04  0.25500000920E-02 0.  1.
</event>
<event>
 5   0  0.9426937E-06  0.2719751E+04  0.7818609E-02  0.8328625E-01
        2   -1    0    0  501    0  0.00000000000E+00  0.00000000000E+00  0.11649621274E+04  0.11649621274E+04  0.25500000920E-02 0.  1.
       -2   -1    0    0    0  501  0.00000000000E+00  0.00000000000E+00 -0.15874003848E+04  0.15874003848E+04  0.25500000920E-02 0. -1.
    10030    2    1    2    0    0  0.00000000000E+00  0.00000000000E+00 -0.42243825733E+03  0.27523625122E+04  0.27197509661E+04 0.  0.
        4    1    3    3  502    0  0.56731691250E+03  0.43918168499E+03  0.95785157196E+03  0.11967498813E+04  0.12699999809E+01 0.  1.
       -4    1    3    3    0  502 -0.56731691250E+03 -0.43918168499E+03 -0.13802898293E+04  0.15556126309E+04  0.12699999809E+01 0. -1.
</event>
<event>
 5   0  0.3357244E-06  0.2627388E+04  0.7818609E-02  0.8358957E-01
        1   -1    0    0  501    0  0.00000000000E+00  0.00000000000E+00  0.18976649602E+04  0.18976649603E+04  0.50400001928E-02 0.  1.
       -1   -1    0    0    0  501  0.00000000000E+00  0.00000000000E+00 -0.90942906340E+03  0.90942906342E+03  0.50400001928E-02 0. -1.
    10030    2    1    2    0    0  0.00000000000E+00  0.00000000000E+00  0.98823589684E+03  0.28070940237E+04  0.26273878035E+04 0.  0.
        4    1    3    3  502    0  0.10646984169E+04 -0.73887171017E+03  0.26428601776E+03  0.13226348079E+04  0.12699999809E+01 0. -1.
       -4    1    3    3    0  502 -0.10646984169E+04  0.73887171017E+03  0.72394987908E+03  0.14844592158E+04  0.12699999809E+01 0.  1.
</event>
<event>
 5   0  0.3438130E-06  0.2849661E+04  0.7818609E-02  0.8288014E-01
       -1   -1    0    0    0  501  0.00000000000E+00  0.00000000000E+00  0.12831860879E+04  0.12831860879E+04  0.50400001928E-02 0.  1.
        1   -1    0    0  501    0  0.00000000000E+00  0.00000000000E+00 -0.15821102407E+04  0.15821102407E+04  0.50400001928E-02 0. -1.
    10030    2    1    2    0    0  0.00000000000E+00  0.00000000000E+00 -0.29892415278E+03  0.28652963286E+04  0.28496609275E+04 0.  0.
        3    1    3    3  502    0  0.12332993026E+03  0.10680880257E+04  0.79061133480E+03  0.13345743124E+04  0.10100000352E+00 0.  1.
       -3    1    3    3    0  502 -0.12332993026E+03 -0.10680880257E+04 -0.10895354876E+04  0.15307220163E+04  0.10100000352E+00 0. -1.
</event>
<event>
 5   0  0.9065579E-06  0.2721105E+04  0.7818609E-02  0.8328189E-01
        2   -1    0    0  501    0  0.00000000000E+00  0.00000000000E+00  0.23313505582E+04  0.23313505582E+04  0.25500000920E-02 0. -1.
       -2   -1    0    0    0  501  0.00000000000E+00  0.00000000000E+00 -0.79400479409E+03  0.79400479409E+03  0.25500000920E-02 0.  1.
    10030    2    1    2    0    0  0.00000000000E+00  0.00000000000E+00  0.15373457641E+04  0.31253553523E+04  0.27211053048E+04 0.  0.
        3    1    3    3  502    0 -0.39394665994E+03 -0.11236609146E+04  0.15247154321E+04  0.19345710069E+04  0.10100000352E+00 0. -1.
       -3    1    3    3    0  502  0.39394665994E+03  0.11236609146E+04  0.12630332071E+02  0.11907843454E+04  0.10100000352E+00 0.  1.
</event>
<event>
 5   0  0.3397882E-06  0.2788411E+04  0.7818609E-02  0.8306875E-01
        1   -1    0    0  501    0  0.00000000000E+00  0.00000000000E+00  0.64730611988E+03  0.64730611990E+03  0.50400001928E-02 0.  1.
       -1   -1    0    0    0  501  0.00000000000E+00  0.00000000000E+00 -0.30029210892E+04  0.30029210892E+04  0.50400001928E-02 0. -1.
    10030    2    1    2    0    0  0.00000000000E+00  0.00000000000E+00 -0.23556149693E+04  0.36502272091E+04  0.27884111595E+04 0.  0.
        2    1    3    3  502    0  0.10401053727E+04 -0.89530721101E+03 -0.85604492188E+03  0.16174693495E+04  0.25500000920E-02 0.  1.
       -2    1    3    3    0  502 -0.10401053727E+04  0.89530721101E+03 -0.14995700475E+04  0.20327578596E+04  0.25500000920E-02 0. -1.
</event>
<event>
 5   0  0.9260173E-06  0.2821004E+04  0.7818609E-02  0.8296777E-01
       -2   -1    0    0    0  501  0.00000000000E+00  0.00000000000E+00  0.96664650333E+03  0.96664650334E+03  0.25500000920E-02 0.  1.
        2   -1    0    0  501    0  0.00000000000E+00  0.00000000000E+00 -0.20581624942E+04  0.20581624942E+04  0.25500000920E-02 0. -1.
    10030    2    1    2    0    0  0.00000000000E+00  0.00000000000E+00 -0.10915159909E+04  0.30248089976E+04  0.28210037776E+04 0.  0.
        1    1    3    3  502    0  0.13475663809E+04  0.91442312731E+02 -0.98159482774E+03  0.16696781885E+04  0.50400001928E-02 0.  1.
       -1    1    3    3    0  502 -0.13475663809E+04 -0.91442312731E+02 -0.10992116315E+03  0.13551308090E+04  0.50400001928E-02 0. -1.
</event>
<event>
 5   0  0.9065579E-06  0.2790824E+04  0.7818609E-02  0.8306123E-01
       -2   -1    0    0    0  501  0.00000000000E+00  0.00000000000E+00  0.64280756219E+03  0.64280756220E+03  0.25500000920E-02 0.  1.
        2   -1    0    0  501    0  0.00000000000E+00  0.00000000000E+00 -0.30291720913E+04  0.30291720913E+04  0.25500000920E-02 0. -1.
    10030    2    1    2    0    0  0.00000000000E+00  0.00000000000E+00 -0.23863645291E+04  0.36719796535E+04  0.27908240557E+04 0.  0.
        3    1    3    3  502    0  0.11669807297E+04  0.75355027904E+03 -0.13672009442E+04  0.19490819579E+04  0.10100000352E+00 0. -1.
       -3    1    3    3    0  502 -0.11669807297E+04 -0.75355027904E+03 -0.10191635850E+04  0.17228976957E+04  0.10100000352E+00 0.  1.
</event>
<event>
 5   0  0.3371603E-06  0.2834474E+04  0.7818609E-02  0.8292645E-01
        1   -1    0    0  501    0  0.00000000000E+00  0.00000000000E+00  0.19832196848E+04  0.19832196848E+04  0.50400001928E-02 0. -1.
       -1   -1    0    0    0  501  0.00000000000E+00  0.00000000000E+00 -0.10127775912E+04  0.10127775912E+04  0.50400001928E-02 0.  1.
    10030    2    1    2    0    0  0.00000000000E+00  0.00000000000E+00  0.97044209355E+03  0.29959972760E+04  0.28344738173E+04 0.  0.
        1    1    3    3  502    0  0.23127719654E+03 -0.13142527244E+04 -0.19273406230E+02  0.13345863889E+04  0.50400001928E-02 0.  1.
       -1    1    3    3    0  502 -0.23127719654E+03  0.13142527244E+04  0.98971549978E+03  0.16614108871E+04  0.50400001928E-02 0. -1.
</event>
<event>
 5   0  0.3371603E-06  0.2823752E+04  0.7818609E-02  0.8295932E-01
       -1   -1    0    0    0  501  0.00000000000E+00  0.00000000000E+00  0.12326957556E+04  0.12326957556E+04  0.50400001928E-02 0. -1.
        1   -1    0    0  501    0  0.00000000000E+00  0.00000000000E+00 -0.16171017251E+04  0.16171017251E+04  0.50400001928E-02 0.  1.
    10030    2    1    2    0    0  0.00000000000E+00  0.00000000000E+00 -0.38440596953E+03  0.28497974807E+04  0.28237524204E+04 0.  0.
        1    1    3    3  502    0 -0.14098338166E+04 -0.19892007553E+02 -0.26614092661E+03  0.14348721460E+04  0.50400001928E-02 0. -1.
       -1    1    3    3    0  502  0.14098338166E+04  0.19892007553E+02 -0.11826504292E+03  0.14149253347E+04  0.50400001928E-02 0.  1.
</event>
<event>
 5   0  0.9260173E-06  0.2867166E+04  0.7818609E-02  0.8282714E-01
       -2   -1    0    0    0  501  0.00000000000E+00  0.00000000000E+00  0.12570445190E+04  0.12570445190E+04  0.25500000920E-02 0. -1.
        2   -1    0    0  501    0  0.00000000000E+00  0.00000000000E+00 -0.16349142707E+04  0.16349142707E+04  0.25500000920E-02 0.  1.
    10030    2    1    2    0    0  0.00000000000E+00  0.00000000000E+00 -0.37786975176E+03  0.28919587897E+04  0.28671658640E+04 0.  0.
        1    1    3    3  502    0  0.84543014696E+03  0.78835136826E+03  0.66628256263E+03  0.13342347869E+04  0.50400001928E-02 0. -1.
       -1    1    3    3    0  502 -0.84543014696E+03 -0.78835136826E+03 -0.10441523144E+04  0.15577240028E+04  0.50400001928E-02 0.  1.
</event>
<event>
 5   0  0.3397882E-06  0.2839400E+04  0.7818609E-02  0.8291140E-01
       -1   -1    0    0    0  501  0.00000000000E+00  0.00000000000E+00  0.18992640528E+04  0.18992640528E+04  0.50400001928E-02 0.  1.
        1   -1    0    0  501    0  0.00000000000E+00  0.00000000000E+00 -0.10612256975E+04  0.10612256975E+04  0.50400001928E-02 0. -1.
    10030    2    1    2    0    0  0.00000000000E+00  0.00000000000E+00  0.83803835526E+03  0.29604897503E+04  0.28393998093E+04 0.  0.
        2    1    3    3  502    0  0.81395933476E+03 -0.50976966311E+03  0.15091471178E+04  0.17888320020E+04  0.25500000920E-02 0.  1.
       -2    1    3    3    0  502 -0.81395933476E+03  0.50976966311E+03 -0.67110876256E+03  0.11716577483E+04  0.25500000920E-02 0. -1.
</event>
<event>
 5   0  0.3371603E-06  0.2809102E+04  0.7818609E-02  0.8300448E-01
        1   -1    0    0  501    0  0.00000000000E+00  0.00000000000E+00  0.20534834148E+04  0.20534834148E+04  0.50400001928E-02 0.  1.
       -1   -1    0    0    0  501  0.00000000000E+00  0.00000000000E+00 -0.96069148891E+03  0.96069148892E+03  0.50400001928E-02 0. -1.
    10030    2    1    2    0    0  0.00000000000E+00  0.00000000000E+00  0.10927919259E+04  0.30141749037E+04  0.28091023756E+04 0.  0.
        1    1    3    3  502    0 -0.82554278435E+03 -0.10036131893E+04 -0.25428715413E+02  0.12997718808E+04  0.50400001928E-02 0. -1.
       -1    1    3    3    0  502  0.82554278435E+03  0.10036131893E+04  0.11182206413E+04  0.17144030229E+04  0.50400001928E-02 0.  1.
</event>
<event>
 5   0  0.9065579E-06  0.2786346E+04  0.7818609E-02  0.8307520E-01
       -2   -1    0    0    0  501  0.00000000000E+00  0.00000000000E+00  0.86434127893E+03  0.86434127893E+03  0.25500000920E-02 0. -1.
        2   -1    0    0  501    0  0.00000000000E+00  0.00000000000E+00 -0.22455616822E+04  0.22455616822E+04  0.25500000920E-02 0.  1.
    10030    2    1    2    0    0  0.00000000000E+00  0.00000000000E+00 -0.13812204033E+04  0.31099029611E+04  0.27863464654E+04 0.  0.
        3    1    3    3  502    0 -0.53805179843E+03 -0.12250257948E+04 -0.25726766527E+03  0.13624883844E+04  0.10100000352E+00 0. -1.
       -3    1    3    3    0  502  0.53805179843E+03  0.12250257948E+04 -0.11239527380E+04  0.17474145768E+04  0.10100000352E+00 0.  1.
</event>
<event>
 5   0  0.3357244E-06  0.2572056E+04  0.7818609E-02  0.8377756E-01
       -1   -1    0    0    0  501  0.00000000000E+00  0.00000000000E+00  0.12446208281E+04  0.12446208281E+04  0.50400001928E-02 0.  1.
        1   -1    0    0  501    0  0.00000000000E+00  0.00000000000E+00 -0.13288125315E+04  0.13288125315E+04  0.50400001928E-02 0. -1.
    10030    2    1    2    0    0  0.00000000000E+00  0.00000000000E+00 -0.84191703359E+02  0.25734333596E+04  0.25720557952E+04 0.  0.
        4    1    3    3  502    0  0.11631854869E+03 -0.30872228953E+03  0.12015609036E+04  0.12460295642E+04  0.12699999809E+01 0.  1.
       -4    1    3    3    0  502 -0.11631854869E+03  0.30872228953E+03 -0.12857526070E+04  0.13274037954E+04  0.12699999809E+01 0. -1.
</event>
<event>
 5   0  0.3371603E-06  0.2816451E+04  0.7818609E-02  0.8298179E-01
        1   -1    0    0  501    0  0.00000000000E+00  0.00000000000E+00  0.25064144958E+04  0.25064144958E+04  0.50400001928E-02 0.  1.
       -1   -1    0    0    0  501  0.00000000000E+00  0.00000000000E+00 -0.79120941842E+03  0.79120941843E+03  0.50400001928E-02 0. -1.
    10030    2    1    2    0    0  0.00000000000E+00  0.00000000000E+00  0.17152050774E+04  0.32976239142E+04  0.28164507846E+04 0.  0.
        1    1    3    3  502    0  0.15795955714E+03 -0.56100972371E+02 -0.77948673122E+03  0.79730678221E+03  0.50400001928E-02 0. -1.
       -1    1    3    3    0  502 -0.15795955714E+03  0.56100972371E+02  0.24946918086E+04  0.25003171320E+04  0.50400001928E-02 0.  1.
</event>
<event>
 5   0  0.3371603E-06  0.2675370E+04  0.7818609E-02  0.8343041E-01
       -1   -1    0    0    0  501  0.00000000000E+00  0.00000000000E+00  0.14779870670E+04  0.14779870670E+04  0.50400001928E-02 0. -1.
        1   -1    0    0  501    0  0.00000000000E+00  0.00000000000E+00 -0.12107015470E+04  0.12107015470E+04  0.50400001928E-02 0.  1.
    10030    2    1    2    0    0  0.00000000000E+00  0.00000000000E+00  0.26728552001E+03  0.26886886140E+04  0.26753700518E+04 0.  0.
        1    1    3    3  502    0  0.93330537784E+03 -0.95803539258E+03  0.11093632876E+03  0.13420870355E+04  0.50400001928E-02 0. -1.
       -1    1    3    3    0  502 -0.93330537784E+03  0.95803539258E+03  0.15634919126E+03  0.13466015786E+04  0.50400001928E-02 0.  1.
</event>
<event>
 5   0  0.9342133E-06  0.2843287E+04  0.7818609E-02  0.8289954E-01
       -2   -1    0    0    0  501  0.00000000000E+00  0.00000000000E+00  0.20103218901E+04  0.20103218901E+04  0.25500000920E-02 0. -1.
        2   -1    0    0  501    0  0.00000000000E+00  0.00000000000E+00 -0.10053465543E+04  0.10053465543E+04  0.25500000920E-02 0.  1.
    10030    2    1    2    0    0  0.00000000000E+00  0.00000000000E+00  0.10049753357E+04  0.30156684444E+04  0.28432869608E+04 0.  0.
        2    1    3    3  502    0 -0.99704465505E+03 -0.43705673599E+03 -0.46724934402E+03  0.11846681325E+04  0.25500000920E-02 0.  1.
       -2    1    3    3    0  502  0.99704465505E+03  0.43705673599E+03  0.14722246797E+04  0.18310003119E+04  0.25500000920E-02 0. -1.
</event>
<event>
 5   0  0.9426937E-06  0.2396064E+04  0.7818609E-02  0.8440979E-01
       -2   -1    0    0    0  501  0.00000000000E+00  0.00000000000E+00  0.86689167393E+03  0.86689167393E+03  0.25500000920E-02 0.  1.
        2   -1    0    0  501    0  0.00000000000E+00  0.00000000000E+00 -0.16556626852E+04  0.16556626852E+04  0.25500000920E-02 0. -1.
    10030    2    1    2    0    0  0.00000000000E+00  0.00000000000E+00 -0.78877101131E+03  0.25225543592E+04  0.23960636024E+04 0.  0.
        4    1    3    3  502    0 -0.70167576920E+03 -0.82208887155E+03 -0.93848559738E+03  0.14314104328E+04  0.12699999809E+01 0. -1.
       -4    1    3    3    0  502  0.70167576920E+03  0.82208887155E+03  0.14971458607E+03  0.10911439263E+04  0.12699999809E+01 0.  1.
</event>
<event>
 5   0  0.9065579E-06  0.2805966E+04  0.7818609E-02  0.8301418E-01
        2   -1    0    0  501    0  0.00000000000E+00  0.00000000000E+00  0.17292302641E+04  0.17292302641E+04  0.25500000920E-02 0. -1.
       -2   -1    0    0    0  501  0.00000000000E+00  0.00000000000E+00 -0.11382879280E+04  0.11382879280E+04  0.25500000920E-02 0.  1.
    10030    2    1    2    0    0  0.00000000000E+00  0.00000000000E+00  0.59094233619E+03  0.28675181921E+04  0.28059664534E+04 0.  0.
        3    1    3    3  502    0  0.46804703958E+03  0.11697819245E+04 -0.33524150134E+03  0.13037809082E+04  0.10100000352E+00 0. -1.
       -3    1    3    3    0  502 -0.46804703958E+03 -0.11697819245E+04  0.92618383753E+03  0.15637372839E+04  0.10100000352E+00 0.  1.
</event>
<event>
 5   0  0.3438130E-06  0.2821774E+04  0.7818609E-02  0.8296540E-01
       -1   -1    0    0    0  501  0.00000000000E+00  0.00000000000E+00  0.74923729961E+03  0.74923729962E+03  0.50400001928E-02 0. -1.
        1   -1    0    0  501    0  0.00000000000E+00  0.00000000000E+00 -0.26568383751E+04  0.26568383751E+04  0.50400001928E-02 0.  1.
    10030    2    1    2    0    0  0.00000000000E+00  0.00000000000E+00 -0.19076010755E+04  0.34060756747E+04  0.28217742005E+04 0.  0.
        3    1    3    3  502    0 -0.10194225292E+04 -0.17513153339E+03  0.20442527848E+03  0.10543638137E+04  0.10100000352E+00 0. -1.
       -3    1    3    3    0  502  0.10194225292E+04  0.17513153339E+03 -0.21120263539E+04  0.23517118610E+04  0.10100000352E+00 0.  1.
</event>
<event>
 5   0  0.9252359E-06  0.2803648E+04  0.7818609E-02  0.8302137E-01
        2   -1    0    0  501    0  0.00000000000E+00  0.00000000000E+00  0.22931873784E+04  0.22931873784E+04  0.25500000920E-02 0.  1.
       -2   -1    0    0    0  501  0.00000000000E+00  0.00000000000E+00 -0.85693425924E+03  0.85693425924E+03  0.25500000920E-02 0. -1.
    10030    2    1    2    0    0  0.00000000000E+00  0.00000000000E+00  0.14362531192E+04  0.31501216377E+04  0.28036482143E+04 0.  0.
        5    1    3    3  502    0  0.56639884877E+02  0.31425630121E+03  0.22517708489E+04  0.22743041014E+04  0.46999998093E+01 0.  1.
       -5    1    3    3    0  502 -0.56639884877E+02 -0.31425630121E+03 -0.81551772973E+03  0.87581753631E+03  0.46999998093E+01 0. -1.
</event>
<event>
 5   0  0.9342133E-06  0.2773104E+04  0.7818609E-02  0.8311667E-01
       -2   -1    0    0    0  501  0.00000000000E+00  0.00000000000E+00  0.87876412804E+03  0.87876412804E+03  0.25500000920E-02 0. -1.
        2   -1    0    0  501    0  0.00000000000E+00  0.00000000000E+00 -0.21877618414E+04  0.21877618414E+04  0.25500000920E-02 0.  1.
    10030    2    1    2    0    0  0.00000000000E+00  0.00000000000E+00 -0.13089977134E+04  0.30665259695E+04  0.27731041285E+04 0.  0.
        2    1    3    3  502    0 -0.13277557895E+02  0.77228249027E+03 -0.19278283032E+04  0.20768048789E+04  0.25500000920E-02 0.  1.
       -2    1    3    3    0  502  0.13277557895E+02 -0.77228249027E+03  0.61883058979E+03  0.98972109061E+03  0.25500000920E-02 0. -1.
</event>
<event>
 5   0  0.3438130E-06  0.2571039E+04  0.7818609E-02  0.8378106E-01
       -1   -1    0    0    0  501  0.00000000000E+00  0.00000000000E+00  0.15004027143E+04  0.15004027143E+04  0.50400001928E-02 0.  1.
        1   -1    0    0  501    0  0.00000000000E+00  0.00000000000E+00 -0.11014113711E+04  0.11014113711E+04  0.50400001928E-02 0. -1.
    10030    2    1    2    0    0  0.00000000000E+00  0.00000000000E+00  0.39899134326E+03  0.26018140854E+04  0.25710391757E+04 0.  0.
        3    1    3    3  502    0 -0.95193490746E+03  0.40050323775E+03  0.97415027619E+03  0.14197012652E+04  0.10100000352E+00 0.  1.
       -3    1    3    3    0  502  0.95193490746E+03 -0.40050323775E+03 -0.57515893292E+03  0.11821128203E+04  0.10100000352E+00 0. -1.
</event>
<event>
 5   0  0.9252359E-06  0.2674424E+04  0.7818609E-02  0.8343352E-01
        2   -1    0    0  501    0  0.00000000000E+00  0.00000000000E+00  0.17953800809E+04  0.17953800809E+04  0.25500000920E-02 0.  1.
       -2   -1    0    0    0  501  0.00000000000E+00  0.00000000000E+00 -0.99596497767E+03  0.99596497767E+03  0.25500000920E-02 0. -1.
    10030    2    1    2    0    0  0.00000000000E+00  0.00000000000E+00  0.79941510321E+03  0.27913450586E+04  0.26744238125E+04 0.  0.
        5    1    3    3  502    0  0.55501694320E+03 -0.21645274334E+03 -0.84980154392E+03  0.10378248173E+04  0.46999998093E+01 0. -1.
       -5    1    3    3    0  502 -0.55501694320E+03  0.21645274334E+03  0.16492166471E+04  0.17535202413E+04  0.46999998093E+01 0.  1.
</event>
<event>
 5   0  0.3006875E-06  0.2812846E+04  0.7818609E-02  0.8299291E-01
        3   -1    0    0  501    0  0.00000000000E+00  0.00000000000E+00  0.11003165425E+04  0.11003165471E+04  0.10100000352E+00 0.  1.
       -3   -1    0    0    0  501  0.00000000000E+00  0.00000000000E+00 -0.17976879532E+04  0.17976879560E+04  0.10100000352E+00 0. -1.
    10030    2    1    2    0    0  0.00000000000E+00  0.00000000000E+00 -0.69737141067E+03  0.28980045031E+04  0.28128461060E+04 0.  0.
        3    1    3    3  502    0  0.35577292643E+03  0.37609316163E+03  0.99857554473E+03  0.11247993466E+04  0.10100000352E+00 0.  1.
       -3    1    3    3    0  502 -0.35577292643E+03 -0.37609316163E+03 -0.16959469554E+04  0.17732051565E+04  0.10100000352E+00 0. -1.
</event>
<event>
 5   0  0.9252359E-06  0.2734473E+04  0.7818609E-02  0.8323905E-01
       -2   -1    0    0    0  501  0.00000000000E+00  0.00000000000E+00  0.14804492496E+04  0.14804492496E+04  0.25500000920E-02 0. -1.
        2   -1    0    0  501    0  0.00000000000E+00  0.00000000000E+00 -0.12626817929E+04  0.12626817930E+04  0.25500000920E-02 0.  1.
    10030    2    1    2    0    0  0.00000000000E+00  0.00000000000E+00  0.21776745667E+03  0.27431310426E+04  0.27344734871E+04 0.  0.
        5    1    3    3  502    0 -0.95829419215E+02 -0.27700060326E+03  0.14485524426E+04  0.14779170751E+04  0.46999998093E+01 0. -1.
       -5    1    3    3    0  502  0.95829419215E+02  0.27700060326E+03 -0.12307849860E+04  0.12652139675E+04  0.46999998093E+01 0.  1.
</event>
<event>
 5   0  0.9260173E-06  0.2794199E+04  0.7818609E-02  0.8305072E-01
        2   -1    0    0  501    0  0.00000000000E+00  0.00000000000E+00  0.19621773585E+04  0.19621773585E+04  0.25500000920E-02 0. -1.
       -2   -1    0    0    0  501  0.00000000000E+00  0.00000000000E+00 -0.99475581648E+03  0.99475581648E+03  0.25500000920E-02 0.  1.
    10030    2    1    2    0    0  0.00000000000E+00  0.00000000000E+00  0.96742154207E+03  0.29569331750E+04  0.27941992344E+04 0.  0.
        1    1    3    3  502    0  0.53514160129E+03 -0.73770407840E+03 -0.63687661454E+03  0.11118433626E+04  0.50400001928E-02 0.  1.
       -1    1    3    3    0  502 -0.53514160129E+03  0.73770407840E+03  0.16042981566E+04  0.18450898125E+04  0.50400001928E-02 0. -1.
</event>
<event>
 5   0  0.9426937E-06  0.2795591E+04  0.7818609E-02  0.8304639E-01
       -2   -1    0    0    0  501  0.00000000000E+00  0.00000000000E+00  0.14264295563E+04  0.14264295563E+04  0.25500000920E-02 0. -1.
        2   -1    0    0  501    0  0.00000000000E+00  0.00000000000E+00 -0.13697361400E+04  0.13697361400E+04  0.25500000920E-02 0.  1.
    10030    2    1    2    0    0  0.00000000000E+00  0.00000000000E+00  0.56693416353E+02  0.27961656963E+04  0.27955908960E+04 0.  0.
        4    1    3    3  502    0 -0.60521182830E+03 -0.48824320906E+03  0.11901223207E+04  0.14216383294E+04  0.12699999809E+01 0. -1.
       -4    1    3    3    0  502  0.60521182830E+03  0.48824320906E+03 -0.11334289044E+04  0.13745273669E+04  0.12699999809E+01 0.  1.
</event>
<event>
 5   0  0.3438130E-06  0.2759175E+04  0.7818609E-02  0.8316056E-01
        1   -1    0    0  501    0  0.00000000000E+00  0.00000000000E+00  0.24023531522E+04  0.24023531522E+04  0.50400001928E-02 0.  1.
       -1   -1    0    0    0  501  0.00000000000E+00  0.00000000000E+00 -0.79224893530E+03  0.79224893532E+03  0.50400001928E-02 0. -1.
    10030    2    1    2    0    0  0.00000000000E+00  0.00000000000E+00  0.16101042169E+04  0.31946020875E+04  0.27591750412E+04 0.  0.
        3    1    3    3  502    0 -0.47959976587E+03  0.55727391791E+03 -0.54651091469E+03  0.91610280269E+03  0.10100000352E+00 0. -1.
       -3    1    3    3    0  502  0.47959976587E+03 -0.55727391791E+03  0.21566151315E+04  0.22784992848E+04  0.10100000352E+00 0.  1.
</event>
<event>
 5   0  0.3357244E-06  0.2797162E+04  0.7818609E-02  0.8304150E-01
       -1   -1    0    0    0  501  0.00000000000E+00  0.00000000000E+00  0.88071561066E+03  0.88071561067E+03  0.50400001928E-02 0.  1.
        1   -1    0    0  501    0  0.00000000000E+00  0.00000000000E+00 -0.22209540777E+04  0.22209540777E+04  0.50400001928E-02 0. -1.
    10030    2    1    2    0    0  0.00000000000E+00  0.00000000000E+00 -0.13402384670E+04  0.31016696884E+04  0.27971620810E+04 0.  0.
        4    1    3    3  502    0  0.61792160385E+03  0.97915437580E+02 -0.20571348449E+04  0.21501674178E+04  0.12699999809E+01 0. -1.
       -4    1    3    3    0  502 -0.61792160385E+03 -0.97915437580E+02  0.71689637788E+03  0.95150227059E+03  0.12699999809E+01 0.  1.
</event>
<event>
 5   0  0.9260173E-06  0.2624148E+04  0.7818609E-02  0.8360045E-01
        2   -1    0    0  501    0  0.00000000000E+00  0.00000000000E+00  0.22313603023E+04  0.22313603023E+04  0.25500000920E-02 0. -1.
       -2   -1    0    0    0  501  0.00000000000E+00  0.00000000000E+00 -0.77151964587E+03  0.77151964588E+03  0.25500000920E-02 0.  1.
    10030    2    1    2    0    0  0.00000000000E+00  0.00000000000E+00  0.14598406564E+04  0.30028799482E+04  0.26241480981E+04 0.  0.
        1    1    3    3  502    0  0.25005735213E+03  0.10873682722E+04  0.15199525650E+04  0.18855116650E+04  0.50400001928E-02 0. -1.
       -1    1    3    3    0  502 -0.25005735213E+03 -0.10873682722E+04 -0.60111908619E+02  0.11173682832E+04  0.50400001928E-02 0.  1.
</event>
<event>
 5   0  0.3371603E-06  0.2807304E+04  0.7818609E-02  0.8301004E-01
        1   -1    0    0  501    0  0.00000000000E+00  0.00000000000E+00  0.15397781226E+04  0.15397781226E+04  0.50400001928E-02 0. -1.
       -1   -1    0    0    0  501  0.00000000000E+00  0.00000000000E+00 -0.12795600665E+04  0.12795600666E+04  0.50400001928E-02 0.  1.
    10030    2    1    2    0    0  0.00000000000E+00  0.00000000000E+00  0.26021805609E+03  0.28193381892E+04  0.28073037578E+04 0.  0.
        1    1    3    3  502    0  0.70793581713E+03 -0.35294161088E+03 -0.10343864278E+04  0.13021889970E+04  0.50400001928E-02 0.  1.
       -1    1    3    3    0  502 -0.70793581713E+03  0.35294161088E+03  0.12946044838E+04  0.15171491922E+04  0.50400001928E-02 0. -1.
</event>
<event>
 5   0  0.9426937E-06  0.2798097E+04  0.7818609E-02  0.8303859E-01
       -2   -1    0    0    0  501  0.00000000000E+00  0.00000000000E+00  0.77107481897E+03  0.77107481897E+03  0.25500000920E-02 0.  1.
        2   -1    0    0  501    0  0.00000000000E+00  0.00000000000E+00 -0.25384519504E+04  0.25384519504E+04  0.25500000920E-02 0. -1.
    10030    2    1    2    0    0  0.00000000000E+00  0.00000000000E+00 -0.17673771314E+04  0.33095267693E+04  0.27980967661E+04 0.  0.
        4    1    3    3  502    0  0.41723594748E+03  0.13170454139E+04 -0.11445448610E+04  0.17940677273E+04  0.12699999809E+01 0. -1.
       -4    1    3    3    0  502 -0.41723594748E+03 -0.13170454139E+04 -0.62283227037E+03  0.15154590421E+04  0.12699999809E+01 0.  1.
</event>
<event>
 5   0  0.9252359E-06  0.2801460E+04  0.7818609E-02  0.8302815E-01
        2   -1    0    0  501    0  0.00000000000E+00  0.00000000000E+00  0.21154918283E+04  0.21154918283E+04  0.25500000920E-02 0.  1.
       -2   -1    0    0    0  501  0.00000000000E+00  0.00000000000E+00 -0.92746525801E+03  0.92746525801E+03  0.25500000920E-02 0. -1.
    10030    2    1    2    0    0  0.00000000000E+00  0.00000000000E+00  0.11880265703E+04  0.30429570863E+04  0.28014604579E+04 0.  0.
        5    1    3    3  502    0 -0.41474476712E+03 -0.26566769700E+03 -0.83029384580E+03  0.96540276955E+03  0.46999998093E+01 0. -1.
       -5    1    3    3    0  502  0.41474476712E+03  0.26566769700E+03  0.20183204161E+04  0.20775543168E+04  0.46999998093E+01 0.  1.
</event>
<event>
 5   0  0.3006875E-06  0.2835678E+04  0.7818609E-02  0.8292277E-01
       -4   -1    0    0    0  501  0.00000000000E+00  0.00000000000E+00  0.97955595509E+03  0.97955677837E+03  0.12699999809E+01 0.  1.
        4   -1    0    0  501    0  0.00000000000E+00  0.00000000000E+00 -0.20522206957E+04  0.20522210887E+04  0.12699999809E+01 0. -1.
    10030    2    1    2    0    0  0.00000000000E+00  0.00000000000E+00 -0.10726647406E+04  0.30317778671E+04  0.28356775891E+04 0.  0.
        4    1    3    3  502    0 -0.60871122128E+03 -0.88218435966E+03 -0.15286822021E+04  0.18669894170E+04  0.12699999809E+01 0. -1.
       -4    1    3    3    0  502  0.60871122128E+03  0.88218435966E+03  0.45601746145E+03  0.11647884501E+04  0.12699999809E+01 0.  1.
</event>
<event>
 5   0  0.3357244E-06  0.2781670E+04  0.7818609E-02  0.8308982E-01
        1   -1    0    0  501    0  0.00000000000E+00  0.00000000000E+00  0.12777432773E+04  0.12777432773E+04  0.50400001928E-02 0. -1.
       -1   -1    0    0    0  501  0.00000000000E+00  0.00000000000E+00 -0.15139361620E+04  0.15139361620E+04  0.50400001928E-02 0.  1.
    10030    2    1    2    0    0  0.00000000000E+00  0.00000000000E+00 -0.23619288465E+03  0.27916794393E+04  0.27816698246E+04 0.  0.
        4    1    3    3  502    0  0.13253796385E+04 -0.18267922342E+03 -0.49948662739E+03  0.14281076250E+04  0.12699999809E+01 0.  1.
       -4    1    3    3    0  502 -0.13253796385E+04  0.18267922342E+03  0.26329374273E+03  0.13635718143E+04  0.12699999809E+01 0. -1.
</event>
<event>
 5   0  0.3357244E-06  0.2804856E+04  0.7818609E-02  0.8301762E-01
       -1   -1    0    0    0  501  0.00000000000E+00  0.00000000000E+00  0.73973625170E+03  0.73973625172E+03  0.50400001928E-02 0.  1.
        1   -1    0    0  501    0  0.00000000000E+00  0.00000000000E+00 -0.26587916241E+04  0.26587916241E+04  0.50400001928E-02 0. -1.
    10030    2    1    2    0    0  0.00000000000E+00  0.00000000000E+00 -0.19190553724E+04  0.33985278758E+04  0.28048561818E+04 0.  0.
        4    1    3    3  502    0 -0.65310786091E+03  0.43861468082E+03 -0.23662367245E+04  0.24935939055E+04  0.12699999809E+01 0. -1.
       -4    1    3    3    0  502  0.65310786091E+03 -0.43861468082E+03  0.44718135206E+03  0.90493397038E+03  0.12699999809E+01 0.  1.
</event>
<event>
 5   0  0.3371603E-06  0.2782196E+04  0.7818609E-02  0.8308817E-01
        1   -1    0    0  501    0  0.00000000000E+00  0.00000000000E+00  0.18437271344E+04  0.18437271344E+04  0.50400001928E-02 0. -1.
       -1   -1    0    0    0  501  0.00000000000E+00  0.00000000000E+00 -0.10495877047E+04  0.10495877048E+04  0.50400001928E-02 0.  1.
    10030    2    1    2    0    0  0.00000000000E+00  0.00000000000E+00  0.79413942964E+03  0.28933148391E+04  0.27821957740E+04 0.  0.
        1    1    3    3  502    0  0.57911008290E+03  0.27212164722E+03 -0.88746993099E+03  0.10940848036E+04  0.50400001928E-02 0.  1.
       -1    1    3    3    0  502 -0.57911008290E+03 -0.27212164722E+03  0.16816093606E+04  0.17992300355E+04  0.50400001928E-02 0. -1.
</event>
<event>
 5   0  0.3006875E-06  0.2369992E+04  0.7818609E-02  0.8450824E-01
       -4   -1    0    0    0  501  0.00000000000E+00  0.00000000000E+00  0.11680007748E+04  0.11680014652E+04  0.12699999809E+01 0.  1.
        4   -1    0    0  501    0  0.00000000000E+00  0.00000000000E+00 -0.12022373572E+04  0.12022380280E+04  0.12699999809E+01 0. -1.
    10030    2    1    2    0    0  0.00000000000E+00  0.00000000000E+00 -0.34236582427E+02  0.23702394933E+04  0.23699922177E+04 0.  0.
        1    1    3    3  502    0 -0.56812385169E+03  0.68891439182E+03  0.76196749780E+03  0.11738663543E+04  0.50400001928E-02 0. -1.
       -1    1    3    3    0  502  0.56812385169E+03 -0.68891439182E+03 -0.79620408023E+03  0.11963731389E+04  0.50400001928E-02 0.  1.
</event>
<event>
 5   0  0.9260173E-06  0.2773548E+04  0.7818609E-02  0.8311528E-01
        2   -1    0    0  501    0  0.00000000000E+00  0.00000000000E+00  0.14152222590E+04  0.14152222590E+04  0.25500000920E-02 0.  1.
       -2   -1    0    0    0  501  0.00000000000E+00  0.00000000000E+00 -0.13588971498E+04  0.13588971498E+04  0.25500000920E-02 0. -1.
    10030    2    1    2    0    0  0.00000000000E+00  0.00000000000E+00  0.56325109158E+02  0.27741194088E+04  0.27735475436E+04 0.  0.
        1    1    3    3  502    0  0.11935509115E+04  0.51362343719E+03 -0.45646668756E+03  0.13772198991E+04  0.50400001928E-02 0. -1.
       -1    1    3    3    0  502 -0.11935509115E+04 -0.51362343719E+03  0.51279179672E+03  0.13968995098E+04  0.50400001928E-02 0.  1.
</event>
<event>
 5   0  0.9260173E-06  0.2810497E+04  0.7818609E-02  0.8300017E-01
       -2   -1    0    0    0  501  0.00000000000E+00  0.00000000000E+00  0.13375028639E+04  0.13375028639E+04  0.25500000920E-02 0. -1.
        2   -1    0    0  501    0  0.00000000000E+00  0.00000000000E+00 -0.14764255274E+04  0.14764255274E+04  0.25500000920E-02 0.  1.
    10030    2    1    2    0    0  0.00000000000E+00  0.00000000000E+00 -0.13892266347E+03  0.28139283914E+04  0.28104970175E+04 0.  0.
        1    1    3    3  502    0 -0.45547813295E+03  0.10127894973E+04 -0.93162851161E+03  0.14495290887E+04  0.50400001928E-02 0.  1.
       -1    1    3    3    0  502  0.45547813295E+03 -0.10127894973E+04  0.79270584814E+03  0.13643993027E+04  0.50400001928E-02 0. -1.
</event>
<event>
 5   0  0.9260173E-06  0.2793490E+04  0.7818609E-02  0.8305292E-01
       -2   -1    0    0    0  501  0.00000000000E+00  0.00000000000E+00  0.17995039965E+04  0.17995039965E+04  0.25500000920E-02 0. -1.
        2   -1    0    0  501    0  0.00000000000E+00  0.00000000000E+00 -0.10841304742E+04  0.10841304742E+04  0.25500000920E-02 0.  1.
    10030    2    1    2    0    0  0.00000000000E+00  0.00000000000E+00  0.71537352236E+03  0.28836344707E+04  0.27934903766E+04 0.  0.
        1    1    3    3  502    0 -0.76415211429E+03  0.82853829273E+03  0.12092263600E+04  0.16530676169E+04  0.50400001928E-02 0. -1.
       -1    1    3    3    0  502  0.76415211429E+03 -0.82853829273E+03 -0.49385283769E+03  0.12305668538E+04  0.50400001928E-02 0.  1.
</event>
<event>
 5   0  0.3397882E-06  0.2812777E+04  0.7818609E-02  0.8299312E-01
        1   -1    0    0  501    0  0.00000000000E+00  0.00000000000E+00  0.16621577005E+04  0.16621577005E+04  0.50400001928E-02 0.  1.
       -1   -1    0    0    0  501  0.00000000000E+00  0.00000000000E+00 -0.11899768834E+04  0.11899768834E+04  0.50400001928E-02 0. -1.
    10030    2    1    2    0    0  0.00000000000E+00  0.00000000000E+00  0.47218081711E+03  0.28521345840E+04  0.28127774460E+04 0.  0.
        2    1    3    3  502    0 -0.86991330583E+03 -0.10893553891E+04  0.47790878829E+02  0.13948936488E+04  0.25500000920E-02 0. -1.
       -2    1    3    3    0  502  0.86991330583E+03  0.10893553891E+04  0.42438993828E+03  0.14572409352E+04  0.25500000920E-02 0.  1.
</event>
<event>
 5   0  0.3600963E-06  0.2786655E+04  0.7818609E-02  0.8307424E-01
        1   -1    0    0  501    0  0.00000000000E+00  0.00000000000E+00  0.12963902404E+04  0.12963902404E+04  0.50400001928E-02 0. -1.
       -1   -1    0    0    0  501  0.00000000000E+00  0.00000000000E+00 -0.14975129256E+04  0.14975129256E+04  0.50400001928E-02 0.  1.
    10030    2    1    2    0    0  0.00000000000E+00  0.00000000000E+00 -0.20112268517E+03  0.27939031660E+04  0.27866547268E+04 0.  0.
        5    1    3    3  502    0  0.87467306354E+03 -0.74669279883E+03 -0.88920508594E+03  0.14537231094E+04  0.46999998093E+01 0.  1.
       -5    1    3    3    0  502 -0.87467306354E+03  0.74669279883E+03  0.68808240078E+03  0.13401800566E+04  0.46999998093E+01 0. -1.
</event>
<event>
 5   0  0.9252359E-06  0.2987982E+04  0.7818609E-02  0.8247171E-01
       -2   -1    0    0    0  501  0.00000000000E+00  0.00000000000E+00  0.83072807721E+03  0.83072807722E+03  0.25500000920E-02 0.  1.
        2   -1    0    0  501    0  0.00000000000E+00  0.00000000000E+00 -0.26868112634E+04  0.26868112634E+04  0.25500000920E-02 0. -1.
    10030    2    1    2    0    0  0.00000000000E+00  0.00000000000E+00 -0.18560831861E+04  0.35175393406E+04  0.29879822989E+04 0.  0.
        5    1    3    3  502    0 -0.34970391554E+03 -0.74464422760E+03 -0.23961360955E+04  0.25334320857E+04  0.46999998093E+01 0. -1.
       -5    1    3    3    0  502  0.34970391554E+03  0.74464422760E+03  0.54005290940E+03  0.98410725492E+03  0.46999998093E+01 0.  1.
</event>
<event>
 5   0  0.3357244E-06  0.2701706E+04  0.7818609E-02  0.8334452E-01
       -1   -1    0    0    0  501  0.00000000000E+00  0.00000000000E+00  0.23214226197E+04  0.23214226197E+04  0.50400001928E-02 0. -1.
        1   -1    0    0  501    0  0.00000000000E+00  0.00000000000E+00 -0.78607161519E+03  0.78607161520E+03  0.50400001928E-02 0.  1.
    10030    2    1    2    0    0  0.00000000000E+00  0.00000000000E+00  0.15353510045E+04  0.31074942349E+04  0.27017064446E+04 0.  0.
        4    1    3    3  502    0  0.13139619550E+03  0.18603661577E+03  0.22991781459E+04  0.23104320683E+04  0.12699999809E+01 0. -1.
       -4    1    3    3    0  502 -0.13139619550E+03 -0.18603661577E+03 -0.76382714141E+03  0.79706216662E+03  0.12699999809E+01 0.  1.
</event>
<event>
 5   0  0.9342133E-06  0.2732655E+04  0.7818609E-02  0.8324487E-01
        2   -1    0    0  501    0  0.00000000000E+00  0.00000000000E+00  0.15044116096E+04  0.15044116096E+04  0.25500000920E-02 0.  1.
       -2   -1    0    0    0  501  0.00000000000E+00  0.00000000000E+00 -0.12409178073E+04  0.12409178073E+04  0.25500000920E-02 0. -1.
    10030    2    1    2    0    0  0.00000000000E+00  0.00000000000E+00  0.26349380227E+03  0.27453294168E+04  0.27326552331E+04 0.  0.
        2    1    3    3  502    0  0.81060753354E+03  0.19683513232E+03  0.12189038441E+04  0.14770088774E+04  0.25500000920E-02 0.  1.
       -2    1    3    3    0  502 -0.81060753354E+03 -0.19683513232E+03 -0.95541004183E+03  0.12683205394E+04  0.25500000920E-02 0. -1.
</event>
<event>
 5   0  0.3371603E-06  0.2790312E+04  0.7818609E-02  0.8306282E-01
        1   -1    0    0  501    0  0.00000000000E+00  0.00000000000E+00  0.15854875234E+04  0.15854875234E+04  0.50400001928E-02 0. -1.
       -1   -1    0    0    0  501  0.00000000000E+00  0.00000000000E+00 -0.12276731695E+04  0.12276731695E+04  0.50400001928E-02 0.  1.
    10030    2    1    2    0    0  0.00000000000E+00  0.00000000000E+00  0.35781435389E+03  0.28131606929E+04  0.27903121639E+04 0.  0.
        1    1    3    3  502    0  0.82895672818E+03 -0.90095613932E+03  0.85339152937E+03  0.14923700361E+04  0.50400001928E-02 0. -1.
       -1    1    3    3    0  502 -0.82895672818E+03  0.90095613932E+03 -0.49557717548E+03  0.13207906568E+04  0.50400001928E-02 0.  1.
</event>
<event>
 5   0  0.9065579E-06  0.2779917E+04  0.7818609E-02  0.8309531E-01
       -2   -1    0    0    0  501  0.00000000000E+00  0.00000000000E+00  0.11501262739E+04  0.11501262739E+04  0.25500000920E-02 0.  1.
        2   -1    0    0  501    0  0.00000000000E+00  0.00000000000E+00 -0.16798019216E+04  0.16798019217E+04  0.25500000920E-02 0. -1.
    10030    2    1    2    0    0  0.00000000000E+00  0.00000000000E+00 -0.52967564773E+03  0.28299281956E+04  0.27799167794E+04 0.  0.
        3    1    3    3  502    0 -0.34469607524E+03  0.27349294220E+02 -0.16353192617E+04  0.16714761338E+04  0.10100000352E+00 0. -1.
       -3    1    3    3    0  502  0.34469607524E+03 -0.27349294220E+02  0.11056436139E+04  0.11584520618E+04  0.10100000352E+00 0.  1.
</event>
<event>
 5   0  0.3006875E-06  0.2797159E+04  0.7818609E-02  0.8304151E-01
       -4   -1    0    0    0  501  0.00000000000E+00  0.00000000000E+00  0.99108893262E+03  0.99108974632E+03  0.12699999809E+01 0.  1.
        4   -1    0    0  501    0  0.00000000000E+00  0.00000000000E+00 -0.19736097495E+04  0.19736101582E+04  0.12699999809E+01 0. -1.
    10030    2    1    2    0    0  0.00000000000E+00  0.00000000000E+00 -0.98252081692E+03  0.29646999045E+04  0.27971589815E+04 0.  0.
        5    1    3    3  502    0 -0.92843557307E+03 -0.64709790866E+03 -0.13622313429E+04  0.17709953806E+04  0.46999998093E+01 0. -1.
       -5    1    3    3    0  502  0.92843557307E+03  0.64709790866E+03  0.37971052593E+03  0.11937045238E+04  0.46999998093E+01 0.  1.
</event>
<event>
 5   0  0.3371603E-06  0.2776698E+04  0.7818609E-02  0.8310539E-01
       -1   -1    0    0    0  501  0.00000000000E+00  0.00000000000E+00  0.20798432999E+04  0.20798432999E+04  0.50400001928E-02 0. -1.
        1   -1    0    0  501    0  0.00000000000E+00  0.00000000000E+00 -0.92675899874E+03  0.92675899875E+03  0.50400001928E-02 0.  1.
    10030    2    1    2    0    0  0.00000000000E+00  0.00000000000E+00  0.11530843011E+04  0.30066022986E+04  0.27766983950E+04 0.  0.
        1    1    3    3  502    0  0.17390333446E+03  0.10398413788E+04 -0.40157895431E+03  0.11281746848E+04  0.50400001928E-02 0.  1.
       -1    1    3    3    0  502 -0.17390333446E+03 -0.10398413788E+04  0.15546632555E+04  0.18784276139E+04  0.50400001928E-02 0. -1.
</event>
<event>
 5   0  0.3357244E-06  0.2832571E+04  0.7818609E-02  0.8293227E-01
        1   -1    0    0  501    0  0.00000000000E+00  0.00000000000E+00  0.13766122779E+04  0.13766122779E+04  0.50400001928E-02 0.  1.
       -1   -1    0    0    0  501  0.00000000000E+00  0.00000000000E+00 -0.14571020359E+04  0.14571020359E+04  0.50400001928E-02 0. -1.
    10030    2    1    2    0    0  0.00000000000E+00  0.00000000000E+00 -0.80489757997E+02  0.28337143137E+04  0.28325709542E+04 0.  0.
        4    1    3    3  502    0  0.13115962480E+04 -0.40301497054E+03  0.31083431384E+03  0.14068849874E+04  0.12699999809E+01 0.  1.
       -4    1    3    3    0  502 -0.13115962480E+04  0.40301497054E+03 -0.39132407183E+03  0.14268293263E+04  0.12699999809E+01 0. -1.
</event>
<event>
 5   0  0.3006875E-06  0.2751581E+04  0.7818609E-02  0.8318460E-01
        3   -1    0    0  501    0  0.00000000000E+00  0.00000000000E+00  0.19189745211E+04  0.19189745237E+04  0.10100000352E+00 0.  1.
       -3   -1    0    0    0  501  0.00000000000E+00  0.00000000000E+00 -0.98636006668E+03  0.98636007185E+03  0.10100000352E+00 0. -1.
    10030    2    1    2    0    0  0.00000000000E+00  0.00000000000E+00  0.93261445438E+03  0.29053345956E+04  0.27515812530E+04 0.  0.
        3    1    3    3  502    0  0.41113358218E+03  0.93958641114E+03  0.14345805559E+04  0.17634837193E+04  0.10100000352E+00 0.  1.
       -3    1    3    3    0  502 -0.41113358218E+03 -0.93958641114E+03 -0.50196610156E+03  0.11418508763E+04  0.10100000352E+00 0. -1.
</event>
<event>
 5   0  0.3600963E-06  0.2763752E+04  0.7818609E-02  0.8314611E-01
        1   -1    0    0  501    0  0.00000000000E+00  0.00000000000E+00  0.19741962119E+04  0.19741962119E+04  0.50400001928E-02 0. -1.
       -1   -1    0    0    0  501  0.00000000000E+00  0.00000000000E+00 -0.96727037102E+03  0.96727037103E+03  0.50400001928E-02 0.  1.
    10030    2    1    2    0    0  0.00000000000E+00  0.00000000000E+00  0.10069258409E+04  0.29414665830E+04  0.27637521614E+04 0.  0.
        5    1    3    3  502    0  0.56055250830E+03 -0.12116164598E+04  0.12369076510E+03  0.13407292999E+04  0.46999998093E+01 0.  1.
       -5    1    3    3    0  502 -0.56055250830E+03  0.12116164598E+04  0.88323507581E+03  0.16007372831E+04  0.46999998093E+01 0. -1.
</event>
<event>
 5   0  0.3006875E-06  0.2802747E+04  0.7818609E-02  0.8302416E-01
        4   -1    0    0  501    0  0.00000000000E+00  0.00000000000E+00  0.98028531867E+03  0.98028614134E+03  0.12699999809E+01 0.  1.
       -4   -1    0    0    0  501  0.00000000000E+00  0.00000000000E+00 -0.20033403894E+04  0.20033407920E+04  0.12699999809E+01 0. -1.
    10030    2    1    2    0    0  0.00000000000E+00  0.00000000000E+00 -0.10230550708E+04  0.29836269333E+04  0.28027465100E+04 0.  0.
        3    1    3    3  502    0  0.79597399675E+03 -0.11214361186E+04 -0.22458910144E+03  0.13934252209E+04  0.10100000352E+00 0. -1.
       -3    1    3    3    0  502 -0.79597399675E+03  0.11214361186E+04 -0.79846596932E+03  0.15902017124E+04  0.10100000352E+00 0.  1.
</event>
<event>
 5   0  0.9252359E-06  0.2754890E+04  0.7818609E-02  0.8317411E-01
       -2   -1    0    0    0  501  0.00000000000E+00  0.00000000000E+00  0.30708436279E+04  0.30708436279E+04  0.25500000920E-02 0.  1.
        2   -1    0    0  501    0  0.00000000000E+00  0.00000000000E+00 -0.61786126251E+03  0.61786126251E+03  0.25500000920E-02 0. -1.
    10030    2    1    2    0    0  0.00000000000E+00  0.00000000000E+00  0.24529823654E+04  0.36887048904E+04  0.27548904304E+04 0.  0.
        5    1    3    3  502    0  0.12650478568E+04  0.34694989475E+03  0.17891962398E+04  0.22185503339E+04  0.46999998093E+01 0.  1.
       -5    1    3    3    0  502 -0.12650478568E+04 -0.34694989475E+03  0.66378612553E+03  0.14701545565E+04  0.46999998093E+01 0. -1.
</event>
<event>
 5   0  0.9252359E-06  0.2772113E+04  0.7818609E-02  0.8311979E-01
       -2   -1    0    0    0  501  0.00000000000E+00  0.00000000000E+00  0.93993106577E+03  0.93993106577E+03  0.25500000920E-02 0.  1.
        2   -1    0    0  501    0  0.00000000000E+00  0.00000000000E+00 -0.20439299333E+04  0.20439299333E+04  0.25500000920E-02 0. -1.
    10030    2    1    2    0    0  0.00000000000E+00  0.00000000000E+00 -0.11039988675E+04  0.29838609990E+04  0.27721134468E+04 0.  0.
        5    1    3    3  502    0  0.11958683388E+04  0.47385860062E+03  0.36571869182E+01  0.12863430810E+04  0.46999998093E+01 0. -1.
       -5    1    3    3    0  502 -0.11958683388E+04 -0.47385860062E+03 -0.11076560544E+04  0.16975179180E+04  0.46999998093E+01 0.  1.
</event>
<event>
 5   0  0.9252359E-06  0.2778410E+04  0.7818609E-02  0.8310003E-01
        2   -1    0    0  501    0  0.00000000000E+00  0.00000000000E+00  0.13315203267E+04  0.13315203267E+04  0.25500000920E-02 0.  1.
       -2   -1    0    0    0  501  0.00000000000E+00  0.00000000000E+00 -0.14493890493E+04  0.14493890493E+04  0.25500000920E-02 0. -1.
    10030    2    1    2    0    0  0.00000000000E+00  0.00000000000E+00 -0.11786872261E+03  0.27809093760E+04  0.27784103228E+04 0.  0.
        5    1    3    3  502    0 -0.65031313993E+03 -0.12212661032E+04 -0.18342797050E+03  0.13957313442E+04  0.46999998093E+01 0.  1.
       -5    1    3    3    0  502  0.65031313993E+03  0.12212661032E+04  0.65559247887E+02  0.13851780318E+04  0.46999998093E+01 0. -1.
</event>
<event>
 5   0  0.3397882E-06  0.2781574E+04  0.7818609E-02  0.8309012E-01
       -1   -1    0    0    0  501  0.00000000000E+00  0.00000000000E+00  0.93909261350E+03  0.93909261351E+03  0.50400001928E-02 0. -1.
        1   -1    0    0  501    0  0.00000000000E+00  0.00000000000E+00 -0.20597417622E+04  0.20597417622E+04  0.50400001928E-02 0.  1.
    10030    2    1    2    0    0  0.00000000000E+00  0.00000000000E+00 -0.11206491487E+04  0.29988343757E+04  0.27815738528E+04 0.  0.
        2    1    3    3  502    0  0.12433270478E+04 -0.44124892503E+03 -0.10348454194E+04  0.16767432134E+04  0.25500000920E-02 0.  1.
       -2    1    3    3    0  502 -0.12433270478E+04  0.44124892503E+03 -0.85803729254E+02  0.13220911623E+04  0.25500000920E-02 0. -1.
</event>
<event>
 5   0  0.9065579E-06  0.2798919E+04  0.7818609E-02  0.8303604E-01
       -2   -1    0    0    0  501  0.00000000000E+00  0.00000000000E+00  0.18585625659E+04  0.18585625659E+04  0.25500000920E-02 0.  1.
        2   -1    0    0  501    0  0.00000000000E+00  0.00000000000E+00 -0.10537642721E+04  0.10537642721E+04  0.25500000920E-02 0. -1.
    10030    2    1    2    0    0  0.00000000000E+00  0.00000000000E+00  0.80479829379E+03  0.29123268380E+04  0.27989189552E+04 0.  0.
        3    1    3    3  502    0  0.12121580820E+04 -0.55681074752E+03  0.84277502332E+03  0.15778577801E+04  0.10100000352E+00 0.  1.
       -3    1    3    3    0  502 -0.12121580820E+04  0.55681074752E+03 -0.37976729533E+02  0.13344690579E+04  0.10100000352E+00 0. -1.
</event>
<event>
 5   0  0.9426937E-06  0.2783967E+04  0.7818609E-02  0.8308263E-01
       -2   -1    0    0    0  501  0.00000000000E+00  0.00000000000E+00  0.13928393311E+04  0.13928393311E+04  0.25500000920E-02 0.  1.
        2   -1    0    0  501    0  0.00000000000E+00  0.00000000000E+00 -0.13911285187E+04  0.13911285187E+04  0.25500000920E-02 0. -1.
    10030    2    1    2    0    0  0.00000000000E+00  0.00000000000E+00  0.17108124235E+01  0.27839678499E+04  0.27839673242E+04 0.  0.
        4    1    3    3  502    0  0.30561627270E+03 -0.90525784494E+03 -0.10114312220E+04  0.13913618515E+04  0.12699999809E+01 0. -1.
       -4    1    3    3    0  502 -0.30561627270E+03  0.90525784494E+03  0.10131420344E+04  0.13926059984E+04  0.12699999809E+01 0.  1.
</event>
<event>
 5   0  0.9065579E-06  0.2726795E+04  0.7818609E-02  0.8326363E-01
       -2   -1    0    0    0  501  0.00000000000E+00  0.00000000000E+00  0.68490840416E+03  0.68490840417E+03  0.25500000920E-02 0. -1.
        2   -1    0    0  501    0  0.00000000000E+00  0.00000000000E+00 -0.27140161680E+04  0.27140161680E+04  0.25500000920E-02 0.  1.
    10030    2    1    2    0    0  0.00000000000E+00  0.00000000000E+00 -0.20291077638E+04  0.33989245721E+04  0.27267948089E+04 0.  0.
        3    1    3    3  502    0 -0.11610334224E+04 -0.66958650328E+03 -0.70291179609E+03  0.15134165641E+04  0.10100000352E+00 0. -1.
       -3    1    3    3    0  502  0.11610334224E+04  0.66958650328E+03 -0.13261959677E+04  0.18855080080E+04  0.10100000352E+00 0.  1.
</event>
<event>
 5   0  0.3397882E-06  0.2734654E+04  0.7818609E-02  0.8323848E-01
       -1   -1    0    0    0  501  0.00000000000E+00  0.00000000000E+00  0.77183631660E+03  0.77183631662E+03  0.50400001928E-02 0. -1.
        1   -1    0    0  501    0  0.00000000000E+00  0.00000000000E+00 -0.24222529075E+04  0.24222529075E+04  0.50400001928E-02 0.  1.
    10030    2    1    2    0    0  0.00000000000E+00  0.00000000000E+00 -0.16504165909E+04  0.31940892241E+04  0.27346537346E+04 0.  0.
        2    1    3    3  502    0 -0.87717600217E+03  0.33144054672E+03 -0.19875300779E+04  0.21976274446E+04  0.25500000920E-02 0.  1.
       -2    1    3    3    0  502  0.87717600217E+03 -0.33144054672E+03  0.33711348704E+03  0.99646177947E+03  0.25500000920E-02 0. -1.
</event>
<event>
 5   0  0.9342133E-06  0.2797146E+04  0.7818609E-02  0.8304155E-01
       -2   -1    0    0    0  501  0.00000000000E+00  0.00000000000E+00  0.13620989359E+04  0.13620989359E+04  0.25500000920E-02 0. -1.
        2   -1    0    0  501    0  0.00000000000E+00  0.00000000000E+00 -0.14360239558E+04  0.14360239558E+04  0.25500000920E-02 0.  1.
    10030    2    1    2    0    0  0.00000000000E+00  0.00000000000E+00 -0.73925019951E+02  0.27981228917E+04  0.27971461901E+04 0.  0.
        2    1    3    3  502    0 -0.21063655296E+03  0.19999700794E+03 -0.14055192098E+04  0.14352180356E+04  0.25500000920E-02 0.  1.
       -2    1    3    3    0  502  0.21063655296E+03 -0.19999700794E+03  0.13315941898E+04  0.13629048562E+04  0.25500000920E-02 0. -1.
</event>
<event>
 5   0  0.3357244E-06  0.2753095E+04  0.7818609E-02  0.8317980E-01
       -1   -1    0    0    0  501  0.00000000000E+00  0.00000000000E+00  0.12565251477E+04  0.12565251478E+04  0.50400001928E-02 0.  1.
        1   -1    0    0  501    0  0.00000000000E+00  0.00000000000E+00 -0.15080348256E+04  0.15080348256E+04  0.50400001928E-02 0. -1.
    10030    2    1    2    0    0  0.00000000000E+00  0.00000000000E+00 -0.25150967781E+03  0.27645599733E+04  0.27530954811E+04 0.  0.
        4    1    3    3  502    0 -0.13371620160E+04  0.18138711200E+03 -0.39887740495E+03  0.14071276909E+04  0.12699999809E+01 0. -1.
       -4    1    3    3    0  502  0.13371620160E+04 -0.18138711200E+03  0.14736772714E+03  0.13574322824E+04  0.12699999809E+01 0.  1.
</event>
<event>
 5   0  0.3357244E-06  0.2817388E+04  0.7818609E-02  0.8297890E-01
       -1   -1    0    0    0  501  0.00000000000E+00  0.00000000000E+00  0.19488208379E+04  0.19488208379E+04  0.50400001928E-02 0. -1.
        1   -1    0    0  501    0  0.00000000000E+00  0.00000000000E+00 -0.10182663789E+04  0.10182663789E+04  0.50400001928E-02 0.  1.
    10030    2    1    2    0    0  0.00000000000E+00  0.00000000000E+00  0.93055445902E+03  0.29670872168E+04  0.28173879660E+04 0.  0.
        4    1    3    3  502    0  0.40626805690E+03  0.11793339994E+04  0.11546857691E+04  0.16997597637E+04  0.12699999809E+01 0.  1.
       -4    1    3    3    0  502 -0.40626805690E+03 -0.11793339994E+04 -0.22413131010E+03  0.12673274530E+04  0.12699999809E+01 0. -1.
</event>
<event>
 5   0  0.9426937E-06  0.2811176E+04  0.7818609E-02  0.8299807E-01
       -2   -1    0    0    0  501  0.00000000000E+00  0.00000000000E+00  0.13877882185E+04  0.13877882185E+04  0.25500000920E-02 0. -1.
        2   -1    0    0  501    0  0.00000000000E+00  0.00000000000E+00 -0.14236159839E+04  0.14236159839E+04  0.25500000920E-02 0.  1.
    10030    2    1    2    0    0  0.00000000000E+00  0.00000000000E+00 -0.35827765432E+02  0.28114042024E+04  0.28111759035E+04 0.  0.
        4    1    3    3  502    0  0.12000540516E+04 -0.26344643133E+03 -0.70071534966E+03  0.14144035361E+04  0.12699999809E+01 0.  1.
       -4    1    3    3    0  502 -0.12000540516E+04  0.26344643133E+03  0.66488758423E+03  0.13970006662E+04  0.12699999809E+01 0. -1.
</event>
<event>
 5   0  0.3438130E-06  0.2876882E+04  0.7818609E-02  0.8279789E-01
        1   -1    0    0  501    0  0.00000000000E+00  0.00000000000E+00  0.25334073967E+04  0.25334073967E+04  0.50400001928E-02 0. -1.
       -1   -1    0    0    0  501  0.00000000000E+00  0.00000000000E+00 -0.81673077718E+03  0.81673077720E+03  0.50400001928E-02 0.  1.
    10030    2    1    2    0    0  0.00000000000E+00  0.00000000000E+00  0.17166766195E+04  0.33501381739E+04  0.28768815006E+04 0.  0.
        3    1    3    3  502    0  0.12199170622E+03 -0.11854243253E+03  0.25216541464E+04  0.25273848004E+04  0.10100000352E+00 0. -1.
       -3    1    3    3    0  502 -0.12199170622E+03  0.11854243253E+03 -0.80497752689E+03  0.82275337356E+03  0.10100000352E+00 0.  1.
</event>
<event>
 5   0  0.3397882E-06  0.2816918E+04  0.7818609E-02  0.8298035E-01
        1   -1    0    0  501    0  0.00000000000E+00  0.00000000000E+00  0.17907862018E+04  0.17907862018E+04  0.50400001928E-02 0. -1.
       -1   -1    0    0    0  501  0.00000000000E+00  0.00000000000E+00 -0.11077573952E+04  0.11077573952E+04  0.50400001928E-02 0.  1.
    10030    2    1    2    0    0  0.00000000000E+00  0.00000000000E+00  0.68302880658E+03  0.28985435970E+04  0.28169179315E+04 0.  0.
        2    1    3    3  502    0 -0.70925866468E+03  0.12153538797E+04  0.27957245318E+03  0.14346754556E+04  0.25500000920E-02 0. -1.
       -2    1    3    3    0  502  0.70925866468E+03 -0.12153538797E+04  0.40345635341E+03  0.14638681414E+04  0.25500000920E-02 0.  1.
</event>
<event>
 5   0  0.9065579E-06  0.2794080E+04  0.7818609E-02  0.8305109E-01
       -2   -1    0    0    0  501  0.00000000000E+00  0.00000000000E+00  0.66760313104E+03  0.66760313105E+03  0.25500000920E-02 0. -1.
        2   -1    0    0  501    0  0.00000000000E+00  0.00000000000E+00 -0.29234751397E+04  0.29234751397E+04  0.25500000920E-02 0.  1.
    10030    2    1    2    0    0  0.00000000000E+00  0.00000000000E+00 -0.22558720086E+04  0.35910782707E+04  0.27940802829E+04 0.  0.
        3    1    3    3  502    0 -0.62656794846E+03  0.44590237905E+03  0.37107254244E+03  0.85388006631E+03  0.10100000352E+00 0. -1.
       -3    1    3    3    0  502  0.62656794846E+03 -0.44590237905E+03 -0.26269445510E+04  0.27371982044E+04  0.10100000352E+00 0.  1.
</event>
<event>
 5   0  0.9065579E-06  0.2791515E+04  0.7818609E-02  0.8305908E-01
       -2   -1    0    0    0  501  0.00000000000E+00  0.00000000000E+00  0.80137023504E+03  0.80137023504E+03  0.25500000920E-02 0.  1.
        2   -1    0    0  501    0  0.00000000000E+00  0.00000000000E+00 -0.24310093132E+04  0.24310093132E+04  0.25500000920E-02 0. -1.
    10030    2    1    2    0    0  0.00000000000E+00  0.00000000000E+00 -0.16296390782E+04  0.32323795483E+04  0.27915146460E+04 0.  0.
        3    1    3    3  502    0  0.85003797245E+03 -0.10420737147E+03 -0.20910220491E+04  0.22596010602E+04  0.10100000352E+00 0. -1.
       -3    1    3    3    0  502 -0.85003797245E+03  0.10420737147E+03  0.46138297094E+03  0.97277848812E+03  0.10100000352E+00 0.  1.
</event>
<event>
 5   0  0.9426937E-06  0.2789473E+04  0.7818609E-02  0.8306544E-01
        2   -1    0    0  501    0  0.00000000000E+00  0.00000000000E+00  0.20251590633E+04  0.20251590633E+04  0.25500000920E-02 0.  1.
       -2   -1    0    0    0  501  0.00000000000E+00  0.00000000000E+00 -0.96056165313E+03  0.96056165314E+03  0.25500000920E-02 0. -1.
    10030    2    1    2    0    0  0.00000000000E+00  0.00000000000E+00  0.10645974101E+04  0.29857207164E+04  0.27894731672E+04 0.  0.
        4    1    3    3  502    0 -0.74718742169E+03 -0.98326724697E+03  0.12261194278E+04  0.17402511274E+04  0.12699999809E+01 0.  1.
       -4    1    3    3    0  502  0.74718742169E+03  0.98326724697E+03 -0.16152201771E+03  0.12454695890E+04  0.12699999809E+01 0. -1.
</event>
<event>
 5   0  0.3371603E-06  0.2740725E+04  0.7818609E-02  0.8321911E-01
        1   -1    0    0  501    0  0.00000000000E+00  0.00000000000E+00  0.18647802845E+04  0.18647802845E+04  0.50400001928E-02 0.  1.
       -1   -1    0    0    0  501  0.00000000000E+00  0.00000000000E+00 -0.10070318211E+04  0.10070318211E+04  0.50400001928E-02 0. -1.
    10030    2    1    2    0    0  0.00000000000E+00  0.00000000000E+00  0.85774846339E+03  0.28718121056E+04  0.27407247843E+04 0.  0.
        1    1    3    3  502    0  0.85121491785E+03  0.55502522863E+03  0.13922354433E+04  0.17236413114E+04  0.50400001928E-02 0.  1.
       -1    1    3    3    0  502 -0.85121491785E+03 -0.55502522863E+03 -0.53448697992E+03  0.11481707941E+04  0.50400001928E-02 0. -1.
</event>
<event>
 5   0  0.9426937E-06  0.2796374E+04  0.7818609E-02  0.8304395E-01
       -2   -1    0    0    0  501  0.00000000000E+00  0.00000000000E+00  0.88824583248E+03  0.88824583249E+03  0.25500000920E-02 0.  1.
        2   -1    0    0  501    0  0.00000000000E+00  0.00000000000E+00 -0.22008846313E+04  0.22008846313E+04  0.25500000920E-02 0. -1.
    10030    2    1    2    0    0  0.00000000000E+00  0.00000000000E+00 -0.13126387988E+04  0.30891304637E+04  0.27963737958E+04 0.  0.
        4    1    3    3  502    0  0.28144854121E+02 -0.30941758719E+03  0.84962826256E+03  0.90465527883E+03  0.12699999809E+01 0.  1.
       -4    1    3    3    0  502 -0.28144854121E+02  0.30941758719E+03 -0.21622670613E+04  0.21844751849E+04  0.12699999809E+01 0. -1.
</event>
<event>
 5   0  0.3438130E-06  0.2802227E+04  0.7818609E-02  0.8302577E-01
        1   -1    0    0  501    0  0.00000000000E+00  0.00000000000E+00  0.18845393247E+04  0.18845393247E+04  0.50400001928E-02 0. -1.
       -1   -1    0    0    0  501  0.00000000000E+00  0.00000000000E+00 -0.10416968753E+04  0.10416968753E+04  0.50400001928E-02 0.  1.
    10030    2    1    2    0    0  0.00000000000E+00  0.00000000000E+00  0.84284244935E+03  0.29262362000E+04  0.28022267760E+04 0.  0.
        3    1    3    3  502    0 -0.11628775872E+04  0.53440830693E+03  0.10169593114E+04  0.16346506577E+04  0.10100000352E+00 0. -1.
       -3    1    3    3    0  502  0.11628775872E+04 -0.53440830693E+03 -0.17411686203E+03  0.12915855424E+04  0.10100000352E+00 0.  1.
</event>
<event>
 5   0  0.9065579E-06  0.2817295E+04  0.7818609E-02  0.8297919E-01
       -2   -1    0    0    0  501  0.00000000000E+00  0.00000000000E+00  0.68949927194E+03  0.68949927195E+03  0.25500000920E-02 0. -1.
        2   -1    0    0  501    0  0.00000000000E+00  0.00000000000E+00 -0.28778674333E+04  0.28778674333E+04  0.25500000920E-02 0.  1.
    10030    2    1    2    0    0  0.00000000000E+00  0.00000000000E+00 -0.21883681614E+04  0.35673667053E+04  0.28172948018E+04 0.  0.
        3    1    3    3  502    0 -0.28316059186E+03  0.89994584968E+03  0.23035511819E+03  0.97115701296E+03  0.10100000352E+00 0. -1.
       -3    1    3    3    0  502  0.28316059186E+03 -0.89994584968E+03 -0.24187232796E+04  0.25962096923E+04  0.10100000352E+00 0.  1.
</event>
<event>
 5   0  0.9252359E-06  0.2738274E+04  0.7818609E-02  0.8322692E-01
        2   -1    0    0  501    0  0.00000000000E+00  0.00000000000E+00  0.27153023618E+04  0.27153023618E+04  0.25500000920E-02 0. -1.
       -2   -1    0    0    0  501  0.00000000000E+00  0.00000000000E+00 -0.69035997641E+03  0.69035997642E+03  0.25500000920E-02 0.  1.
    10030    2    1    2    0    0  0.00000000000E+00  0.00000000000E+00  0.20249423854E+04  0.34056623382E+04  0.27382739632E+04 0.  0.
        5    1    3    3  502    0 -0.14532642263E+03  0.10697331301E+04  0.20597632006E+04  0.23255311805E+04  0.46999998093E+01 0. -1.
       -5    1    3    3    0  502  0.14532642263E+03 -0.10697331301E+04 -0.34820815204E+02  0.10801311578E+04  0.46999998093E+01 0.  1.
</event>
<event>
 5   0  0.3371603E-06  0.2808547E+04  0.7818609E-02  0.8300620E-01
       -1   -1    0    0    0  501  0.00000000000E+00  0.00000000000E+00  0.26535695552E+04  0.26535695552E+04  0.50400001928E-02 0. -1.
        1   -1    0    0  501    0  0.00000000000E+00  0.00000000000E+00 -0.74314376604E+03  0.74314376605E+03  0.50400001928E-02 0.  1.
    10030    2    1    2    0    0  0.00000000000E+00  0.00000000000E+00  0.19104257891E+04  0.33967133212E+04  0.28085467222E+04 0.  0.
        1    1    3    3  502    0  0.10104493370E+04  0.13607831204E+02  0.21345003791E+04  0.23616275965E+04  0.50400001928E-02 0. -1.
       -1    1    3    3    0  502 -0.10104493370E+04 -0.13607831204E+02 -0.22407459000E+03  0.10350857248E+04  0.50400001928E-02 0.  1.
</event>
<event>
 5   0  0.3371603E-06  0.2815900E+04  0.7818609E-02  0.8298349E-01
        1   -1    0    0  501    0  0.00000000000E+00  0.00000000000E+00  0.12938443424E+04  0.12938443424E+04  0.50400001928E-02 0. -1.
       -1   -1    0    0    0  501  0.00000000000E+00  0.00000000000E+00 -0.15321182333E+04  0.15321182333E+04  0.50400001928E-02 0.  1.
    10030    2    1    2    0    0  0.00000000000E+00  0.00000000000E+00 -0.23827389092E+03  0.28259625757E+04  0.28158995068E+04 0.  0.
        1    1    3    3  502    0  0.47447805310E+03 -0.29689301071E+03  0.11773961857E+04  0.13036627864E+04  0.50400001928E-02 0. -1.
       -1    1    3    3    0  502 -0.47447805310E+03  0.29689301071E+03 -0.14156700766E+04  0.15222997893E+04  0.50400001928E-02 0.  1.
</event>
<event>
 5   0  0.9260173E-06  0.2852739E+04  0.7818609E-02  0.8287080E-01
       -2   -1    0    0    0  501  0.00000000000E+00  0.00000000000E+00  0.14108580865E+04  0.14108580865E+04  0.25500000920E-02 0.  1.
        2   -1    0    0  501    0  0.00000000000E+00  0.00000000000E+00 -0.14420510134E+04  0.14420510134E+04  0.25500000920E-02 0. -1.
    10030    2    1    2    0    0  0.00000000000E+00  0.00000000000E+00 -0.31192926870E+02  0.28529090999E+04  0.28527385673E+04 0.  0.
        1    1    3    3  502    0  0.83636726167E+02 -0.10012125135E+04 -0.10281330291E+04  0.14375253475E+04  0.50400001928E-02 0. -1.
       -1    1    3    3    0  502 -0.83636726167E+02  0.10012125135E+04  0.99694010221E+03  0.14153837524E+04  0.50400001928E-02 0.  1.
</event>
<event>
 5   0  0.3357244E-06  0.2763330E+04  0.7818609E-02  0.8314744E-01
        1   -1    0    0  501    0  0.00000000000E+00  0.00000000000E+00  0.21133533547E+04  0.21133533547E+04  0.50400001928E-02 0.  1.
       -1   -1    0    0    0  501  0.00000000000E+00  0.00000000000E+00 -0.90330283851E+03  0.90330283853E+03  0.50400001928E-02 0. -1.
    10030    2    1    2    0    0  0.00000000000E+00  0.00000000000E+00  0.12100505162E+04  0.30166561932E+04  0.27633299362E+04 0.  0.
        4    1    3    3  502    0  0.71876294989E+03 -0.97240865403E+02 -0.67875792732E+03  0.99337299180E+03  0.12699999809E+01 0. -1.
       -4    1    3    3    0  502 -0.71876294989E+03  0.97240865403E+02  0.18888084435E+04  0.20232832014E+04  0.12699999809E+01 0.  1.
</event>
<event>
 5   0  0.9252359E-06  0.2820222E+04  0.7818609E-02  0.8297018E-01
       -2   -1    0    0    0  501  0.00000000000E+00  0.00000000000E+00  0.19960684507E+04  0.19960684507E+04  0.25500000920E-02 0. -1.
        2   -1    0    0  501    0  0.00000000000E+00  0.00000000000E+00 -0.99616446871E+03  0.99616446872E+03  0.25500000920E-02 0.  1.
    10030    2    1    2    0    0  0.00000000000E+00  0.00000000000E+00  0.99990398200E+03  0.29922329194E+04  0.28202215996E+04 0.  0.
        5    1    3    3  502    0  0.64200828812E+03  0.51554642685E+03  0.17145111708E+04  0.19019814418E+04  0.46999998093E+01 0. -1.
       -5    1    3    3    0  502 -0.64200828812E+03 -0.51554642685E+03 -0.71460718877E+03  0.10902514776E+04  0.46999998093E+01 0.  1.
</event>
<event>
 5   0  0.3397882E-06  0.2808831E+04  0.7818609E-02  0.8300532E-01
        1   -1    0    0  501    0  0.00000000000E+00  0.00000000000E+00  0.11982334010E+04  0.11982334010E+04  0.50400001928E-02 0. -1.
       -1   -1    0    0    0  501  0.00000000000E+00  0.00000000000E+00 -0.16460757751E+04  0.16460757751E+04  0.50400001928E-02 0.  1.
    10030    2    1    2    0    0  0.00000000000E+00  0.00000000000E+00 -0.44784237409E+03  0.28443091761E+04  0.28088310553E+04 0.  0.
        2    1    3    3  502    0  0.10004218795E+04  0.92798878552E+03  0.11250377883E+03  0.13691837800E+04  0.25500000920E-02 0. -1.
       -2    1    3    3    0  502 -0.10004218795E+04 -0.92798878552E+03 -0.56034615293E+03  0.14751253961E+04  0.25500000920E-02 0.  1.
</event>
<event>
 5   0  0.3600963E-06  0.2608218E+04  0.7818609E-02  0.8365415E-01
        1   -1    0    0  501    0  0.00000000000E+00  0.00000000000E+00  0.79126718224E+03  0.79126718226E+03  0.50400001928E-02 0. -1.
       -1   -1    0    0    0  501  0.00000000000E+00  0.00000000000E+00 -0.21493381230E+04  0.21493381230E+04  0.50400001928E-02 0.  1.
    10030    2    1    2    0    0  0.00000000000E+00  0.00000000000E+00 -0.13580709407E+04  0.29406053053E+04  0.26082183346E+04 0.  0.
        5    1    3    3  502    0  0.84881273309E+03 -0.91708296078E+03 -0.25846256389E+03  0.12760678664E+04  0.46999998093E+01 0. -1.
       -5    1    3    3    0  502 -0.84881273309E+03  0.91708296078E+03 -0.10996083769E+04  0.16645374388E+04  0.46999998093E+01 0.  1.
</event>
<event>
 5   0  0.3438130E-06  0.2797831E+04  0.7818609E-02  0.8303942E-01
       -1   -1    0    0    0  501  0.00000000000E+00  0.00000000000E+00  0.13790896774E+04  0.13790896774E+04  0.50400001928E-02 0. -1.
        1   -1    0    0  501    0  0.00000000000E+00  0.00000000000E+00 -0.14190268151E+04  0.14190268151E+04  0.50400001928E-02 0.  1.
    10030    2    1    2    0    0  0.00000000000E+00  0.00000000000E+00 -0.39937137725E+02  0.27981164925E+04  0.27978314693E+04 0.  0.
        3    1    3    3  502    0  0.10472872061E+02 -0.81492490939E+03  0.11171401945E+04  0.13828284469E+04  0.10100000352E+00 0. -1.
       -3    1    3    3    0  502 -0.10472872061E+02  0.81492490939E+03 -0.11570773323E+04  0.14152880456E+04  0.10100000352E+00 0.  1.
</event>
<event>
 5   0  0.9252359E-06  0.2786089E+04  0.7818609E-02  0.8307600E-01
       -2   -1    0    0    0  501  0.00000000000E+00  0.00000000000E+00  0.89526912173E+03  0.89526912174E+03  0.25500000920E-02 0.  1.
        2   -1    0    0  501    0  0.00000000000E+00  0.00000000000E+00 -0.21675854820E+04  0.21675854820E+04  0.25500000920E-02 0. -1.
    10030    2    1    2    0    0  0.00000000000E+00  0.00000000000E+00 -0.12723163603E+04  0.30628546037E+04  0.27860885490E+04 0.  0.
        5    1    3    3  502    0 -0.19499117082E+03 -0.13214579282E+04 -0.10707483502E+04  0.17119569890E+04  0.46999998093E+01 0. -1.
       -5    1    3    3    0  502  0.19499117082E+03  0.13214579282E+04 -0.20156801006E+03  0.13508976147E+04  0.46999998093E+01 0.  1.
</event>
<event>
 5   0  0.3397882E-06  0.2796816E+04  0.7818609E-02  0.8304258E-01
       -1   -1    0    0    0  501  0.00000000000E+00  0.00000000000E+00  0.10757994392E+04  0.10757994392E+04  0.50400001928E-02 0. -1.
        1   -1    0    0  501    0  0.00000000000E+00  0.00000000000E+00 -0.18177591510E+04  0.18177591510E+04  0.50400001928E-02 0.  1.
    10030    2    1    2    0    0  0.00000000000E+00  0.00000000000E+00 -0.74195971182E+03  0.28935585902E+04  0.27968155286E+04 0.  0.
        2    1    3    3  502    0  0.18111231197E+03  0.13647683691E+04 -0.11724161223E+03  0.13817163118E+04  0.25500000920E-02 0. -1.
       -2    1    3    3    0  502 -0.18111231197E+03 -0.13647683691E+04 -0.62471809959E+03  0.15118422784E+04  0.25500000920E-02 0.  1.
</event>
<event>
 5   0  0.3438130E-06  0.2805554E+04  0.7818609E-02  0.8301546E-01
        1   -1    0    0  501    0  0.00000000000E+00  0.00000000000E+00  0.29351595964E+04  0.29351595964E+04  0.50400001928E-02 0. -1.
       -1   -1    0    0    0  501  0.00000000000E+00  0.00000000000E+00 -0.67041796314E+03  0.67041796316E+03  0.50400001928E-02 0.  1.
    10030    2    1    2    0    0  0.00000000000E+00  0.00000000000E+00  0.22647416332E+04  0.36055775595E+04  0.28055542897E+04 0.  0.
        3    1    3    3  502    0 -0.92505960124E+03  0.70896223545E+03  0.12910764663E+03  0.11726173765E+04  0.10100000352E+00 0.  1.
       -3    1    3    3    0  502  0.92505960124E+03 -0.70896223545E+03  0.21356339866E+04  0.24329601830E+04  0.10100000352E+00 0. -1.
</event>
<event>
 5   0  0.9252359E-06  0.2785376E+04  0.7818609E-02  0.8307823E-01
       -2   -1    0    0    0  501  0.00000000000E+00  0.00000000000E+00  0.10910812281E+04  0.10910812281E+04  0.25500000920E-02 0. -1.
        2   -1    0    0  501    0  0.00000000000E+00  0.00000000000E+00 -0.17776676013E+04  0.17776676013E+04  0.25500000920E-02 0.  1.
    10030    2    1    2    0    0  0.00000000000E+00  0.00000000000E+00 -0.68658637321E+03  0.28687488294E+04  0.27853759168E+04 0.  0.
        5    1    3    3  502    0  0.10460624478E+04  0.83336658619E+03  0.56674984444E+02  0.13386488171E+04  0.46999998093E+01 0. -1.
       -5    1    3    3    0  502 -0.10460624478E+04 -0.83336658619E+03 -0.74326135765E+03  0.15301000122E+04  0.46999998093E+01 0.  1.
</event>
<event>
 5   0  0.3006875E-06  0.2801934E+04  0.7818609E-02  0.8302668E-01
        4   -1    0    0  501    0  0.00000000000E+00  0.00000000000E+00  0.18034745870E+04  0.18034750342E+04  0.12699999809E+01 0. -1.
       -4   -1    0    0    0  501  0.00000000000E+00  0.00000000000E+00 -0.10882919687E+04  0.10882927098E+04  0.12699999809E+01 0.  1.
    10030    2    1    2    0    0  0.00000000000E+00  0.00000000000E+00  0.71518261825E+03  0.28917677439E+04  0.28019340655E+04 0.  0.
        1    1    3    3  502    0 -0.79544502060E+03 -0.39933322878E+03 -0.75899639920E+03  0.11697330219E+04  0.50400001928E-02 0.  1.
       -1    1    3    3    0  502  0.79544502060E+03  0.39933322878E+03  0.14741790175E+04  0.17220347220E+04  0.50400001928E-02 0. -1.
</event>
<event>
 5   0  0.9260173E-06  0.2788917E+04  0.7818609E-02  0.8306717E-01
       -2   -1    0    0    0  501  0.00000000000E+00  0.00000000000E+00  0.71479546740E+03  0.71479546740E+03  0.25500000920E-02 0. -1.
        2   -1    0    0  501    0  0.00000000000E+00  0.00000000000E+00 -0.27203794220E+04  0.27203794220E+04  0.25500000920E-02 0.  1.
    10030    2    1    2    0    0  0.00000000000E+00  0.00000000000E+00 -0.20055839546E+04  0.34351748894E+04  0.27889172669E+04 0.  0.
        1    1    3    3  502    0  0.62569640153E+03  0.12235943307E+04 -0.12938433298E+04  0.18875141417E+04  0.50400001928E-02 0.  1.
       -1    1    3    3    0  502 -0.62569640153E+03 -0.12235943307E+04 -0.71174062481E+03  0.15476607477E+04  0.50400001928E-02 0. -1.
</event>
<event>
 5   0  0.3357244E-06  0.2874801E+04  0.7818609E-02  0.8280415E-01
        1   -1    0    0  501    0  0.00000000000E+00  0.00000000000E+00  0.12796467405E+04  0.12796467405E+04  0.50400001928E-02 0. -1.
       -1   -1    0    0    0  501  0.00000000000E+00  0.00000000000E+00 -0.16146015100E+04  0.16146015100E+04  0.50400001928E-02 0.  1.
    10030    2    1    2    0    0  0.00000000000E+00  0.00000000000E+00 -0.33495476942E+03  0.28942482505E+04  0.28748005562E+04 0.  0.
        4    1    3    3  502    0  0.87522299833E+03 -0.62870784751E+03 -0.11251373607E+04  0.15579552457E+04  0.12699999809E+01 0.  1.
       -4    1    3    3    0  502 -0.87522299833E+03  0.62870784751E+03  0.79018259125E+03  0.13362930048E+04  0.12699999809E+01 0. -1.
</event>
<event>
 5   0  0.3600963E-06  0.2795045E+04  0.7818609E-02  0.8304808E-01
       -1   -1    0    0    0  501  0.00000000000E+00  0.00000000000E+00  0.12783209905E+04  0.12783209905E+04  0.50400001928E-02 0.  1.
        1   -1    0    0  501    0  0.00000000000E+00  0.00000000000E+00 -0.15278388325E+04  0.15278388325E+04  0.50400001928E-02 0. -1.
    10030    2    1    2    0    0  0.00000000000E+00  0.00000000000E+00 -0.24951784201E+03  0.28061598231E+04  0.27950445075E+04 0.  0.
        5    1    3    3  502    0  0.62028250030E+03 -0.11840982325E+04 -0.53406556472E+03  0.14394745992E+04  0.46999998093E+01 0. -1.
       -5    1    3    3    0  502 -0.62028250030E+03  0.11840982325E+04  0.28454772272E+03  0.13666852238E+04  0.46999998093E+01 0.  1.
</event>
<event>
 5   0  0.3438130E-06  0.2806703E+04  0.7818609E-02  0.8301190E-01
       -1   -1    0    0    0  501  0.00000000000E+00  0.00000000000E+00  0.86086044440E+03  0.86086044441E+03  0.50400001928E-02 0. -1.
        1   -1    0    0  501    0  0.00000000000E+00  0.00000000000E+00 -0.22877057692E+04  0.22877057692E+04  0.50400001928E-02 0.  1.
    10030    2    1    2    0    0  0.00000000000E+00  0.00000000000E+00 -0.14268453248E+04  0.31485662136E+04  0.28067029805E+04 0.  0.
        3    1    3    3  502    0 -0.48917470443E+03  0.13506946842E+03 -0.21811671717E+04  0.22394253490E+04  0.10100000352E+00 0.  1.
       -3    1    3    3    0  502  0.48917470443E+03 -0.13506946842E+03  0.75432184690E+03  0.90914086459E+03  0.10100000352E+00 0. -1.
</event>
<event>
 5   0  0.9342133E-06  0.2839576E+04  0.7818609E-02  0.8291086E-01
        2   -1    0    0  501    0  0.00000000000E+00  0.00000000000E+00  0.27088794874E+04  0.27088794874E+04  0.25500000920E-02 0. -1.
       -2   -1    0    0    0  501  0.00000000000E+00  0.00000000000E+00 -0.74414440785E+03  0.74414440785E+03  0.25500000920E-02 0.  1.
    10030    2    1    2    0    0  0.00000000000E+00  0.00000000000E+00  0.19647350795E+04  0.34530238952E+04  0.28395756881E+04 0.  0.
        2    1    3    3  502    0 -0.70663493761E+03 -0.92414115097E+03  0.19720944608E+04  0.22896563856E+04  0.25500000920E-02 0.  1.
       -2    1    3    3    0  502  0.70663493761E+03  0.92414115097E+03 -0.73593812369E+01  0.11633675096E+04  0.25500000920E-02 0. -1.
</event>
<event>
 5   0  0.3438130E-06  0.2771609E+04  0.7818609E-02  0.8312137E-01
        1   -1    0    0  501    0  0.00000000000E+00  0.00000000000E+00  0.20333627159E+04  0.20333627159E+04  0.50400001928E-02 0.  1.
       -1   -1    0    0    0  501  0.00000000000E+00  0.00000000000E+00 -0.94447188682E+03  0.94447188683E+03  0.50400001928E-02 0. -1.
    10030    2    1    2    0    0  0.00000000000E+00  0.00000000000E+00  0.10888908291E+04  0.29778346028E+04  0.27716088620E+04 0.  0.
        3    1    3    3  502    0  0.17823868728E+03  0.54158009143E+03  0.19015088296E+04  0.19851483230E+04  0.10100000352E+00 0.  1.
       -3    1    3    3    0  502 -0.17823868728E+03 -0.54158009143E+03 -0.81261800049E+03  0.99268627975E+03  0.10100000352E+00 0. -1.
</event>
<event>
 5   0  0.3397882E-06  0.2781719E+04  0.7818609E-02  0.8308966E-01
        1   -1    0    0  501    0  0.00000000000E+00  0.00000000000E+00  0.24147738974E+04  0.24147738974E+04  0.50400001928E-02 0.  1.
       -1   -1    0    0    0  501  0.00000000000E+00  0.00000000000E+00 -0.80110603946E+03  0.80110603948E+03  0.50400001928E-02 0. -1.
    10030    2    1    2    0    0  0.00000000000E+00  0.00000000000E+00  0.16136678579E+04  0.32158799368E+04  0.27817188594E+04 0.  0.
        2    1    3    3  502    0 -0.13699335749E+04  0.36316897402E+02  0.10815159564E+04  0.17457702256E+04  0.25500000920E-02 0. -1.
       -2    1    3    3    0  502  0.13699335749E+04 -0.36316897402E+02  0.53215190151E+03  0.14701097112E+04  0.25500000920E-02 0.  1.
</event>
<event>
 5   0  0.3357244E-06  0.2727159E+04  0.7818609E-02  0.8326246E-01
       -1   -1    0    0    0  501  0.00000000000E+00  0.00000000000E+00  0.13012232557E+04  0.13012232557E+04  0.50400001928E-02 0.  1.
        1   -1    0    0  501    0  0.00000000000E+00  0.00000000000E+00 -0.14289243584E+04  0.14289243584E+04  0.50400001928E-02 0. -1.
    10030    2    1    2    0    0  0.00000000000E+00  0.00000000000E+00 -0.12770110271E+03  0.27301476141E+04  0.27271594055E+04 0.  0.
        4    1    3    3  502    0  0.53628576104E+03 -0.35235617395E+03 -0.12683275142E+04  0.14214125323E+04  0.12699999809E+01 0. -1.
       -4    1    3    3    0  502 -0.53628576104E+03  0.35235617395E+03  0.11406264115E+04  0.13087350818E+04  0.12699999809E+01 0.  1.
</event>
<event>
 5   0  0.9065579E-06  0.2855330E+04  0.7818609E-02  0.8286293E-01
       -2   -1    0    0    0  501  0.00000000000E+00  0.00000000000E+00  0.31714595851E+04  0.31714595851E+04  0.25500000920E-02 0.  1.
        2   -1    0    0  501    0  0.00000000000E+00  0.00000000000E+00 -0.64267816624E+03  0.64267816625E+03  0.25500000920E-02 0. -1.
    10030    2    1    2    0    0  0.00000000000E+00  0.00000000000E+00  0.25287814189E+04  0.38141377514E+04  0.28553303350E+04 0.  0.
        3    1    3    3  502    0 -0.65655227181E+02 -0.14036454946E+04  0.16015211171E+04  0.21305870510E+04  0.10100000352E+00 0. -1.
       -3    1    3    3    0  502  0.65655227181E+02  0.14036454946E+04  0.92726030184E+03  0.16835507004E+04  0.10100000352E+00 0.  1.
</event>
<event>
 5   0  0.9065579E-06  0.2753257E+04  0.7818609E-02  0.8317929E-01
       -2   -1    0    0    0  501  0.00000000000E+00  0.00000000000E+00  0.17426851110E+04  0.17426851110E+04  0.25500000920E-02 0. -1.
        2   -1    0    0  501    0  0.00000000000E+00  0.00000000000E+00 -0.10874629341E+04  0.10874629341E+04  0.25500000920E-02 0.  1.
    10030    2    1    2    0    0  0.00000000000E+00  0.00000000000E+00  0.65522217684E+03  0.28301480451E+04  0.27532565911E+04 0.  0.
        3    1    3    3  502    0 -0.53088239994E+03 -0.72838616827E+03 -0.74198826554E+03  0.11674455572E+04  0.10100000352E+00 0.  1.
       -3    1    3    3    0  502  0.53088239994E+03  0.72838616827E+03  0.13972104424E+04  0.16627024879E+04  0.10100000352E+00 0. -1.
</event>
<event>
 5   0  0.3397882E-06  0.2807395E+04  0.7818609E-02  0.8300976E-01
        1   -1    0    0  501    0  0.00000000000E+00  0.00000000000E+00  0.11940757824E+04  0.11940757824E+04  0.50400001928E-02 0. -1.
       -1   -1    0    0    0  501  0.00000000000E+00  0.00000000000E+00 -0.16501191290E+04  0.16501191290E+04  0.50400001928E-02 0.  1.
    10030    2    1    2    0    0  0.00000000000E+00  0.00000000000E+00 -0.45604334664E+03  0.28441949115E+04  0.28073954407E+04 0.  0.
        2    1    3    3  502    0 -0.61073757088E+03  0.80093934710E+03  0.76247633517E+03  0.12632792169E+04  0.25500000920E-02 0. -1.
       -2    1    3    3    0  502  0.61073757088E+03 -0.80093934710E+03 -0.12185196818E+04  0.15809156945E+04  0.25500000920E-02 0.  1.
</event>
<event>
 5   0  0.3600963E-06  0.2830218E+04  0.7818609E-02  0.8293948E-01
        1   -1    0    0  501    0  0.00000000000E+00  0.00000000000E+00  0.83933926532E+03  0.83933926534E+03  0.50400001928E-02 0. -1.
       -1   -1    0    0    0  501  0.00000000000E+00  0.00000000000E+00 -0.23858448630E+04  0.23858448630E+04  0.50400001928E-02 0.  1.
    10030    2    1    2    0    0  0.00000000000E+00  0.00000000000E+00 -0.15465055976E+04  0.32251841283E+04  0.28302178534E+04 0.  0.
        5    1    3    3  502    0  0.69064587405E+03  0.30129997321E+03  0.59171031701E+03  0.95807963471E+03  0.46999998093E+01 0. -1.
       -5    1    3    3    0  502 -0.69064587405E+03 -0.30129997321E+03 -0.21382159146E+04  0.22671044936E+04  0.46999998093E+01 0.  1.
</event>
<event>
 5   0  0.9252359E-06  0.2791040E+04  0.7818609E-02  0.8306056E-01
       -2   -1    0    0    0  501  0.00000000000E+00  0.00000000000E+00  0.11015187834E+04  0.11015187834E+04  0.25500000920E-02 0. -1.
        2   -1    0    0  501    0  0.00000000000E+00  0.00000000000E+00 -0.17679911679E+04  0.17679911679E+04  0.25500000920E-02 0.  1.
    10030    2    1    2    0    0  0.00000000000E+00  0.00000000000E+00 -0.66647238448E+03  0.28695099514E+04  0.27910395772E+04 0.  0.
        5    1    3    3  502    0 -0.21480783604E+03  0.71413446679E+03  0.87947033294E+03  0.11530917568E+04  0.46999998093E+01 0. -1.
       -5    1    3    3    0  502  0.21480783604E+03 -0.71413446679E+03 -0.15459427174E+04  0.17164181946E+04  0.46999998093E+01 0.  1.
</event>
<event>
 5   0  0.9260173E-06  0.2895568E+04  0.7818609E-02  0.8274197E-01
        2   -1    0    0  501    0  0.00000000000E+00  0.00000000000E+00  0.20297683148E+04  0.20297683148E+04  0.25500000920E-02 0. -1.
       -2   -1    0    0    0  501  0.00000000000E+00  0.00000000000E+00 -0.10326688478E+04  0.10326688478E+04  0.25500000920E-02 0.  1.
    10030    2    1    2    0    0  0.00000000000E+00  0.00000000000E+00  0.99709946697E+03  0.30624371626E+04  0.28955679975E+04 0.  0.
        1    1    3    3  502    0  0.86094849631E+03 -0.98560918891E+00 -0.73250754532E+03  0.11303984203E+04  0.50400001928E-02 0.  1.
       -1    1    3    3    0  502 -0.86094849631E+03  0.98560918891E+00  0.17296070123E+04  0.19320387423E+04  0.50400001928E-02 0. -1.
</event>
<event>
 5   0  0.3006875E-06  0.2795902E+04  0.7818609E-02  0.8304542E-01
       -3   -1    0    0    0  501  0.00000000000E+00  0.00000000000E+00  0.10184994744E+04  0.10184994794E+04  0.10100000352E+00 0. -1.
        3   -1    0    0  501    0  0.00000000000E+00  0.00000000000E+00 -0.19187712080E+04  0.19187712106E+04  0.10100000352E+00 0.  1.
    10030    2    1    2    0    0  0.00000000000E+00  0.00000000000E+00 -0.90027173357E+03  0.29372706900E+04  0.27959023431E+04 0.  0.
        3    1    3    3  502    0 -0.15329407375E+03  0.74761726756E+03 -0.16806120174E+04  0.18457755592E+04  0.10100000352E+00 0.  1.
       -3    1    3    3    0  502  0.15329407375E+03 -0.74761726756E+03  0.78034028381E+03  0.10914951308E+04  0.10100000352E+00 0. -1.
</event>
<event>
 5   0  0.3357244E-06  0.2772219E+04  0.7818609E-02  0.8311945E-01
        1   -1    0    0  501    0  0.00000000000E+00  0.00000000000E+00  0.19234783475E+04  0.19234783475E+04  0.50400001928E-02 0.  1.
       -1   -1    0    0    0  501  0.00000000000E+00  0.00000000000E+00 -0.99886724448E+03  0.99886724449E+03  0.50400001928E-02 0. -1.
    10030    2    1    2    0    0  0.00000000000E+00  0.00000000000E+00  0.92461110298E+03  0.29223455920E+04  0.27722189789E+04 0.  0.
        4    1    3    3  502    0 -0.13310470990E+04 -0.28739921287E+03  0.73519344768E+03  0.15475127482E+04  0.12699999809E+01 0. -1.
       -4    1    3    3    0  502  0.13310470990E+04  0.28739921287E+03  0.18941765530E+03  0.13748328438E+04  0.12699999809E+01 0.  1.
</event>
<event>
 5   0  0.9426937E-06  0.2791262E+04  0.7818609E-02  0.8305986E-01
        2   -1    0    0  501    0  0.00000000000E+00  0.00000000000E+00  0.55326340955E+03  0.55326340955E+03  0.25500000920E-02 0. -1.
       -2   -1    0    0    0  501  0.00000000000E+00  0.00000000000E+00 -0.35205388042E+04  0.35205388042E+04  0.25500000920E-02 0.  1.
    10030    2    1    2    0    0  0.00000000000E+00  0.00000000000E+00 -0.29672753946E+04  0.40738022137E+04  0.27912615802E+04 0.  0.
        4    1    3    3  502    0  0.21886909066E+03  0.26347842901E+03  0.49096360906E+03  0.59864132811E+03  0.12699999809E+01 0. -1.
       -4    1    3    3    0  502 -0.21886909066E+03 -0.26347842901E+03 -0.34582390037E+04  0.34751608856E+04  0.12699999809E+01 0.  1.
</event>
<event>
 5   0  0.9065579E-06  0.2772175E+04  0.7818609E-02  0.8311959E-01
       -2   -1    0    0    0  501  0.00000000000E+00  0.00000000000E+00  0.10607065723E+04  0.10607065723E+04  0.25500000920E-02 0. -1.
        2   -1    0    0  501    0  0.00000000000E+00  0.00000000000E+00 -0.18112819568E+04  0.18112819568E+04  0.25500000920E-02 0.  1.
    10030    2    1    2    0    0  0.00000000000E+00  0.00000000000E+00 -0.75057538450E+03  0.28719885290E+04  0.27721750852E+04 0.  0.
        3    1    3    3  502    0 -0.76810993769E+03 -0.10919230257E+04 -0.76146891793E+03  0.15369201976E+04  0.10100000352E+00 0. -1.
       -3    1    3    3    0  502  0.76810993769E+03  0.10919230257E+04  0.10893533438E+02  0.13350683315E+04  0.10100000352E+00 0.  1.
</event>
<event>
 5   0  0.9252359E-06  0.2791881E+04  0.7818609E-02  0.8305793E-01
       -2   -1    0    0    0  501  0.00000000000E+00  0.00000000000E+00  0.10298266975E+04  0.10298266975E+04  0.25500000920E-02 0. -1.
        2   -1    0    0  501    0  0.00000000000E+00  0.00000000000E+00 -0.18922117252E+04  0.18922117252E+04  0.25500000920E-02 0.  1.
    10030    2    1    2    0    0  0.00000000000E+00  0.00000000000E+00 -0.86238502774E+03  0.29220384227E+04  0.27918811952E+04 0.  0.
        5    1    3    3  502    0  0.18866897558E+03  0.13484199294E+04 -0.10894952532E+03  0.13659152160E+04  0.46999998093E+01 0. -1.
       -5    1    3    3    0  502 -0.18866897558E+03 -0.13484199294E+04 -0.75343550242E+03  0.15561232067E+04  0.46999998093E+01 0.  1.
</event>
<event>
 5   0  0.9252359E-06  0.2807924E+04  0.7818609E-02  0.8300813E-01
        2   -1    0    0  501    0  0.00000000000E+00  0.00000000000E+00  0.26056928935E+04  0.26056928935E+04  0.25500000920E-02 0.  1.
       -2   -1    0    0    0  501  0.00000000000E+00  0.00000000000E+00 -0.75646252567E+03  0.75646252567E+03  0.25500000920E-02 0. -1.
    10030    2    1    2    0    0  0.00000000000E+00  0.00000000000E+00  0.18492303679E+04  0.33621554192E+04  0.28079238076E+04 0.  0.
        5    1    3    3  502    0  0.27951001459E+03  0.73265199770E+03  0.23190283554E+04  0.24480235704E+04  0.46999998093E+01 0.  1.
       -5    1    3    3    0  502 -0.27951001459E+03 -0.73265199770E+03 -0.46979798752E+03  0.91413184884E+03  0.46999998093E+01 0. -1.
</event>
<event>
 5   0  0.9252359E-06  0.2819775E+04  0.7818609E-02  0.8297155E-01
        2   -1    0    0  501    0  0.00000000000E+00  0.00000000000E+00  0.26051742293E+04  0.26051742293E+04  0.25500000920E-02 0. -1.
       -2   -1    0    0    0  501  0.00000000000E+00  0.00000000000E+00 -0.76301350646E+03  0.76301350647E+03  0.25500000920E-02 0.  1.
    10030    2    1    2    0    0  0.00000000000E+00  0.00000000000E+00  0.18421607228E+04  0.33681877357E+04  0.28197752560E+04 0.  0.
        5    1    3    3  502    0  0.11225842494E+03 -0.13833142588E+04  0.62461445031E+03  0.15219479604E+04  0.46999998093E+01 0. -1.
       -5    1    3    3    0  502 -0.11225842494E+03  0.13833142588E+04  0.12175462725E+04  0.18462397754E+04  0.46999998093E+01 0.  1.
</event>
<event>
 5   0  0.3600963E-06  0.2803349E+04  0.7818609E-02  0.8302229E-01
        1   -1    0    0  501    0  0.00000000000E+00  0.00000000000E+00  0.15863377728E+04  0.15863377728E+04  0.50400001928E-02 0.  1.
       -1   -1    0    0    0  501  0.00000000000E+00  0.00000000000E+00 -0.12385077966E+04  0.12385077966E+04  0.50400001928E-02 0. -1.
    10030    2    1    2    0    0  0.00000000000E+00  0.00000000000E+00  0.34782997620E+03  0.28248455693E+04  0.28033492109E+04 0.  0.
        5    1    3    3  502    0 -0.10290683254E+04 -0.87064462121E+03 -0.21330491250E+03  0.13647434742E+04  0.46999998093E+01 0.  1.
       -5    1    3    3    0  502  0.10290683254E+04  0.87064462121E+03  0.56113488870E+03  0.14601020951E+04  0.46999998093E+01 0. -1.
</event>
<event>
 5   0  0.9260173E-06  0.2823491E+04  0.7818609E-02  0.8296012E-01
        2   -1    0    0  501    0  0.00000000000E+00  0.00000000000E+00  0.12846873119E+04  0.12846873119E+04  0.25500000920E-02 0.  1.
       -2   -1    0    0    0  501  0.00000000000E+00  0.00000000000E+00 -0.15513696653E+04  0.15513696653E+04  0.25500000920E-02 0. -1.
    10030    2    1    2    0    0  0.00000000000E+00  0.00000000000E+00 -0.26668235339E+03  0.28360569771E+04  0.28234906941E+04 0.  0.
        1    1    3    3  502    0 -0.12198086626E+03  0.11166072948E+04  0.72564543855E+03  0.13372555796E+04  0.50400001928E-02 0.  1.
       -1    1    3    3    0  502  0.12198086626E+03 -0.11166072948E+04 -0.99232779194E+03  0.14988013975E+04  0.50400001928E-02 0. -1.
</event>
<event>
 5   0  0.3397882E-06  0.2802917E+04  0.7818609E-02  0.8302363E-01
        1   -1    0    0  501    0  0.00000000000E+00  0.00000000000E+00  0.19001215357E+04  0.19001215357E+04  0.50400001928E-02 0. -1.
       -1   -1    0    0    0  501  0.00000000000E+00  0.00000000000E+00 -0.10336634086E+04  0.10336634086E+04  0.50400001928E-02 0.  1.
    10030    2    1    2    0    0  0.00000000000E+00  0.00000000000E+00  0.86645812710E+03  0.29337849442E+04  0.28029171256E+04 0.  0.
        2    1    3    3  502    0  0.13151321981E+04  0.48424002356E+03  0.43846297467E+03  0.14684382449E+04  0.25500000920E-02 0. -1.
       -2    1    3    3    0  502 -0.13151321981E+04 -0.48424002356E+03  0.42799515243E+03  0.14653466994E+04  0.25500000920E-02 0.  1.
</event>
<event>
 5   0  0.3357244E-06  0.2798821E+04  0.7818609E-02  0.8303635E-01
       -1   -1    0    0    0  501  0.00000000000E+00  0.00000000000E+00  0.10141547169E+04  0.10141547169E+04  0.50400001928E-02 0.  1.
        1   -1    0    0  501    0  0.00000000000E+00  0.00000000000E+00 -0.19310162832E+04  0.19310162832E+04  0.50400001928E-02 0. -1.
    10030    2    1    2    0    0  0.00000000000E+00  0.00000000000E+00 -0.91686156636E+03  0.29451710001E+04  0.27988206602E+04 0.  0.
        4    1    3    3  502    0  0.96181361295E+03 -0.17512923358E+03  0.59522209673E+03  0.11445726853E+04  0.12699999809E+01 0.  1.
       -4    1    3    3    0  502 -0.96181361295E+03  0.17512923358E+03 -0.15120836631E+04  0.18005983149E+04  0.12699999809E+01 0. -1.
</event>
<event>
 5   0  0.3438130E-06  0.2720762E+04  0.7818609E-02  0.8328300E-01
       -1   -1    0    0    0  501  0.00000000000E+00  0.00000000000E+00  0.15515510193E+04  0.15515510193E+04  0.50400001928E-02 0.  1.
        1   -1    0    0  501    0  0.00000000000E+00  0.00000000000E+00 -0.11927657917E+04  0.11927657917E+04  0.50400001928E-02 0. -1.
    10030    2    1    2    0    0  0.00000000000E+00  0.00000000000E+00  0.35878522759E+03  0.27443168111E+04  0.27207623784E+04 0.  0.
        3    1    3    3  502    0  0.16738723052E+03 -0.12548022479E+04 -0.32300560356E+03  0.13064760987E+04  0.10100000352E+00 0. -1.
       -3    1    3    3    0  502 -0.16738723052E+03  0.12548022479E+04  0.68179083115E+03  0.14378407123E+04  0.10100000352E+00 0.  1.
</event>
<event>
 5   0  0.9260173E-06  0.2789656E+04  0.7818609E-02  0.8306487E-01
       -2   -1    0    0    0  501  0.00000000000E+00  0.00000000000E+00  0.15526278870E+04  0.15526278870E+04  0.25500000920E-02 0. -1.
        2   -1    0    0  501    0  0.00000000000E+00  0.00000000000E+00 -0.12530661147E+04  0.12530661147E+04  0.25500000920E-02 0.  1.
    10030    2    1    2    0    0  0.00000000000E+00  0.00000000000E+00  0.29956177224E+03  0.28056940017E+04  0.27896561752E+04 0.  0.
        1    1    3    3  502    0  0.63855759095E+02 -0.11083087248E+04 -0.69953806032E+03  0.13121658757E+04  0.50400001928E-02 0. -1.
       -1    1    3    3    0  502 -0.63855759095E+02  0.11083087248E+04  0.99909983256E+03  0.14935281259E+04  0.50400001928E-02 0.  1.
</event>
<event>
 5   0  0.3357244E-06  0.3116848E+04  0.7818609E-02  0.8211129E-01
        1   -1    0    0  501    0  0.00000000000E+00  0.00000000000E+00  0.24573695499E+04  0.24573695499E+04  0.50400001928E-02 0. -1.
       -1   -1    0    0    0  501  0.00000000000E+00  0.00000000000E+00 -0.98832733094E+03  0.98832733095E+03  0.50400001928E-02 0.  1.
    10030    2    1    2    0    0  0.00000000000E+00  0.00000000000E+00  0.14690422189E+04  0.34456968808E+04  0.31168480800E+04 0.  0.
        4    1    3    3  502    0 -0.11182632738E+04 -0.41007158150E+03 -0.37650635085E+03  0.12491717642E+04  0.12699999809E+01 0.  1.
       -4    1    3    3    0  502  0.11182632738E+04  0.41007158150E+03  0.18455485698E+04  0.21965251166E+04  0.12699999809E+01 0. -1.
</event>
<event>
 5   0  0.3357244E-06  0.2489607E+04  0.7818609E-02  0.8406698E-01
       -1   -1    0    0    0  501  0.00000000000E+00  0.00000000000E+00  0.72722966679E+03  0.72722966681E+03  0.50400001928E-02 0.  1.
        1   -1    0    0  501    0  0.00000000000E+00  0.00000000000E+00 -0.21307369801E+04  0.21307369802E+04  0.50400001928E-02 0. -1.
    10030    2    1    2    0    0  0.00000000000E+00  0.00000000000E+00 -0.14035073134E+04  0.28579666470E+04  0.24896065104E+04 0.  0.
        4    1    3    3  502    0  0.49696909070E+03  0.70856042676E+03 -0.17288386917E+04  0.19333703707E+04  0.12699999809E+01 0. -1.
       -4    1    3    3    0  502 -0.49696909070E+03 -0.70856042676E+03  0.32533137832E+03  0.92459627628E+03  0.12699999809E+01 0.  1.
</event>
<event>
 5   0  0.3600963E-06  0.2811365E+04  0.7818609E-02  0.8299749E-01
        1   -1    0    0  501    0  0.00000000000E+00  0.00000000000E+00  0.13016398336E+04  0.13016398336E+04  0.50400001928E-02 0. -1.
       -1   -1    0    0    0  501  0.00000000000E+00  0.00000000000E+00 -0.15180420300E+04  0.15180420300E+04  0.50400001928E-02 0.  1.
    10030    2    1    2    0    0  0.00000000000E+00  0.00000000000E+00 -0.21640219635E+03  0.28196818636E+04  0.28113654870E+04 0.  0.
        5    1    3    3  502    0 -0.95950112297E+03 -0.37644602721E+03 -0.10668359416E+04  0.14834133047E+04  0.46999998093E+01 0.  1.
       -5    1    3    3    0  502  0.95950112297E+03  0.37644602721E+03  0.85043374524E+03  0.13362685589E+04  0.46999998093E+01 0. -1.
</event>
<event>
 5   0  0.9342133E-06  0.2774906E+04  0.7818609E-02  0.8311102E-01
       -2   -1    0    0    0  501  0.00000000000E+00  0.00000000000E+00  0.14246525867E+04  0.14246525867E+04  0.25500000920E-02 0.  1.
        2   -1    0    0  501    0  0.00000000000E+00  0.00000000000E+00 -0.13512244598E+04  0.13512244598E+04  0.25500000920E-02 0. -1.
    10030    2    1    2    0    0  0.00000000000E+00  0.00000000000E+00  0.73428126955E+02  0.27758770465E+04  0.27749057079E+04 0.  0.
        2    1    3    3  502    0  0.58325168627E+03  0.80761259829E+03 -0.92933862807E+03  0.13623842792E+04  0.25500000920E-02 0. -1.
       -2    1    3    3    0  502 -0.58325168627E+03 -0.80761259829E+03  0.10027667550E+04  0.14134927674E+04  0.25500000920E-02 0.  1.
</event>
<event>
 5   0  0.9426937E-06  0.2816407E+04  0.7818609E-02  0.8298193E-01
       -2   -1    0    0    0  501  0.00000000000E+00  0.00000000000E+00  0.96849570324E+03  0.96849570324E+03  0.25500000920E-02 0. -1.
        2   -1    0    0  501    0  0.00000000000E+00  0.00000000000E+00 -0.20475435501E+04  0.20475435501E+04  0.25500000920E-02 0.  1.
    10030    2    1    2    0    0  0.00000000000E+00  0.00000000000E+00 -0.10790478469E+04  0.30160392534E+04  0.28164070235E+04 0.  0.
        4    1    3    3  502    0  0.93871774791E+03  0.67316630359E+03 -0.14020271327E+04  0.18165972521E+04  0.12699999809E+01 0.  1.
       -4    1    3    3    0  502 -0.93871774791E+03 -0.67316630359E+03  0.32297928579E+03  0.11994420013E+04  0.12699999809E+01 0. -1.
</event>
<event>
 5   0  0.9252359E-06  0.2804470E+04  0.7818609E-02  0.8301882E-01
        2   -1    0    0  501    0  0.00000000000E+00  0.00000000000E+00  0.18606261571E+04  0.18606261571E+04  0.25500000920E-02 0. -1.
       -2   -1    0    0    0  501  0.00000000000E+00  0.00000000000E+00 -0.10567746014E+04  0.10567746014E+04  0.25500000920E-02 0.  1.
    10030    2    1    2    0    0  0.00000000000E+00  0.00000000000E+00  0.80385155572E+03  0.29174007585E+04  0.28044696223E+04 0.  0.
        5    1    3    3  502    0 -0.10950613002E+04 -0.66857811744E+03 -0.18661644167E+03  0.12965352816E+04  0.46999998093E+01 0. -1.
       -5    1    3    3    0  502  0.10950613002E+04  0.66857811744E+03  0.99046799738E+03  0.16208654769E+04  0.46999998093E+01 0.  1.
</event>
<event>
 5   0  0.9065579E-06  0.2798881E+04  0.7818609E-02  0.8303616E-01
        2   -1    0    0  501    0  0.00000000000E+00  0.00000000000E+00  0.65200407732E+03  0.65200407732E+03  0.25500000920E-02 0. -1.
       -2   -1    0    0    0  501  0.00000000000E+00  0.00000000000E+00 -0.30037129230E+04  0.30037129230E+04  0.25500000920E-02 0.  1.
    10030    2    1    2    0    0  0.00000000000E+00  0.00000000000E+00 -0.23517088457E+04  0.36557170003E+04  0.27988805426E+04 0.  0.
        3    1    3    3  502    0 -0.13371555247E+04 -0.25600797428E+03 -0.75280346731E+03  0.15557114291E+04  0.10100000352E+00 0.  1.
       -3    1    3    3    0  502  0.13371555247E+04  0.25600797428E+03 -0.15989053784E+04  0.21000055712E+04  0.10100000352E+00 0. -1.
</event>
<event>
 5   0  0.9252359E-06  0.2806295E+04  0.7818609E-02  0.8301317E-01
       -2   -1    0    0    0  501  0.00000000000E+00  0.00000000000E+00  0.11216746828E+04  0.11216746828E+04  0.25500000920E-02 0. -1.
        2   -1    0    0  501    0  0.00000000000E+00  0.00000000000E+00 -0.17552531339E+04  0.17552531339E+04  0.25500000920E-02 0.  1.
    10030    2    1    2    0    0  0.00000000000E+00  0.00000000000E+00 -0.63357845110E+03  0.28769278167E+04  0.28062950681E+04 0.  0.
        5    1    3    3  502    0 -0.52107726782E+03 -0.12241644868E+04 -0.77376726870E+03  0.15391030134E+04  0.46999998093E+01 0.  1.
       -5    1    3    3    0  502  0.52107726782E+03  0.12241644868E+04  0.14018881759E+03  0.13378248033E+04  0.46999998093E+01 0. -1.
</event>
<event>
 5   0  0.9342133E-06  0.2782496E+04  0.7818609E-02  0.8308723E-01
        2   -1    0    0  501    0  0.00000000000E+00  0.00000000000E+00  0.10628581950E+04  0.10628581950E+04  0.25500000920E-02 0. -1.
       -2   -1    0    0    0  501  0.00000000000E+00  0.00000000000E+00 -0.18210993976E+04  0.18210993976E+04  0.25500000920E-02 0.  1.
    10030    2    1    2    0    0  0.00000000000E+00  0.00000000000E+00 -0.75824120257E+03  0.28839575927E+04  0.27824955840E+04 0.  0.
        2    1    3    3  502    0  0.32541953515E+03 -0.13472091918E+04 -0.50478496669E+03  0.14750180823E+04  0.25500000920E-02 0. -1.
       -2    1    3    3    0  502 -0.32541953515E+03  0.13472091918E+04 -0.25345623588E+03  0.14089395104E+04  0.25500000920E-02 0.  1.
</event>
<event>
 5   0  0.3371603E-06  0.2812374E+04  0.7818609E-02  0.8299437E-01
       -1   -1    0    0    0  501  0.00000000000E+00  0.00000000000E+00  0.10443674540E+04  0.10443674540E+04  0.50400001928E-02 0. -1.
        1   -1    0    0  501    0  0.00000000000E+00  0.00000000000E+00 -0.18933590132E+04  0.18933590132E+04  0.50400001928E-02 0.  1.
    10030    2    1    2    0    0  0.00000000000E+00  0.00000000000E+00 -0.84899155922E+03  0.29377264673E+04  0.28123744645E+04 0.  0.
        1    1    3    3  502    0 -0.69059942187E+03 -0.11003109044E+04 -0.98677313705E+03  0.16313592099E+04  0.50400001928E-02 0.  1.
       -1    1    3    3    0  502  0.69059942187E+03  0.11003109044E+04  0.13778157783E+03  0.13063672573E+04  0.50400001928E-02 0. -1.
</event>
<event>
 5   0  0.3357244E-06  0.2803756E+04  0.7818609E-02  0.8302103E-01
        1   -1    0    0  501    0  0.00000000000E+00  0.00000000000E+00  0.13719929995E+04  0.13719929996E+04  0.50400001928E-02 0.  1.
       -1   -1    0    0    0  501  0.00000000000E+00  0.00000000000E+00 -0.14324139016E+04  0.14324139016E+04  0.50400001928E-02 0. -1.
    10030    2    1    2    0    0  0.00000000000E+00  0.00000000000E+00 -0.60420902022E+02  0.28044069011E+04  0.28037559419E+04 0.  0.
        4    1    3    3  502    0  0.10620396262E+04 -0.90123810986E+03 -0.18868313534E+03  0.14056177420E+04  0.12699999809E+01 0. -1.
       -4    1    3    3    0  502 -0.10620396262E+04  0.90123810986E+03  0.12826223332E+03  0.13987891591E+04  0.12699999809E+01 0.  1.
</event>
<event>
 5   0  0.9260173E-06  0.2801599E+04  0.7818609E-02  0.8302772E-01
       -2   -1    0    0    0  501  0.00000000000E+00  0.00000000000E+00  0.10768624558E+04  0.10768624558E+04  0.25500000920E-02 0. -1.
        2   -1    0    0  501    0  0.00000000000E+00  0.00000000000E+00 -0.18221822617E+04  0.18221822617E+04  0.25500000920E-02 0.  1.
    10030    2    1    2    0    0  0.00000000000E+00  0.00000000000E+00 -0.74531980592E+03  0.28990447175E+04  0.28015993041E+04 0.  0.
        1    1    3    3  502    0 -0.58611108184E+03 -0.57398599788E+02 -0.16878588992E+04  0.17876488646E+04  0.50400001928E-02 0.  1.
       -1    1    3    3    0  502  0.58611108184E+03  0.57398599788E+02  0.94253909326E+03  0.11113958529E+04  0.50400001928E-02 0. -1.
</event>
<event>
 5   0  0.9426937E-06  0.2767494E+04  0.7818609E-02  0.8313432E-01
       -2   -1    0    0    0  501  0.00000000000E+00  0.00000000000E+00  0.27689029673E+04  0.27689029673E+04  0.25500000920E-02 0.  1.
        2   -1    0    0  501    0  0.00000000000E+00  0.00000000000E+00 -0.69152146375E+03  0.69152146375E+03  0.25500000920E-02 0. -1.
    10030    2    1    2    0    0  0.00000000000E+00  0.00000000000E+00  0.20773815035E+04  0.34604244310E+04  0.27674940527E+04 0.  0.
        4    1    3    3  502    0  0.72827899250E+03  0.28815770402E+03 -0.38769252508E+03  0.87391776513E+03  0.12699999809E+01 0. -1.
       -4    1    3    3    0  502 -0.72827899250E+03 -0.28815770402E+03  0.24650740286E+04  0.25865066659E+04  0.12699999809E+01 0.  1.
</event>
<event>
 5   0  0.3397882E-06  0.2789897E+04  0.7818609E-02  0.8306412E-01
       -1   -1    0    0    0  501  0.00000000000E+00  0.00000000000E+00  0.70907775485E+03  0.70907775487E+03  0.50400001928E-02 0. -1.
        1   -1    0    0  501    0  0.00000000000E+00  0.00000000000E+00 -0.27442420543E+04  0.27442420543E+04  0.50400001928E-02 0.  1.
    10030    2    1    2    0    0  0.00000000000E+00  0.00000000000E+00 -0.20351642994E+04  0.34533198092E+04  0.27898967685E+04 0.  0.
        2    1    3    3  502    0 -0.87869969745E+03  0.80138746706E+03 -0.11514060862E+03  0.11948189781E+04  0.25500000920E-02 0. -1.
       -2    1    3    3    0  502  0.87869969745E+03 -0.80138746706E+03 -0.19200236908E+04  0.22585008311E+04  0.25500000920E-02 0.  1.
</event>
<event>
 5   0  0.3397882E-06  0.2762633E+04  0.7818609E-02  0.8314964E-01
       -1   -1    0    0    0  501  0.00000000000E+00  0.00000000000E+00  0.10809331919E+04  0.10809331919E+04  0.50400001928E-02 0. -1.
        1   -1    0    0  501    0  0.00000000000E+00  0.00000000000E+00 -0.17651734989E+04  0.17651734989E+04  0.50400001928E-02 0.  1.
    10030    2    1    2    0    0  0.00000000000E+00  0.00000000000E+00 -0.68424030701E+03  0.28461066908E+04  0.27626325304E+04 0.  0.
        2    1    3    3  502    0 -0.53925392117E+03  0.68791921092E+03  0.75978038252E+03  0.11581424187E+04  0.25500000920E-02 0. -1.
       -2    1    3    3    0  502  0.53925392117E+03 -0.68791921092E+03 -0.14440206895E+04  0.16879642722E+04  0.25500000920E-02 0.  1.
</event>
<event>
 5   0  0.9342133E-06  0.2799577E+04  0.7818609E-02  0.8303400E-01
        2   -1    0    0  501    0  0.00000000000E+00  0.00000000000E+00  0.15028192594E+04  0.15028192594E+04  0.25500000920E-02 0.  1.
       -2   -1    0    0    0  501  0.00000000000E+00  0.00000000000E+00 -0.13038211126E+04  0.13038211126E+04  0.25500000920E-02 0. -1.
    10030    2    1    2    0    0  0.00000000000E+00  0.00000000000E+00  0.19899814684E+03  0.28066403720E+04  0.27995767386E+04 0.  0.
        2    1    3    3  502    0  0.13634662223E+04 -0.17791508671E+03 -0.16329503255E+03  0.13846873962E+04  0.25500000920E-02 0. -1.
       -2    1    3    3    0  502 -0.13634662223E+04  0.17791508671E+03  0.36229317938E+03  0.14219529758E+04  0.25500000920E-02 0.  1.
</event>
<event>
 5   0  0.9065579E-06  0.2807898E+04  0.7818609E-02  0.8300821E-01
       -2   -1    0    0    0  501  0.00000000000E+00  0.00000000000E+00  0.11813111611E+04  0.11813111611E+04  0.25500000920E-02 0.  1.
        2   -1    0    0  501    0  0.00000000000E+00  0.00000000000E+00 -0.16685462539E+04  0.16685462540E+04  0.25500000920E-02 0. -1.
    10030    2    1    2    0    0  0.00000000000E+00  0.00000000000E+00 -0.48723509287E+03  0.28498574150E+04  0.28078976567E+04 0.  0.
        3    1    3    3  502    0 -0.12204288696E+03 -0.13949731915E+04 -0.14097453490E+03  0.14073800130E+04  0.10100000352E+00 0. -1.
       -3    1    3    3    0  502  0.12204288696E+03  0.13949731915E+04 -0.34626055797E+03  0.14424774021E+04  0.10100000352E+00 0.  1.
</event>
<event>
 5   0  0.9342133E-06  0.2795287E+04  0.7818609E-02  0.8304733E-01
       -2   -1    0    0    0  501  0.00000000000E+00  0.00000000000E+00  0.83123105611E+03  0.83123105611E+03  0.25500000920E-02 0.  1.
        2   -1    0    0  501    0  0.00000000000E+00  0.00000000000E+00 -0.23500164772E+04  0.23500164772E+04  0.25500000920E-02 0. -1.
    10030    2    1    2    0    0  0.00000000000E+00  0.00000000000E+00 -0.15187854211E+04  0.31812475334E+04  0.27952865172E+04 0.  0.
        2    1    3    3  502    0 -0.10060243895E+04  0.22098073738E+03  0.31576605101E+03  0.10773234229E+04  0.25500000920E-02 0.  1.
       -2    1    3    3    0  502  0.10060243895E+04 -0.22098073738E+03 -0.18345514721E+04  0.21039241104E+04  0.25500000920E-02 0. -1.
</event>
<event>
 5   0  0.9260173E-06  0.2770699E+04  0.7818609E-02  0.8312423E-01
       -2   -1    0    0    0  501  0.00000000000E+00  0.00000000000E+00  0.12283098365E+04  0.12283098365E+04  0.25500000920E-02 0.  1.
        2   -1    0    0  501    0  0.00000000000E+00  0.00000000000E+00 -0.15624670491E+04  0.15624670491E+04  0.25500000920E-02 0. -1.
    10030    2    1    2    0    0  0.00000000000E+00  0.00000000000E+00 -0.33415721259E+03  0.27907768857E+04  0.27706992949E+04 0.  0.
        1    1    3    3  502    0  0.28788676016E+03 -0.62056952423E+03 -0.13804691433E+04  0.15406752989E+04  0.50400001928E-02 0. -1.
       -1    1    3    3    0  502 -0.28788676016E+03  0.62056952423E+03  0.10463119307E+04  0.12501015868E+04  0.50400001928E-02 0.  1.
</event>
<event>
 5   0  0.3600963E-06  0.2481333E+04  0.7818609E-02  0.8409666E-01
       -1   -1    0    0    0  501  0.00000000000E+00  0.00000000000E+00  0.18307297639E+04  0.18307297639E+04  0.50400001928E-02 0.  1.
        1   -1    0    0  501    0  0.00000000000E+00  0.00000000000E+00 -0.84078698570E+03  0.84078698572E+03  0.50400001928E-02 0. -1.
    10030    2    1    2    0    0  0.00000000000E+00  0.00000000000E+00  0.98994277817E+03  0.26715167496E+04  0.24813333189E+04 0.  0.
        5    1    3    3  502    0  0.48278154554E+03 -0.11328092222E+04  0.33205631028E+03  0.12753894455E+04  0.46999998093E+01 0.  1.
       -5    1    3    3    0  502 -0.48278154554E+03  0.11328092222E+04  0.65788646789E+03  0.13961273041E+04  0.46999998093E+01 0. -1.
</event>
<event>
 5   0  0.9252359E-06  0.2794105E+04  0.7818609E-02  0.8305101E-01
        2   -1    0    0  501    0  0.00000000000E+00  0.00000000000E+00  0.19721772526E+04  0.19721772526E+04  0.25500000920E-02 0. -1.
       -2   -1    0    0    0  501  0.00000000000E+00  0.00000000000E+00 -0.98964486407E+03  0.98964486408E+03  0.25500000920E-02 0.  1.
    10030    2    1    2    0    0  0.00000000000E+00  0.00000000000E+00  0.98253238849E+03  0.29618221166E+04  0.27941045715E+04 0.  0.
        5    1    3    3  502    0  0.99039322724E+02 -0.13306602884E+04  0.52580290993E+02  0.13353847264E+04  0.46999998093E+01 0. -1.
       -5    1    3    3    0  502 -0.99039322724E+02  0.13306602884E+04  0.92995209750E+03  0.16264373902E+04  0.46999998093E+01 0.  1.
</event>
<event>
 5   0  0.9426937E-06  0.2826306E+04  0.7818609E-02  0.8295147E-01
       -2   -1    0    0    0  501  0.00000000000E+00  0.00000000000E+00  0.84267979610E+03  0.84267979610E+03  0.25500000920E-02 0. -1.
        2   -1    0    0  501    0  0.00000000000E+00  0.00000000000E+00 -0.23698231381E+04  0.23698231381E+04  0.25500000920E-02 0.  1.
    10030    2    1    2    0    0  0.00000000000E+00  0.00000000000E+00 -0.15271433420E+04  0.32125029342E+04  0.28263064793E+04 0.  0.
        4    1    3    3  502    0  0.10853490692E+04  0.64533888426E+03 -0.14847409348E+04  0.19490772519E+04  0.12699999809E+01 0.  1.
       -4    1    3    3    0  502 -0.10853490692E+04 -0.64533888426E+03 -0.42402407126E+02  0.12634256822E+04  0.12699999809E+01 0. -1.
</event>
<event>
 5   0  0.9342133E-06  0.2789803E+04  0.7818609E-02  0.8306441E-01
       -2   -1    0    0    0  501  0.00000000000E+00  0.00000000000E+00  0.11918279837E+04  0.11918279837E+04  0.25500000920E-02 0.  1.
        2   -1    0    0  501    0  0.00000000000E+00  0.00000000000E+00 -0.16325760351E+04  0.16325760351E+04  0.25500000920E-02 0. -1.
    10030    2    1    2    0    0  0.00000000000E+00  0.00000000000E+00 -0.44074805142E+03  0.28244040188E+04  0.27898027200E+04 0.  0.
        2    1    3    3  502    0  0.41440885216E+03  0.38679676739E+03  0.10699544097E+04  0.12108463465E+04  0.25500000920E-02 0.  1.
       -2    1    3    3    0  502 -0.41440885216E+03 -0.38679676739E+03 -0.15107024611E+04  0.16135576723E+04  0.25500000920E-02 0. -1.
</event>
<event>
 5   0  0.3600963E-06  0.2825904E+04  0.7818609E-02  0.8295271E-01
        1   -1    0    0  501    0  0.00000000000E+00  0.00000000000E+00  0.16334926645E+04  0.16334926645E+04  0.50400001928E-02 0. -1.
       -1   -1    0    0    0  501  0.00000000000E+00  0.00000000000E+00 -0.12221869516E+04  0.12221869517E+04  0.50400001928E-02 0.  1.
    10030    2    1    2    0    0  0.00000000000E+00  0.00000000000E+00  0.41130571284E+03  0.28556796162E+04  0.28259040466E+04 0.  0.
        5    1    3    3  502    0 -0.78634920976E+03 -0.67524184167E+03 -0.76473319290E+03  0.12880743654E+04  0.46999998093E+01 0.  1.
       -5    1    3    3    0  502  0.78634920976E+03  0.67524184167E+03  0.11760389057E+04  0.15676052508E+04  0.46999998093E+01 0. -1.
</event>
<event>
 5   0  0.3600963E-06  0.2789744E+04  0.7818609E-02  0.8306460E-01
        1   -1    0    0  501    0  0.00000000000E+00  0.00000000000E+00  0.12307521807E+04  0.12307521807E+04  0.50400001928E-02 0.  1.
       -1   -1    0    0    0  501  0.00000000000E+00  0.00000000000E+00 -0.15808765129E+04  0.15808765129E+04  0.50400001928E-02 0. -1.
    10030    2    1    2    0    0  0.00000000000E+00  0.00000000000E+00 -0.35012433213E+03  0.28116286936E+04  0.27897435120E+04 0.  0.
        5    1    3    3  502    0 -0.33610474849E+03  0.21158839890E+03  0.11725545975E+04  0.12379993645E+04  0.46999998093E+01 0.  1.
       -5    1    3    3    0  502  0.33610474849E+03 -0.21158839890E+03 -0.15226789296E+04  0.15736293290E+04  0.46999998093E+01 0. -1.
</event>
<event>
 5   0  0.9260173E-06  0.2789138E+04  0.7818609E-02  0.8306648E-01
       -2   -1    0    0    0  501  0.00000000000E+00  0.00000000000E+00  0.12800635495E+04  0.12800635495E+04  0.25500000920E-02 0.  1.
        2   -1    0    0  501    0  0.00000000000E+00  0.00000000000E+00 -0.15193176735E+04  0.15193176735E+04  0.25500000920E-02 0. -1.
    10030    2    1    2    0    0  0.00000000000E+00  0.00000000000E+00 -0.23925412402E+03  0.27993812230E+04  0.27891383429E+04 0.  0.
        1    1    3    3  502    0  0.11205141142E+04  0.47185688900E+03  0.56597918618E+03  0.13410940470E+04  0.50400001928E-02 0.  1.
       -1    1    3    3    0  502 -0.11205141142E+04 -0.47185688900E+03 -0.80523331020E+03  0.14582871760E+04  0.50400001928E-02 0. -1.
</event>
<event>
 5   0  0.9252359E-06  0.2818911E+04  0.7818609E-02  0.8297421E-01
        2   -1    0    0  501    0  0.00000000000E+00  0.00000000000E+00  0.17448165893E+04  0.17448165893E+04  0.25500000920E-02 0. -1.
       -2   -1    0    0    0  501  0.00000000000E+00  0.00000000000E+00 -0.11385519910E+04  0.11385519910E+04  0.25500000920E-02 0.  1.
    10030    2    1    2    0    0  0.00000000000E+00  0.00000000000E+00  0.60626459828E+03  0.28833685803E+04  0.28189107128E+04 0.  0.
        5    1    3    3  502    0  0.58660376117E+03  0.12797315761E+04  0.37344594423E+03  0.14564686206E+04  0.46999998093E+01 0. -1.
       -5    1    3    3    0  502 -0.58660376117E+03 -0.12797315761E+04  0.23281865405E+03  0.14268999598E+04  0.46999998093E+01 0.  1.
</event>
<event>
 5   0  0.9252359E-06  0.2809331E+04  0.7818609E-02  0.8300377E-01
       -2   -1    0    0    0  501  0.00000000000E+00  0.00000000000E+00  0.11629657045E+04  0.11629657045E+04  0.25500000920E-02 0.  1.
        2   -1    0    0  501    0  0.00000000000E+00  0.00000000000E+00 -0.16965973745E+04  0.16965973745E+04  0.25500000920E-02 0. -1.
    10030    2    1    2    0    0  0.00000000000E+00  0.00000000000E+00 -0.53363167004E+03  0.28595630790E+04  0.28093305686E+04 0.  0.
        5    1    3    3  502    0 -0.87214052460E+03 -0.33499093980E+03  0.80085039877E+03  0.12305411312E+04  0.46999998093E+01 0.  1.
       -5    1    3    3    0  502  0.87214052460E+03  0.33499093980E+03 -0.13344820688E+04  0.16290219478E+04  0.46999998093E+01 0. -1.
</event>
<event>
 5   0  0.3357244E-06  0.2592180E+04  0.7818609E-02  0.8370862E-01
        1   -1    0    0  501    0  0.00000000000E+00  0.00000000000E+00  0.84431647404E+03  0.84431647405E+03  0.50400001928E-02 0.  1.
       -1   -1    0    0    0  501  0.00000000000E+00  0.00000000000E+00 -0.19895961440E+04  0.19895961440E+04  0.50400001928E-02 0. -1.
    10030    2    1    2    0    0  0.00000000000E+00  0.00000000000E+00 -0.11452796700E+04  0.28339126181E+04  0.25921796243E+04 0.  0.
        4    1    3    3  502    0 -0.47748416637E+03  0.12038302772E+04 -0.62890500319E+03  0.14396949612E+04  0.12699999809E+01 0.  1.
       -4    1    3    3    0  502  0.47748416637E+03 -0.12038302772E+04 -0.51637466681E+03  0.13942176569E+04  0.12699999809E+01 0. -1.
</event>
<event>
 5   0  0.3357244E-06  0.2813696E+04  0.7818609E-02  0.8299029E-01
       -1   -1    0    0    0  501  0.00000000000E+00  0.00000000000E+00  0.10341907027E+04  0.10341907027E+04  0.50400001928E-02 0. -1.
        1   -1    0    0  501    0  0.00000000000E+00  0.00000000000E+00 -0.19137873401E+04  0.19137873401E+04  0.50400001928E-02 0.  1.
    10030    2    1    2    0    0  0.00000000000E+00  0.00000000000E+00 -0.87959663732E+03  0.29479780428E+04  0.28136958429E+04 0.  0.
        4    1    3    3  502    0  0.67782497317E+03  0.11506444401E+04  0.23800694991E+02  0.13356636582E+04  0.12699999809E+01 0. -1.
       -4    1    3    3    0  502 -0.67782497317E+03 -0.11506444401E+04 -0.90339733232E+03  0.16123143846E+04  0.12699999809E+01 0.  1.
</event>
<event>
 5   0  0.3397882E-06  0.2816300E+04  0.7818609E-02  0.8298226E-01
        1   -1    0    0  501    0  0.00000000000E+00  0.00000000000E+00  0.14782402760E+04  0.14782402760E+04  0.50400001928E-02 0.  1.
       -1   -1    0    0    0  501  0.00000000000E+00  0.00000000000E+00 -0.13413828810E+04  0.13413828810E+04  0.50400001928E-02 0. -1.
    10030    2    1    2    0    0  0.00000000000E+00  0.00000000000E+00  0.13685739503E+03  0.28196231570E+04  0.28162998421E+04 0.  0.
        2    1    3    3  502    0 -0.12149186536E+04 -0.15091962147E+03  0.76500982619E+03  0.14436218692E+04  0.25500000920E-02 0.  1.
       -2    1    3    3    0  502  0.12149186536E+04  0.15091962147E+03 -0.62815243116E+03  0.13760012878E+04  0.25500000920E-02 0. -1.
</event>
<event>
 5   0  0.9260173E-06  0.2858904E+04  0.7818609E-02  0.8285211E-01
       -2   -1    0    0    0  501  0.00000000000E+00  0.00000000000E+00  0.11030594334E+04  0.11030594334E+04  0.25500000920E-02 0.  1.
        2   -1    0    0  501    0  0.00000000000E+00  0.00000000000E+00 -0.18524237548E+04  0.18524237548E+04  0.25500000920E-02 0. -1.
    10030    2    1    2    0    0  0.00000000000E+00  0.00000000000E+00 -0.74936432133E+03  0.29554831882E+04  0.28589043338E+04 0.  0.
        1    1    3    3  502    0  0.47251621397E+03 -0.13416947261E+04 -0.22878633449E+03  0.14407496304E+04  0.50400001928E-02 0. -1.
       -1    1    3    3    0  502 -0.47251621397E+03  0.13416947261E+04 -0.52057798684E+03  0.15147335578E+04  0.50400001928E-02 0.  1.
</event>
<event>
 5   0  0.9252359E-06  0.2817588E+04  0.7818609E-02  0.8297829E-01
       -2   -1    0    0    0  501  0.00000000000E+00  0.00000000000E+00  0.13669638120E+04  0.13669638120E+04  0.25500000920E-02 0. -1.
        2   -1    0    0  501    0  0.00000000000E+00  0.00000000000E+00 -0.14519037733E+04  0.14519037733E+04  0.25500000920E-02 0.  1.
    10030    2    1    2    0    0  0.00000000000E+00  0.00000000000E+00 -0.84939961275E+02  0.28188675854E+04  0.28175875615E+04 0.  0.
        5    1    3    3  502    0  0.44908892775E+03 -0.59133306332E+03  0.11552882487E+04  0.13733421585E+04  0.46999998093E+01 0. -1.
       -5    1    3    3    0  502 -0.44908892775E+03  0.59133306332E+03 -0.12402282100E+04  0.14455254268E+04  0.46999998093E+01 0.  1.
</event>
<event>
 5   0  0.9065579E-06  0.2767399E+04  0.7818609E-02  0.8313462E-01
        2   -1    0    0  501    0  0.00000000000E+00  0.00000000000E+00  0.19255557091E+04  0.19255557091E+04  0.25500000920E-02 0.  1.
       -2   -1    0    0    0  501  0.00000000000E+00  0.00000000000E+00 -0.99432290264E+03  0.99432290264E+03  0.25500000920E-02 0. -1.
    10030    2    1    2    0    0  0.00000000000E+00  0.00000000000E+00  0.93123280649E+03  0.29198786118E+04  0.27673988812E+04 0.  0.
        3    1    3    3  502    0  0.71447488346E+03 -0.11598018425E+04  0.72191949850E+03  0.15416816940E+04  0.10100000352E+00 0.  1.
       -3    1    3    3    0  502 -0.71447488346E+03  0.11598018425E+04  0.20931330799E+03  0.13781969178E+04  0.10100000352E+00 0. -1.
</event>
<event>
 5   0  0.3371603E-06  0.2760305E+04  0.7818609E-02  0.8315699E-01
       -1   -1    0    0    0  501  0.00000000000E+00  0.00000000000E+00  0.16897375379E+04  0.16897375379E+04  0.50400001928E-02 0.  1.
        1   -1    0    0  501    0  0.00000000000E+00  0.00000000000E+00 -0.11272880328E+04  0.11272880328E+04  0.50400001928E-02 0. -1.
    10030    2    1    2    0    0  0.00000000000E+00  0.00000000000E+00  0.56244950512E+03  0.28170255707E+04  0.27603049868E+04 0.  0.
        1    1    3    3  502    0 -0.75226057128E+03  0.72774627975E+03 -0.63687791736E+03  0.12252036959E+04  0.50400001928E-02 0. -1.
       -1    1    3    3    0  502  0.75226057128E+03 -0.72774627975E+03  0.11993274225E+04  0.15918218748E+04  0.50400001928E-02 0.  1.
</event>
<event>
 5   0  0.9260173E-06  0.2809075E+04  0.7818609E-02  0.8300457E-01
       -2   -1    0    0    0  501  0.00000000000E+00  0.00000000000E+00  0.19363306899E+04  0.19363306899E+04  0.25500000920E-02 0. -1.
        2   -1    0    0  501    0  0.00000000000E+00  0.00000000000E+00 -0.10187955356E+04  0.10187955356E+04  0.25500000920E-02 0.  1.
    10030    2    1    2    0    0  0.00000000000E+00  0.00000000000E+00  0.91753515426E+03  0.29551262255E+04  0.28090746251E+04 0.  0.
        1    1    3    3  502    0  0.70691258062E+02 -0.13994527787E+04  0.35753695914E+03  0.14461320862E+04  0.50400001928E-02 0.  1.
       -1    1    3    3    0  502 -0.70691258062E+02  0.13994527787E+04  0.55999819512E+03  0.15089941392E+04  0.50400001928E-02 0. -1.
</event>
<event>
 5   0  0.3357244E-06  0.2787213E+04  0.7818609E-02  0.8307249E-01
       -1   -1    0    0    0  501  0.00000000000E+00  0.00000000000E+00  0.10493254864E+04  0.10493254865E+04  0.50400001928E-02 0.  1.
        1   -1    0    0  501    0  0.00000000000E+00  0.00000000000E+00 -0.18508454347E+04  0.18508454347E+04  0.50400001928E-02 0. -1.
    10030    2    1    2    0    0  0.00000000000E+00  0.00000000000E+00 -0.80151994829E+03  0.29001709212E+04  0.27872131502E+04 0.  0.
        4    1    3    3  502    0 -0.72697130967E+03  0.21907896118E+03 -0.16167328254E+04  0.17861437562E+04  0.12699999809E+01 0. -1.
       -4    1    3    3    0  502  0.72697130967E+03 -0.21907896118E+03  0.81521287712E+03  0.11140271650E+04  0.12699999809E+01 0.  1.
</event>
<event>
 5   0  0.9065579E-06  0.2814950E+04  0.7818609E-02  0.8298642E-01
       -2   -1    0    0    0  501  0.00000000000E+00  0.00000000000E+00  0.80634000651E+03  0.80634000651E+03  0.25500000920E-02 0.  1.
        2   -1    0    0  501    0  0.00000000000E+00  0.00000000000E+00 -0.24567623543E+04  0.24567623543E+04  0.25500000920E-02 0. -1.
    10030    2    1    2    0    0  0.00000000000E+00  0.00000000000E+00 -0.16504223478E+04  0.32631023608E+04  0.28149499269E+04 0.  0.
        3    1    3    3  502    0 -0.13172566549E+04 -0.29103079523E+03 -0.12905155107E+04  0.18668942960E+04  0.10100000352E+00 0.  1.
       -3    1    3    3    0  502  0.13172566549E+04  0.29103079523E+03 -0.35990683707E+03  0.13962080648E+04  0.10100000352E+00 0. -1.
</event>
<event>
 5   0  0.9426937E-06  0.2795128E+04  0.7818609E-02  0.8304782E-01
       -2   -1    0    0    0  501  0.00000000000E+00  0.00000000000E+00  0.19671179883E+04  0.19671179883E+04  0.25500000920E-02 0. -1.
        2   -1    0    0  501    0  0.00000000000E+00  0.00000000000E+00 -0.99291715965E+03  0.99291715966E+03  0.25500000920E-02 0.  1.
    10030    2    1    2    0    0  0.00000000000E+00  0.00000000000E+00  0.97420082860E+03  0.29600351479E+04  0.27951280512E+04 0.  0.
        4    1    3    3  502    0 -0.20594775963E+03 -0.58502078335E+03  0.18133955029E+04  0.19165251523E+04  0.12699999809E+01 0. -1.
       -4    1    3    3    0  502  0.20594775963E+03  0.58502078335E+03 -0.83919467429E+03  0.10435099956E+04  0.12699999809E+01 0.  1.
</event>
<event>
 5   0  0.3371603E-06  0.2738250E+04  0.7818609E-02  0.8322700E-01
       -1   -1    0    0    0  501  0.00000000000E+00  0.00000000000E+00  0.75192083974E+03  0.75192083976E+03  0.50400001928E-02 0. -1.
        1   -1    0    0  501    0  0.00000000000E+00  0.00000000000E+00 -0.24929532276E+04  0.24929532276E+04  0.50400001928E-02 0.  1.
    10030    2    1    2    0    0  0.00000000000E+00  0.00000000000E+00 -0.17410323879E+04  0.32448740674E+04  0.27382501598E+04 0.  0.
        1    1    3    3  502    0  0.10411306725E+04 -0.87512541345E+03 -0.68425378222E+03  0.15224982118E+04  0.50400001928E-02 0. -1.
       -1    1    3    3    0  502 -0.10411306725E+04  0.87512541345E+03 -0.10567786057E+04  0.17223758556E+04  0.50400001928E-02 0.  1.
</event>
<event>
 5   0  0.9065579E-06  0.2855684E+04  0.7818609E-02  0.8286186E-01
       -2   -1    0    0    0  501  0.00000000000E+00  0.00000000000E+00  0.13030487687E+04  0.13030487687E+04  0.25500000920E-02 0. -1.
        2   -1    0    0  501    0  0.00000000000E+00  0.00000000000E+00 -0.15645869957E+04  0.15645869957E+04  0.25500000920E-02 0.  1.
    10030    2    1    2    0    0  0.00000000000E+00  0.00000000000E+00 -0.26153822703E+03  0.28676357644E+04  0.28556842670E+04 0.  0.
        3    1    3    3  502    0 -0.11471692275E+03 -0.14043578117E+04 -0.36271700159E+03  0.14549723259E+04  0.10100000352E+00 0. -1.
       -3    1    3    3    0  502  0.11471692275E+03  0.14043578117E+04  0.10117877456E+03  0.14126634385E+04  0.10100000352E+00 0.  1.
</event>
<event>
 5   0  0.3600963E-06  0.2493156E+04  0.7818609E-02  0.8405428E-01
       -1   -1    0    0    0  501  0.00000000000E+00  0.00000000000E+00  0.21004516160E+04  0.21004516160E+04  0.50400001928E-02 0. -1.
        1   -1    0    0  501    0  0.00000000000E+00  0.00000000000E+00 -0.73982011751E+03  0.73982011752E+03  0.50400001928E-02 0.  1.
    10030    2    1    2    0    0  0.00000000000E+00  0.00000000000E+00  0.13606314985E+04  0.28402717335E+04  0.24931557203E+04 0.  0.
        5    1    3    3  502    0  0.14354379772E+03  0.58087036408E+03 -0.56552170236E+03  0.82331773185E+03  0.46999998093E+01 0.  1.
       -5    1    3    3    0  502 -0.14354379772E+03 -0.58087036408E+03  0.19261532008E+04  0.20169540016E+04  0.46999998093E+01 0. -1.
</event>
<event>
 5   0  0.3600963E-06  0.2795477E+04  0.7818609E-02  0.8304674E-01
       -1   -1    0    0    0  501  0.00000000000E+00  0.00000000000E+00  0.10014573759E+04  0.10014573759E+04  0.50400001928E-02 0.  1.
        1   -1    0    0  501    0  0.00000000000E+00  0.00000000000E+00 -0.19508301926E+04  0.19508301926E+04  0.50400001928E-02 0. -1.
    10030    2    1    2    0    0  0.00000000000E+00  0.00000000000E+00 -0.94937281669E+03  0.29522875685E+04  0.27954772656E+04 0.  0.
        5    1    3    3  502    0  0.11712424293E+04 -0.31500442510E+03  0.25898722534E+03  0.12402149366E+04  0.46999998093E+01 0.  1.
       -5    1    3    3    0  502 -0.11712424293E+04  0.31500442510E+03 -0.12083600420E+04  0.17120726320E+04  0.46999998093E+01 0. -1.
</event>
<event>
 5   0  0.3371603E-06  0.2790709E+04  0.7818609E-02  0.8306159E-01
        1   -1    0    0  501    0  0.00000000000E+00  0.00000000000E+00  0.18548652568E+04  0.18548652568E+04  0.50400001928E-02 0.  1.
       -1   -1    0    0    0  501  0.00000000000E+00  0.00000000000E+00 -0.10496794035E+04  0.10496794035E+04  0.50400001928E-02 0. -1.
    10030    2    1    2    0    0  0.00000000000E+00  0.00000000000E+00  0.80518585327E+03  0.29045446603E+04  0.27907087675E+04 0.  0.
        1    1    3    3  502    0 -0.88893245997E+03 -0.10755176214E+04  0.39359239706E+03  0.14497772406E+04  0.50400001928E-02 0.  1.
       -1    1    3    3    0  502  0.88893245997E+03  0.10755176214E+04  0.41159345621E+03  0.14547674197E+04  0.50400001928E-02 0. -1.
</event>
<event>
 5   0  0.3438130E-06  0.2790609E+04  0.7818609E-02  0.8306190E-01
       -1   -1    0    0    0  501  0.00000000000E+00  0.00000000000E+00  0.12837738989E+04  0.12837738990E+04  0.50400001928E-02 0. -1.
        1   -1    0    0  501    0  0.00000000000E+00  0.00000000000E+00 -0.15165241250E+04  0.15165241250E+04  0.50400001928E-02 0.  1.
    10030    2    1    2    0    0  0.00000000000E+00  0.00000000000E+00 -0.23275022603E+03  0.28002980239E+04  0.27906085994E+04 0.  0.
        3    1    3    3  502    0  0.80633453711E+03  0.62248157911E+03  0.84046354141E+03  0.13206201864E+04  0.10100000352E+00 0. -1.
       -3    1    3    3    0  502 -0.80633453711E+03 -0.62248157911E+03 -0.10732137674E+04  0.14796778375E+04  0.10100000352E+00 0.  1.
</event>
<event>
 5   0  0.3438130E-06  0.2782940E+04  0.7818609E-02  0.8308585E-01
       -1   -1    0    0    0  501  0.00000000000E+00  0.00000000000E+00  0.13537885948E+04  0.13537885948E+04  0.50400001928E-02 0.  1.
        1   -1    0    0  501    0  0.00000000000E+00  0.00000000000E+00 -0.14301997912E+04  0.14301997912E+04  0.50400001928E-02 0. -1.
    10030    2    1    2    0    0  0.00000000000E+00  0.00000000000E+00 -0.76411196476E+02  0.27839883860E+04  0.27829395722E+04 0.  0.
        3    1    3    3  502    0  0.97923169997E+03  0.82903356765E+03 -0.57692203739E+03  0.14067801626E+04  0.10100000352E+00 0. -1.
       -3    1    3    3    0  502 -0.97923169997E+03 -0.82903356765E+03  0.50051084091E+03  0.13772082234E+04  0.10100000352E+00 0.  1.
</event>
<event>
 5   0  0.3357244E-06  0.2802090E+04  0.7818609E-02  0.8302620E-01
       -1   -1    0    0    0  501  0.00000000000E+00  0.00000000000E+00  0.16126402067E+04  0.16126402067E+04  0.50400001928E-02 0.  1.
        1   -1    0    0  501    0  0.00000000000E+00  0.00000000000E+00 -0.12172131637E+04  0.12172131638E+04  0.50400001928E-02 0. -1.
    10030    2    1    2    0    0  0.00000000000E+00  0.00000000000E+00  0.39542704295E+03  0.28298533705E+04  0.28020898544E+04 0.  0.
        4    1    3    3  502    0 -0.90038206396E+03 -0.38258280499E+03 -0.81515326617E+03  0.12733946458E+04  0.12699999809E+01 0. -1.
       -4    1    3    3    0  502  0.90038206396E+03  0.38258280499E+03  0.12105803091E+04  0.15564587246E+04  0.12699999809E+01 0.  1.
</event>
<event>
 5   0  0.3438130E-06  0.2816578E+04  0.7818609E-02  0.8298140E-01
        1   -1    0    0  501    0  0.00000000000E+00  0.00000000000E+00  0.19299920795E+04  0.19299920795E+04  0.50400001928E-02 0. -1.
       -1   -1    0    0    0  501  0.00000000000E+00  0.00000000000E+00 -0.10276095178E+04  0.10276095178E+04  0.50400001928E-02 0.  1.
    10030    2    1    2    0    0  0.00000000000E+00  0.00000000000E+00  0.90238256169E+03  0.29576015973E+04  0.28165782291E+04 0.  0.
        3    1    3    3  502    0 -0.10551839927E+04 -0.71044398064E+03  0.10857096173E+04  0.16723962722E+04  0.10100000352E+00 0. -1.
       -3    1    3    3    0  502  0.10551839927E+04  0.71044398064E+03 -0.18332705563E+03  0.12852053251E+04  0.10100000352E+00 0.  1.
</event>
<event>
 5   0  0.3371603E-06  0.2805104E+04  0.7818609E-02  0.8301685E-01
        1   -1    0    0  501    0  0.00000000000E+00  0.00000000000E+00  0.15668499411E+04  0.15668499411E+04  0.50400001928E-02 0.  1.
       -1   -1    0    0    0  501  0.00000000000E+00  0.00000000000E+00 -0.12554822663E+04  0.12554822663E+04  0.50400001928E-02 0. -1.
    10030    2    1    2    0    0  0.00000000000E+00  0.00000000000E+00  0.31136767483E+03  0.28223322074E+04  0.28051041442E+04 0.  0.
        1    1    3    3  502    0  0.70099183782E+03  0.82670282188E+03  0.10512772224E+04  0.15099705000E+04  0.50400001928E-02 0.  1.
       -1    1    3    3    0  502 -0.70099183782E+03 -0.82670282188E+03 -0.73990954761E+03  0.13123617074E+04  0.50400001928E-02 0. -1.
</event>
<event>
 5   0  0.3600963E-06  0.2792376E+04  0.7818609E-02  0.8305639E-01
        1   -1    0    0  501    0  0.00000000000E+00  0.00000000000E+00  0.94150705236E+03  0.94150705238E+03  0.50400001928E-02 0.  1.
       -1   -1    0    0    0  501  0.00000000000E+00  0.00000000000E+00 -0.20704476090E+04  0.20704476090E+04  0.50400001928E-02 0. -1.
    10030    2    1    2    0    0  0.00000000000E+00  0.00000000000E+00 -0.11289405566E+04  0.30119546614E+04  0.27923760674E+04 0.  0.
        5    1    3    3  502    0  0.15922906723E+03 -0.13845240494E+04 -0.47385083642E+03  0.14720113602E+04  0.46999998093E+01 0. -1.
       -5    1    3    3    0  502 -0.15922906723E+03  0.13845240494E+04 -0.65508972020E+03  0.15399433012E+04  0.46999998093E+01 0.  1.
</event>
<event>
 5   0  0.9065579E-06  0.2829452E+04  0.7818609E-02  0.8294183E-01
       -2   -1    0    0    0  501  0.00000000000E+00  0.00000000000E+00  0.97617756898E+03  0.97617756898E+03  0.25500000920E-02 0.  1.
        2   -1    0    0  501    0  0.00000000000E+00  0.00000000000E+00 -0.20502927171E+04  0.20502927171E+04  0.25500000920E-02 0. -1.
    10030    2    1    2    0    0  0.00000000000E+00  0.00000000000E+00 -0.10741151482E+04  0.30264702861E+04  0.28294520744E+04 0.  0.
        3    1    3    3  502    0  0.10252486995E+04 -0.95945344665E+03 -0.72159279459E+03  0.15787279637E+04  0.10100000352E+00 0. -1.
       -3    1    3    3    0  502 -0.10252486995E+04  0.95945344665E+03 -0.35252235356E+03  0.14477423224E+04  0.10100000352E+00 0.  1.
</event>
<event>
 5   0  0.9342133E-06  0.2810281E+04  0.7818609E-02  0.8300084E-01
       -2   -1    0    0    0  501  0.00000000000E+00  0.00000000000E+00  0.80844825178E+03  0.80844825178E+03  0.25500000920E-02 0. -1.
        2   -1    0    0  501    0  0.00000000000E+00  0.00000000000E+00 -0.24422343751E+04  0.24422343751E+04  0.25500000920E-02 0.  1.
    10030    2    1    2    0    0  0.00000000000E+00  0.00000000000E+00 -0.16337861234E+04  0.32506826269E+04  0.28102812037E+04 0.  0.
        2    1    3    3  502    0  0.81912798752E+03  0.92555519540E+03 -0.43714273275E+02  0.12367433110E+04  0.25500000920E-02 0. -1.
       -2    1    3    3    0  502 -0.81912798752E+03 -0.92555519540E+03 -0.15900718501E+04  0.20139393159E+04  0.25500000920E-02 0.  1.
</event>
<event>
 5   0  0.3600963E-06  0.2788642E+04  0.7818609E-02  0.8306803E-01
        1   -1    0    0  501    0  0.00000000000E+00  0.00000000000E+00  0.15805110179E+04  0.15805110179E+04  0.50400001928E-02 0. -1.
       -1   -1    0    0    0  501  0.00000000000E+00  0.00000000000E+00 -0.12300650398E+04  0.12300650398E+04  0.50400001928E-02 0.  1.
    10030    2    1    2    0    0  0.00000000000E+00  0.00000000000E+00  0.35044597814E+03  0.28105760577E+04  0.27886422131E+04 0.  0.
        5    1    3    3  502    0  0.13667502739E+04 -0.23125438587E+02 -0.10183582578E+03  0.13707420335E+04  0.46999998093E+01 0.  1.
       -5    1    3    3    0  502 -0.13667502739E+04  0.23125438587E+02  0.45228180392E+03  0.14398340242E+04  0.46999998093E+01 0. -1.
</event>
<event>
 5   0  0.9065579E-06  0.2714667E+04  0.7818609E-02  0.8330262E-01
       -2   -1    0    0    0  501  0.00000000000E+00  0.00000000000E+00  0.24419428975E+04  0.24419428975E+04  0.25500000920E-02 0. -1.
        2   -1    0    0  501    0  0.00000000000E+00  0.00000000000E+00 -0.75446226760E+03  0.75446226760E+03  0.25500000920E-02 0.  1.
    10030    2    1    2    0    0  0.00000000000E+00  0.00000000000E+00  0.16874806299E+04  0.31964051651E+04  0.27146666652E+04 0.  0.
        3    1    3    3  502    0  0.25786251798E+02 -0.11055033181E+04  0.17705358481E+04  0.20874864591E+04  0.10100000352E+00 0.  1.
       -3    1    3    3    0  502 -0.25786251798E+02  0.11055033181E+04 -0.83055218242E+02  0.11089187060E+04  0.10100000352E+00 0. -1.
</event>
<event>
 5   0  0.9260173E-06  0.2810309E+04  0.7818609E-02  0.8300075E-01
        2   -1    0    0  501    0  0.00000000000E+00  0.00000000000E+00  0.23773861271E+04  0.23773861271E+04  0.25500000920E-02 0. -1.
       -2   -1    0    0    0  501  0.00000000000E+00  0.00000000000E+00 -0.83051682488E+03  0.83051682489E+03  0.25500000920E-02 0.  1.
    10030    2    1    2    0    0  0.00000000000E+00  0.00000000000E+00  0.15468693022E+04  0.32079029520E+04  0.28103090063E+04 0.  0.
        1    1    3    3  502    0  0.70836644952E+03 -0.13906897202E+03  0.21495351665E+04  0.22675150800E+04  0.50400001928E-02 0. -1.
       -1    1    3    3    0  502 -0.70836644952E+03  0.13906897202E+03 -0.60266586431E+03  0.94038787200E+03  0.50400001928E-02 0.  1.
</event>
<event>
 5   0  0.9426937E-06  0.2821878E+04  0.7818609E-02  0.8296508E-01
       -2   -1    0    0    0  501  0.00000000000E+00  0.00000000000E+00  0.11501669569E+04  0.11501669570E+04  0.25500000920E-02 0.  1.
        2   -1    0    0  501    0  0.00000000000E+00  0.00000000000E+00 -0.17308349790E+04  0.17308349790E+04  0.25500000920E-02 0. -1.
    10030    2    1    2    0    0  0.00000000000E+00  0.00000000000E+00 -0.58066802210E+03  0.28810019360E+04  0.28218782403E+04 0.  0.
        4    1    3    3  502    0  0.12107588931E+04 -0.66225401064E+03  0.94681538249E+01  0.13800756250E+04  0.12699999809E+01 0.  1.
       -4    1    3    3    0  502 -0.12107588931E+04  0.66225401064E+03 -0.59013617592E+03  0.15009263110E+04  0.12699999809E+01 0. -1.
</event>
<event>
 5   0  0.9342133E-06  0.2818618E+04  0.7818609E-02  0.8297511E-01
        2   -1    0    0  501    0  0.00000000000E+00  0.00000000000E+00  0.10798729369E+04  0.10798729369E+04  0.25500000920E-02 0.  1.
       -2   -1    0    0    0  501  0.00000000000E+00  0.00000000000E+00 -0.18392464084E+04  0.18392464084E+04  0.25500000920E-02 0. -1.
    10030    2    1    2    0    0  0.00000000000E+00  0.00000000000E+00 -0.75937347148E+03  0.29191193453E+04  0.28186183997E+04 0.  0.
        2    1    3    3  502    0 -0.17419838376E+03 -0.16014612841E+00 -0.18280536712E+04  0.18363347537E+04  0.25500000920E-02 0. -1.
       -2    1    3    3    0  502  0.17419838376E+03  0.16014612841E+00  0.10686801998E+04  0.10827845916E+04  0.25500000920E-02 0.  1.
</event>
<event>
 5   0  0.3600963E-06  0.2711233E+04  0.7818609E-02  0.8331370E-01
       -1   -1    0    0    0  501  0.00000000000E+00  0.00000000000E+00  0.11005478665E+04  0.11005478665E+04  0.50400001928E-02 0. -1.
        1   -1    0    0  501    0  0.00000000000E+00  0.00000000000E+00 -0.16698007548E+04  0.16698007548E+04  0.50400001928E-02 0.  1.
    10030    2    1    2    0    0  0.00000000000E+00  0.00000000000E+00 -0.56925288826E+03  0.27703486213E+04  0.27112326777E+04 0.  0.
        5    1    3    3  502    0  0.34998404335E+03 -0.63160513108E+03  0.88767263978E+03  0.11442895952E+04  0.46999998093E+01 0. -1.
       -5    1    3    3    0  502 -0.34998404335E+03  0.63160513108E+03 -0.14569255280E+04  0.16260590261E+04  0.46999998093E+01 0.  1.
</event>
<event>
 5   0  0.9342133E-06  0.2818440E+04  0.7818609E-02  0.8297566E-01
       -2   -1    0    0    0  501  0.00000000000E+00  0.00000000000E+00  0.15964225518E+04  0.15964225518E+04  0.25500000920E-02 0. -1.
        2   -1    0    0  501    0  0.00000000000E+00  0.00000000000E+00 -0.12439695914E+04  0.12439695914E+04  0.25500000920E-02 0.  1.
    10030    2    1    2    0    0  0.00000000000E+00  0.00000000000E+00  0.35245296037E+03  0.28403921433E+04  0.28184400718E+04 0.  0.
        2    1    3    3  502    0  0.19173114464E+02 -0.20914897064E+03  0.15805612586E+04  0.15944543870E+04  0.25500000920E-02 0. -1.
       -2    1    3    3    0  502 -0.19173114464E+02  0.20914897064E+03 -0.12281082982E+04  0.12459377562E+04  0.25500000920E-02 0.  1.
</event>
<event>
 5   0  0.3600963E-06  0.2799764E+04  0.7818609E-02  0.8303342E-01
        1   -1    0    0  501    0  0.00000000000E+00  0.00000000000E+00  0.18887284557E+04  0.18887284557E+04  0.50400001928E-02 0. -1.
       -1   -1    0    0    0  501  0.00000000000E+00  0.00000000000E+00 -0.10375602080E+04  0.10375602080E+04  0.50400001928E-02 0.  1.
    10030    2    1    2    0    0  0.00000000000E+00  0.00000000000E+00  0.85116824773E+03  0.29262886638E+04  0.27997639111E+04 0.  0.
        5    1    3    3  502    0 -0.47401412307E+03  0.14006607764E+03  0.17944812082E+04  0.18613148019E+04  0.46999998093E+01 0. -1.
       -5    1    3    3    0  502  0.47401412307E+03 -0.14006607764E+03 -0.94331296051E+03  0.10649738619E+04  0.46999998093E+01 0.  1.
</event>
<event>
 5   0  0.3357244E-06  0.2698941E+04  0.7818609E-02  0.8335349E-01
       -1   -1    0    0    0  501  0.00000000000E+00  0.00000000000E+00  0.15660520069E+04  0.15660520069E+04  0.50400001928E-02 0.  1.
        1   -1    0    0  501    0  0.00000000000E+00  0.00000000000E+00 -0.11628417973E+04  0.11628417973E+04  0.50400001928E-02 0. -1.
    10030    2    1    2    0    0  0.00000000000E+00  0.00000000000E+00  0.40321020958E+03  0.27288938043E+04  0.26989410742E+04 0.  0.
        4    1    3    3  502    0  0.62086957469E+03 -0.11967793947E+04  0.25976889782E+03  0.13730409468E+04  0.12699999809E+01 0.  1.
       -4    1    3    3    0  502 -0.62086957469E+03  0.11967793947E+04  0.14344131176E+03  0.13558528575E+04  0.12699999809E+01 0. -1.
</event>
<event>
 5   0  0.3397882E-06  0.2807436E+04  0.7818609E-02  0.8300964E-01
       -1   -1    0    0    0  501  0.00000000000E+00  0.00000000000E+00  0.12770075035E+04  0.12770075035E+04  0.50400001928E-02 0.  1.
        1   -1    0    0  501    0  0.00000000000E+00  0.00000000000E+00 -0.15430011979E+04  0.15430011979E+04  0.50400001928E-02 0. -1.
    10030    2    1    2    0    0  0.00000000000E+00  0.00000000000E+00 -0.26599369440E+03  0.28200087014E+04  0.28074359174E+04 0.  0.
        2    1    3    3  502    0 -0.48916507823E+03 -0.12432160444E+04  0.29969380545E+03  0.13691913613E+04  0.25500000920E-02 0.  1.
       -2    1    3    3    0  502  0.48916507823E+03  0.12432160444E+04 -0.56568749984E+03  0.14508173401E+04  0.25500000920E-02 0. -1.
</event>
<event>
 5   0  0.3357244E-06  0.2781665E+04  0.7818609E-02  0.8308983E-01
       -1   -1    0    0    0  501  0.00000000000E+00  0.00000000000E+00  0.84930591670E+03  0.84930591672E+03  0.50400001928E-02 0.  1.
        1   -1    0    0  501    0  0.00000000000E+00  0.00000000000E+00 -0.22776421276E+04  0.22776421277E+04  0.50400001928E-02 0. -1.
    10030    2    1    2    0    0  0.00000000000E+00  0.00000000000E+00 -0.14283362109E+04  0.31269480444E+04  0.27816649224E+04 0.  0.
        4    1    3    3  502    0 -0.56269499252E+03 -0.38395252920E+03  0.64893557599E+03  0.94083165017E+03  0.12699999809E+01 0.  1.
       -4    1    3    3    0  502  0.56269499252E+03  0.38395252920E+03 -0.20772717869E+04  0.21861163942E+04  0.12699999809E+01 0. -1.
</event>
<event>
 5   0  0.9260173E-06  0.2820104E+04  0.7818609E-02  0.8297054E-01
       -2   -1    0    0    0  501  0.00000000000E+00  0.00000000000E+00  0.10843809239E+04  0.10843809239E+04  0.25500000920E-02 0. -1.
        2   -1    0    0  501    0  0.00000000000E+00  0.00000000000E+00 -0.18335312350E+04  0.18335312350E+04  0.25500000920E-02 0.  1.
    10030    2    1    2    0    0  0.00000000000E+00  0.00000000000E+00 -0.74915031117E+03  0.29179121589E+04  0.28201037531E+04 0.  0.
        1    1    3    3  502    0  0.86829932116E+03 -0.41366728869E+03 -0.14414437383E+04  0.17328659462E+04  0.50400001928E-02 0.  1.
       -1    1    3    3    0  502 -0.86829932116E+03  0.41366728869E+03  0.69229342717E+03  0.11850462127E+04  0.50400001928E-02 0. -1.
</event>
<event>
 5   0  0.9426937E-06  0.2776354E+04  0.7818609E-02  0.8310647E-01
        2   -1    0    0  501    0  0.00000000000E+00  0.00000000000E+00  0.15105642089E+04  0.15105642089E+04  0.25500000920E-02 0. -1.
       -2   -1    0    0    0  501  0.00000000000E+00  0.00000000000E+00 -0.12757056491E+04  0.12757056491E+04  0.25500000920E-02 0.  1.
    10030    2    1    2    0    0  0.00000000000E+00  0.00000000000E+00  0.23485855980E+03  0.27862698580E+04  0.27763539361E+04 0.  0.
        4    1    3    3  502    0  0.82222561540E+03  0.65976525589E+03  0.10238097169E+04  0.14695349961E+04  0.12699999809E+01 0. -1.
       -4    1    3    3    0  502 -0.82222561540E+03 -0.65976525589E+03 -0.78895115707E+03  0.13167348619E+04  0.12699999809E+01 0.  1.
</event>
<event>
 5   0  0.3438130E-06  0.2775285E+04  0.7818609E-02  0.8310983E-01
        1   -1    0    0  501    0  0.00000000000E+00  0.00000000000E+00  0.19565158518E+04  0.19565158518E+04  0.50400001928E-02 0.  1.
       -1   -1    0    0    0  501  0.00000000000E+00  0.00000000000E+00 -0.98417388169E+03  0.98417388170E+03  0.50400001928E-02 0. -1.
    10030    2    1    2    0    0  0.00000000000E+00  0.00000000000E+00  0.97234197016E+03  0.29406897335E+04  0.27752850668E+04 0.  0.
        3    1    3    3  502    0  0.19397899148E+03 -0.12612603544E+04 -0.91428424362E+02  0.12793610505E+04  0.10100000352E+00 0. -1.
       -3    1    3    3    0  502 -0.19397899148E+03  0.12612603544E+04  0.10637703945E+04  0.16613286830E+04  0.10100000352E+00 0.  1.
</event>
<event>
 5   0  0.9065579E-06  0.2784488E+04  0.7818609E-02  0.8308100E-01
        2   -1    0    0  501    0  0.00000000000E+00  0.00000000000E+00  0.21160007404E+04  0.21160007404E+04  0.25500000920E-02 0.  1.
       -2   -1    0    0    0  501  0.00000000000E+00  0.00000000000E+00 -0.91604084202E+03  0.91604084202E+03  0.25500000920E-02 0. -1.
    10030    2    1    2    0    0  0.00000000000E+00  0.00000000000E+00  0.11999598984E+04  0.30320415825E+04  0.27844878165E+04 0.  0.
        3    1    3    3  502    0  0.56083805460E+03  0.53142310027E+02  0.19863482316E+04  0.20646895011E+04  0.10100000352E+00 0.  1.
       -3    1    3    3    0  502 -0.56083805460E+03 -0.53142310027E+02 -0.78638833316E+03  0.96735208137E+03  0.10100000352E+00 0. -1.
</event>
<event>
 5   0  0.3438130E-06  0.2802711E+04  0.7818609E-02  0.8302427E-01
        1   -1    0    0  501    0  0.00000000000E+00  0.00000000000E+00  0.28691224639E+04  0.28691224639E+04  0.50400001928E-02 0. -1.
       -1   -1    0    0    0  501  0.00000000000E+00  0.00000000000E+00 -0.68445896540E+03  0.68445896542E+03  0.50400001928E-02 0.  1.
    10030    2    1    2    0    0  0.00000000000E+00  0.00000000000E+00  0.21846634985E+04  0.35535814293E+04  0.28027105404E+04 0.  0.
        3    1    3    3  502    0  0.62480380887E+03  0.10922067550E+04  0.18744384978E+04  0.22576126965E+04  0.10100000352E+00 0.  1.
       -3    1    3    3    0  502 -0.62480380887E+03 -0.10922067550E+04  0.31022500068E+03  0.12959687328E+04  0.10100000352E+00 0. -1.
</event>
<event>
 5   0  0.3397882E-06  0.2789394E+04  0.7818609E-02  0.8306569E-01
        1   -1    0    0  501    0  0.00000000000E+00  0.00000000000E+00  0.97449180417E+03  0.97449180419E+03  0.50400001928E-02 0.  1.
       -1   -1    0    0    0  501  0.00000000000E+00  0.00000000000E+00 -0.19960964105E+04  0.19960964105E+04  0.50400001928E-02 0. -1.
    10030    2    1    2    0    0  0.00000000000E+00  0.00000000000E+00 -0.10216046064E+04  0.29705882147E+04  0.27893939072E+04 0.  0.
        2    1    3    3  502    0  0.94342219477E+03  0.37757063751E+03 -0.15281438636E+04  0.18351644863E+04  0.25500000920E-02 0. -1.
       -2    1    3    3    0  502 -0.94342219477E+03 -0.37757063751E+03  0.50653925726E+03  0.11354237284E+04  0.25500000920E-02 0.  1.
</event>
<event>
 5   0  0.9342133E-06  0.3055703E+04  0.7818609E-02  0.8228001E-01
       -2   -1    0    0    0  501  0.00000000000E+00  0.00000000000E+00  0.17409651794E+04  0.17409651794E+04  0.25500000920E-02 0.  1.
        2   -1    0    0  501    0  0.00000000000E+00  0.00000000000E+00 -0.13408257060E+04  0.13408257061E+04  0.25500000920E-02 0. -1.
    10030    2    1    2    0    0  0.00000000000E+00  0.00000000000E+00  0.40013947332E+03  0.30817908854E+04  0.30557034318E+04 0.  0.
        2    1    3    3  502    0 -0.71252310708E+03 -0.12453993069E+03 -0.11572024691E+04  0.13646673319E+04  0.25500000920E-02 0. -1.
       -2    1    3    3    0  502  0.71252310708E+03  0.12453993069E+03  0.15573419424E+04  0.17171235535E+04  0.25500000920E-02 0.  1.
</event>
<event>
 5   0  0.3006875E-06  0.2714264E+04  0.7818609E-02  0.8330392E-01
        3   -1    0    0  501    0  0.00000000000E+00  0.00000000000E+00  0.12558479511E+04  0.12558479552E+04  0.10100000352E+00 0.  1.
       -3   -1    0    0    0  501  0.00000000000E+00  0.00000000000E+00 -0.14665843201E+04  0.14665843236E+04  0.10100000352E+00 0. -1.
    10030    2    1    2    0    0  0.00000000000E+00  0.00000000000E+00 -0.21073636900E+03  0.27224322787E+04  0.27142637483E+04 0.  0.
        4    1    3    3  502    0  0.52471357395E+03  0.42748558699E+03  0.10744954719E+04  0.12698859767E+04  0.12699999809E+01 0.  1.
       -4    1    3    3    0  502 -0.52471357395E+03 -0.42748558699E+03 -0.12852318409E+04  0.14525463020E+04  0.12699999809E+01 0. -1.
</event>
<event>
 5   0  0.3371603E-06  0.2809236E+04  0.7818609E-02  0.8300407E-01
       -1   -1    0    0    0  501  0.00000000000E+00  0.00000000000E+00  0.15537106532E+04  0.15537106532E+04  0.50400001928E-02 0.  1.
        1   -1    0    0  501    0  0.00000000000E+00  0.00000000000E+00 -0.12698324188E+04  0.12698324188E+04  0.50400001928E-02 0. -1.
    10030    2    1    2    0    0  0.00000000000E+00  0.00000000000E+00  0.28387823440E+03  0.28235430720E+04  0.28092363068E+04 0.  0.
        1    1    3    3  502    0 -0.12879639506E+04 -0.43746616671E+03  0.49404359931E+03  0.14471720226E+04  0.50400001928E-02 0. -1.
       -1    1    3    3    0  502  0.12879639506E+04  0.43746616671E+03 -0.21016536491E+03  0.13763710494E+04  0.50400001928E-02 0.  1.
</event>
<event>
 5   0  0.9426937E-06  0.2792759E+04  0.7818609E-02  0.8305520E-01
        2   -1    0    0  501    0  0.00000000000E+00  0.00000000000E+00  0.12146758931E+04  0.12146758931E+04  0.25500000920E-02 0. -1.
       -2   -1    0    0    0  501  0.00000000000E+00  0.00000000000E+00 -0.16052638771E+04  0.16052638771E+04  0.25500000920E-02 0.  1.
    10030    2    1    2    0    0  0.00000000000E+00  0.00000000000E+00 -0.39058798399E+03  0.28199397702E+04  0.27927587318E+04 0.  0.
        4    1    3    3  502    0 -0.52529725686E+03  0.10186488581E+04  0.61014807792E+03  0.12984086391E+04  0.12699999809E+01 0. -1.
       -4    1    3    3    0  502  0.52529725686E+03 -0.10186488581E+04 -0.10007360619E+04  0.15215311311E+04  0.12699999809E+01 0.  1.
</event>
<event>
 5   0  0.3371603E-06  0.2926647E+04  0.7818609E-02  0.8264993E-01
       -1   -1    0    0    0  501  0.00000000000E+00  0.00000000000E+00  0.15833806789E+04  0.15833806789E+04  0.50400001928E-02 0. -1.
        1   -1    0    0  501    0  0.00000000000E+00  0.00000000000E+00 -0.13523694334E+04  0.13523694334E+04  0.50400001928E-02 0.  1.
    10030    2    1    2    0    0  0.00000000000E+00  0.00000000000E+00  0.23101124553E+03  0.29357501123E+04  0.29266469767E+04 0.  0.
        1    1    3    3  502    0  0.53015614275E+02 -0.14486801383E+03  0.15752013147E+04  0.15827370529E+04  0.50400001928E-02 0. -1.
       -1    1    3    3    0  502 -0.53015614275E+02  0.14486801383E+03 -0.13441900692E+04  0.13530130594E+04  0.50400001928E-02 0.  1.
</event>
<event>
 5   0  0.9260173E-06  0.2797897E+04  0.7818609E-02  0.8303921E-01
       -2   -1    0    0    0  501  0.00000000000E+00  0.00000000000E+00  0.12995250177E+04  0.12995250177E+04  0.25500000920E-02 0.  1.
        2   -1    0    0  501    0  0.00000000000E+00  0.00000000000E+00 -0.15059788555E+04  0.15059788555E+04  0.25500000920E-02 0. -1.
    10030    2    1    2    0    0  0.00000000000E+00  0.00000000000E+00 -0.20645383777E+03  0.28055038732E+04  0.27978972096E+04 0.  0.
        1    1    3    3  502    0 -0.57149103488E+03 -0.45557847928E+03 -0.12993251081E+04  0.14907714414E+04  0.50400001928E-02 0. -1.
       -1    1    3    3    0  502  0.57149103488E+03  0.45557847928E+03  0.10928712704E+04  0.13147324318E+04  0.50400001928E-02 0.  1.
</event>
<event>
 5   0  0.9252359E-06  0.2824609E+04  0.7818609E-02  0.8295669E-01
       -2   -1    0    0    0  501  0.00000000000E+00  0.00000000000E+00  0.11175446342E+04  0.11175446342E+04  0.25500000920E-02 0. -1.
        2   -1    0    0  501    0  0.00000000000E+00  0.00000000000E+00 -0.17848088811E+04  0.17848088811E+04  0.25500000920E-02 0.  1.
    10030    2    1    2    0    0  0.00000000000E+00  0.00000000000E+00 -0.66726424690E+03  0.29023535153E+04  0.28246087079E+04 0.  0.
        5    1    3    3  502    0 -0.13319308461E+04  0.46715256080E+03 -0.28424460401E+03  0.14398223428E+04  0.46999998093E+01 0.  1.
       -5    1    3    3    0  502  0.13319308461E+04 -0.46715256080E+03 -0.38301964289E+03  0.14625311725E+04  0.46999998093E+01 0. -1.
</event>
<event>
 5   0  0.3357244E-06  0.2764930E+04  0.7818609E-02  0.8314240E-01
       -1   -1    0    0    0  501  0.00000000000E+00  0.00000000000E+00  0.99331696883E+03  0.99331696884E+03  0.50400001928E-02 0.  1.
        1   -1    0    0  501    0  0.00000000000E+00  0.00000000000E+00 -0.19240674987E+04  0.19240674987E+04  0.50400001928E-02 0. -1.
    10030    2    1    2    0    0  0.00000000000E+00  0.00000000000E+00 -0.93075052990E+03  0.29173844676E+04  0.27649295801E+04 0.  0.
        4    1    3    3  502    0 -0.21618870801E+03 -0.66759802744E+03 -0.17221791610E+04  0.18596578608E+04  0.12699999809E+01 0. -1.
       -4    1    3    3    0  502  0.21618870801E+03  0.66759802744E+03  0.79142863109E+03  0.10577266068E+04  0.12699999809E+01 0.  1.
</event>
<event>
 5   0  0.9252359E-06  0.2795172E+04  0.7818609E-02  0.8304769E-01
       -2   -1    0    0    0  501  0.00000000000E+00  0.00000000000E+00  0.14563335256E+04  0.14563335256E+04  0.25500000920E-02 0. -1.
        2   -1    0    0  501    0  0.00000000000E+00  0.00000000000E+00 -0.13412079165E+04  0.13412079165E+04  0.25500000920E-02 0.  1.
    10030    2    1    2    0    0  0.00000000000E+00  0.00000000000E+00  0.11512560914E+03  0.27975414422E+04  0.27951715895E+04 0.  0.
        5    1    3    3  502    0  0.10836928495E+04 -0.65463606643E+03  0.64991372626E+03  0.14231473968E+04  0.46999998093E+01 0.  1.
       -5    1    3    3    0  502 -0.10836928495E+04  0.65463606643E+03 -0.53478811712E+03  0.13743940453E+04  0.46999998093E+01 0. -1.
</event>
<event>
 5   0  0.3397882E-06  0.2697027E+04  0.7818609E-02  0.8335970E-01
        1   -1    0    0  501    0  0.00000000000E+00  0.00000000000E+00  0.21327450508E+04  0.21327450508E+04  0.50400001928E-02 0. -1.
       -1   -1    0    0    0  501  0.00000000000E+00  0.00000000000E+00 -0.85265189707E+03  0.85265189709E+03  0.50400001928E-02 0.  1.
    10030    2    1    2    0    0  0.00000000000E+00  0.00000000000E+00  0.12800931537E+04  0.29853969479E+04  0.26970273366E+04 0.  0.
        2    1    3    3  502    0 -0.10351916989E+04  0.20955068649E+03 -0.28802342694E+03  0.10947560633E+04  0.25500000920E-02 0.  1.
       -2    1    3    3    0  502  0.10351916989E+04 -0.20955068649E+03  0.15681165806E+04  0.18906408845E+04  0.25500000920E-02 0. -1.
</event>
<event>
 5   0  0.9342133E-06  0.2775712E+04  0.7818609E-02  0.8310849E-01
        2   -1    0    0  501    0  0.00000000000E+00  0.00000000000E+00  0.19456910082E+04  0.19456910082E+04  0.25500000920E-02 0.  1.
       -2   -1    0    0    0  501  0.00000000000E+00  0.00000000000E+00 -0.98995397156E+03  0.98995397156E+03  0.25500000920E-02 0. -1.
    10030    2    1    2    0    0  0.00000000000E+00  0.00000000000E+00  0.95573703667E+03  0.29356449798E+04  0.27757121904E+04 0.  0.
        2    1    3    3  502    0  0.58879915622E+03  0.93599676350E+03  0.13648633073E+04  0.17565950687E+04  0.25500000920E-02 0.  1.
       -2    1    3    3    0  502 -0.58879915622E+03 -0.93599676350E+03 -0.40912627061E+03  0.11790499111E+04  0.25500000920E-02 0. -1.
</event>
<event>
 5   0  0.3600963E-06  0.2811456E+04  0.7818609E-02  0.8299721E-01
       -1   -1    0    0    0  501  0.00000000000E+00  0.00000000000E+00  0.16282227176E+04  0.16282227176E+04  0.50400001928E-02 0.  1.
        1   -1    0    0  501    0  0.00000000000E+00  0.00000000000E+00 -0.12136367270E+04  0.12136367270E+04  0.50400001928E-02 0. -1.
    10030    2    1    2    0    0  0.00000000000E+00  0.00000000000E+00  0.41458599064E+03  0.28418594446E+04  0.28114557722E+04 0.  0.
        5    1    3    3  502    0 -0.79760199222E+03 -0.95512098973E+03 -0.45370820900E+03  0.13244992533E+04  0.46999998093E+01 0. -1.
       -5    1    3    3    0  502  0.79760199222E+03  0.95512098973E+03  0.86829419964E+03  0.15173601913E+04  0.46999998093E+01 0.  1.
</event>
</LesHouchesEvents>
