<LesHouchesEvents version="3.0">
<header>
<!--
#*********************************************************************
#                                                                    *
#                        MadGraph5_aMC@NLO                           *
#                                                                    *
#                           Going Beyond                             *
#                                                                    *
#                   http://madgraph.hep.uiuc.edu                     *
#                   http://madgraph.phys.ucl.ac.be                   *
#                   http://amcatnlo.cern.ch                          *
#                                                                    *
#                     The MadGraph5_aMC@NLO team                     *
#                                                                    *
#....................................................................*
#                                                                    *
# This file contains all the information necessary to reproduce      *
# the events generated:                                              *
#                                                                    *
# 1. software version                                                *
# 2. proc_card          : code generation info including model       *
# 3. param_card         : model primary parameters in the LH format  *
# 4. run_card           : running parameters (collider and cuts)     *
# 5. pythia_card        : present only if pythia has been run        *
# 6. pgs_card           : present only if pgs has been run           *
# 7. delphes_cards      : present only if delphes has been run       *
#                                                                    *
#                                                                    *
#*********************************************************************
-->
<MGVersion>
#5.2.2.3
</MGVersion>
<MG5ProcCard>
#************************************************************
#*                     MadGraph5_aMC@NLO                    *
#*                                                          *
#*                *                       *                 *
#*                  *        * *        *                   *
#*                    * * * * 5 * * * *                     *
#*                  *        * *        *                   *
#*                *                       *                 *
#*                                                          *
#*                                                          *
#*         VERSION 2.2.3                 2015-02-10         *
#*                                                          *
#*    The MadGraph5_aMC@NLO Development Team - Find us at   *
#*    https://server06.fynu.ucl.ac.be/projects/madgraph     *
#*                                                          *
#************************************************************
#*                                                          *
#*               Command File for MadGraph5_aMC@NLO         *
#*                                                          *
#*     run as ./bin/mg5_aMC  filename                       *
#*                                                          *
#************************************************************
set group_subprocesses Auto
set ignore_six_quark_processes False
set loop_optimized_output True
set gauge unitary
set complex_mass_scheme False
import model sm
define p = g u c d s u~ c~ d~ s~
define j = g u c d s u~ c~ d~ s~
define l+ = e+ mu+
define l- = e- mu-
define vl = ve vm vt
define vl~ = ve~ vm~ vt~
import model Zprime_UFO
generate p p > zph, zph > j j
add process p p > zph, zph > b b~
output Dijet_signal
</MG5ProcCard>
<MGProcCard>
#*********************************************************************
#                        MadGraph/MadEvent                           *
#                   http://madgraph.hep.uiuc.edu                     *
#                                                                    *
#                          proc_card.dat                             *
#*********************************************************************
#                                                                    *
#            This Files is generated by MADGRAPH 5                   *
#                                                                    *
# WARNING: This Files is generated for MADEVENT (compatibility issue)*
#          This files is NOT a valid MG4 proc_card.dat               *
#          Running this in MG4 will NEVER reproduce the result of MG5*
#                                                                    *
#*********************************************************************
#*********************************************************************
# Process(es) requested : mg2 input                                  *
#*********************************************************************
# Begin PROCESS # This is TAG. Do not modify this line
p p > zph , zph > j j           #Process
# Be carefull the coupling are here in MG5 convention
          
end_coup           # End the couplings input

done               # this tells MG there are no more procs
# End PROCESS  # This is TAG. Do not modify this line
#*********************************************************************
# Model information                                                  *
#*********************************************************************
# Begin MODEL  # This is TAG. Do not modify this line
Zprime_UFO
# End   MODEL  # This is TAG. Do not modify this line
#*********************************************************************
# Start multiparticle definitions                                    *
#*********************************************************************
# Begin MULTIPARTICLES # This is TAG. Do not modify this line

# End  MULTIPARTICLES # This is TAG. Do not modify this line
</MGProcCard>
<MGRunCard>
#*********************************************************************
#                       MadGraph5_aMC@NLO                            *
#                                                                    *
#                     run_card.dat MadEvent                          *
#                                                                    *
#  This file is used to set the parameters of the run.               *
#                                                                    *
#  Some notation/conventions:                                        *
#                                                                    *
#   Lines starting with a '# ' are info or comments                  *
#                                                                    *
#   mind the format:   value    = variable     ! comment             *
#*********************************************************************
#
#*******************                                                 
# Running parameters
#*******************                                                 
#                                                                    
#*********************************************************************
# Tag name for the run (one word)                                    *
#*********************************************************************
  tag_1     = run_tag ! name of the run 
#*********************************************************************
# Run to generate the grid pack                                      *
#*********************************************************************
  .false.     = gridpack  !True = setting up the grid pack
#*********************************************************************
# Number of events and rnd seed                                      *
# Warning: Do not generate more than 1M events in a single run       *
# If you want to run Pythia, avoid more than 50k events in a run.    *
#*********************************************************************
  2000 = nevents ! Number of unweighted events requested 
 2460 = iseed   ! rnd seed (0=assigned automatically=default))
#*********************************************************************
# Collider type and energy                                           *
# lpp: 0=No PDF, 1=proton, -1=antiproton, 2=photon from proton,      *
#                                         3=photon from electron     *
#*********************************************************************
        1     = lpp1    ! beam 1 type 
        1     = lpp2    ! beam 2 type
     4000     = ebeam1  ! beam 1 total energy in GeV
     4000     = ebeam2  ! beam 2 total energy in GeV
#*********************************************************************
# Beam polarization from -100 (left-handed) to 100 (right-handed)    *
#*********************************************************************
        0     = polbeam1 ! beam polarization for beam 1
        0     = polbeam2 ! beam polarization for beam 2
#*********************************************************************
# PDF CHOICE: this automatically fixes also alpha_s and its evol.    *
#*********************************************************************
 'nn23lo1'    = pdlabel     ! PDF set                                     
 230000    = lhaid     ! if pdlabel=lhapdf, this is the lhapdf number
#*********************************************************************
# Renormalization and factorization scales                           *
#*********************************************************************
 F        = fixed_ren_scale  ! if .true. use fixed ren scale
 F        = fixed_fac_scale  ! if .true. use fixed fac scale
 91.1880  = scale            ! fixed ren scale
 91.1880  = dsqrt_q2fact1    ! fixed fact scale for pdf1
 91.1880  = dsqrt_q2fact2    ! fixed fact scale for pdf2
 1        = scalefact        ! scale factor for event-by-event scales
#*********************************************************************
# Matching - Warning! ickkw > 1 is still beta
#*********************************************************************
 0        = ickkw            ! 0 no matching, 1 MLM, 2 CKKW matching
 1        = highestmult      ! for ickkw=2, highest mult group
 1        = ktscheme         ! for ickkw=1, 1 Durham kT, 2 Pythia pTE
 1        = alpsfact         ! scale factor for QCD emission vx
 F        = chcluster        ! cluster only according to channel diag
 T        = pdfwgt           ! for ickkw=1, perform pdf reweighting
 5        = asrwgtflavor     ! highest quark flavor for a_s reweight
 T        = clusinfo         ! include clustering tag in output
 3.0      = lhe_version       ! Change the way clustering information pass to shower.        
#*********************************************************************
#**********************************************************
#
#**********************************************************
# Automatic ptj and mjj cuts if xqcut > 0
# (turn off for VBF and single top processes)
#**********************************************************
   T  = auto_ptj_mjj  ! Automatic setting of ptj and mjj
#**********************************************************
#                                                                    
#**********************************
# BW cutoff (M+/-bwcutoff*Gamma)
#**********************************
  15  = bwcutoff      ! (M+/-bwcutoff*Gamma)
#**********************************************************
# Apply pt/E/eta/dr/mij cuts on decay products or not
# (note that etmiss/ptll/ptheavy/ht/sorted cuts always apply)
#**********************************************************
   T  = cut_decays    ! Cut decay products 
#*************************************************************
# Number of helicities to sum per event (0 = all helicities)
# 0 gives more stable result, but longer run time (needed for
# long decay chains e.g.).
# Use >=2 if most helicities contribute, e.g. pure QCD.
#*************************************************************
   0  = nhel          ! Number of helicities used per event
#*******************                                                 
# Standard Cuts
#*******************                                                 
#                                                                    
#*********************************************************************
# Minimum and maximum pt's (for max, -1 means no cut)                *
#*********************************************************************
 20  = ptj       ! minimum pt for the jets 
  0  = ptb       ! minimum pt for the b 
 10  = pta       ! minimum pt for the photons 
 10  = ptl       ! minimum pt for the charged leptons 
  0  = misset    ! minimum missing Et (sum of neutrino's momenta)
  0  = ptheavy   ! minimum pt for one heavy final state
 1.0 = ptonium   ! minimum pt for the quarkonium states
 -1  = ptjmax    ! maximum pt for the jets
 -1  = ptbmax    ! maximum pt for the b
 -1  = ptamax    ! maximum pt for the photons
 -1  = ptlmax    ! maximum pt for the charged leptons
 -1  = missetmax ! maximum missing Et (sum of neutrino's momenta)
#*********************************************************************
# Minimum and maximum E's (in the center of mass frame)              *
#*********************************************************************
  0  = ej     ! minimum E for the jets 
  0  = eb     ! minimum E for the b 
  0  = ea     ! minimum E for the photons 
  0  = el     ! minimum E for the charged leptons 
 -1   = ejmax ! maximum E for the jets
 -1   = ebmax ! maximum E for the b
 -1   = eamax ! maximum E for the photons
 -1   = elmax ! maximum E for the charged leptons
#*********************************************************************
# Maximum and minimum absolute rapidity (for max, -1 means no cut)   *
#*********************************************************************
   5  = etaj    ! max rap for the jets 
  -1  = etab    ! max rap for the b
 2.5  = etaa    ! max rap for the photons 
 2.5  = etal    ! max rap for the charged leptons 
 0.6  = etaonium ! max rap for the quarkonium states
   0  = etajmin ! min rap for the jets
   0  = etabmin ! min rap for the b
   0  = etaamin ! min rap for the photons
   0  = etalmin ! main rap for the charged leptons
#*********************************************************************
# Minimum and maximum DeltaR distance                                *
#*********************************************************************
 0.4 = drjj    ! min distance between jets 
 0   = drbb    ! min distance between b's 
 0.4 = drll    ! min distance between leptons 
 0.4 = draa    ! min distance between gammas 
 0   = drbj    ! min distance between b and jet 
 0.4 = draj    ! min distance between gamma and jet 
 0.4 = drjl    ! min distance between jet and lepton 
 0   = drab    ! min distance between gamma and b 
 0   = drbl    ! min distance between b and lepton 
 0.4 = dral    ! min distance between gamma and lepton 
 -1  = drjjmax ! max distance between jets
 -1  = drbbmax ! max distance between b's
 -1  = drllmax ! max distance between leptons
 -1  = draamax ! max distance between gammas
 -1  = drbjmax ! max distance between b and jet
 -1  = drajmax ! max distance between gamma and jet
 -1  = drjlmax ! max distance between jet and lepton
 -1  = drabmax ! max distance between gamma and b
 -1  = drblmax ! max distance between b and lepton
 -1  = dralmax ! maxdistance between gamma and lepton
#*********************************************************************
# Minimum and maximum invariant mass for pairs                       *
# WARNING: for four lepton final state mmll cut require to have      *
#          different lepton masses for each flavor!                  *           
#*********************************************************************
 0   = mmjj    ! min invariant mass of a jet pair 
 0   = mmbb    ! min invariant mass of a b pair 
 0   = mmaa    ! min invariant mass of gamma gamma pair
 0   = mmll    ! min invariant mass of l+l- (same flavour) lepton pair
 -1  = mmjjmax ! max invariant mass of a jet pair
 -1  = mmbbmax ! max invariant mass of a b pair
 -1  = mmaamax ! max invariant mass of gamma gamma pair
 -1  = mmllmax ! max invariant mass of l+l- (same flavour) lepton pair
#*********************************************************************
# Minimum and maximum invariant mass for all letpons                 *
#*********************************************************************
 0   = mmnl    ! min invariant mass for all letpons (l+- and vl) 
 -1  = mmnlmax ! max invariant mass for all letpons (l+- and vl) 
#*********************************************************************
# Minimum and maximum pt for 4-momenta sum of leptons                *
#*********************************************************************
 0   = ptllmin  ! Minimum pt for 4-momenta sum of leptons(l and vl)
 -1  = ptllmax  ! Maximum pt for 4-momenta sum of leptons(l and vl)
#*********************************************************************
# Inclusive cuts                                                     *
#*********************************************************************
 0  = xptj ! minimum pt for at least one jet  
 0  = xptb ! minimum pt for at least one b 
 0  = xpta ! minimum pt for at least one photon 
 0  = xptl ! minimum pt for at least one charged lepton 
#*********************************************************************
# Control the pt's of the jets sorted by pt                          *
#*********************************************************************
 0   = ptj1min ! minimum pt for the leading jet in pt
 0   = ptj2min ! minimum pt for the second jet in pt
 0   = ptj3min ! minimum pt for the third jet in pt
 0   = ptj4min ! minimum pt for the fourth jet in pt
 -1  = ptj1max ! maximum pt for the leading jet in pt 
 -1  = ptj2max ! maximum pt for the second jet in pt
 -1  = ptj3max ! maximum pt for the third jet in pt
 -1  = ptj4max ! maximum pt for the fourth jet in pt
 0   = cutuse  ! reject event if fails any (0) / all (1) jet pt cuts
#*********************************************************************
# Control the pt's of leptons sorted by pt                           *
#*********************************************************************
 0   = ptl1min ! minimum pt for the leading lepton in pt
 0   = ptl2min ! minimum pt for the second lepton in pt
 0   = ptl3min ! minimum pt for the third lepton in pt
 0   = ptl4min ! minimum pt for the fourth lepton in pt
 -1  = ptl1max ! maximum pt for the leading lepton in pt 
 -1  = ptl2max ! maximum pt for the second lepton in pt
 -1  = ptl3max ! maximum pt for the third lepton in pt
 -1  = ptl4max ! maximum pt for the fourth lepton in pt
#*********************************************************************
# Control the Ht(k)=Sum of k leading jets                            *
#*********************************************************************
 0   = htjmin ! minimum jet HT=Sum(jet pt)
 -1  = htjmax ! maximum jet HT=Sum(jet pt)
 0   = ihtmin  !inclusive Ht for all partons (including b)
 -1  = ihtmax  !inclusive Ht for all partons (including b)
 0   = ht2min ! minimum Ht for the two leading jets
 0   = ht3min ! minimum Ht for the three leading jets
 0   = ht4min ! minimum Ht for the four leading jets
 -1  = ht2max ! maximum Ht for the two leading jets
 -1  = ht3max ! maximum Ht for the three leading jets
 -1  = ht4max ! maximum Ht for the four leading jets
#***********************************************************************
# Photon-isolation cuts, according to hep-ph/9801442                   *
# When ptgmin=0, all the other parameters are ignored                  *
# When ptgmin>0, pta and draj are not going to be used                 *
#***********************************************************************
   0 = ptgmin ! Min photon transverse momentum
 0.4 = R0gamma ! Radius of isolation code
 1.0 = xn ! n parameter of eq.(3.4) in hep-ph/9801442
 1.0 = epsgamma ! epsilon_gamma parameter of eq.(3.4) in hep-ph/9801442
 .true. = isoEM ! isolate photons from EM energy (photons and leptons)
#*********************************************************************
# WBF cuts                                                           *
#*********************************************************************
 0   = xetamin ! minimum rapidity for two jets in the WBF case  
 0   = deltaeta ! minimum rapidity for two jets in the WBF case 
#*********************************************************************
# KT DURHAM CUT                                                      *
#*********************************************************************
 -1    =  ktdurham        
 0.4  =  dparameter 
#*********************************************************************
# maximal pdg code for quark to be considered as a light jet         *
# (otherwise b cuts are applied)                                     *
#*********************************************************************
 4 = maxjetflavor    ! Maximum jet pdg code
#*********************************************************************
# Jet measure cuts                                                   *
#*********************************************************************
 0   = xqcut   ! minimum kt jet measure between partons
#*********************************************************************
#
#*********************************************************************
# Store info for systematics studies                                 *
# WARNING: If use_syst is T, matched Pythia output is                *
#          meaningful ONLY if plotted taking matchscale              *
#          reweighting into account!                                 *
#*********************************************************************
   F  = use_syst      ! Enable systematics studies
#
#**************************************
# Parameter of the systematics study
#  will be used by SysCalc (if installed)
#**************************************                                  
#
0.5 1 2 = sys_scalefact  # factorization/renormalization scale factor
0.5 1 2 = sys_alpsfact  # \alpha_s emission scale factors
30 50 = sys_matchscale # variation of merging scale
# PDF sets and number of members (0 or none for all members).
CT10nlo.LHgrid = sys_pdf # matching scales
# MSTW2008nlo68cl.LHgrid 1  = sys_pdf
</MGRunCard>
<slha>
######################################################################
## PARAM_CARD AUTOMATICALY GENERATED BY MG5 FOLLOWING UFO MODEL   ####
######################################################################
##                                                                  ##
##  Width set on Auto will be computed following the information    ##
##        present in the decay.py files of the model.               ##
##        See  arXiv:1402.1178 for more details.                    ##
##                                                                  ##
######################################################################

###################################
## INFORMATION FOR CKMBLOCK
###################################
Block ckmblock 
    1 2.277360e-01 # cabi 

###################################
## INFORMATION FOR FRBLOCK
###################################
Block frblock 
    1 1.400000e+00 # gz 

###################################
## INFORMATION FOR MASS
###################################
Block mass 
    1 5.040000e-03 # MD 
    2 2.550000e-03 # MU 
    3 1.010000e-01 # MS 
    4 1.270000e+00 # MC 
    5 4.700000e+00 # MB 
    6 1.720000e+02 # MT 
   11 5.110000e-04 # Me 
   13 1.056600e-01 # MM 
   15 1.777000e+00 # MTA 
   23 9.118760e+01 # MZ 
   25 1.200000e+02 # MH 
  10030 7.000000e+02 # MZph 
  10031 3.000000e+02 # MZpl 
## Dependent parameters, given by model restrictions.
## Those values should be edited following the 
## analytical expression. MG5 ignores those values 
## but they are important for interfacing the output of MG5
## to external program such as Pythia.
  12 0.000000 # ve : 0.0 
  14 0.000000 # vm : 0.0 
  16 0.000000 # vt : 0.0 
  21 0.000000 # g : 0.0 
  22 0.000000 # a : 0.0 
  24 79.824360 # w+ : cmath.sqrt(MZ__exp__2/2. + cmath.sqrt(MZ__exp__4/4. - (aEW*cmath.pi*MZ__exp__2)/(Gf*sqrt__2))) 

###################################
## INFORMATION FOR SMINPUTS
###################################
Block sminputs 
    1 1.279000e+02 # aEWM1 
    2 1.166370e-05 # Gf 
    3 1.184000e-01 # aS 

###################################
## INFORMATION FOR YUKAWA
###################################
Block yukawa 
    1 5.040000e-03 # ymdo 
    2 2.550000e-03 # ymup 
    3 1.010000e-01 # yms 
    4 1.270000e+00 # ymc 
    5 4.700000e+00 # ymb 
    6 1.720000e+02 # ymt 
   11 5.110000e-04 # yme 
   13 1.056600e-01 # ymm 
   15 1.777000e+00 # ymtau 

###################################
## INFORMATION FOR DECAY
###################################
DECAY   6 1.508336e+00 # WT 
DECAY  23 2.495200e+00 # WZ 
DECAY  24 2.085000e+00 # WW 
DECAY  25 5.753088e-03 # WH 
## Dependent parameters, given by model restrictions.
## Those values should be edited following the 
## analytical expression. MG5 ignores those values 
## but they are important for interfacing the output of MG5
## to external program such as Pythia.
DECAY  1 0.000000 # d : 0.0 
DECAY  2 0.000000 # u : 0.0 
DECAY  3 0.000000 # s : 0.0 
DECAY  4 0.000000 # c : 0.0 
DECAY  5 0.000000 # b : 0.0 
DECAY  11 0.000000 # e- : 0.0 
DECAY  12 0.000000 # ve : 0.0 
DECAY  13 0.000000 # mu- : 0.0 
DECAY  14 0.000000 # vm : 0.0 
DECAY  15 0.000000 # ta- : 0.0 
DECAY  16 0.000000 # vt : 0.0 
DECAY  21 0.000000 # g : 0.0 
DECAY  22 0.000000 # a : 0.0 
DECAY  10030 0.308725 # zph : (gz__exp__2*MZph*(5 + cmath.sqrt(1 - (4*MT__exp__2)/MZph__exp__2)))/(144.*cmath.pi) 
DECAY  10031 0.132629 # zpl : (5*gz__exp__2*MZpl)/(144.*cmath.pi) 
#===========================================================
# QUANTUM NUMBERS OF NEW STATE(S) (NON SM PDG CODE)
#===========================================================

Block QNUMBERS 10030  # zph 
        1 0  # 3 times electric charge
        2 3  # number of spin states (2S+1)
        3 1  # colour rep (1: singlet, 3: triplet, 8: octet)
        4 0  # Particle/Antiparticle distinction (0=own anti)
Block QNUMBERS 10031  # zpl 
        1 0  # 3 times electric charge
        2 3  # number of spin states (2S+1)
        3 1  # colour rep (1: singlet, 3: triplet, 8: octet)
        4 0  # Particle/Antiparticle distinction (0=own anti)
</slha>
## END BANNER##
<MGGenerationInfo>
#  Number of Events        :         4163
#  Integrated weight (pb)  :  0.19515E+02
#  Max wgt                 :  0.62489E-02
#  Average wgt             :  0.46877E-02
</MGGenerationInfo>
</header>
<init>
     2212     2212  0.40000000000E+04  0.40000000000E+04 0 0  247000  247000 2   1
  0.19483956171E+02  0.47393487855E-01  0.62488860000E-02   0
</init>
<event>
 5   0  0.6131198E-02  0.6996764E+03  0.7818609E-02  0.9717786E-01
       -2   -1    0    0    0  501  0.00000000000E+00  0.00000000000E+00  0.13962396737E+03  0.13962396739E+03  0.25500000920E-02 0. -1.
        2   -1    0    0  501    0  0.00000000000E+00  0.00000000000E+00 -0.87654546797E+03  0.87654546797E+03  0.25500000920E-02 0.  1.
    10030    2    1    2    0    0  0.00000000000E+00  0.00000000000E+00 -0.73692150060E+03  0.10161694354E+04  0.69967637041E+03 0.  0.
        1    1    3    3  502    0  0.14670253275E+02  0.15538259672E+02 -0.87559669013E+03  0.87585741855E+03  0.50400001928E-02 0.  1.
       -1    1    3    3    0  502 -0.14670253275E+02 -0.15538259672E+02  0.13867518953E+03  0.14031201681E+03  0.50400001928E-02 0. -1.
</event>
<event>
 5   0  0.2439375E-02  0.7682217E+03  0.7818609E-02  0.9607189E-01
       -3   -1    0    0    0  501  0.00000000000E+00  0.00000000000E+00  0.35213589937E+03  0.35213591385E+03  0.10100000352E+00 0.  1.
        3   -1    0    0  501    0  0.00000000000E+00  0.00000000000E+00 -0.41898919231E+03  0.41898920448E+03  0.10100000352E+00 0. -1.
    10030    2    1    2    0    0  0.00000000000E+00  0.00000000000E+00 -0.66853292942E+02  0.77112511834E+03  0.76822170326E+03 0.  0.
        1    1    3    3  502    0  0.86747213250E+02  0.29663079282E+02  0.34099271491E+03  0.35310198091E+03  0.50400001928E-02 0.  1.
       -1    1    3    3    0  502 -0.86747213250E+02 -0.29663079282E+02 -0.40784600785E+03  0.41802313743E+03  0.50400001928E-02 0. -1.
</event>
<event>
 5   0  0.6131198E-02  0.6939676E+03  0.7818609E-02  0.9727604E-01
        2   -1    0    0  501    0  0.00000000000E+00  0.00000000000E+00  0.12549587899E+04  0.12549587899E+04  0.25500000920E-02 0.  1.
       -2   -1    0    0    0  501  0.00000000000E+00  0.00000000000E+00 -0.95937626368E+02  0.95937626402E+02  0.25500000920E-02 0. -1.
    10030    2    1    2    0    0  0.00000000000E+00  0.00000000000E+00  0.11590211636E+04  0.13508964163E+04  0.69396762899E+03 0.  0.
        1    1    3    3  502    0  0.18446932479E+03 -0.27094314727E+03  0.35791420207E+03  0.48532638184E+03  0.50400001928E-02 0. -1.
       -1    1    3    3    0  502 -0.18446932479E+03  0.27094314727E+03  0.80110696150E+03  0.86557003451E+03  0.50400001928E-02 0.  1.
</event>
<event>
 5   0  0.6248886E-02  0.6944885E+03  0.7818609E-02  0.9726704E-01
       -2   -1    0    0    0  501  0.00000000000E+00  0.00000000000E+00  0.61170008118E+02  0.61170008171E+02  0.25500000920E-02 0.  1.
        2   -1    0    0  501    0  0.00000000000E+00  0.00000000000E+00 -0.19712039894E+04  0.19712039894E+04  0.25500000920E-02 0. -1.
    10030    2    1    2    0    0  0.00000000000E+00  0.00000000000E+00 -0.19100339813E+04  0.20323739976E+04  0.69448848540E+03 0.  0.
        3    1    3    3  502    0  0.15402477723E+03  0.26190606811E+03 -0.46306164516E+03  0.55384521117E+03  0.10100000352E+00 0.  1.
       -3    1    3    3    0  502 -0.15402477723E+03 -0.26190606811E+03 -0.14469723361E+04  0.14785287864E+04  0.10100000352E+00 0. -1.
</event>
<event>
 5   0  0.6131198E-02  0.7103104E+03  0.7818609E-02  0.9699761E-01
        2   -1    0    0  501    0  0.00000000000E+00  0.00000000000E+00  0.72779480677E+03  0.72779480678E+03  0.25500000920E-02 0.  1.
       -2   -1    0    0    0  501  0.00000000000E+00  0.00000000000E+00 -0.17331151230E+03  0.17331151232E+03  0.25500000920E-02 0. -1.
    10030    2    1    2    0    0  0.00000000000E+00  0.00000000000E+00  0.55448329447E+03  0.90110631910E+03  0.71031040713E+03 0.  0.
        1    1    3    3  502    0  0.15586972063E+03  0.72065897771E+02 -0.11714354238E+03  0.20787369477E+03  0.50400001928E-02 0. -1.
       -1    1    3    3    0  502 -0.15586972063E+03 -0.72065897771E+02  0.67162683685E+03  0.69323262433E+03  0.50400001928E-02 0.  1.
</event>
<event>
 5   0  0.6248886E-02  0.7110256E+03  0.7818609E-02  0.9698561E-01
       -2   -1    0    0    0  501  0.00000000000E+00  0.00000000000E+00  0.10436679564E+03  0.10436679567E+03  0.25500000920E-02 0.  1.
        2   -1    0    0  501    0  0.00000000000E+00  0.00000000000E+00 -0.12110112003E+04  0.12110112003E+04  0.25500000920E-02 0. -1.
    10030    2    1    2    0    0  0.00000000000E+00  0.00000000000E+00 -0.11066444046E+04  0.13153779959E+04  0.71102562113E+03 0.  0.
        3    1    3    3  502    0 -0.32382829116E+03  0.13432931437E+03 -0.44418601943E+03  0.56587132541E+03  0.10100000352E+00 0.  1.
       -3    1    3    3    0  502  0.32382829116E+03 -0.13432931437E+03 -0.66245838519E+03  0.74950667053E+03  0.10100000352E+00 0. -1.
</event>
<event>
 5   0  0.3439015E-02  0.6996526E+03  0.7818609E-02  0.9717826E-01
       -1   -1    0    0    0  501  0.00000000000E+00  0.00000000000E+00  0.59200812453E+03  0.59200812455E+03  0.50400001928E-02 0.  1.
        1   -1    0    0  501    0  0.00000000000E+00  0.00000000000E+00 -0.20671751649E+03  0.20671751655E+03  0.50400001928E-02 0. -1.
    10030    2    1    2    0    0  0.00000000000E+00  0.00000000000E+00  0.38529060804E+03  0.79872564110E+03  0.69965262602E+03 0.  0.
        1    1    3    3  502    0 -0.49725601843E+02  0.28443347907E+03  0.41810371712E+03  0.50811982621E+03  0.50400001928E-02 0.  1.
       -1    1    3    3    0  502  0.49725601843E+02 -0.28443347907E+03 -0.32813109077E+02  0.29060581489E+03  0.50400001928E-02 0. -1.
</event>
<event>
 5   0  0.3717372E-02  0.7039348E+03  0.7818609E-02  0.9710527E-01
       -1   -1    0    0    0  501  0.00000000000E+00  0.00000000000E+00  0.73025211283E+03  0.73025211285E+03  0.50400001928E-02 0.  1.
        1   -1    0    0  501    0  0.00000000000E+00  0.00000000000E+00 -0.16964148961E+03  0.16964148969E+03  0.50400001928E-02 0. -1.
    10030    2    1    2    0    0  0.00000000000E+00  0.00000000000E+00  0.56061062322E+03  0.89989360254E+03  0.70393481589E+03 0.  0.
        3    1    3    3  502    0  0.44541912670E+02  0.22366238707E+03 -0.62414484129E+02  0.23644116267E+03  0.10100000352E+00 0. -1.
       -3    1    3    3    0  502 -0.44541912670E+02 -0.22366238707E+03  0.62302510735E+03  0.66345243987E+03  0.10100000352E+00 0.  1.
</event>
<event>
 5   0  0.6131198E-02  0.6968970E+03  0.7818609E-02  0.9722554E-01
        2   -1    0    0  501    0  0.00000000000E+00  0.00000000000E+00  0.20265516944E+04  0.20265516944E+04  0.25500000920E-02 0.  1.
       -2   -1    0    0    0  501  0.00000000000E+00  0.00000000000E+00 -0.59912777189E+02  0.59912777243E+02  0.25500000920E-02 0. -1.
    10030    2    1    2    0    0  0.00000000000E+00  0.00000000000E+00  0.19666389172E+04  0.20864644717E+04  0.69689695131E+03 0.  0.
        1    1    3    3  502    0  0.26713375400E+03 -0.16655750148E+03  0.14305546544E+04  0.14647827358E+04  0.50400001928E-02 0.  1.
       -1    1    3    3    0  502 -0.26713375400E+03  0.16655750148E+03  0.53608426279E+03  0.62168173583E+03  0.50400001928E-02 0. -1.
</event>
<event>
 5   0  0.2439375E-02  0.6945466E+03  0.7818609E-02  0.9726604E-01
       -4   -1    0    0    0  501  0.00000000000E+00  0.00000000000E+00  0.31385144416E+03  0.31385401368E+03  0.12699999809E+01 0. -1.
        4   -1    0    0  501    0  0.00000000000E+00  0.00000000000E+00 -0.38424906630E+03  0.38425116506E+03  0.12699999809E+01 0.  1.
    10030    2    1    2    0    0  0.00000000000E+00  0.00000000000E+00 -0.70397622136E+02  0.69810517874E+03  0.69454662578E+03 0.  0.
        1    1    3    3  502    0  0.24196155590E+03 -0.22969846146E+03 -0.13208759290E+03  0.35882295071E+03  0.50400001928E-02 0.  1.
       -1    1    3    3    0  502 -0.24196155590E+03  0.22969846146E+03  0.61689970766E+02  0.33928222802E+03  0.50400001928E-02 0. -1.
</event>
<event>
 5   0  0.6131198E-02  0.7063036E+03  0.7818609E-02  0.9706512E-01
        2   -1    0    0  501    0  0.00000000000E+00  0.00000000000E+00  0.20381683550E+04  0.20381683550E+04  0.25500000920E-02 0. -1.
       -2   -1    0    0    0  501  0.00000000000E+00  0.00000000000E+00 -0.61190333144E+02  0.61190333197E+02  0.25500000920E-02 0.  1.
    10030    2    1    2    0    0  0.00000000000E+00  0.00000000000E+00  0.19769780218E+04  0.20993586882E+04  0.70630361942E+03 0.  0.
        1    1    3    3  502    0 -0.23379512244E+03 -0.11820850598E+03  0.28459053909E+03  0.38681414805E+03  0.50400001928E-02 0.  1.
       -1    1    3    3    0  502  0.23379512244E+03  0.11820850598E+03  0.16923874827E+04  0.17125445401E+04  0.50400001928E-02 0. -1.
</event>
<event>
 5   0  0.2439375E-02  0.6774183E+03  0.7818609E-02  0.9756649E-01
        4   -1    0    0  501    0  0.00000000000E+00  0.00000000000E+00  0.23273341266E+03  0.23273687776E+03  0.12699999809E+01 0.  1.
       -4   -1    0    0    0  501  0.00000000000E+00  0.00000000000E+00 -0.49293322740E+03  0.49293486342E+03  0.12699999809E+01 0. -1.
    10030    2    1    2    0    0  0.00000000000E+00  0.00000000000E+00 -0.26019981474E+03  0.72567174118E+03  0.67741828463E+03 0.  0.
        2    1    3    3  502    0  0.48016689068E+02  0.50960437534E+02  0.22489867212E+03  0.23554613423E+03  0.25500000920E-02 0.  1.
       -2    1    3    3    0  502 -0.48016689068E+02 -0.50960437534E+02 -0.48509848686E+03  0.49012560695E+03  0.25500000920E-02 0. -1.
</event>
<event>
 5   0  0.5987810E-02  0.7024180E+03  0.7818609E-02  0.9713106E-01
       -2   -1    0    0    0  501  0.00000000000E+00  0.00000000000E+00  0.76202609505E+02  0.76202609548E+02  0.25500000920E-02 0. -1.
        2   -1    0    0  501    0  0.00000000000E+00  0.00000000000E+00 -0.16186817156E+04  0.16186817156E+04  0.25500000920E-02 0.  1.
    10030    2    1    2    0    0  0.00000000000E+00  0.00000000000E+00 -0.15424791061E+04  0.16948843252E+04  0.70241802576E+03 0.  0.
        5    1    3    3  502    0 -0.31192637919E+03  0.68375505030E+02 -0.11238277860E+04  0.11683254077E+04  0.46999998093E+01 0. -1.
       -5    1    3    3    0  502  0.31192637919E+03 -0.68375505030E+02 -0.41865132013E+03  0.52655891748E+03  0.46999998093E+01 0.  1.
</event>
<event>
 5   0  0.3601475E-02  0.6908942E+03  0.7818609E-02  0.9732932E-01
       -1   -1    0    0    0  501  0.00000000000E+00  0.00000000000E+00  0.11080214686E+03  0.11080214697E+03  0.50400001928E-02 0.  1.
        1   -1    0    0  501    0  0.00000000000E+00  0.00000000000E+00 -0.10769982142E+04  0.10769982142E+04  0.50400001928E-02 0. -1.
    10030    2    1    2    0    0  0.00000000000E+00  0.00000000000E+00 -0.96619606736E+03  0.11878003612E+04  0.69089424479E+03 0.  0.
        5    1    3    3  502    0  0.29541865792E+03 -0.14934184208E+03 -0.31345645266E+03  0.45590811240E+03  0.46999998093E+01 0.  1.
       -5    1    3    3    0  502 -0.29541865792E+03  0.14934184208E+03 -0.65273961470E+03  0.73189224880E+03  0.46999998093E+01 0. -1.
</event>
<event>
 5   0  0.2439375E-02  0.6957417E+03  0.7818609E-02  0.9724542E-01
        3   -1    0    0  501    0  0.00000000000E+00  0.00000000000E+00  0.17767422064E+03  0.17767424934E+03  0.10100000352E+00 0. -1.
       -3   -1    0    0    0  501  0.00000000000E+00  0.00000000000E+00 -0.68110112326E+03  0.68110113075E+03  0.10100000352E+00 0.  1.
    10030    2    1    2    0    0  0.00000000000E+00  0.00000000000E+00 -0.50342690262E+03  0.85877538009E+03  0.69574169572E+03 0.  0.
        2    1    3    3  502    0 -0.30068441622E+02  0.14666872375E+03  0.13587093189E+03  0.20217995906E+03  0.25500000920E-02 0. -1.
       -2    1    3    3    0  502  0.30068441622E+02 -0.14666872375E+03 -0.63929783451E+03  0.65659542103E+03  0.25500000920E-02 0.  1.
</event>
<event>
 5   0  0.2439375E-02  0.6998061E+03  0.7818609E-02  0.9717564E-01
       -3   -1    0    0    0  501  0.00000000000E+00  0.00000000000E+00  0.99493122476E+03  0.99493122989E+03  0.10100000352E+00 0.  1.
        3   -1    0    0  501    0  0.00000000000E+00  0.00000000000E+00 -0.12305585027E+03  0.12305589172E+03  0.10100000352E+00 0. -1.
    10030    2    1    2    0    0  0.00000000000E+00  0.00000000000E+00  0.87187537449E+03  0.11179871216E+04  0.69980606989E+03 0.  0.
        5    1    3    3  502    0  0.79947929952E+02 -0.34020734839E+03  0.46254245367E+03  0.57974160006E+03  0.46999998093E+01 0.  1.
       -5    1    3    3    0  502 -0.79947929952E+02  0.34020734839E+03  0.40933292082E+03  0.53824552155E+03  0.46999998093E+01 0. -1.
</event>
<event>
 5   0  0.3439015E-02  0.6747148E+03  0.7818609E-02  0.9761478E-01
        1   -1    0    0  501    0  0.00000000000E+00  0.00000000000E+00  0.30236334149E+03  0.30236334153E+03  0.50400001928E-02 0.  1.
       -1   -1    0    0    0  501  0.00000000000E+00  0.00000000000E+00 -0.37640148923E+03  0.37640148927E+03  0.50400001928E-02 0. -1.
    10030    2    1    2    0    0  0.00000000000E+00  0.00000000000E+00 -0.74038147747E+02  0.67876483079E+03  0.67471479026E+03 0.  0.
        1    1    3    3  502    0 -0.24094285754E+03 -0.19957896935E+02  0.19967654218E+03  0.31356418764E+03  0.50400001928E-02 0.  1.
       -1    1    3    3    0  502  0.24094285754E+03  0.19957896935E+02 -0.27371468993E+03  0.36520064315E+03  0.50400001928E-02 0. -1.
</event>
<event>
 5   0  0.3717372E-02  0.7038758E+03  0.7818609E-02  0.9710627E-01
        1   -1    0    0  501    0  0.00000000000E+00  0.00000000000E+00  0.27443487119E+03  0.27443487124E+03  0.50400001928E-02 0.  1.
       -1   -1    0    0    0  501  0.00000000000E+00  0.00000000000E+00 -0.45132848241E+03  0.45132848244E+03  0.50400001928E-02 0. -1.
    10030    2    1    2    0    0  0.00000000000E+00  0.00000000000E+00 -0.17689361122E+03  0.72576335368E+03  0.70387576734E+03 0.  0.
        3    1    3    3  502    0  0.25532663859E+03  0.84868455291E+00  0.16129952275E+03  0.30200986554E+03  0.10100000352E+00 0.  1.
       -3    1    3    3    0  502 -0.25532663859E+03 -0.84868455291E+00 -0.33819313398E+03  0.42375348814E+03  0.10100000352E+00 0. -1.
</event>
<event>
 5   0  0.3717372E-02  0.4449130E+03  0.7818609E-02  0.1029250E+00
        1   -1    0    0  501    0  0.00000000000E+00  0.00000000000E+00  0.10067008574E+04  0.10067008574E+04  0.50400001928E-02 0. -1.
       -1   -1    0    0    0  501  0.00000000000E+00  0.00000000000E+00 -0.49157505976E+02  0.49157506235E+02  0.50400001928E-02 0.  1.
    10030    2    1    2    0    0  0.00000000000E+00  0.00000000000E+00  0.95754335140E+03  0.10558583636E+04  0.44491304119E+03 0.  0.
        3    1    3    3  502    0 -0.19953717880E+03  0.44845689461E+01  0.24562332269E+03  0.31649016404E+03  0.10100000352E+00 0. -1.
       -3    1    3    3    0  502  0.19953717880E+03 -0.44845689461E+01  0.71192002871E+03  0.73936819959E+03  0.10100000352E+00 0.  1.
</event>
<event>
 5   0  0.6131198E-02  0.6975107E+03  0.7818609E-02  0.9721499E-01
       -2   -1    0    0    0  501  0.00000000000E+00  0.00000000000E+00  0.38354850383E+03  0.38354850383E+03  0.25500000920E-02 0. -1.
        2   -1    0    0  501    0  0.00000000000E+00  0.00000000000E+00 -0.31711839353E+03  0.31711839354E+03  0.25500000920E-02 0.  1.
    10030    2    1    2    0    0  0.00000000000E+00  0.00000000000E+00  0.66430110298E+02  0.70066689737E+03  0.69751067484E+03 0.  0.
        1    1    3    3  502    0  0.59425986710E+02  0.33761787111E+03 -0.31207901684E+02  0.34422551902E+03  0.50400001928E-02 0.  1.
       -1    1    3    3    0  502 -0.59425986710E+02 -0.33761787111E+03  0.97638011982E+02  0.35644137835E+03  0.50400001928E-02 0. -1.
</event>
<event>
 5   0  0.3749730E-02  0.7008114E+03  0.7818609E-02  0.9715846E-01
        1   -1    0    0  501    0  0.00000000000E+00  0.00000000000E+00  0.21778796597E+03  0.21778796602E+03  0.50400001928E-02 0.  1.
       -1   -1    0    0    0  501  0.00000000000E+00  0.00000000000E+00 -0.56377838547E+03  0.56377838549E+03  0.50400001928E-02 0. -1.
    10030    2    1    2    0    0  0.00000000000E+00  0.00000000000E+00 -0.34599041951E+03  0.78156635152E+03  0.70081138078E+03 0.  0.
        4    1    3    3  502    0 -0.18214535785E+03  0.17947722394E+03  0.94180009749E+02  0.27250778417E+03  0.12699999809E+01 0.  1.
       -4    1    3    3    0  502  0.18214535785E+03 -0.17947722394E+03 -0.44017042926E+03  0.50905856735E+03  0.12699999809E+01 0. -1.
</event>
<event>
 5   0  0.3439015E-02  0.6883359E+03  0.7818609E-02  0.9737390E-01
        1   -1    0    0  501    0  0.00000000000E+00  0.00000000000E+00  0.46696450191E+03  0.46696450193E+03  0.50400001928E-02 0. -1.
       -1   -1    0    0    0  501  0.00000000000E+00  0.00000000000E+00 -0.25366294717E+03  0.25366294722E+03  0.50400001928E-02 0.  1.
    10030    2    1    2    0    0  0.00000000000E+00  0.00000000000E+00  0.21330155474E+03  0.72062744915E+03  0.68833594067E+03 0.  0.
        1    1    3    3  502    0  0.15222110396E+03 -0.29728692257E+03  0.19361897756E+03  0.38605580855E+03  0.50400001928E-02 0.  1.
       -1    1    3    3    0  502 -0.15222110396E+03  0.29728692257E+03  0.19682577176E+02  0.33457164059E+03  0.50400001928E-02 0. -1.
</event>
<event>
 5   0  0.5899787E-02  0.6795355E+03  0.7818609E-02  0.9752884E-01
        2   -1    0    0  501    0  0.00000000000E+00  0.00000000000E+00  0.11064716161E+03  0.11064716164E+03  0.25500000920E-02 0.  1.
       -2   -1    0    0    0  501  0.00000000000E+00  0.00000000000E+00 -0.10433357130E+04  0.10433357130E+04  0.25500000920E-02 0. -1.
    10030    2    1    2    0    0  0.00000000000E+00  0.00000000000E+00 -0.93268855139E+03  0.11539828746E+04  0.67953553334E+03 0.  0.
        2    1    3    3  502    0 -0.26918864206E+03  0.17171045146E+03 -0.26906759741E+03  0.41754565754E+03  0.25500000920E-02 0.  1.
       -2    1    3    3    0  502  0.26918864206E+03 -0.17171045146E+03 -0.66362095398E+03  0.73643721710E+03  0.25500000920E-02 0. -1.
</event>
<event>
 5   0  0.3717372E-02  0.6930595E+03  0.7818609E-02  0.9729176E-01
       -1   -1    0    0    0  501  0.00000000000E+00  0.00000000000E+00  0.29458242412E+03  0.29458242416E+03  0.50400001928E-02 0.  1.
        1   -1    0    0  501    0  0.00000000000E+00  0.00000000000E+00 -0.40763756204E+03  0.40763756207E+03  0.50400001928E-02 0. -1.
    10030    2    1    2    0    0  0.00000000000E+00  0.00000000000E+00 -0.11305513792E+03  0.70221998623E+03  0.69305948147E+03 0.  0.
        3    1    3    3  502    0  0.30446763914E+03  0.11264466483E+03  0.66291306420E+02  0.33133655293E+03  0.10100000352E+00 0.  1.
       -3    1    3    3    0  502 -0.30446763914E+03 -0.11264466483E+03 -0.17934644434E+03  0.37088343330E+03  0.10100000352E+00 0. -1.
</event>
<event>
 5   0  0.2439375E-02  0.7027649E+03  0.7818609E-02  0.9712515E-01
        3   -1    0    0  501    0  0.00000000000E+00  0.00000000000E+00  0.87044250591E+03  0.87044251177E+03  0.10100000352E+00 0. -1.
       -3   -1    0    0    0  501  0.00000000000E+00  0.00000000000E+00 -0.14184694244E+03  0.14184697840E+03  0.10100000352E+00 0.  1.
    10030    2    1    2    0    0  0.00000000000E+00  0.00000000000E+00  0.72859556346E+03  0.10122894902E+04  0.70276490863E+03 0.  0.
        2    1    3    3  502    0 -0.23787973311E+03  0.67240040808E+02  0.45870295028E+01  0.24724285906E+03  0.25500000920E-02 0.  1.
       -2    1    3    3    0  502  0.23787973311E+03 -0.67240040808E+02  0.72400853396E+03  0.76504663111E+03  0.25500000920E-02 0. -1.
</event>
<event>
 5   0  0.6248886E-02  0.7218311E+03  0.7818609E-02  0.9680610E-01
        2   -1    0    0  501    0  0.00000000000E+00  0.00000000000E+00  0.15944314593E+04  0.15944314593E+04  0.25500000920E-02 0.  1.
       -2   -1    0    0    0  501  0.00000000000E+00  0.00000000000E+00 -0.81696856960E+02  0.81696857000E+02  0.25500000920E-02 0. -1.
    10030    2    1    2    0    0  0.00000000000E+00  0.00000000000E+00  0.15127346023E+04  0.16761283163E+04  0.72183111292E+03 0.  0.
        3    1    3    3  502    0  0.28590604454E+03  0.17549365289E+03  0.44726635065E+03  0.55909523977E+03  0.10100000352E+00 0. -1.
       -3    1    3    3    0  502 -0.28590604454E+03 -0.17549365289E+03  0.10654682517E+04  0.11170330765E+04  0.10100000352E+00 0.  1.
</event>
<event>
 5   0  0.3439015E-02  0.6991222E+03  0.7818609E-02  0.9718735E-01
        1   -1    0    0  501    0  0.00000000000E+00  0.00000000000E+00  0.81670173100E+03  0.81670173101E+03  0.50400001928E-02 0. -1.
       -1   -1    0    0    0  501  0.00000000000E+00  0.00000000000E+00 -0.14961759296E+03  0.14961759304E+03  0.50400001928E-02 0.  1.
    10030    2    1    2    0    0  0.00000000000E+00  0.00000000000E+00  0.66708413804E+03  0.96631932405E+03  0.69912215586E+03 0.  0.
        1    1    3    3  502    0 -0.12178304251E+03 -0.16938804057E+03  0.72121981805E+03  0.75078721599E+03  0.50400001928E-02 0. -1.
       -1    1    3    3    0  502  0.12178304251E+03  0.16938804057E+03 -0.54135680006E+02  0.21553210806E+03  0.50400001928E-02 0.  1.
</event>
<event>
 5   0  0.5899787E-02  0.7395510E+03  0.7818609E-02  0.9651887E-01
       -2   -1    0    0    0  501  0.00000000000E+00  0.00000000000E+00  0.17731823033E+03  0.17731823035E+03  0.25500000920E-02 0.  1.
        2   -1    0    0  501    0  0.00000000000E+00  0.00000000000E+00 -0.77112154834E+03  0.77112154834E+03  0.25500000920E-02 0. -1.
    10030    2    1    2    0    0  0.00000000000E+00  0.00000000000E+00 -0.59380331801E+03  0.94843977869E+03  0.73955096737E+03 0.  0.
        2    1    3    3  502    0  0.10078403263E+03 -0.94100617252E+02  0.14311554496E+03  0.19873199696E+03  0.25500000920E-02 0.  1.
       -2    1    3    3    0  502 -0.10078403263E+03  0.94100617252E+02 -0.73691886296E+03  0.74970778174E+03  0.25500000920E-02 0. -1.
</event>
<event>
 5   0  0.3755872E-02  0.7152923E+03  0.7818609E-02  0.9691432E-01
        1   -1    0    0  501    0  0.00000000000E+00  0.00000000000E+00  0.25143599091E+04  0.25143599091E+04  0.50400001928E-02 0.  1.
       -1   -1    0    0    0  501  0.00000000000E+00  0.00000000000E+00 -0.50872104582E+02  0.50872104832E+02  0.50400001928E-02 0. -1.
    10030    2    1    2    0    0  0.00000000000E+00  0.00000000000E+00  0.24634878045E+04  0.25652320139E+04  0.71529233346E+03 0.  0.
        2    1    3    3  502    0 -0.65714288033E+02  0.32005935320E+03  0.71013658322E+03  0.78169707947E+03  0.25500000920E-02 0. -1.
       -2    1    3    3    0  502  0.65714288033E+02 -0.32005935320E+03  0.17533512213E+04  0.17835349344E+04  0.25500000920E-02 0.  1.
</event>
<event>
 5   0  0.6248886E-02  0.7197593E+03  0.7818609E-02  0.9684025E-01
       -2   -1    0    0    0  501  0.00000000000E+00  0.00000000000E+00  0.11233056449E+03  0.11233056452E+03  0.25500000920E-02 0.  1.
        2   -1    0    0  501    0  0.00000000000E+00  0.00000000000E+00 -0.11529663608E+04  0.11529663608E+04  0.25500000920E-02 0. -1.
    10030    2    1    2    0    0  0.00000000000E+00  0.00000000000E+00 -0.10406357963E+04  0.12652969253E+04  0.71975929912E+03 0.  0.
        3    1    3    3  502    0  0.12526598901E+03  0.24438390282E+03 -0.92919891219E+03  0.96893017735E+03  0.10100000352E+00 0. -1.
       -3    1    3    3    0  502 -0.12526598901E+03 -0.24438390282E+03 -0.11143688411E+03  0.29636674796E+03  0.10100000352E+00 0.  1.
</event>
<event>
 5   0  0.5987810E-02  0.6335602E+03  0.7818609E-02  0.9838126E-01
       -2   -1    0    0    0  501  0.00000000000E+00  0.00000000000E+00  0.84595424232E+02  0.84595424270E+02  0.25500000920E-02 0. -1.
        2   -1    0    0  501    0  0.00000000000E+00  0.00000000000E+00 -0.11862301089E+04  0.11862301089E+04  0.25500000920E-02 0.  1.
    10030    2    1    2    0    0  0.00000000000E+00  0.00000000000E+00 -0.11016346846E+04  0.12708255332E+04  0.63356022389E+03 0.  0.
        5    1    3    3  502    0  0.19576354735E+03 -0.23637076876E+03 -0.39373187202E+03  0.49924080747E+03  0.46999998093E+01 0. -1.
       -5    1    3    3    0  502 -0.19576354735E+03  0.23637076876E+03 -0.70790281262E+03  0.77158472569E+03  0.46999998093E+01 0.  1.
</event>
<event>
 5   0  0.3755872E-02  0.7023936E+03  0.7818609E-02  0.9713148E-01
       -1   -1    0    0    0  501  0.00000000000E+00  0.00000000000E+00  0.48147124655E+03  0.48147124657E+03  0.50400001928E-02 0. -1.
        1   -1    0    0  501    0  0.00000000000E+00  0.00000000000E+00 -0.25617143892E+03  0.25617143897E+03  0.50400001928E-02 0.  1.
    10030    2    1    2    0    0  0.00000000000E+00  0.00000000000E+00  0.22529980763E+03  0.73764268554E+03  0.70239357074E+03 0.  0.
        2    1    3    3  502    0 -0.29857754306E+03  0.16381656618E+03  0.22586174320E+02  0.34131298225E+03  0.25500000920E-02 0.  1.
       -2    1    3    3    0  502  0.29857754306E+03 -0.16381656618E+03  0.20271363331E+03  0.39632970329E+03  0.25500000920E-02 0. -1.
</event>
<event>
 5   0  0.6248886E-02  0.6897949E+03  0.7818609E-02  0.9734845E-01
        2   -1    0    0  501    0  0.00000000000E+00  0.00000000000E+00  0.16422341904E+03  0.16422341906E+03  0.25500000920E-02 0. -1.
       -2   -1    0    0    0  501  0.00000000000E+00  0.00000000000E+00 -0.72434411493E+03  0.72434411493E+03  0.25500000920E-02 0.  1.
    10030    2    1    2    0    0  0.00000000000E+00  0.00000000000E+00 -0.56012069589E+03  0.88856753399E+03  0.68979494670E+03 0.  0.
        3    1    3    3  502    0  0.21089269080E+03  0.32937236285E+02  0.68919002732E+02  0.22429986113E+03  0.10100000352E+00 0. -1.
       -3    1    3    3    0  502 -0.21089269080E+03 -0.32937236285E+02 -0.62903969862E+03  0.66426767286E+03  0.10100000352E+00 0.  1.
</event>
<event>
 5   0  0.6131198E-02  0.7059859E+03  0.7818609E-02  0.9707050E-01
        2   -1    0    0  501    0  0.00000000000E+00  0.00000000000E+00  0.41187504153E+03  0.41187504154E+03  0.25500000920E-02 0.  1.
       -2   -1    0    0    0  501  0.00000000000E+00  0.00000000000E+00 -0.30252874119E+03  0.30252874120E+03  0.25500000920E-02 0. -1.
    10030    2    1    2    0    0  0.00000000000E+00  0.00000000000E+00  0.10934630034E+03  0.71440378274E+03  0.70598594278E+03 0.  0.
        1    1    3    3  502    0  0.23807003436E+02 -0.15305293592E+03  0.37564926746E+03  0.40633034194E+03  0.50400001928E-02 0.  1.
       -1    1    3    3    0  502 -0.23807003436E+02  0.15305293592E+03 -0.26630296712E+03  0.30807344081E+03  0.50400001928E-02 0. -1.
</event>
<event>
 5   0  0.3717372E-02  0.6842649E+03  0.7818609E-02  0.9744526E-01
       -1   -1    0    0    0  501  0.00000000000E+00  0.00000000000E+00  0.20347471479E+03  0.20347471486E+03  0.50400001928E-02 0.  1.
        1   -1    0    0  501    0  0.00000000000E+00  0.00000000000E+00 -0.57527840054E+03  0.57527840056E+03  0.50400001928E-02 0. -1.
    10030    2    1    2    0    0  0.00000000000E+00  0.00000000000E+00 -0.37180368574E+03  0.77875311542E+03  0.68426488587E+03 0.  0.
        3    1    3    3  502    0 -0.48540325381E+02  0.62532262569E+02  0.19290882480E+03  0.20851923637E+03  0.10100000352E+00 0.  1.
       -3    1    3    3    0  502  0.48540325381E+02 -0.62532262569E+02 -0.56471251054E+03  0.57023387905E+03  0.10100000352E+00 0. -1.
</event>
<event>
 5   0  0.6248886E-02  0.6730695E+03  0.7818609E-02  0.9764429E-01
        2   -1    0    0  501    0  0.00000000000E+00  0.00000000000E+00  0.99212132799E+03  0.99212132800E+03  0.25500000920E-02 0. -1.
       -2   -1    0    0    0  501  0.00000000000E+00  0.00000000000E+00 -0.11415503295E+03  0.11415503298E+03  0.25500000920E-02 0.  1.
    10030    2    1    2    0    0  0.00000000000E+00  0.00000000000E+00  0.87796629504E+03  0.11062763610E+04  0.67306951471E+03 0.  0.
        3    1    3    3  502    0 -0.14926559808E+02 -0.27807119484E+03  0.12838846062E+03  0.30664311277E+03  0.10100000352E+00 0.  1.
       -3    1    3    3    0  502  0.14926559808E+02  0.27807119484E+03  0.74957783442E+03  0.79963324821E+03  0.10100000352E+00 0. -1.
</event>
<event>
 5   0  0.3749730E-02  0.7005571E+03  0.7818609E-02  0.9716280E-01
        1   -1    0    0  501    0  0.00000000000E+00  0.00000000000E+00  0.51625986537E+03  0.51625986539E+03  0.50400001928E-02 0.  1.
       -1   -1    0    0    0  501  0.00000000000E+00  0.00000000000E+00 -0.23766142715E+03  0.23766142721E+03  0.50400001928E-02 0. -1.
    10030    2    1    2    0    0  0.00000000000E+00  0.00000000000E+00  0.27859843821E+03  0.75392129260E+03  0.70055708237E+03 0.  0.
        4    1    3    3  502    0 -0.30746945231E+03 -0.10538033354E+03  0.27982530789E+03  0.42888960659E+03  0.12699999809E+01 0. -1.
       -4    1    3    3    0  502  0.30746945231E+03  0.10538033354E+03 -0.12268696792E+01  0.32503168601E+03  0.12699999809E+01 0.  1.
</event>
<event>
 5   0  0.3439015E-02  0.6937220E+03  0.7818609E-02  0.9728029E-01
       -1   -1    0    0    0  501  0.00000000000E+00  0.00000000000E+00  0.60727152703E+03  0.60727152705E+03  0.50400001928E-02 0. -1.
        1   -1    0    0  501    0  0.00000000000E+00  0.00000000000E+00 -0.19811986095E+03  0.19811986101E+03  0.50400001928E-02 0.  1.
    10030    2    1    2    0    0  0.00000000000E+00  0.00000000000E+00  0.40915166608E+03  0.80539138807E+03  0.69372199195E+03 0.  0.
        1    1    3    3  502    0  0.68803836451E+01  0.30310527298E+03  0.89516215193E+01  0.30331547560E+03  0.50400001928E-02 0.  1.
       -1    1    3    3    0  502 -0.68803836451E+01 -0.30310527298E+03  0.40020004456E+03  0.50207591247E+03  0.50400001928E-02 0. -1.
</event>
<event>
 5   0  0.3717372E-02  0.7099659E+03  0.7818609E-02  0.9700339E-01
       -1   -1    0    0    0  501  0.00000000000E+00  0.00000000000E+00  0.45790874620E+03  0.45790874623E+03  0.50400001928E-02 0. -1.
        1   -1    0    0  501    0  0.00000000000E+00  0.00000000000E+00 -0.27519216633E+03  0.27519216638E+03  0.50400001928E-02 0.  1.
    10030    2    1    2    0    0  0.00000000000E+00  0.00000000000E+00  0.18271657987E+03  0.73310091260E+03  0.70996591432E+03 0.  0.
        3    1    3    3  502    0 -0.17352896679E+03 -0.28932348572E+03 -0.22659543832E+02  0.33813288340E+03  0.10100000352E+00 0.  1.
       -3    1    3    3    0  502  0.17352896679E+03  0.28932348572E+03  0.20537612370E+03  0.39496802921E+03  0.10100000352E+00 0. -1.
</event>
<event>
 5   0  0.6167756E-02  0.7112151E+03  0.7818609E-02  0.9698243E-01
        2   -1    0    0  501    0  0.00000000000E+00  0.00000000000E+00  0.13121631101E+04  0.13121631101E+04  0.25500000920E-02 0.  1.
       -2   -1    0    0    0  501  0.00000000000E+00  0.00000000000E+00 -0.96372717250E+02  0.96372717284E+02  0.25500000920E-02 0. -1.
    10030    2    1    2    0    0  0.00000000000E+00  0.00000000000E+00  0.12157903928E+04  0.14085358274E+04  0.71121508539E+03 0.  0.
        4    1    3    3  502    0 -0.85274547133E+02 -0.21422753479E+03  0.71741775481E+02  0.24148225670E+03  0.12699999809E+01 0. -1.
       -4    1    3    3    0  502  0.85274547133E+02  0.21422753479E+03  0.11440486174E+04  0.11670535707E+04  0.12699999809E+01 0.  1.
</event>
<event>
 5   0  0.6167756E-02  0.7220148E+03  0.7818609E-02  0.9680307E-01
       -2   -1    0    0    0  501  0.00000000000E+00  0.00000000000E+00  0.33599516404E+03  0.33599516405E+03  0.25500000920E-02 0.  1.
        2   -1    0    0  501    0  0.00000000000E+00  0.00000000000E+00 -0.38788157923E+03  0.38788157924E+03  0.25500000920E-02 0. -1.
    10030    2    1    2    0    0  0.00000000000E+00  0.00000000000E+00 -0.51886415190E+02  0.72387674329E+03  0.72201477782E+03 0.  0.
        4    1    3    3  502    0 -0.15603039976E+03 -0.27600103442E+03 -0.19902289016E+03  0.37434446751E+03  0.12699999809E+01 0. -1.
       -4    1    3    3    0  502  0.15603039976E+03  0.27600103442E+03  0.14713647497E+03  0.34953227578E+03  0.12699999809E+01 0.  1.
</event>
<event>
 5   0  0.2439375E-02  0.7141727E+03  0.7818609E-02  0.9693297E-01
        4   -1    0    0  501    0  0.00000000000E+00  0.00000000000E+00  0.65993656920E+03  0.65993779121E+03  0.12699999809E+01 0.  1.
       -4   -1    0    0    0  501  0.00000000000E+00  0.00000000000E+00 -0.19321303046E+03  0.19321720430E+03  0.12699999809E+01 0. -1.
    10030    2    1    2    0    0  0.00000000000E+00  0.00000000000E+00  0.46672353874E+03  0.85315499551E+03  0.71417265752E+03 0.  0.
        4    1    3    3  502    0  0.33831297034E+03  0.11225722632E+03  0.20797301679E+03  0.41268842893E+03  0.12699999809E+01 0. -1.
       -4    1    3    3    0  502 -0.33831297034E+03 -0.11225722632E+03  0.25875052195E+03  0.44046656658E+03  0.12699999809E+01 0.  1.
</event>
<event>
 5   0  0.3717372E-02  0.6838506E+03  0.7818609E-02  0.9745256E-01
       -1   -1    0    0    0  501  0.00000000000E+00  0.00000000000E+00  0.18479303154E+03  0.18479303161E+03  0.50400001928E-02 0. -1.
        1   -1    0    0  501    0  0.00000000000E+00  0.00000000000E+00 -0.63266939227E+03  0.63266939229E+03  0.50400001928E-02 0.  1.
    10030    2    1    2    0    0  0.00000000000E+00  0.00000000000E+00 -0.44787636073E+03  0.81746242390E+03  0.68385055384E+03 0.  0.
        3    1    3    3  502    0 -0.26215567942E+03  0.84301555488E+02  0.18345759230E+02  0.27598719100E+03  0.10100000352E+00 0. -1.
       -3    1    3    3    0  502  0.26215567942E+03 -0.84301555488E+02 -0.46622211996E+03  0.54147523291E+03  0.10100000352E+00 0.  1.
</event>
<event>
 5   0  0.3601475E-02  0.6926610E+03  0.7818609E-02  0.9729866E-01
        1   -1    0    0  501    0  0.00000000000E+00  0.00000000000E+00  0.19542334696E+04  0.19542334696E+04  0.50400001928E-02 0. -1.
       -1   -1    0    0    0  501  0.00000000000E+00  0.00000000000E+00 -0.61376915218E+02  0.61376915425E+02  0.50400001928E-02 0.  1.
    10030    2    1    2    0    0  0.00000000000E+00  0.00000000000E+00  0.18928565544E+04  0.20156103851E+04  0.69266102011E+03 0.  0.
        5    1    3    3  502    0 -0.32665231837E+03 -0.93599951093E+02  0.75209130889E+03  0.82530365008E+03  0.46999998093E+01 0. -1.
       -5    1    3    3    0  502  0.32665231837E+03  0.93599951093E+02  0.11407652455E+04  0.11903067350E+04  0.46999998093E+01 0.  1.
</event>
<event>
 5   0  0.5899787E-02  0.7034369E+03  0.7818609E-02  0.9711373E-01
       -2   -1    0    0    0  501  0.00000000000E+00  0.00000000000E+00  0.18274389227E+03  0.18274389229E+03  0.25500000920E-02 0.  1.
        2   -1    0    0  501    0  0.00000000000E+00  0.00000000000E+00 -0.67693578922E+03  0.67693578922E+03  0.25500000920E-02 0. -1.
    10030    2    1    2    0    0  0.00000000000E+00  0.00000000000E+00 -0.49419189694E+03  0.85967968151E+03  0.70343693662E+03 0.  0.
        2    1    3    3  502    0  0.23839681105E+03 -0.80847008185E+02 -0.54728988788E+03  0.60240808397E+03  0.25500000920E-02 0. -1.
       -2    1    3    3    0  502 -0.23839681105E+03  0.80847008185E+02  0.53097990939E+02  0.25727159754E+03  0.25500000920E-02 0.  1.
</event>
<event>
 5   0  0.6248886E-02  0.7045332E+03  0.7818609E-02  0.9709511E-01
       -2   -1    0    0    0  501  0.00000000000E+00  0.00000000000E+00  0.18482626701E+03  0.18482626703E+03  0.25500000920E-02 0. -1.
        2   -1    0    0  501    0  0.00000000000E+00  0.00000000000E+00 -0.67139682642E+03  0.67139682642E+03  0.25500000920E-02 0.  1.
    10030    2    1    2    0    0  0.00000000000E+00  0.00000000000E+00 -0.48657055941E+03  0.85622309345E+03  0.70453323305E+03 0.  0.
        3    1    3    3  502    0  0.31667053141E+03  0.15360568814E+03 -0.22538989002E+03  0.41794203619E+03  0.10100000352E+00 0. -1.
       -3    1    3    3    0  502 -0.31667053141E+03 -0.15360568814E+03 -0.26118066938E+03  0.43828105726E+03  0.10100000352E+00 0.  1.
</event>
<event>
 5   0  0.6131198E-02  0.6699400E+03  0.7818609E-02  0.9770066E-01
        2   -1    0    0  501    0  0.00000000000E+00  0.00000000000E+00  0.62530411654E+03  0.62530411654E+03  0.25500000920E-02 0.  1.
       -2   -1    0    0    0  501  0.00000000000E+00  0.00000000000E+00 -0.17944055286E+03  0.17944055287E+03  0.25500000920E-02 0. -1.
    10030    2    1    2    0    0  0.00000000000E+00  0.00000000000E+00  0.44586356368E+03  0.80474466942E+03  0.66994004623E+03 0.  0.
        1    1    3    3  502    0 -0.26624958164E+03  0.20222846671E+03  0.24754135119E+03  0.41600710696E+03  0.50400001928E-02 0.  1.
       -1    1    3    3    0  502  0.26624958164E+03 -0.20222846671E+03  0.19832221249E+03  0.38873756245E+03  0.50400001928E-02 0. -1.
</event>
<event>
 5   0  0.5899787E-02  0.7225666E+03  0.7818609E-02  0.9679400E-01
        2   -1    0    0  501    0  0.00000000000E+00  0.00000000000E+00  0.12656144325E+04  0.12656144325E+04  0.25500000920E-02 0.  1.
       -2   -1    0    0    0  501  0.00000000000E+00  0.00000000000E+00 -0.10313222310E+03  0.10313222313E+03  0.25500000920E-02 0. -1.
    10030    2    1    2    0    0  0.00000000000E+00  0.00000000000E+00  0.11624822094E+04  0.13687466556E+04  0.72256661987E+03 0.  0.
        2    1    3    3  502    0  0.23522693861E+03  0.27273832958E+03  0.52740472438E+03  0.63864986681E+03  0.25500000920E-02 0. -1.
       -2    1    3    3    0  502 -0.23522693861E+03 -0.27273832958E+03  0.63507748502E+03  0.73009678883E+03  0.25500000920E-02 0.  1.
</event>
<event>
 5   0  0.6248886E-02  0.6923102E+03  0.7818609E-02  0.9730474E-01
        2   -1    0    0  501    0  0.00000000000E+00  0.00000000000E+00  0.15564583962E+04  0.15564583962E+04  0.25500000920E-02 0.  1.
       -2   -1    0    0    0  501  0.00000000000E+00  0.00000000000E+00 -0.76984614463E+02  0.76984614505E+02  0.25500000920E-02 0. -1.
    10030    2    1    2    0    0  0.00000000000E+00  0.00000000000E+00  0.14794737817E+04  0.16334430107E+04  0.69231018942E+03 0.  0.
        3    1    3    3  502    0 -0.85976982161E+02 -0.25750584275E+03  0.23302918130E+03  0.35777634082E+03  0.10100000352E+00 0. -1.
       -3    1    3    3    0  502  0.85976982161E+02  0.25750584275E+03  0.12464446004E+04  0.12756666699E+04  0.10100000352E+00 0.  1.
</event>
<event>
 5   0  0.3717372E-02  0.6789608E+03  0.7818609E-02  0.9753904E-01
        1   -1    0    0  501    0  0.00000000000E+00  0.00000000000E+00  0.12178124684E+04  0.12178124685E+04  0.50400001928E-02 0.  1.
       -1   -1    0    0    0  501  0.00000000000E+00  0.00000000000E+00 -0.94634401492E+02  0.94634401626E+02  0.50400001928E-02 0. -1.
    10030    2    1    2    0    0  0.00000000000E+00  0.00000000000E+00  0.11231780670E+04  0.13124468701E+04  0.67896083591E+03 0.  0.
        3    1    3    3  502    0  0.15972906771E+03  0.24664162574E+03  0.23296673477E+03  0.37499196836E+03  0.10100000352E+00 0. -1.
       -3    1    3    3    0  502 -0.15972906771E+03 -0.24664162574E+03  0.89021133218E+03  0.93745490172E+03  0.10100000352E+00 0.  1.
</event>
<event>
 5   0  0.5987810E-02  0.6986171E+03  0.7818609E-02  0.9719600E-01
        2   -1    0    0  501    0  0.00000000000E+00  0.00000000000E+00  0.73800089256E+03  0.73800089256E+03  0.25500000920E-02 0. -1.
       -2   -1    0    0    0  501  0.00000000000E+00  0.00000000000E+00 -0.16533376457E+03  0.16533376459E+03  0.25500000920E-02 0.  1.
    10030    2    1    2    0    0  0.00000000000E+00  0.00000000000E+00  0.57266712799E+03  0.90333465716E+03  0.69861710782E+03 0.  0.
        5    1    3    3  502    0  0.20030270487E+03 -0.28369569472E+03  0.23812659406E+03  0.42110662020E+03  0.46999998093E+01 0. -1.
       -5    1    3    3    0  502 -0.20030270487E+03  0.28369569472E+03  0.33454053393E+03  0.48222803695E+03  0.46999998093E+01 0.  1.
</event>
<event>
 5   0  0.3601475E-02  0.7008395E+03  0.7818609E-02  0.9715798E-01
       -1   -1    0    0    0  501  0.00000000000E+00  0.00000000000E+00  0.32717183377E+03  0.32717183381E+03  0.50400001928E-02 0. -1.
        1   -1    0    0  501    0  0.00000000000E+00  0.00000000000E+00 -0.37531959932E+03  0.37531959935E+03  0.50400001928E-02 0.  1.
    10030    2    1    2    0    0  0.00000000000E+00  0.00000000000E+00 -0.48147765545E+02  0.70249143316E+03  0.70083950113E+03 0.  0.
        5    1    3    3  502    0 -0.29685362871E+03  0.18488882016E+03 -0.24369218249E+01  0.34976274999E+03  0.46999998093E+01 0. -1.
       -5    1    3    3    0  502  0.29685362871E+03 -0.18488882016E+03 -0.45710843720E+02  0.35272868317E+03  0.46999998093E+01 0.  1.
</event>
<event>
 5   0  0.3717372E-02  0.6838247E+03  0.7818609E-02  0.9745301E-01
        1   -1    0    0  501    0  0.00000000000E+00  0.00000000000E+00  0.14762966963E+03  0.14762966971E+03  0.50400001928E-02 0.  1.
       -1   -1    0    0    0  501  0.00000000000E+00  0.00000000000E+00 -0.79187381452E+03  0.79187381454E+03  0.50400001928E-02 0. -1.
    10030    2    1    2    0    0  0.00000000000E+00  0.00000000000E+00 -0.64424414490E+03  0.93950348425E+03  0.68382474267E+03 0.  0.
        3    1    3    3  502    0 -0.27725891761E+03 -0.86616040346E+02 -0.74328311861E+02  0.29983254323E+03  0.10100000352E+00 0.  1.
       -3    1    3    3    0  502  0.27725891761E+03  0.86616040346E+02 -0.56991583304E+03  0.63967094102E+03  0.10100000352E+00 0. -1.
</event>
<event>
 5   0  0.2439375E-02  0.6772711E+03  0.7818609E-02  0.9756911E-01
       -3   -1    0    0    0  501  0.00000000000E+00  0.00000000000E+00  0.33617082100E+03  0.33617083617E+03  0.10100000352E+00 0.  1.
        3   -1    0    0  501    0  0.00000000000E+00  0.00000000000E+00 -0.34111826923E+03  0.34111828418E+03  0.10100000352E+00 0. -1.
    10030    2    1    2    0    0  0.00000000000E+00  0.00000000000E+00 -0.49474482256E+01  0.67728912035E+03  0.67727105010E+03 0.  0.
        3    1    3    3  502    0  0.16438909948E+02 -0.20660733591E+03  0.26533405515E+03  0.33668828318E+03  0.10100000352E+00 0.  1.
       -3    1    3    3    0  502 -0.16438909948E+02  0.20660733591E+03 -0.27028150337E+03  0.34060083717E+03  0.10100000352E+00 0. -1.
</event>
<event>
 5   0  0.6248886E-02  0.6888410E+03  0.7818609E-02  0.9736508E-01
       -2   -1    0    0    0  501  0.00000000000E+00  0.00000000000E+00  0.73256945706E+03  0.73256945706E+03  0.25500000920E-02 0.  1.
        2   -1    0    0  501    0  0.00000000000E+00  0.00000000000E+00 -0.16193067851E+03  0.16193067853E+03  0.25500000920E-02 0. -1.
    10030    2    1    2    0    0  0.00000000000E+00  0.00000000000E+00  0.57063877855E+03  0.89450013559E+03  0.68884096640E+03 0.  0.
        3    1    3    3  502    0  0.24356642760E+03  0.46132253694E+02 -0.25176374282E+02  0.24917192760E+03  0.10100000352E+00 0. -1.
       -3    1    3    3    0  502 -0.24356642760E+03 -0.46132253694E+02  0.59581515283E+03  0.64532820799E+03  0.10100000352E+00 0.  1.
</event>
<event>
 5   0  0.3439015E-02  0.6896566E+03  0.7818609E-02  0.9735086E-01
       -1   -1    0    0    0  501  0.00000000000E+00  0.00000000000E+00  0.30807138760E+03  0.30807138764E+03  0.50400001928E-02 0.  1.
        1   -1    0    0  501    0  0.00000000000E+00  0.00000000000E+00 -0.38597082413E+03  0.38597082416E+03  0.50400001928E-02 0. -1.
    10030    2    1    2    0    0  0.00000000000E+00  0.00000000000E+00 -0.77899436532E+02  0.69404221180E+03  0.68965663163E+03 0.  0.
        1    1    3    3  502    0 -0.60664410931E+01  0.67127427477E+02  0.30137776191E+03  0.30882268152E+03  0.50400001928E-02 0.  1.
       -1    1    3    3    0  502  0.60664410931E+01 -0.67127427477E+02 -0.37927719844E+03  0.38521953028E+03  0.50400001928E-02 0. -1.
</event>
<event>
 5   0  0.3717372E-02  0.7042540E+03  0.7818609E-02  0.9709985E-01
        1   -1    0    0  501    0  0.00000000000E+00  0.00000000000E+00  0.19452439768E+03  0.19452439775E+03  0.50400001928E-02 0.  1.
       -1   -1    0    0    0  501  0.00000000000E+00  0.00000000000E+00 -0.63741832872E+03  0.63741832874E+03  0.50400001928E-02 0. -1.
    10030    2    1    2    0    0  0.00000000000E+00  0.00000000000E+00 -0.44289393104E+03  0.83194272649E+03  0.70425397834E+03 0.  0.
        3    1    3    3  502    0  0.24554755337E+03  0.20203627262E+03 -0.40013811522E+03  0.51109957726E+03  0.10100000352E+00 0. -1.
       -3    1    3    3    0  502 -0.24554755337E+03 -0.20203627262E+03 -0.42755815820E+02  0.32084314923E+03  0.10100000352E+00 0.  1.
</event>
<event>
 5   0  0.3755872E-02  0.6747365E+03  0.7818609E-02  0.9761439E-01
        1   -1    0    0  501    0  0.00000000000E+00  0.00000000000E+00  0.19039758328E+04  0.19039758328E+04  0.50400001928E-02 0. -1.
       -1   -1    0    0    0  501  0.00000000000E+00  0.00000000000E+00 -0.59778778923E+02  0.59778779136E+02  0.50400001928E-02 0.  1.
    10030    2    1    2    0    0  0.00000000000E+00  0.00000000000E+00  0.18441970539E+04  0.19637546119E+04  0.67473654295E+03 0.  0.
        2    1    3    3  502    0 -0.19769202457E+03 -0.23788474929E+03  0.53004608937E+03  0.61369385478E+03  0.25500000920E-02 0. -1.
       -2    1    3    3    0  502  0.19769202457E+03  0.23788474929E+03  0.13141509645E+04  0.13500607572E+04  0.25500000920E-02 0.  1.
</event>
<event>
 5   0  0.3601475E-02  0.7215964E+03  0.7818609E-02  0.9680996E-01
        1   -1    0    0  501    0  0.00000000000E+00  0.00000000000E+00  0.13069350817E+04  0.13069350817E+04  0.50400001928E-02 0.  1.
       -1   -1    0    0    0  501  0.00000000000E+00  0.00000000000E+00 -0.99603522232E+02  0.99603522359E+02  0.50400001928E-02 0. -1.
    10030    2    1    2    0    0  0.00000000000E+00  0.00000000000E+00  0.12073315594E+04  0.14065386040E+04  0.72159639012E+03 0.  0.
        5    1    3    3  502    0  0.86659244272E+02 -0.30871815072E+03  0.28138903481E+03  0.42663637926E+03  0.46999998093E+01 0.  1.
       -5    1    3    3    0  502 -0.86659244272E+02  0.30871815072E+03  0.92594252461E+03  0.97990222476E+03  0.46999998093E+01 0. -1.
</event>
<event>
 5   0  0.6167756E-02  0.6422745E+03  0.7818609E-02  0.9821385E-01
       -2   -1    0    0    0  501  0.00000000000E+00  0.00000000000E+00  0.15256226880E+03  0.15256226882E+03  0.25500000920E-02 0. -1.
        2   -1    0    0  501    0  0.00000000000E+00  0.00000000000E+00 -0.67598050904E+03  0.67598050904E+03  0.25500000920E-02 0.  1.
    10030    2    1    2    0    0  0.00000000000E+00  0.00000000000E+00 -0.52341824024E+03  0.82854277786E+03  0.64227445889E+03 0.  0.
        4    1    3    3  502    0 -0.28001536650E+03 -0.89533345175E+02 -0.94989240240E+02  0.30894885343E+03  0.12699999809E+01 0. -1.
       -4    1    3    3    0  502  0.28001536650E+03  0.89533345175E+02 -0.42842900000E+03  0.51959392444E+03  0.12699999809E+01 0.  1.
</event>
<event>
 5   0  0.6131198E-02  0.6995879E+03  0.7818609E-02  0.9717937E-01
        2   -1    0    0  501    0  0.00000000000E+00  0.00000000000E+00  0.71373356212E+03  0.71373356212E+03  0.25500000920E-02 0. -1.
       -2   -1    0    0    0  501  0.00000000000E+00  0.00000000000E+00 -0.17143066986E+03  0.17143066987E+03  0.25500000920E-02 0.  1.
    10030    2    1    2    0    0  0.00000000000E+00  0.00000000000E+00  0.54230289226E+03  0.88516423200E+03  0.69958794347E+03 0.  0.
        1    1    3    3  502    0  0.32157144312E+03 -0.13753934080E+03  0.26415699684E+03  0.43829691113E+03  0.50400001928E-02 0.  1.
       -1    1    3    3    0  502 -0.32157144312E+03  0.13753934080E+03  0.27814589542E+03  0.44686732087E+03  0.50400001928E-02 0. -1.
</event>
<event>
 5   0  0.3749730E-02  0.7125159E+03  0.7818609E-02  0.9696065E-01
       -1   -1    0    0    0  501  0.00000000000E+00  0.00000000000E+00  0.21443548023E+03  0.21443548029E+03  0.50400001928E-02 0. -1.
        1   -1    0    0  501    0  0.00000000000E+00  0.00000000000E+00 -0.59187842878E+03  0.59187842881E+03  0.50400001928E-02 0.  1.
    10030    2    1    2    0    0  0.00000000000E+00  0.00000000000E+00 -0.37744294856E+03  0.80631390909E+03  0.71251592304E+03 0.  0.
        4    1    3    3  502    0 -0.96175905549E+02 -0.11494393966E+03 -0.55446504926E+03  0.57436488213E+03  0.12699999809E+01 0.  1.
       -4    1    3    3    0  502  0.96175905549E+02  0.11494393966E+03  0.17702210070E+03  0.23194902697E+03  0.12699999809E+01 0. -1.
</event>
<event>
 5   0  0.5899787E-02  0.8026252E+03  0.7818609E-02  0.9556225E-01
        2   -1    0    0  501    0  0.00000000000E+00  0.00000000000E+00  0.20057632677E+03  0.20057632679E+03  0.25500000920E-02 0. -1.
       -2   -1    0    0    0  501  0.00000000000E+00  0.00000000000E+00 -0.80294524348E+03  0.80294524348E+03  0.25500000920E-02 0.  1.
    10030    2    1    2    0    0  0.00000000000E+00  0.00000000000E+00 -0.60236891671E+03  0.10035215703E+04  0.80262521153E+03 0.  0.
        2    1    3    3  502    0  0.29233726094E+03 -0.15410644097E+03 -0.58586286720E+03  0.67264044515E+03  0.25500000920E-02 0.  1.
       -2    1    3    3    0  502 -0.29233726094E+03  0.15410644097E+03 -0.16506049509E+02  0.33088112512E+03  0.25500000920E-02 0. -1.
</event>
<event>
 5   0  0.3717372E-02  0.7092895E+03  0.7818609E-02  0.9701477E-01
       -1   -1    0    0    0  501  0.00000000000E+00  0.00000000000E+00  0.25935392225E+03  0.25935392230E+03  0.50400001928E-02 0.  1.
        1   -1    0    0  501    0  0.00000000000E+00  0.00000000000E+00 -0.48494691096E+03  0.48494691099E+03  0.50400001928E-02 0. -1.
    10030    2    1    2    0    0  0.00000000000E+00  0.00000000000E+00 -0.22559298871E+03  0.74430083329E+03  0.70928945705E+03 0.  0.
        3    1    3    3  502    0 -0.29935569404E+03 -0.63900901247E+02  0.75140892557E+02  0.31518775463E+03  0.10100000352E+00 0.  1.
       -3    1    3    3    0  502  0.29935569404E+03  0.63900901247E+02 -0.30073388126E+03  0.42911307866E+03  0.10100000352E+00 0. -1.
</event>
<event>
 5   0  0.5899787E-02  0.7085617E+03  0.7818609E-02  0.9702702E-01
       -2   -1    0    0    0  501  0.00000000000E+00  0.00000000000E+00  0.36434279687E+03  0.36434279688E+03  0.25500000920E-02 0.  1.
        2   -1    0    0  501    0  0.00000000000E+00  0.00000000000E+00 -0.34449674367E+03  0.34449674368E+03  0.25500000920E-02 0. -1.
    10030    2    1    2    0    0  0.00000000000E+00  0.00000000000E+00  0.19846053206E+02  0.70883954056E+03  0.70856166170E+03 0.  0.
        2    1    3    3  502    0 -0.31458648989E+03 -0.29699516447E+02  0.17019879799E+03  0.35890716313E+03  0.25500000920E-02 0.  1.
       -2    1    3    3    0  502  0.31458648989E+03  0.29699516447E+02 -0.15035274479E+03  0.34993237743E+03  0.25500000920E-02 0. -1.
</event>
<event>
 5   0  0.3755872E-02  0.7069710E+03  0.7818609E-02  0.9705385E-01
        1   -1    0    0  501    0  0.00000000000E+00  0.00000000000E+00  0.19689622397E+03  0.19689622404E+03  0.50400001928E-02 0. -1.
       -1   -1    0    0    0  501  0.00000000000E+00  0.00000000000E+00 -0.63460837175E+03  0.63460837177E+03  0.50400001928E-02 0.  1.
    10030    2    1    2    0    0  0.00000000000E+00  0.00000000000E+00 -0.43771214777E+03  0.83150459580E+03  0.70697098139E+03 0.  0.
        2    1    3    3  502    0 -0.18814908277E+03  0.14021593333E+03 -0.52979490182E+03  0.57943353657E+03  0.25500000920E-02 0.  1.
       -2    1    3    3    0  502  0.18814908277E+03 -0.14021593333E+03  0.92082754041E+02  0.25207105923E+03  0.25500000920E-02 0. -1.
</event>
<event>
 5   0  0.3755872E-02  0.6996532E+03  0.7818609E-02  0.9717825E-01
       -1   -1    0    0    0  501  0.00000000000E+00  0.00000000000E+00  0.17571235076E+03  0.17571235083E+03  0.50400001928E-02 0.  1.
        1   -1    0    0  501    0  0.00000000000E+00  0.00000000000E+00 -0.69647160435E+03  0.69647160437E+03  0.50400001928E-02 0. -1.
    10030    2    1    2    0    0  0.00000000000E+00  0.00000000000E+00 -0.52075925359E+03  0.87218395520E+03  0.69965323662E+03 0.  0.
        2    1    3    3  502    0 -0.75079106461E+02  0.23806502930E+03  0.45142459423E+02  0.25367237148E+03  0.25500000920E-02 0.  1.
       -2    1    3    3    0  502  0.75079106461E+02 -0.23806502930E+03 -0.56590171301E+03  0.61851158372E+03  0.25500000920E-02 0. -1.
</event>
<event>
 5   0  0.3755872E-02  0.7128103E+03  0.7818609E-02  0.9695572E-01
        1   -1    0    0  501    0  0.00000000000E+00  0.00000000000E+00  0.33374794692E+03  0.33374794695E+03  0.50400001928E-02 0. -1.
       -1   -1    0    0    0  501  0.00000000000E+00  0.00000000000E+00 -0.38060047089E+03  0.38060047092E+03  0.50400001928E-02 0.  1.
    10030    2    1    2    0    0  0.00000000000E+00  0.00000000000E+00 -0.46852523971E+02  0.71434841788E+03  0.71281028550E+03 0.  0.
        2    1    3    3  502    0  0.35145719851E+03 -0.58636331944E+02 -0.15393733204E+02  0.35664737324E+03  0.25500000920E-02 0.  1.
       -2    1    3    3    0  502 -0.35145719851E+03  0.58636331944E+02 -0.31458790767E+02  0.35770104464E+03  0.25500000920E-02 0. -1.
</event>
<event>
 5   0  0.5899787E-02  0.7059718E+03  0.7818609E-02  0.9707074E-01
       -2   -1    0    0    0  501  0.00000000000E+00  0.00000000000E+00  0.17152483192E+03  0.17152483194E+03  0.25500000920E-02 0. -1.
        2   -1    0    0  501    0  0.00000000000E+00  0.00000000000E+00 -0.72641988842E+03  0.72641988843E+03  0.25500000920E-02 0.  1.
    10030    2    1    2    0    0  0.00000000000E+00  0.00000000000E+00 -0.55489505651E+03  0.89794472036E+03  0.70597181041E+03 0.  0.
        2    1    3    3  502    0 -0.28332412870E+02 -0.14736051030E+03 -0.68383015434E+03  0.70010108242E+03  0.25500000920E-02 0.  1.
       -2    1    3    3    0  502  0.28332412870E+02  0.14736051030E+03  0.12893509783E+03  0.19784363794E+03  0.25500000920E-02 0. -1.
</event>
<event>
 5   0  0.3601475E-02  0.5352829E+03  0.7818609E-02  0.1004959E+00
        1   -1    0    0  501    0  0.00000000000E+00  0.00000000000E+00  0.67760032708E+03  0.67760032710E+03  0.50400001928E-02 0.  1.
       -1   -1    0    0    0  501  0.00000000000E+00  0.00000000000E+00 -0.10571415220E+03  0.10571415232E+03  0.50400001928E-02 0. -1.
    10030    2    1    2    0    0  0.00000000000E+00  0.00000000000E+00  0.57188617489E+03  0.78331447942E+03  0.53528289403E+03 0.  0.
        5    1    3    3  502    0  0.57664477223E+02 -0.11428815368E+03 -0.57941187016E+02  0.14059247901E+03  0.46999998093E+01 0. -1.
       -5    1    3    3    0  502 -0.57664477223E+02  0.11428815368E+03  0.62982736190E+03  0.64272200040E+03  0.46999998093E+01 0.  1.
</event>
<event>
 5   0  0.5987810E-02  0.5984257E+03  0.7818609E-02  0.9908678E-01
       -2   -1    0    0    0  501  0.00000000000E+00  0.00000000000E+00  0.73385579313E+02  0.73385579358E+02  0.25500000920E-02 0.  1.
        2   -1    0    0  501    0  0.00000000000E+00  0.00000000000E+00 -0.12199715147E+04  0.12199715147E+04  0.25500000920E-02 0. -1.
    10030    2    1    2    0    0  0.00000000000E+00  0.00000000000E+00 -0.11465859354E+04  0.12933570941E+04  0.59842565581E+03 0.  0.
        5    1    3    3  502    0  0.25177147732E+03 -0.79788593048E+02 -0.87703452762E+03  0.91595128091E+03  0.46999998093E+01 0. -1.
       -5    1    3    3    0  502 -0.25177147732E+03  0.79788593048E+02 -0.26955140777E+03  0.37740581315E+03  0.46999998093E+01 0.  1.
</event>
<event>
 5   0  0.5987810E-02  0.6793224E+03  0.7818609E-02  0.9753262E-01
       -2   -1    0    0    0  501  0.00000000000E+00  0.00000000000E+00  0.67248549000E+02  0.67248549048E+02  0.25500000920E-02 0. -1.
        2   -1    0    0  501    0  0.00000000000E+00  0.00000000000E+00 -0.17155721100E+04  0.17155721100E+04  0.25500000920E-02 0.  1.
    10030    2    1    2    0    0  0.00000000000E+00  0.00000000000E+00 -0.16483235610E+04  0.17828206591E+04  0.67932241284E+03 0.  0.
        5    1    3    3  502    0  0.32729788264E+03 -0.80924035736E+02 -0.93157173048E+03  0.99071720615E+03  0.46999998093E+01 0. -1.
       -5    1    3    3    0  502 -0.32729788264E+03  0.80924035736E+02 -0.71675183053E+03  0.79210345291E+03  0.46999998093E+01 0.  1.
</event>
<event>
 5   0  0.6167756E-02  0.6886562E+03  0.7818609E-02  0.9736831E-01
        2   -1    0    0  501    0  0.00000000000E+00  0.00000000000E+00  0.10364754677E+04  0.10364754677E+04  0.25500000920E-02 0. -1.
       -2   -1    0    0    0  501  0.00000000000E+00  0.00000000000E+00 -0.11438942971E+03  0.11438942974E+03  0.25500000920E-02 0.  1.
    10030    2    1    2    0    0  0.00000000000E+00  0.00000000000E+00  0.92208603800E+03  0.11508648975E+04  0.68865619196E+03 0.  0.
        4    1    3    3  502    0 -0.10039712136E+03 -0.23083067354E+03  0.85367253113E+03  0.89001167696E+03  0.12699999809E+01 0. -1.
       -4    1    3    3    0  502  0.10039712136E+03  0.23083067354E+03  0.68413506878E+02  0.26085322050E+03  0.12699999809E+01 0.  1.
</event>
<event>
 5   0  0.3749730E-02  0.7009379E+03  0.7818609E-02  0.9715630E-01
       -1   -1    0    0    0  501  0.00000000000E+00  0.00000000000E+00  0.31014753836E+03  0.31014753840E+03  0.50400001928E-02 0.  1.
        1   -1    0    0  501    0  0.00000000000E+00  0.00000000000E+00 -0.39603241665E+03  0.39603241669E+03  0.50400001928E-02 0. -1.
    10030    2    1    2    0    0  0.00000000000E+00  0.00000000000E+00 -0.85884878293E+02  0.70617995509E+03  0.70093788359E+03 0.  0.
        4    1    3    3  502    0  0.40251682174E+02 -0.31618012212E+03  0.10387592420E+03  0.33523407952E+03  0.12699999809E+01 0.  1.
       -4    1    3    3    0  502 -0.40251682174E+02  0.31618012212E+03 -0.18976080249E+03  0.37094587557E+03  0.12699999809E+01 0. -1.
</event>
<event>
 5   0  0.2439375E-02  0.7106602E+03  0.7818609E-02  0.9699174E-01
        4   -1    0    0  501    0  0.00000000000E+00  0.00000000000E+00  0.74726450403E+03  0.74726558323E+03  0.12699999809E+01 0.  1.
       -4   -1    0    0    0  501  0.00000000000E+00  0.00000000000E+00 -0.16895865398E+03  0.16896342697E+03  0.12699999809E+01 0. -1.
    10030    2    1    2    0    0  0.00000000000E+00  0.00000000000E+00  0.57830585005E+03  0.91622901020E+03  0.71066021623E+03 0.  0.
        5    1    3    3  502    0  0.85790042885E+02 -0.18042419958E+03 -0.89646449273E+02  0.21902374099E+03  0.46999998093E+01 0. -1.
       -5    1    3    3    0  502 -0.85790042885E+02  0.18042419958E+03  0.66795229932E+03  0.69720526921E+03  0.46999998093E+01 0.  1.
</event>
<event>
 5   0  0.2439375E-02  0.7034789E+03  0.7818609E-02  0.9711301E-01
        3   -1    0    0  501    0  0.00000000000E+00  0.00000000000E+00  0.52482798965E+03  0.52482799937E+03  0.10100000352E+00 0.  1.
       -3   -1    0    0    0  501  0.00000000000E+00  0.00000000000E+00 -0.23573557759E+03  0.23573559922E+03  0.10100000352E+00 0. -1.
    10030    2    1    2    0    0  0.00000000000E+00  0.00000000000E+00  0.28909241207E+03  0.76056359859E+03  0.70347890145E+03 0.  0.
        4    1    3    3  502    0 -0.46174346590E+02  0.31629179030E+03  0.30324456536E+03  0.44060350227E+03  0.12699999809E+01 0.  1.
       -4    1    3    3    0  502  0.46174346590E+02 -0.31629179030E+03 -0.14152153291E+02  0.31996009632E+03  0.12699999809E+01 0. -1.
</event>
<event>
 5   0  0.5899787E-02  0.6980329E+03  0.7818609E-02  0.9720602E-01
       -2   -1    0    0    0  501  0.00000000000E+00  0.00000000000E+00  0.49838684488E+03  0.49838684489E+03  0.25500000920E-02 0.  1.
        2   -1    0    0  501    0  0.00000000000E+00  0.00000000000E+00 -0.24441351569E+03  0.24441351570E+03  0.25500000920E-02 0. -1.
    10030    2    1    2    0    0  0.00000000000E+00  0.00000000000E+00  0.25397332919E+03  0.74280036059E+03  0.69803289590E+03 0.  0.
        2    1    3    3  502    0  0.81356114375E+02 -0.25208543038E+03  0.36882050993E+03  0.45408639057E+03  0.25500000920E-02 0.  1.
       -2    1    3    3    0  502 -0.81356114375E+02  0.25208543038E+03 -0.11484718073E+03  0.28871397002E+03  0.25500000920E-02 0. -1.
</event>
<event>
 5   0  0.3755872E-02  0.8368276E+03  0.7818609E-02  0.9508189E-01
       -1   -1    0    0    0  501  0.00000000000E+00  0.00000000000E+00  0.28957979976E+03  0.28957979980E+03  0.50400001928E-02 0.  1.
        1   -1    0    0  501    0  0.00000000000E+00  0.00000000000E+00 -0.60456595998E+03  0.60456596000E+03  0.50400001928E-02 0. -1.
    10030    2    1    2    0    0  0.00000000000E+00  0.00000000000E+00 -0.31498616022E+03  0.89414575980E+03  0.83682755610E+03 0.  0.
        2    1    3    3  502    0 -0.13813192323E+03 -0.38296386511E+03 -0.54294310475E+02  0.41071842222E+03  0.25500000920E-02 0. -1.
       -2    1    3    3    0  502  0.13813192323E+03  0.38296386511E+03 -0.26069184974E+03  0.48342733758E+03  0.25500000920E-02 0.  1.
</event>
<event>
 5   0  0.6248886E-02  0.6766988E+03  0.7818609E-02  0.9757932E-01
       -2   -1    0    0    0  501  0.00000000000E+00  0.00000000000E+00  0.92649986038E+02  0.92649986073E+02  0.25500000920E-02 0. -1.
        2   -1    0    0  501    0  0.00000000000E+00  0.00000000000E+00 -0.12356213975E+04  0.12356213975E+04  0.25500000920E-02 0.  1.
    10030    2    1    2    0    0  0.00000000000E+00  0.00000000000E+00 -0.11429714115E+04  0.13282713836E+04  0.67669876681E+03 0.  0.
        3    1    3    3  502    0 -0.29402364295E+02  0.21597577247E+03 -0.63522296502E+02  0.22703551633E+03  0.10100000352E+00 0. -1.
       -3    1    3    3    0  502  0.29402364295E+02 -0.21597577247E+03 -0.10794491150E+04  0.11012358672E+04  0.10100000352E+00 0.  1.
</event>
<event>
 5   0  0.5987810E-02  0.7067063E+03  0.7818609E-02  0.9705832E-01
       -2   -1    0    0    0  501  0.00000000000E+00  0.00000000000E+00  0.14938624661E+03  0.14938624664E+03  0.25500000920E-02 0.  1.
        2   -1    0    0  501    0  0.00000000000E+00  0.00000000000E+00 -0.83580962636E+03  0.83580962636E+03  0.25500000920E-02 0. -1.
    10030    2    1    2    0    0  0.00000000000E+00  0.00000000000E+00 -0.68642337975E+03  0.98519587300E+03  0.70670634065E+03 0.  0.
        5    1    3    3  502    0 -0.17895655957E+03  0.11479137561E+03 -0.73660999765E+03  0.76669347772E+03  0.46999998093E+01 0. -1.
       -5    1    3    3    0  502  0.17895655957E+03 -0.11479137561E+03  0.50186617909E+02  0.21850239528E+03  0.46999998093E+01 0.  1.
</event>
<event>
 5   0  0.3601475E-02  0.7080642E+03  0.7818609E-02  0.9703540E-01
        1   -1    0    0  501    0  0.00000000000E+00  0.00000000000E+00  0.14722344366E+03  0.14722344375E+03  0.50400001928E-02 0. -1.
       -1   -1    0    0    0  501  0.00000000000E+00  0.00000000000E+00 -0.85135028791E+03  0.85135028793E+03  0.50400001928E-02 0.  1.
    10030    2    1    2    0    0  0.00000000000E+00  0.00000000000E+00 -0.70412684425E+03  0.99857373168E+03  0.70806418127E+03 0.  0.
        5    1    3    3  502    0  0.18034372843E+03 -0.14152383509E+03 -0.73248498279E+03  0.76753449193E+03  0.46999998093E+01 0.  1.
       -5    1    3    3    0  502 -0.18034372843E+03  0.14152383509E+03  0.28358138543E+02  0.23103923975E+03  0.46999998093E+01 0. -1.
</event>
<event>
 5   0  0.3717372E-02  0.7063038E+03  0.7818609E-02  0.9706512E-01
       -1   -1    0    0    0  501  0.00000000000E+00  0.00000000000E+00  0.36133225156E+03  0.36133225159E+03  0.50400001928E-02 0. -1.
        1   -1    0    0  501    0  0.00000000000E+00  0.00000000000E+00 -0.34515670729E+03  0.34515670733E+03  0.50400001928E-02 0.  1.
    10030    2    1    2    0    0  0.00000000000E+00  0.00000000000E+00  0.16175544270E+02  0.70648895892E+03  0.70630375961E+03 0.  0.
        3    1    3    3  502    0  0.33591213421E+02  0.26993504886E+03 -0.21718882077E+03  0.34808661895E+03  0.10100000352E+00 0.  1.
       -3    1    3    3    0  502 -0.33591213421E+02 -0.26993504886E+03  0.23336436504E+03  0.35840233997E+03  0.10100000352E+00 0. -1.
</event>
<event>
 5   0  0.6248886E-02  0.7204523E+03  0.7818609E-02  0.9682882E-01
        2   -1    0    0  501    0  0.00000000000E+00  0.00000000000E+00  0.13639543436E+03  0.13639543438E+03  0.25500000920E-02 0.  1.
       -2   -1    0    0    0  501  0.00000000000E+00  0.00000000000E+00 -0.95137249257E+03  0.95137249257E+03  0.25500000920E-02 0. -1.
    10030    2    1    2    0    0  0.00000000000E+00  0.00000000000E+00 -0.81497705821E+03  0.10877679270E+04  0.72045225901E+03 0.  0.
        3    1    3    3  502    0  0.70467429957E+01 -0.35907310814E+03 -0.44964798290E+03  0.57547065286E+03  0.10100000352E+00 0. -1.
       -3    1    3    3    0  502 -0.70467429957E+01  0.35907310814E+03 -0.36532907531E+03  0.51229727410E+03  0.10100000352E+00 0.  1.
</event>
<event>
 5   0  0.6131198E-02  0.7098773E+03  0.7818609E-02  0.9700488E-01
        2   -1    0    0  501    0  0.00000000000E+00  0.00000000000E+00  0.61218548806E+03  0.61218548807E+03  0.25500000920E-02 0.  1.
       -2   -1    0    0    0  501  0.00000000000E+00  0.00000000000E+00 -0.20578966835E+03  0.20578966836E+03  0.25500000920E-02 0. -1.
    10030    2    1    2    0    0  0.00000000000E+00  0.00000000000E+00  0.40639581971E+03  0.81797515643E+03  0.70987730930E+03 0.  0.
        1    1    3    3  502    0  0.50170960029E+02 -0.15389083822E+03 -0.16078649458E+03  0.22814866246E+03  0.50400001928E-02 0. -1.
       -1    1    3    3    0  502 -0.50170960029E+02  0.15389083822E+03  0.56718231429E+03  0.58982649397E+03  0.50400001928E-02 0.  1.
</event>
<event>
 5   0  0.6131198E-02  0.7002801E+03  0.7818609E-02  0.9716753E-01
       -2   -1    0    0    0  501  0.00000000000E+00  0.00000000000E+00  0.16116634934E+03  0.16116634936E+03  0.25500000920E-02 0. -1.
        2   -1    0    0  501    0  0.00000000000E+00  0.00000000000E+00 -0.76069254637E+03  0.76069254637E+03  0.25500000920E-02 0.  1.
    10030    2    1    2    0    0  0.00000000000E+00  0.00000000000E+00 -0.59952619703E+03  0.92185889573E+03  0.70028006020E+03 0.  0.
        1    1    3    3  502    0 -0.87853458425E+02 -0.53473432506E+02 -0.74035981360E+03  0.74746925807E+03  0.50400001928E-02 0.  1.
       -1    1    3    3    0  502  0.87853458425E+02  0.53473432506E+02  0.14083361657E+03  0.17438963766E+03  0.50400001928E-02 0. -1.
</event>
<event>
 5   0  0.5899787E-02  0.8376807E+03  0.7818609E-02  0.9507022E-01
       -2   -1    0    0    0  501  0.00000000000E+00  0.00000000000E+00  0.22257203666E+03  0.22257203667E+03  0.25500000920E-02 0.  1.
        2   -1    0    0  501    0  0.00000000000E+00  0.00000000000E+00 -0.78818175443E+03  0.78818175443E+03  0.25500000920E-02 0. -1.
    10030    2    1    2    0    0  0.00000000000E+00  0.00000000000E+00 -0.56560971777E+03  0.10107537911E+04  0.83768065120E+03 0.  0.
        2    1    3    3  502    0  0.28074507586E+03 -0.29038298028E+03 -0.14905528870E+03  0.43053170842E+03  0.25500000920E-02 0. -1.
       -2    1    3    3    0  502 -0.28074507586E+03  0.29038298028E+03 -0.41655442906E+03  0.58022208269E+03  0.25500000920E-02 0.  1.
</event>
<event>
 5   0  0.3439015E-02  0.6625564E+03  0.7818609E-02  0.9783499E-01
       -1   -1    0    0    0  501  0.00000000000E+00  0.00000000000E+00  0.56881406529E+03  0.56881406531E+03  0.50400001928E-02 0. -1.
        1   -1    0    0  501    0  0.00000000000E+00  0.00000000000E+00 -0.19293696468E+03  0.19293696475E+03  0.50400001928E-02 0.  1.
    10030    2    1    2    0    0  0.00000000000E+00  0.00000000000E+00  0.37587710061E+03  0.76175103006E+03  0.66255644065E+03 0.  0.
        1    1    3    3  502    0 -0.29074922377E+02 -0.18985106867E+03  0.49826890804E+03  0.53400438587E+03  0.50400001928E-02 0. -1.
       -1    1    3    3    0  502  0.29074922377E+02  0.18985106867E+03 -0.12239180744E+03  0.22774664419E+03  0.50400001928E-02 0.  1.
</event>
<event>
 5   0  0.6131198E-02  0.6935175E+03  0.7818609E-02  0.9728383E-01
        2   -1    0    0  501    0  0.00000000000E+00  0.00000000000E+00  0.75169301137E+03  0.75169301137E+03  0.25500000920E-02 0. -1.
       -2   -1    0    0    0  501  0.00000000000E+00  0.00000000000E+00 -0.15996110434E+03  0.15996110436E+03  0.25500000920E-02 0.  1.
    10030    2    1    2    0    0  0.00000000000E+00  0.00000000000E+00  0.59173190702E+03  0.91165411573E+03  0.69351753903E+03 0.  0.
        1    1    3    3  502    0  0.73440297908E+02  0.33594437316E+03  0.35449995460E+03  0.49388492289E+03  0.50400001928E-02 0. -1.
       -1    1    3    3    0  502 -0.73440297908E+02 -0.33594437316E+03  0.23723195242E+03  0.41776919285E+03  0.50400001928E-02 0.  1.
</event>
<event>
 5   0  0.6167756E-02  0.7014388E+03  0.7818609E-02  0.9714775E-01
       -2   -1    0    0    0  501  0.00000000000E+00  0.00000000000E+00  0.18881109362E+03  0.18881109364E+03  0.25500000920E-02 0.  1.
        2   -1    0    0  501    0  0.00000000000E+00  0.00000000000E+00 -0.65146644082E+03  0.65146644083E+03  0.25500000920E-02 0. -1.
    10030    2    1    2    0    0  0.00000000000E+00  0.00000000000E+00 -0.46265534720E+03  0.84027753447E+03  0.70143878181E+03 0.  0.
        4    1    3    3  502    0 -0.28464177133E+03 -0.47743347554E+02 -0.47002073209E+03  0.55156274957E+03  0.12699999809E+01 0. -1.
       -4    1    3    3    0  502  0.28464177133E+03  0.47743347554E+02  0.73653848830E+01  0.28871478490E+03  0.12699999809E+01 0.  1.
</event>
<event>
 5   0  0.6248886E-02  0.7021203E+03  0.7818609E-02  0.9713613E-01
       -2   -1    0    0    0  501  0.00000000000E+00  0.00000000000E+00  0.17910755699E+03  0.17910755701E+03  0.25500000920E-02 0.  1.
        2   -1    0    0  501    0  0.00000000000E+00  0.00000000000E+00 -0.68809612521E+03  0.68809612522E+03  0.25500000920E-02 0. -1.
    10030    2    1    2    0    0  0.00000000000E+00  0.00000000000E+00 -0.50898856822E+03  0.86720368223E+03  0.70212026312E+03 0.  0.
        3    1    3    3  502    0  0.14406518109E+03 -0.30836994086E+03 -0.36071765126E+03  0.49594760908E+03  0.10100000352E+00 0.  1.
       -3    1    3    3    0  502 -0.14406518109E+03  0.30836994086E+03 -0.14827091697E+03  0.37125607314E+03  0.10100000352E+00 0. -1.
</event>
<event>
 5   0  0.3717372E-02  0.8432962E+03  0.7818609E-02  0.9499379E-01
       -1   -1    0    0    0  501  0.00000000000E+00  0.00000000000E+00  0.85349181008E+03  0.85349181009E+03  0.50400001928E-02 0.  1.
        1   -1    0    0  501    0  0.00000000000E+00  0.00000000000E+00 -0.20830558143E+03  0.20830558149E+03  0.50400001928E-02 0. -1.
    10030    2    1    2    0    0  0.00000000000E+00  0.00000000000E+00  0.64518622865E+03  0.10617973916E+04  0.84329617047E+03 0.  0.
        3    1    3    3  502    0 -0.13813285108E+03  0.38145715579E+03  0.46723587029E+03  0.61878882903E+03  0.10100000352E+00 0. -1.
       -3    1    3    3    0  502  0.13813285108E+03 -0.38145715579E+03  0.17795035836E+03  0.44300856255E+03  0.10100000352E+00 0.  1.
</event>
<event>
 5   0  0.2439375E-02  0.6994919E+03  0.7818609E-02  0.9718102E-01
       -4   -1    0    0    0  501  0.00000000000E+00  0.00000000000E+00  0.61532171736E+03  0.61532302797E+03  0.12699999809E+01 0. -1.
        4   -1    0    0  501    0  0.00000000000E+00  0.00000000000E+00 -0.19879039081E+03  0.19879444755E+03  0.12699999809E+01 0.  1.
    10030    2    1    2    0    0  0.00000000000E+00  0.00000000000E+00  0.41653132655E+03  0.81411747552E+03  0.69949189985E+03 0.  0.
        4    1    3    3  502    0  0.52830564948E+02  0.29931714049E+03  0.40964808689E+03  0.51009311618E+03  0.12699999809E+01 0. -1.
       -4    1    3    3    0  502 -0.52830564948E+02 -0.29931714049E+03  0.68832396678E+01  0.30402435934E+03  0.12699999809E+01 0.  1.
</event>
<event>
 5   0  0.6131198E-02  0.6738723E+03  0.7818609E-02  0.9762988E-01
        2   -1    0    0  501    0  0.00000000000E+00  0.00000000000E+00  0.79381264124E+03  0.79381264124E+03  0.25500000920E-02 0. -1.
       -2   -1    0    0    0  501  0.00000000000E+00  0.00000000000E+00 -0.14301356667E+03  0.14301356669E+03  0.25500000920E-02 0.  1.
    10030    2    1    2    0    0  0.00000000000E+00  0.00000000000E+00  0.65079907457E+03  0.93682620794E+03  0.67387232353E+03 0.  0.
        1    1    3    3  502    0 -0.26229278942E+03 -0.19033541803E+03  0.19722143923E+03  0.37936970735E+03  0.50400001928E-02 0.  1.
       -1    1    3    3    0  502  0.26229278942E+03  0.19033541803E+03  0.45357763534E+03  0.55745650059E+03  0.50400001928E-02 0. -1.
</event>
<event>
 5   0  0.6167756E-02  0.6998938E+03  0.7818609E-02  0.9717414E-01
        2   -1    0    0  501    0  0.00000000000E+00  0.00000000000E+00  0.15696918886E+04  0.15696918886E+04  0.25500000920E-02 0.  1.
       -2   -1    0    0    0  501  0.00000000000E+00  0.00000000000E+00 -0.78017106179E+02  0.78017106220E+02  0.25500000920E-02 0. -1.
    10030    2    1    2    0    0  0.00000000000E+00  0.00000000000E+00  0.14916747824E+04  0.16477089948E+04  0.69989375987E+03 0.  0.
        4    1    3    3  502    0 -0.21981662911E+03 -0.16904811727E+03  0.24330724232E+03  0.36891278570E+03  0.12699999809E+01 0. -1.
       -4    1    3    3    0  502  0.21981662911E+03  0.16904811727E+03  0.12483675401E+04  0.12787962091E+04  0.12699999809E+01 0.  1.
</event>
<event>
 5   0  0.6248886E-02  0.6632574E+03  0.7818609E-02  0.9782216E-01
       -2   -1    0    0    0  501  0.00000000000E+00  0.00000000000E+00  0.87169827065E+02  0.87169827102E+02  0.25500000920E-02 0. -1.
        2   -1    0    0  501    0  0.00000000000E+00  0.00000000000E+00 -0.12616475098E+04  0.12616475098E+04  0.25500000920E-02 0.  1.
    10030    2    1    2    0    0  0.00000000000E+00  0.00000000000E+00 -0.11744776827E+04  0.13488173369E+04  0.66325740184E+03 0.  0.
        3    1    3    3  502    0 -0.61260445891E+02  0.21791861693E+03 -0.94378324388E+02  0.24525220519E+03  0.10100000352E+00 0. -1.
       -3    1    3    3    0  502  0.61260445891E+02 -0.21791861693E+03 -0.10800993584E+04  0.11035651317E+04  0.10100000352E+00 0.  1.
</event>
<event>
 5   0  0.3439015E-02  0.7115029E+03  0.7818609E-02  0.9697761E-01
       -1   -1    0    0    0  501  0.00000000000E+00  0.00000000000E+00  0.10031179146E+03  0.10031179159E+03  0.50400001928E-02 0. -1.
        1   -1    0    0  501    0  0.00000000000E+00  0.00000000000E+00 -0.12616570712E+04  0.12616570712E+04  0.50400001928E-02 0.  1.
    10030    2    1    2    0    0  0.00000000000E+00  0.00000000000E+00 -0.11613452797E+04  0.13619688628E+04  0.71150286328E+03 0.  0.
        1    1    3    3  502    0  0.31342589998E+03  0.58233945723E+02 -0.88292514109E+03  0.93871390317E+03  0.50400001928E-02 0.  1.
       -1    1    3    3    0  502 -0.31342589998E+03 -0.58233945723E+02 -0.27842013865E+03  0.42325495962E+03  0.50400001928E-02 0. -1.
</event>
<event>
 5   0  0.5899787E-02  0.6943263E+03  0.7818609E-02  0.9726984E-01
        2   -1    0    0  501    0  0.00000000000E+00  0.00000000000E+00  0.12093958509E+04  0.12093958509E+04  0.25500000920E-02 0.  1.
       -2   -1    0    0    0  501  0.00000000000E+00  0.00000000000E+00 -0.99654919862E+02  0.99654919895E+02  0.25500000920E-02 0. -1.
    10030    2    1    2    0    0  0.00000000000E+00  0.00000000000E+00  0.11097409310E+04  0.13090507708E+04  0.69432628245E+03 0.  0.
        2    1    3    3  502    0  0.18012691389E+03  0.56594745401E+02  0.11041319381E+04  0.11201589204E+04  0.25500000920E-02 0.  1.
       -2    1    3    3    0  502 -0.18012691389E+03 -0.56594745401E+02  0.56089929241E+01  0.18889185034E+03  0.25500000920E-02 0. -1.
</event>
<event>
 5   0  0.3749730E-02  0.7011896E+03  0.7818609E-02  0.9715200E-01
       -1   -1    0    0    0  501  0.00000000000E+00  0.00000000000E+00  0.76602786991E+02  0.76602787157E+02  0.50400001928E-02 0. -1.
        1   -1    0    0  501    0  0.00000000000E+00  0.00000000000E+00 -0.16045983714E+04  0.16045983714E+04  0.50400001928E-02 0.  1.
    10030    2    1    2    0    0  0.00000000000E+00  0.00000000000E+00 -0.15279955844E+04  0.16812011585E+04  0.70118958177E+03 0.  0.
        4    1    3    3  502    0 -0.12540140182E+03  0.31957191432E+02  0.17237222795E+02  0.13055844826E+03  0.12699999809E+01 0. -1.
       -4    1    3    3    0  502  0.12540140182E+03 -0.31957191432E+02 -0.15452328072E+04  0.15506427103E+04  0.12699999809E+01 0.  1.
</event>
<event>
 5   0  0.3755872E-02  0.7310201E+03  0.7818609E-02  0.9665607E-01
        1   -1    0    0  501    0  0.00000000000E+00  0.00000000000E+00  0.44941935742E+03  0.44941935745E+03  0.50400001928E-02 0. -1.
       -1   -1    0    0    0  501  0.00000000000E+00  0.00000000000E+00 -0.29726709134E+03  0.29726709139E+03  0.50400001928E-02 0.  1.
    10030    2    1    2    0    0  0.00000000000E+00  0.00000000000E+00  0.15215226608E+03  0.74668644883E+03  0.73102006867E+03 0.  0.
        2    1    3    3  502    0  0.86672996919E+02  0.15259631422E+02  0.43843586409E+03  0.44718125148E+03  0.25500000920E-02 0. -1.
       -2    1    3    3    0  502 -0.86672996919E+02 -0.15259631422E+02 -0.28628359801E+03  0.29950519736E+03  0.25500000920E-02 0.  1.
</event>
<event>
 5   0  0.5987810E-02  0.4622999E+03  0.7818609E-02  0.1024116E+00
       -2   -1    0    0    0  501  0.00000000000E+00  0.00000000000E+00  0.45720411083E+02  0.45720411154E+02  0.25500000920E-02 0. -1.
        2   -1    0    0  501    0  0.00000000000E+00  0.00000000000E+00 -0.11686313852E+04  0.11686313852E+04  0.25500000920E-02 0.  1.
    10030    2    1    2    0    0  0.00000000000E+00  0.00000000000E+00 -0.11229109741E+04  0.12143517963E+04  0.46229993459E+03 0.  0.
        5    1    3    3  502    0 -0.20829427101E+03 -0.10008051993E+03 -0.55523744911E+03  0.60142607916E+03  0.46999998093E+01 0.  1.
       -5    1    3    3    0  502  0.20829427101E+03  0.10008051993E+03 -0.56767352500E+03  0.61292571718E+03  0.46999998093E+01 0. -1.
</event>
<event>
 5   0  0.3439015E-02  0.6921564E+03  0.7818609E-02  0.9730741E-01
        1   -1    0    0  501    0  0.00000000000E+00  0.00000000000E+00  0.17746438415E+04  0.17746438415E+04  0.50400001928E-02 0.  1.
       -1   -1    0    0    0  501  0.00000000000E+00  0.00000000000E+00 -0.67489673807E+02  0.67489673995E+02  0.50400001928E-02 0. -1.
    10030    2    1    2    0    0  0.00000000000E+00  0.00000000000E+00  0.17071541677E+04  0.18421335155E+04  0.69215643945E+03 0.  0.
        1    1    3    3  502    0 -0.29172936265E+03 -0.14951409748E+03  0.11488609058E+04  0.11947141362E+04  0.50400001928E-02 0.  1.
       -1    1    3    3    0  502  0.29172936265E+03  0.14951409748E+03  0.55829326189E+03  0.64741937928E+03  0.50400001928E-02 0. -1.
</event>
<event>
 5   0  0.6167756E-02  0.6365685E+03  0.7818609E-02  0.9832314E-01
        2   -1    0    0  501    0  0.00000000000E+00  0.00000000000E+00  0.17335032669E+03  0.17335032671E+03  0.25500000920E-02 0. -1.
       -2   -1    0    0    0  501  0.00000000000E+00  0.00000000000E+00 -0.58439392327E+03  0.58439392327E+03  0.25500000920E-02 0.  1.
    10030    2    1    2    0    0  0.00000000000E+00  0.00000000000E+00 -0.41104359658E+03  0.75774424999E+03  0.63656854313E+03 0.  0.
        4    1    3    3  502    0  0.24872419944E+03  0.24188930342E+02  0.29115885636E+02  0.25159129443E+03  0.12699999809E+01 0. -1.
       -4    1    3    3    0  502 -0.24872419944E+03 -0.24188930342E+02 -0.44015948221E+03  0.50615295556E+03  0.12699999809E+01 0.  1.
</event>
<event>
 5   0  0.3601475E-02  0.7144367E+03  0.7818609E-02  0.9692857E-01
        1   -1    0    0  501    0  0.00000000000E+00  0.00000000000E+00  0.20338506650E+03  0.20338506657E+03  0.50400001928E-02 0. -1.
       -1   -1    0    0    0  501  0.00000000000E+00  0.00000000000E+00 -0.62740566379E+03  0.62740566381E+03  0.50400001928E-02 0.  1.
    10030    2    1    2    0    0  0.00000000000E+00  0.00000000000E+00 -0.42402059729E+03  0.83079073037E+03  0.71443668072E+03 0.  0.
        5    1    3    3  502    0  0.38200099767E+02 -0.22278324690E+03 -0.53362339134E+03  0.57954088424E+03  0.46999998093E+01 0.  1.
       -5    1    3    3    0  502 -0.38200099767E+02  0.22278324690E+03  0.10960279405E+03  0.25124984614E+03  0.46999998093E+01 0. -1.
</event>
<event>
 5   0  0.6248886E-02  0.6924568E+03  0.7818609E-02  0.9730220E-01
       -2   -1    0    0    0  501  0.00000000000E+00  0.00000000000E+00  0.16548319161E+03  0.16548319163E+03  0.25500000920E-02 0.  1.
        2   -1    0    0  501    0  0.00000000000E+00  0.00000000000E+00 -0.72438830835E+03  0.72438830836E+03  0.25500000920E-02 0. -1.
    10030    2    1    2    0    0  0.00000000000E+00  0.00000000000E+00 -0.55890511674E+03  0.88987149999E+03  0.69245675458E+03 0.  0.
        3    1    3    3  502    0  0.25736525172E+03 -0.90612020288E+02 -0.55537874541E+01  0.27290706435E+03  0.10100000352E+00 0.  1.
       -3    1    3    3    0  502 -0.25736525172E+03  0.90612020288E+02 -0.55335132929E+03  0.61696443564E+03  0.10100000352E+00 0. -1.
</event>
<event>
 5   0  0.6248886E-02  0.7608694E+03  0.7818609E-02  0.9618451E-01
        2   -1    0    0  501    0  0.00000000000E+00  0.00000000000E+00  0.10377351868E+04  0.10377351868E+04  0.25500000920E-02 0. -1.
       -2   -1    0    0    0  501  0.00000000000E+00  0.00000000000E+00 -0.13946770498E+03  0.13946770500E+03  0.25500000920E-02 0.  1.
    10030    2    1    2    0    0  0.00000000000E+00  0.00000000000E+00  0.89826748183E+03  0.11772028918E+04  0.76086935775E+03 0.  0.
        3    1    3    3  502    0  0.16771845725E+03 -0.29369813027E+03  0.17962886007E+03  0.38295510206E+03  0.10100000352E+00 0. -1.
       -3    1    3    3    0  502 -0.16771845725E+03  0.29369813027E+03  0.71863862177E+03  0.79424778975E+03  0.10100000352E+00 0.  1.
</event>
<event>
 5   0  0.3717372E-02  0.7013818E+03  0.7818609E-02  0.9714872E-01
        1   -1    0    0  501    0  0.00000000000E+00  0.00000000000E+00  0.44349678180E+03  0.44349678183E+03  0.50400001928E-02 0. -1.
       -1   -1    0    0    0  501  0.00000000000E+00  0.00000000000E+00 -0.27730555012E+03  0.27730555016E+03  0.50400001928E-02 0.  1.
    10030    2    1    2    0    0  0.00000000000E+00  0.00000000000E+00  0.16619123168E+03  0.72080233200E+03  0.70138183347E+03 0.  0.
        3    1    3    3  502    0  0.15012563736E+03  0.16900010948E+03  0.35863387536E+03  0.42393043150E+03  0.10100000352E+00 0.  1.
       -3    1    3    3    0  502 -0.15012563736E+03 -0.16900010948E+03 -0.19244264368E+03  0.29687190049E+03  0.10100000352E+00 0. -1.
</event>
<event>
 5   0  0.5899787E-02  0.6816299E+03  0.7818609E-02  0.9749174E-01
       -2   -1    0    0    0  501  0.00000000000E+00  0.00000000000E+00  0.92587460917E+02  0.92587460952E+02  0.25500000920E-02 0. -1.
        2   -1    0    0  501    0  0.00000000000E+00  0.00000000000E+00 -0.12545418225E+04  0.12545418225E+04  0.25500000920E-02 0.  1.
    10030    2    1    2    0    0  0.00000000000E+00  0.00000000000E+00 -0.11619543615E+04  0.13471292834E+04  0.68162993473E+03 0.  0.
        2    1    3    3  502    0  0.22778513692E+03 -0.25052983394E+03 -0.50434286781E+03  0.60746439781E+03  0.25500000920E-02 0. -1.
       -2    1    3    3    0  502 -0.22778513692E+03  0.25052983394E+03 -0.65761149374E+03  0.73966488561E+03  0.25500000920E-02 0.  1.
</event>
<event>
 5   0  0.6167756E-02  0.6874688E+03  0.7818609E-02  0.9738905E-01
        2   -1    0    0  501    0  0.00000000000E+00  0.00000000000E+00  0.19265726740E+03  0.19265726741E+03  0.25500000920E-02 0.  1.
       -2   -1    0    0    0  501  0.00000000000E+00  0.00000000000E+00 -0.61328253038E+03  0.61328253038E+03  0.25500000920E-02 0. -1.
    10030    2    1    2    0    0  0.00000000000E+00  0.00000000000E+00 -0.42062526298E+03  0.80593979780E+03  0.68746879625E+03 0.  0.
        4    1    3    3  502    0  0.27192587017E+03  0.14261229358E+03 -0.29189547190E+02  0.30844057404E+03  0.12699999809E+01 0.  1.
       -4    1    3    3    0  502 -0.27192587017E+03 -0.14261229358E+03 -0.39143571579E+03  0.49749922376E+03  0.12699999809E+01 0. -1.
</event>
<event>
 5   0  0.6167756E-02  0.7097839E+03  0.7818609E-02  0.9700645E-01
       -2   -1    0    0    0  501  0.00000000000E+00  0.00000000000E+00  0.17006020241E+03  0.17006020243E+03  0.25500000920E-02 0. -1.
        2   -1    0    0  501    0  0.00000000000E+00  0.00000000000E+00 -0.74060998185E+03  0.74060998185E+03  0.25500000920E-02 0.  1.
    10030    2    1    2    0    0  0.00000000000E+00  0.00000000000E+00 -0.57054977944E+03  0.91067018428E+03  0.70978386408E+03 0.  0.
        4    1    3    3  502    0  0.29785676780E+01  0.35202065162E+03 -0.22762067480E+03  0.41921378261E+03  0.12699999809E+01 0. -1.
       -4    1    3    3    0  502 -0.29785676780E+01 -0.35202065162E+03 -0.34292910464E+03  0.49145640167E+03  0.12699999809E+01 0.  1.
</event>
<event>
 5   0  0.3755872E-02  0.7541547E+03  0.7818609E-02  0.9628855E-01
       -1   -1    0    0    0  501  0.00000000000E+00  0.00000000000E+00  0.13828082954E+03  0.13828082963E+03  0.50400001928E-02 0.  1.
        1   -1    0    0  501    0  0.00000000000E+00  0.00000000000E+00 -0.10282503372E+04  0.10282503372E+04  0.50400001928E-02 0. -1.
    10030    2    1    2    0    0  0.00000000000E+00  0.00000000000E+00 -0.88996950765E+03  0.11665311668E+04  0.75415465168E+03 0.  0.
        2    1    3    3  502    0  0.17279113301E+03 -0.30302202290E+03 -0.22347157288E+03  0.41426883289E+03  0.25500000920E-02 0.  1.
       -2    1    3    3    0  502 -0.17279113301E+03  0.30302202290E+03 -0.66649793478E+03  0.75226233395E+03  0.25500000920E-02 0. -1.
</event>
<event>
 5   0  0.3717372E-02  0.6643213E+03  0.7818609E-02  0.9780271E-01
       -1   -1    0    0    0  501  0.00000000000E+00  0.00000000000E+00  0.24986988193E+03  0.24986988198E+03  0.50400001928E-02 0.  1.
        1   -1    0    0  501    0  0.00000000000E+00  0.00000000000E+00 -0.44155254596E+03  0.44155254599E+03  0.50400001928E-02 0. -1.
    10030    2    1    2    0    0  0.00000000000E+00  0.00000000000E+00 -0.19168266403E+03  0.69142242798E+03  0.66432125528E+03 0.  0.
        3    1    3    3  502    0 -0.98462261494E+02 -0.25030869915E+03 -0.29868005114E+03  0.40194408188E+03  0.10100000352E+00 0. -1.
       -3    1    3    3    0  502  0.98462261494E+02  0.25030869915E+03  0.10699738711E+03  0.28947834610E+03  0.10100000352E+00 0.  1.
</event>
<event>
 5   0  0.3439015E-02  0.6988654E+03  0.7818609E-02  0.9719174E-01
        1   -1    0    0  501    0  0.00000000000E+00  0.00000000000E+00  0.60439323878E+03  0.60439323880E+03  0.50400001928E-02 0.  1.
       -1   -1    0    0    0  501  0.00000000000E+00  0.00000000000E+00 -0.20202611055E+03  0.20202611062E+03  0.50400001928E-02 0. -1.
    10030    2    1    2    0    0  0.00000000000E+00  0.00000000000E+00  0.40236712823E+03  0.80641934942E+03  0.69886540996E+03 0.  0.
        1    1    3    3  502    0  0.25887315817E+03  0.14386242519E+03 -0.12806195186E+02  0.29643837144E+03  0.50400001928E-02 0. -1.
       -1    1    3    3    0  502 -0.25887315817E+03 -0.14386242519E+03  0.41517332342E+03  0.50998097798E+03  0.50400001928E-02 0.  1.
</event>
<event>
 5   0  0.3755872E-02  0.6864600E+03  0.7818609E-02  0.9740672E-01
       -1   -1    0    0    0  501  0.00000000000E+00  0.00000000000E+00  0.12394500997E+03  0.12394501007E+03  0.50400001928E-02 0.  1.
        1   -1    0    0  501    0  0.00000000000E+00  0.00000000000E+00 -0.95047672153E+03  0.95047672155E+03  0.50400001928E-02 0. -1.
    10030    2    1    2    0    0  0.00000000000E+00  0.00000000000E+00 -0.82653171156E+03  0.10744217316E+04  0.68646004046E+03 0.  0.
        2    1    3    3  502    0  0.86368405315E+02  0.28111225379E+03 -0.13625747812E+03  0.32411371618E+03  0.25500000920E-02 0.  1.
       -2    1    3    3    0  502 -0.86368405315E+02 -0.28111225379E+03 -0.69027423344E+03  0.75030801544E+03  0.25500000920E-02 0. -1.
</event>
<event>
 5   0  0.3439015E-02  0.6562943E+03  0.7818609E-02  0.9795040E-01
       -1   -1    0    0    0  501  0.00000000000E+00  0.00000000000E+00  0.57031880551E+03  0.57031880553E+03  0.50400001928E-02 0.  1.
        1   -1    0    0  501    0  0.00000000000E+00  0.00000000000E+00 -0.18880765741E+03  0.18880765748E+03  0.50400001928E-02 0. -1.
    10030    2    1    2    0    0  0.00000000000E+00  0.00000000000E+00  0.38151114810E+03  0.75912646301E+03  0.65629431714E+03 0.  0.
        1    1    3    3  502    0  0.71407596488E+02 -0.14329121750E+02 -0.17934091653E+03  0.19356531955E+03  0.50400001928E-02 0. -1.
       -1    1    3    3    0  502 -0.71407596488E+02  0.14329121750E+02  0.56085206463E+03  0.56556114346E+03  0.50400001928E-02 0.  1.
</event>
<event>
 5   0  0.5899787E-02  0.6654678E+03  0.7818609E-02  0.9778180E-01
        2   -1    0    0  501    0  0.00000000000E+00  0.00000000000E+00  0.12165761629E+03  0.12165761631E+03  0.25500000920E-02 0.  1.
       -2   -1    0    0    0  501  0.00000000000E+00  0.00000000000E+00 -0.91002812448E+03  0.91002812448E+03  0.25500000920E-02 0. -1.
    10030    2    1    2    0    0  0.00000000000E+00  0.00000000000E+00 -0.78837050819E+03  0.10316857408E+04  0.66546781257E+03 0.  0.
        2    1    3    3  502    0 -0.15674298199E+03 -0.85777093557E+02  0.40970062370E+02  0.18331562453E+03  0.25500000920E-02 0.  1.
       -2    1    3    3    0  502  0.15674298199E+03  0.85777093557E+02 -0.82934057056E+03  0.84837011626E+03  0.25500000920E-02 0. -1.
</event>
<event>
 5   0  0.3749730E-02  0.7013223E+03  0.7818609E-02  0.9714974E-01
        1   -1    0    0  501    0  0.00000000000E+00  0.00000000000E+00  0.62368616861E+03  0.62368616863E+03  0.50400001928E-02 0.  1.
       -1   -1    0    0    0  501  0.00000000000E+00  0.00000000000E+00 -0.19715561274E+03  0.19715561280E+03  0.50400001928E-02 0. -1.
    10030    2    1    2    0    0  0.00000000000E+00  0.00000000000E+00  0.42653055587E+03  0.82084178144E+03  0.70132226192E+03 0.  0.
        4    1    3    3  502    0  0.18982574465E+03 -0.15858127225E+03  0.50417954288E+03  0.56158744430E+03  0.12699999809E+01 0.  1.
       -4    1    3    3    0  502 -0.18982574465E+03  0.15858127225E+03 -0.77648987005E+02  0.25925433713E+03  0.12699999809E+01 0. -1.
</event>
<event>
 5   0  0.5899787E-02  0.7072870E+03  0.7818609E-02  0.9704851E-01
       -2   -1    0    0    0  501  0.00000000000E+00  0.00000000000E+00  0.10168048810E+03  0.10168048813E+03  0.25500000920E-02 0.  1.
        2   -1    0    0  501    0  0.00000000000E+00  0.00000000000E+00 -0.12299676167E+04  0.12299676167E+04  0.25500000920E-02 0. -1.
    10030    2    1    2    0    0  0.00000000000E+00  0.00000000000E+00 -0.11282871286E+04  0.13316481048E+04  0.70728695063E+03 0.  0.
        2    1    3    3  502    0 -0.16782575634E+02 -0.25407503227E+03 -0.10208949320E+03  0.27433199138E+03  0.25500000920E-02 0.  1.
       -2    1    3    3    0  502  0.16782575634E+02  0.25407503227E+03 -0.10261976354E+04  0.10573161134E+04  0.25500000920E-02 0. -1.
</event>
<event>
 5   0  0.3749730E-02  0.7425040E+03  0.7818609E-02  0.9647184E-01
       -1   -1    0    0    0  501  0.00000000000E+00  0.00000000000E+00  0.75209604255E+03  0.75209604257E+03  0.50400001928E-02 0.  1.
        1   -1    0    0  501    0  0.00000000000E+00  0.00000000000E+00 -0.18325854926E+03  0.18325854933E+03  0.50400001928E-02 0. -1.
    10030    2    1    2    0    0  0.00000000000E+00  0.00000000000E+00  0.56883749330E+03  0.93535459190E+03  0.74250395205E+03 0.  0.
        4    1    3    3  502    0 -0.32984267834E+03  0.12034013924E+03  0.43636369039E+03  0.56008287311E+03  0.12699999809E+01 0.  1.
       -4    1    3    3    0  502  0.32984267834E+03 -0.12034013924E+03  0.13247380291E+03  0.37527171879E+03  0.12699999809E+01 0. -1.
</event>
<event>
 5   0  0.3717372E-02  0.6864129E+03  0.7818609E-02  0.9740754E-01
        1   -1    0    0  501    0  0.00000000000E+00  0.00000000000E+00  0.46991297332E+03  0.46991297335E+03  0.50400001928E-02 0. -1.
       -1   -1    0    0    0  501  0.00000000000E+00  0.00000000000E+00 -0.25066489008E+03  0.25066489013E+03  0.50400001928E-02 0.  1.
    10030    2    1    2    0    0  0.00000000000E+00  0.00000000000E+00  0.21924808324E+03  0.72057786348E+03  0.68641294810E+03 0.  0.
        3    1    3    3  502    0 -0.12255952245E+03 -0.22580884261E+03 -0.12925460302E+03  0.28760603705E+03  0.10100000352E+00 0.  1.
       -3    1    3    3    0  502  0.12255952245E+03  0.22580884261E+03  0.34850268626E+03  0.43297182643E+03  0.10100000352E+00 0. -1.
</event>
<event>
 5   0  0.5899787E-02  0.6811658E+03  0.7818609E-02  0.9749995E-01
        2   -1    0    0  501    0  0.00000000000E+00  0.00000000000E+00  0.17912562144E+03  0.17912562146E+03  0.25500000920E-02 0. -1.
       -2   -1    0    0    0  501  0.00000000000E+00  0.00000000000E+00 -0.64757181868E+03  0.64757181869E+03  0.25500000920E-02 0.  1.
    10030    2    1    2    0    0  0.00000000000E+00  0.00000000000E+00 -0.46844619724E+03  0.82669744015E+03  0.68116577852E+03 0.  0.
        2    1    3    3  502    0 -0.17850529496E+03 -0.13399042751E+03  0.77992284112E+02  0.23643259374E+03  0.25500000920E-02 0. -1.
       -2    1    3    3    0  502  0.17850529496E+03  0.13399042751E+03 -0.54643848135E+03  0.59026484641E+03  0.25500000920E-02 0.  1.
</event>
<event>
 5   0  0.6131198E-02  0.6856250E+03  0.7818609E-02  0.9742136E-01
        2   -1    0    0  501    0  0.00000000000E+00  0.00000000000E+00  0.10288404879E+04  0.10288404879E+04  0.25500000920E-02 0. -1.
       -2   -1    0    0    0  501  0.00000000000E+00  0.00000000000E+00 -0.11422607772E+03  0.11422607775E+03  0.25500000920E-02 0.  1.
    10030    2    1    2    0    0  0.00000000000E+00  0.00000000000E+00  0.91461441019E+03  0.11430665657E+04  0.68562500990E+03 0.  0.
        1    1    3    3  502    0  0.96352335903E+02  0.22499199288E+03  0.85748554071E+03  0.89173237132E+03  0.50400001928E-02 0. -1.
       -1    1    3    3    0  502 -0.96352335903E+02 -0.22499199288E+03  0.57128869476E+02  0.25133419435E+03  0.50400001928E-02 0.  1.
</event>
<event>
 5   0  0.5987810E-02  0.6598183E+03  0.7818609E-02  0.9788528E-01
       -2   -1    0    0    0  501  0.00000000000E+00  0.00000000000E+00  0.12858265973E+03  0.12858265975E+03  0.25500000920E-02 0.  1.
        2   -1    0    0  501    0  0.00000000000E+00  0.00000000000E+00 -0.84645965350E+03  0.84645965351E+03  0.25500000920E-02 0. -1.
    10030    2    1    2    0    0  0.00000000000E+00  0.00000000000E+00 -0.71787699377E+03  0.97504231326E+03  0.65981825866E+03 0.  0.
        5    1    3    3  502    0  0.48745614223E+02 -0.85986000472E+02 -0.82401292789E+03  0.82993320365E+03  0.46999998093E+01 0. -1.
       -5    1    3    3    0  502 -0.48745614223E+02  0.85986000472E+02  0.10613593412E+03  0.14510910961E+03  0.46999998093E+01 0.  1.
</event>
<event>
 5   0  0.3749730E-02  0.7066100E+03  0.7818609E-02  0.9705995E-01
       -1   -1    0    0    0  501  0.00000000000E+00  0.00000000000E+00  0.16359686365E+03  0.16359686373E+03  0.50400001928E-02 0. -1.
        1   -1    0    0  501    0  0.00000000000E+00  0.00000000000E+00 -0.76300004083E+03  0.76300004084E+03  0.50400001928E-02 0.  1.
    10030    2    1    2    0    0  0.00000000000E+00  0.00000000000E+00 -0.59940317718E+03  0.92659690457E+03  0.70660997357E+03 0.  0.
        4    1    3    3  502    0  0.27840993253E+03 -0.14693241799E+03 -0.51001155755E+03  0.59934516576E+03  0.12699999809E+01 0.  1.
       -4    1    3    3    0  502 -0.27840993253E+03  0.14693241799E+03 -0.89391619631E+02  0.32725173881E+03  0.12699999809E+01 0. -1.
</event>
<event>
 5   0  0.3439015E-02  0.7119208E+03  0.7818609E-02  0.9697061E-01
        1   -1    0    0  501    0  0.00000000000E+00  0.00000000000E+00  0.59548116363E+03  0.59548116365E+03  0.50400001928E-02 0.  1.
       -1   -1    0    0    0  501  0.00000000000E+00  0.00000000000E+00 -0.21278219919E+03  0.21278219925E+03  0.50400001928E-02 0. -1.
    10030    2    1    2    0    0  0.00000000000E+00  0.00000000000E+00  0.38269896444E+03  0.80826336290E+03  0.71192075853E+03 0.  0.
        1    1    3    3  502    0 -0.12145254893E+03  0.33232150382E+03  0.14709371440E+03  0.38317732759E+03  0.50400001928E-02 0.  1.
       -1    1    3    3    0  502  0.12145254893E+03 -0.33232150382E+03  0.23560525003E+03  0.42508603530E+03  0.50400001928E-02 0. -1.
</event>
<event>
 5   0  0.3717372E-02  0.7183646E+03  0.7818609E-02  0.9686332E-01
        1   -1    0    0  501    0  0.00000000000E+00  0.00000000000E+00  0.83121199552E+03  0.83121199553E+03  0.50400001928E-02 0.  1.
       -1   -1    0    0    0  501  0.00000000000E+00  0.00000000000E+00 -0.15520940106E+03  0.15520940114E+03  0.50400001928E-02 0. -1.
    10030    2    1    2    0    0  0.00000000000E+00  0.00000000000E+00  0.67600259446E+03  0.98642139667E+03  0.71836457603E+03 0.  0.
        3    1    3    3  502    0  0.21616725014E+02  0.84720840794E+02  0.81637565056E+03  0.82104452784E+03  0.10100000352E+00 0.  1.
       -3    1    3    3    0  502 -0.21616725014E+02 -0.84720840794E+02 -0.14037305610E+03  0.16537686883E+03  0.10100000352E+00 0. -1.
</event>
<event>
 5   0  0.6248886E-02  0.7005481E+03  0.7818609E-02  0.9716295E-01
       -2   -1    0    0    0  501  0.00000000000E+00  0.00000000000E+00  0.18537827277E+03  0.18537827279E+03  0.25500000920E-02 0.  1.
        2   -1    0    0  501    0  0.00000000000E+00  0.00000000000E+00 -0.66184628588E+03  0.66184628589E+03  0.25500000920E-02 0. -1.
    10030    2    1    2    0    0  0.00000000000E+00  0.00000000000E+00 -0.47646801311E+03  0.84722455867E+03  0.70054813204E+03 0.  0.
        3    1    3    3  502    0  0.27430000842E+03 -0.21238092853E+03 -0.29680763555E+03  0.45655332235E+03  0.10100000352E+00 0. -1.
       -3    1    3    3    0  502 -0.27430000842E+03  0.21238092853E+03 -0.17966037756E+03  0.39067123632E+03  0.10100000352E+00 0.  1.
</event>
<event>
 5   0  0.5899787E-02  0.6899501E+03  0.7818609E-02  0.9734575E-01
       -2   -1    0    0    0  501  0.00000000000E+00  0.00000000000E+00  0.19059773256E+03  0.19059773258E+03  0.25500000920E-02 0.  1.
        2   -1    0    0  501    0  0.00000000000E+00  0.00000000000E+00 -0.62439243691E+03  0.62439243691E+03  0.25500000920E-02 0. -1.
    10030    2    1    2    0    0  0.00000000000E+00  0.00000000000E+00 -0.43379470435E+03  0.81499016949E+03  0.68995009301E+03 0.  0.
        2    1    3    3  502    0  0.23292575521E+02  0.34317486857E+03 -0.24806591228E+03  0.42408516990E+03  0.25500000920E-02 0. -1.
       -2    1    3    3    0  502 -0.23292575521E+02 -0.34317486857E+03 -0.18572879207E+03  0.39090499959E+03  0.25500000920E-02 0.  1.
</event>
<event>
 5   0  0.2439375E-02  0.6988001E+03  0.7818609E-02  0.9719286E-01
        4   -1    0    0  501    0  0.00000000000E+00  0.00000000000E+00  0.38293498875E+03  0.38293709472E+03  0.12699999809E+01 0.  1.
       -4   -1    0    0    0  501  0.00000000000E+00  0.00000000000E+00 -0.31879766554E+03  0.31880019519E+03  0.12699999809E+01 0. -1.
    10030    2    1    2    0    0  0.00000000000E+00  0.00000000000E+00  0.64137323214E+02  0.70173728990E+03  0.69880013438E+03 0.  0.
        4    1    3    3  502    0 -0.13718137994E+03 -0.31168350640E+03  0.11058588465E+03  0.35804495521E+03  0.12699999809E+01 0. -1.
       -4    1    3    3    0  502  0.13718137994E+03  0.31168350640E+03 -0.46448561433E+02  0.34369233469E+03  0.12699999809E+01 0.  1.
</event>
<event>
 5   0  0.2439375E-02  0.6991142E+03  0.7818609E-02  0.9718748E-01
        4   -1    0    0  501    0  0.00000000000E+00  0.00000000000E+00  0.48140910827E+03  0.48141078345E+03  0.12699999809E+01 0. -1.
       -4   -1    0    0    0  501  0.00000000000E+00  0.00000000000E+00 -0.25381401705E+03  0.25381719435E+03  0.12699999809E+01 0.  1.
    10030    2    1    2    0    0  0.00000000000E+00  0.00000000000E+00  0.22759509122E+03  0.73522797781E+03  0.69911419225E+03 0.  0.
        5    1    3    3  502    0 -0.16847366975E+03 -0.17710742160E+03  0.37653841859E+03  0.44894730967E+03  0.46999998093E+01 0. -1.
       -5    1    3    3    0  502  0.16847366975E+03  0.17710742160E+03 -0.14894332737E+03  0.28628066814E+03  0.46999998093E+01 0.  1.
</event>
<event>
 5   0  0.6167756E-02  0.7073240E+03  0.7818609E-02  0.9704789E-01
       -2   -1    0    0    0  501  0.00000000000E+00  0.00000000000E+00  0.87603621517E+02  0.87603621554E+02  0.25500000920E-02 0.  1.
        2   -1    0    0  501    0  0.00000000000E+00  0.00000000000E+00 -0.14277583253E+04  0.14277583253E+04  0.25500000920E-02 0. -1.
    10030    2    1    2    0    0  0.00000000000E+00  0.00000000000E+00 -0.13401547038E+04  0.15153619468E+04  0.70732397096E+03 0.  0.
        4    1    3    3  502    0  0.17589698257E+03  0.95897110789E+02 -0.45692957681E+02  0.20548835397E+03  0.12699999809E+01 0.  1.
       -4    1    3    3    0  502 -0.17589698257E+03 -0.95897110789E+02 -0.12944617461E+04  0.13098735929E+04  0.12699999809E+01 0. -1.
</event>
<event>
 5   0  0.3439015E-02  0.5985549E+03  0.7818609E-02  0.9908409E-01
        1   -1    0    0  501    0  0.00000000000E+00  0.00000000000E+00  0.37940921621E+03  0.37940921624E+03  0.50400001928E-02 0.  1.
       -1   -1    0    0    0  501  0.00000000000E+00  0.00000000000E+00 -0.23606962998E+03  0.23606963004E+03  0.50400001928E-02 0. -1.
    10030    2    1    2    0    0  0.00000000000E+00  0.00000000000E+00  0.14333958622E+03  0.61547884628E+03  0.59855490411E+03 0.  0.
        1    1    3    3  502    0 -0.54665209702E+02  0.80177416559E+02  0.36278285131E+03  0.37553708273E+03  0.50400001928E-02 0.  1.
       -1    1    3    3    0  502  0.54665209702E+02 -0.80177416559E+02 -0.21944326509E+03  0.23994176355E+03  0.50400001928E-02 0. -1.
</event>
<event>
 5   0  0.6131198E-02  0.6473499E+03  0.7818609E-02  0.9811765E-01
       -2   -1    0    0    0  501  0.00000000000E+00  0.00000000000E+00  0.55943653231E+02  0.55943653289E+02  0.25500000920E-02 0.  1.
        2   -1    0    0  501    0  0.00000000000E+00  0.00000000000E+00 -0.18726964916E+04  0.18726964916E+04  0.25500000920E-02 0. -1.
    10030    2    1    2    0    0  0.00000000000E+00  0.00000000000E+00 -0.18167528384E+04  0.19286401449E+04  0.64734993069E+03 0.  0.
        1    1    3    3  502    0 -0.32097909324E+03  0.35164789668E+02 -0.97508463581E+03  0.10271583071E+04  0.50400001928E-02 0.  1.
       -1    1    3    3    0  502  0.32097909324E+03 -0.35164789668E+02 -0.84166820260E+03  0.90148183788E+03  0.50400001928E-02 0. -1.
</event>
<event>
 5   0  0.2439375E-02  0.6998515E+03  0.7818609E-02  0.9717486E-01
       -4   -1    0    0    0  501  0.00000000000E+00  0.00000000000E+00  0.67067680787E+03  0.67067801031E+03  0.12699999809E+01 0. -1.
        4   -1    0    0  501    0  0.00000000000E+00  0.00000000000E+00 -0.18257026108E+03  0.18257467823E+03  0.12699999809E+01 0.  1.
    10030    2    1    2    0    0  0.00000000000E+00  0.00000000000E+00  0.48810654679E+03  0.85325268854E+03  0.69985151960E+03 0.  0.
        1    1    3    3  502    0  0.10162398607E+03  0.31719509903E+03  0.11326486167E+03  0.35180832041E+03  0.50400001928E-02 0.  1.
       -1    1    3    3    0  502 -0.10162398607E+03 -0.31719509903E+03  0.37484168512E+03  0.50144436813E+03  0.50400001928E-02 0. -1.
</event>
<event>
 5   0  0.3749730E-02  0.6971041E+03  0.7818609E-02  0.9722197E-01
        1   -1    0    0  501    0  0.00000000000E+00  0.00000000000E+00  0.49694295997E+03  0.49694295999E+03  0.50400001928E-02 0.  1.
       -1   -1    0    0    0  501  0.00000000000E+00  0.00000000000E+00 -0.24447175129E+03  0.24447175134E+03  0.50400001928E-02 0. -1.
    10030    2    1    2    0    0  0.00000000000E+00  0.00000000000E+00  0.25247120867E+03  0.74141471134E+03  0.69710405463E+03 0.  0.
        4    1    3    3  502    0  0.12208765055E+03 -0.23011887580E+03 -0.12005881869E+03  0.28683762700E+03  0.12699999809E+01 0. -1.
       -4    1    3    3    0  502 -0.12208765055E+03  0.23011887580E+03  0.37253002737E+03  0.45457708434E+03  0.12699999809E+01 0.  1.
</event>
<event>
 5   0  0.6167756E-02  0.6728328E+03  0.7818609E-02  0.9764854E-01
        2   -1    0    0  501    0  0.00000000000E+00  0.00000000000E+00  0.37856881700E+03  0.37856881701E+03  0.25500000920E-02 0. -1.
       -2   -1    0    0    0  501  0.00000000000E+00  0.00000000000E+00 -0.29895752764E+03  0.29895752765E+03  0.25500000920E-02 0.  1.
    10030    2    1    2    0    0  0.00000000000E+00  0.00000000000E+00  0.79611289360E+02  0.67752634465E+03  0.67283281007E+03 0.  0.
        4    1    3    3  502    0  0.20819016769E+03 -0.22949864198E+03  0.17172182450E+03  0.35426370193E+03  0.12699999809E+01 0. -1.
       -4    1    3    3    0  502 -0.20819016769E+03  0.22949864198E+03 -0.92110535139E+02  0.32326264272E+03  0.12699999809E+01 0.  1.
</event>
<event>
 5   0  0.5899787E-02  0.6920231E+03  0.7818609E-02  0.9730972E-01
        2   -1    0    0  501    0  0.00000000000E+00  0.00000000000E+00  0.42168804643E+03  0.42168804644E+03  0.25500000920E-02 0.  1.
       -2   -1    0    0    0  501  0.00000000000E+00  0.00000000000E+00 -0.28391604619E+03  0.28391604620E+03  0.25500000920E-02 0. -1.
    10030    2    1    2    0    0  0.00000000000E+00  0.00000000000E+00  0.13777200025E+03  0.70560409264E+03  0.69202312931E+03 0.  0.
        2    1    3    3  502    0 -0.16563401074E+03  0.73919893266E+02 -0.23155793677E+03  0.29413917492E+03  0.25500000920E-02 0. -1.
       -2    1    3    3    0  502  0.16563401074E+03 -0.73919893266E+02  0.36932993702E+03  0.41146491772E+03  0.25500000920E-02 0.  1.
</event>
<event>
 5   0  0.3601475E-02  0.6014846E+03  0.7818609E-02  0.9902331E-01
       -1   -1    0    0    0  501  0.00000000000E+00  0.00000000000E+00  0.51272863151E+03  0.51272863154E+03  0.50400001928E-02 0.  1.
        1   -1    0    0  501    0  0.00000000000E+00  0.00000000000E+00 -0.17640115973E+03  0.17640115980E+03  0.50400001928E-02 0. -1.
    10030    2    1    2    0    0  0.00000000000E+00  0.00000000000E+00  0.33632747179E+03  0.68912979134E+03  0.60148458088E+03 0.  0.
        5    1    3    3  502    0 -0.51709957294E+02  0.19093870551E+03 -0.91315568289E+02  0.21792689590E+03  0.46999998093E+01 0. -1.
       -5    1    3    3    0  502  0.51709957294E+02 -0.19093870551E+03  0.42764304008E+03  0.47120289544E+03  0.46999998093E+01 0.  1.
</event>
<event>
 5   0  0.5987810E-02  0.6941437E+03  0.7818609E-02  0.9727300E-01
       -2   -1    0    0    0  501  0.00000000000E+00  0.00000000000E+00  0.14536897306E+03  0.14536897308E+03  0.25500000920E-02 0. -1.
        2   -1    0    0  501    0  0.00000000000E+00  0.00000000000E+00 -0.82864223205E+03  0.82864223206E+03  0.25500000920E-02 0.  1.
    10030    2    1    2    0    0  0.00000000000E+00  0.00000000000E+00 -0.68327325899E+03  0.97401120514E+03  0.69414370362E+03 0.  0.
        5    1    3    3  502    0 -0.28314191775E+03  0.66306575823E+01 -0.60217039190E+02  0.28958848909E+03  0.46999998093E+01 0. -1.
       -5    1    3    3    0  502  0.28314191775E+03 -0.66306575823E+01 -0.62305621980E+03  0.68442271605E+03  0.46999998093E+01 0.  1.
</event>
<event>
 5   0  0.5899787E-02  0.7005220E+03  0.7818609E-02  0.9716340E-01
        2   -1    0    0  501    0  0.00000000000E+00  0.00000000000E+00  0.13485704152E+03  0.13485704154E+03  0.25500000920E-02 0.  1.
       -2   -1    0    0    0  501  0.00000000000E+00  0.00000000000E+00 -0.90972457420E+03  0.90972457421E+03  0.25500000920E-02 0. -1.
    10030    2    1    2    0    0  0.00000000000E+00  0.00000000000E+00 -0.77486753269E+03  0.10445816157E+04  0.70052199020E+03 0.  0.
        2    1    3    3  502    0  0.11307693907E+03 -0.52282729540E+02  0.10070444707E+03  0.16019133442E+03  0.25500000920E-02 0.  1.
       -2    1    3    3    0  502 -0.11307693907E+03  0.52282729540E+02 -0.87557197976E+03  0.88439028133E+03  0.25500000920E-02 0. -1.
</event>
<event>
 5   0  0.5987810E-02  0.7006841E+03  0.7818609E-02  0.9716063E-01
       -2   -1    0    0    0  501  0.00000000000E+00  0.00000000000E+00  0.44031270079E+02  0.44031270153E+02  0.25500000920E-02 0. -1.
        2   -1    0    0  501    0  0.00000000000E+00  0.00000000000E+00 -0.27875540729E+04  0.27875540729E+04  0.25500000920E-02 0.  1.
    10030    2    1    2    0    0  0.00000000000E+00  0.00000000000E+00 -0.27435228029E+04  0.28315853431E+04  0.70068408388E+03 0.  0.
        5    1    3    3  502    0  0.21517723596E+03  0.12875161952E+03 -0.38320736062E+03  0.45798274382E+03  0.46999998093E+01 0. -1.
       -5    1    3    3    0  502 -0.21517723596E+03 -0.12875161952E+03 -0.23603154422E+04  0.23736025993E+04  0.46999998093E+01 0.  1.
</event>
<event>
 5   0  0.3717372E-02  0.7818445E+03  0.7818609E-02  0.9586675E-01
       -1   -1    0    0    0  501  0.00000000000E+00  0.00000000000E+00  0.15683391579E+03  0.15683391587E+03  0.50400001928E-02 0.  1.
        1   -1    0    0  501    0  0.00000000000E+00  0.00000000000E+00 -0.97440778404E+03  0.97440778405E+03  0.50400001928E-02 0. -1.
    10030    2    1    2    0    0  0.00000000000E+00  0.00000000000E+00 -0.81757386825E+03  0.11312416999E+04  0.78184445614E+03 0.  0.
        3    1    3    3  502    0 -0.33392005811E+03 -0.14000598751E+02 -0.70219349147E+03  0.77767238066E+03  0.10100000352E+00 0. -1.
       -3    1    3    3    0  502  0.33392005811E+03  0.14000598751E+02 -0.11538037677E+03  0.35356931926E+03  0.10100000352E+00 0.  1.
</event>
<event>
 5   0  0.6131198E-02  0.5955302E+03  0.7818609E-02  0.9914723E-01
       -2   -1    0    0    0  501  0.00000000000E+00  0.00000000000E+00  0.11102368120E+03  0.11102368123E+03  0.25500000920E-02 0. -1.
        2   -1    0    0  501    0  0.00000000000E+00  0.00000000000E+00 -0.79860485557E+03  0.79860485558E+03  0.25500000920E-02 0.  1.
    10030    2    1    2    0    0  0.00000000000E+00  0.00000000000E+00 -0.68758117437E+03  0.90962853681E+03  0.59553018700E+03 0.  0.
        1    1    3    3  502    0  0.23487333571E+03 -0.33848334412E+02 -0.61852724913E+03  0.66248558589E+03  0.50400001928E-02 0.  1.
       -1    1    3    3    0  502 -0.23487333571E+03  0.33848334412E+02 -0.69053925238E+02  0.24714295091E+03  0.50400001928E-02 0. -1.
</event>
<event>
 5   0  0.3717372E-02  0.7312308E+03  0.7818609E-02  0.9665265E-01
        1   -1    0    0  501    0  0.00000000000E+00  0.00000000000E+00  0.22922854187E+03  0.22922854192E+03  0.50400001928E-02 0. -1.
       -1   -1    0    0    0  501  0.00000000000E+00  0.00000000000E+00 -0.58315001904E+03  0.58315001906E+03  0.50400001928E-02 0.  1.
    10030    2    1    2    0    0  0.00000000000E+00  0.00000000000E+00 -0.35392147717E+03  0.81237856098E+03  0.73123082152E+03 0.  0.
        3    1    3    3  502    0  0.17581531889E+03 -0.30133264048E+03 -0.55451283854E+02  0.35325237672E+03  0.10100000352E+00 0. -1.
       -3    1    3    3    0  502 -0.17581531889E+03  0.30133264048E+03 -0.29847019332E+03  0.45912618426E+03  0.10100000352E+00 0.  1.
</event>
<event>
 5   0  0.5899787E-02  0.7000285E+03  0.7818609E-02  0.9717183E-01
        2   -1    0    0  501    0  0.00000000000E+00  0.00000000000E+00  0.14406719888E+04  0.14406719888E+04  0.25500000920E-02 0. -1.
       -2   -1    0    0    0  501  0.00000000000E+00  0.00000000000E+00 -0.85036694272E+02  0.85036694311E+02  0.25500000920E-02 0.  1.
    10030    2    1    2    0    0  0.00000000000E+00  0.00000000000E+00  0.13556352945E+04  0.15257086831E+04  0.70002852367E+03 0.  0.
        2    1    3    3  502    0 -0.30453275622E+03  0.13757775382E+03  0.45087636849E+03  0.56121060006E+03  0.25500000920E-02 0.  1.
       -2    1    3    3    0  502  0.30453275622E+03 -0.13757775382E+03  0.90475892603E+03  0.96449808304E+03  0.25500000920E-02 0. -1.
</event>
<event>
 5   0  0.6248886E-02  0.7779202E+03  0.7818609E-02  0.9592538E-01
        2   -1    0    0  501    0  0.00000000000E+00  0.00000000000E+00  0.11674493869E+04  0.11674493869E+04  0.25500000920E-02 0. -1.
       -2   -1    0    0    0  501  0.00000000000E+00  0.00000000000E+00 -0.12959016280E+03  0.12959016283E+03  0.25500000920E-02 0.  1.
    10030    2    1    2    0    0  0.00000000000E+00  0.00000000000E+00  0.10378592241E+04  0.12970395497E+04  0.77792019160E+03 0.  0.
        3    1    3    3  502    0  0.20112474275E+03  0.24700666775E+03  0.89110557567E+03  0.94632584940E+03  0.10100000352E+00 0. -1.
       -3    1    3    3    0  502 -0.20112474275E+03 -0.24700666775E+03  0.14675364840E+03  0.35071370030E+03  0.10100000352E+00 0.  1.
</event>
<event>
 5   0  0.6131198E-02  0.8311693E+03  0.7818609E-02  0.9515965E-01
        2   -1    0    0  501    0  0.00000000000E+00  0.00000000000E+00  0.61596127002E+03  0.61596127003E+03  0.25500000920E-02 0.  1.
       -2   -1    0    0    0  501  0.00000000000E+00  0.00000000000E+00 -0.28039201455E+03  0.28039201456E+03  0.25500000920E-02 0. -1.
    10030    2    1    2    0    0  0.00000000000E+00  0.00000000000E+00  0.33556925547E+03  0.89635328459E+03  0.83116934832E+03 0.  0.
        1    1    3    3  502    0 -0.21747733851E+03 -0.22429881410E+03  0.46332853562E+03  0.55881990186E+03  0.50400001928E-02 0.  1.
       -1    1    3    3    0  502  0.21747733851E+03  0.22429881410E+03 -0.12775928015E+03  0.33753338273E+03  0.50400001928E-02 0. -1.
</event>
<event>
 5   0  0.5987810E-02  0.6971575E+03  0.7818609E-02  0.9722106E-01
        2   -1    0    0  501    0  0.00000000000E+00  0.00000000000E+00  0.85291126092E+03  0.85291126093E+03  0.25500000920E-02 0.  1.
       -2   -1    0    0    0  501  0.00000000000E+00  0.00000000000E+00 -0.14246166085E+03  0.14246166087E+03  0.25500000920E-02 0. -1.
    10030    2    1    2    0    0  0.00000000000E+00  0.00000000000E+00  0.71044960008E+03  0.99537292180E+03  0.69715752825E+03 0.  0.
        5    1    3    3  502    0  0.19441243668E+03 -0.32170708338E+02 -0.55250108359E+02  0.20470909722E+03  0.46999998093E+01 0. -1.
       -5    1    3    3    0  502 -0.19441243668E+03  0.32170708338E+02  0.76569970843E+03  0.79066382458E+03  0.46999998093E+01 0.  1.
</event>
<event>
 5   0  0.3749730E-02  0.7028836E+03  0.7818609E-02  0.9712314E-01
       -1   -1    0    0    0  501  0.00000000000E+00  0.00000000000E+00  0.19755966204E+03  0.19755966210E+03  0.50400001928E-02 0. -1.
        1   -1    0    0  501    0  0.00000000000E+00  0.00000000000E+00 -0.62518498312E+03  0.62518498314E+03  0.50400001928E-02 0.  1.
    10030    2    1    2    0    0  0.00000000000E+00  0.00000000000E+00 -0.42762532108E+03  0.82274464524E+03  0.70288358641E+03 0.  0.
        4    1    3    3  502    0  0.31238188425E+03 -0.16097612870E+03 -0.20943834770E+03  0.40909875336E+03  0.12699999809E+01 0. -1.
       -4    1    3    3    0  502 -0.31238188425E+03  0.16097612870E+03 -0.21818697338E+03  0.41364589188E+03  0.12699999809E+01 0.  1.
</event>
<event>
 5   0  0.3717372E-02  0.6949960E+03  0.7818609E-02  0.9725828E-01
       -1   -1    0    0    0  501  0.00000000000E+00  0.00000000000E+00  0.43461644086E+03  0.43461644089E+03  0.50400001928E-02 0.  1.
        1   -1    0    0  501    0  0.00000000000E+00  0.00000000000E+00 -0.27784235950E+03  0.27784235955E+03  0.50400001928E-02 0. -1.
    10030    2    1    2    0    0  0.00000000000E+00  0.00000000000E+00  0.15677408136E+03  0.71245880044E+03  0.69499599260E+03 0.  0.
        3    1    3    3  502    0  0.22626801525E+03 -0.22194934046E+03 -0.67657052218E+02  0.32409290546E+03  0.10100000352E+00 0. -1.
       -3    1    3    3    0  502 -0.22626801525E+03  0.22194934046E+03  0.22443113358E+03  0.38836589497E+03  0.10100000352E+00 0.  1.
</event>
<event>
 5   0  0.2439375E-02  0.6976495E+03  0.7818609E-02  0.9721260E-01
       -3   -1    0    0    0  501  0.00000000000E+00  0.00000000000E+00  0.56824573678E+02  0.56824663436E+02  0.10100000352E+00 0.  1.
        3   -1    0    0  501    0  0.00000000000E+00  0.00000000000E+00 -0.21413026511E+04  0.21413026534E+04  0.10100000352E+00 0. -1.
    10030    2    1    2    0    0  0.00000000000E+00  0.00000000000E+00 -0.20844780774E+04  0.21981273169E+04  0.69764951524E+03 0.  0.
        4    1    3    3  502    0 -0.20309122650E+00  0.33940330660E+03 -0.12959184551E+04  0.13396271500E+04  0.12699999809E+01 0. -1.
       -4    1    3    3    0  502  0.20309122650E+00 -0.33940330660E+03 -0.78855962229E+03  0.85850016691E+03  0.12699999809E+01 0.  1.
</event>
<event>
 5   0  0.6167756E-02  0.7049423E+03  0.7818609E-02  0.9708817E-01
       -2   -1    0    0    0  501  0.00000000000E+00  0.00000000000E+00  0.22761295951E+03  0.22761295952E+03  0.25500000920E-02 0.  1.
        2   -1    0    0  501    0  0.00000000000E+00  0.00000000000E+00 -0.54582083176E+03  0.54582083176E+03  0.25500000920E-02 0. -1.
    10030    2    1    2    0    0  0.00000000000E+00  0.00000000000E+00 -0.31820787225E+03  0.77343379129E+03  0.70494225263E+03 0.  0.
        4    1    3    3  502    0 -0.35879476773E+02  0.32321974402E+03 -0.99712301537E+01  0.32536038190E+03  0.12699999809E+01 0.  1.
       -4    1    3    3    0  502  0.35879476773E+02 -0.32321974402E+03 -0.30823664209E+03  0.44807340939E+03  0.12699999809E+01 0. -1.
</event>
<event>
 5   0  0.3749730E-02  0.6950318E+03  0.7818609E-02  0.9725766E-01
        1   -1    0    0  501    0  0.00000000000E+00  0.00000000000E+00  0.12576805791E+03  0.12576805801E+03  0.50400001928E-02 0. -1.
       -1   -1    0    0    0  501  0.00000000000E+00  0.00000000000E+00 -0.96023831872E+03  0.96023831873E+03  0.50400001928E-02 0.  1.
    10030    2    1    2    0    0  0.00000000000E+00  0.00000000000E+00 -0.83447026080E+03  0.10860063767E+04  0.69503182241E+03 0.  0.
        4    1    3    3  502    0 -0.33090628335E+03 -0.10508915405E+03 -0.44056848487E+03  0.56093217185E+03  0.12699999809E+01 0.  1.
       -4    1    3    3    0  502  0.33090628335E+03  0.10508915405E+03 -0.39390177593E+03  0.52507420489E+03  0.12699999809E+01 0. -1.
</event>
<event>
 5   0  0.2439375E-02  0.7037830E+03  0.7818609E-02  0.9710785E-01
       -3   -1    0    0    0  501  0.00000000000E+00  0.00000000000E+00  0.13273569713E+03  0.13273573555E+03  0.10100000352E+00 0.  1.
        3   -1    0    0  501    0  0.00000000000E+00  0.00000000000E+00 -0.93288845417E+03  0.93288845964E+03  0.10100000352E+00 0. -1.
    10030    2    1    2    0    0  0.00000000000E+00  0.00000000000E+00 -0.80015275704E+03  0.10656241952E+04  0.70378298556E+03 0.  0.
        4    1    3    3  502    0  0.12148105901E+03 -0.12390060855E+03 -0.86360280738E+03  0.88086345725E+03  0.12699999809E+01 0. -1.
       -4    1    3    3    0  502 -0.12148105901E+03  0.12390060855E+03  0.63450050339E+02  0.18476073794E+03  0.12699999809E+01 0.  1.
</event>
<event>
 5   0  0.3439015E-02  0.6984971E+03  0.7818609E-02  0.9719806E-01
       -1   -1    0    0    0  501  0.00000000000E+00  0.00000000000E+00  0.28772101073E+03  0.28772101077E+03  0.50400001928E-02 0.  1.
        1   -1    0    0  501    0  0.00000000000E+00  0.00000000000E+00 -0.42393345516E+03  0.42393345519E+03  0.50400001928E-02 0. -1.
    10030    2    1    2    0    0  0.00000000000E+00  0.00000000000E+00 -0.13621244443E+03  0.71165446596E+03  0.69849713594E+03 0.  0.
        1    1    3    3  502    0 -0.22968998265E+03  0.30296372825E+02  0.19815772756E+03  0.30486364715E+03  0.50400001928E-02 0.  1.
       -1    1    3    3    0  502  0.22968998265E+03 -0.30296372825E+02 -0.33437017199E+03  0.40679081882E+03  0.50400001928E-02 0. -1.
</event>
<event>
 5   0  0.6131198E-02  0.6893353E+03  0.7818609E-02  0.9735646E-01
       -2   -1    0    0    0  501  0.00000000000E+00  0.00000000000E+00  0.12609476604E+03  0.12609476607E+03  0.25500000920E-02 0.  1.
        2   -1    0    0  501    0  0.00000000000E+00  0.00000000000E+00 -0.94211515331E+03  0.94211515331E+03  0.25500000920E-02 0. -1.
    10030    2    1    2    0    0  0.00000000000E+00  0.00000000000E+00 -0.81602038727E+03  0.10682099194E+04  0.68933530261E+03 0.  0.
        1    1    3    3  502    0  0.27099239345E+03 -0.43242897568E+01 -0.78045202416E+02  0.28204012203E+03  0.50400001928E-02 0.  1.
       -1    1    3    3    0  502 -0.27099239345E+03  0.43242897568E+01 -0.73797518485E+03  0.78616979736E+03  0.50400001928E-02 0. -1.
</event>
<event>
 5   0  0.3601475E-02  0.6878902E+03  0.7818609E-02  0.9738169E-01
        1   -1    0    0  501    0  0.00000000000E+00  0.00000000000E+00  0.73592198760E+03  0.73592198761E+03  0.50400001928E-02 0. -1.
       -1   -1    0    0    0  501  0.00000000000E+00  0.00000000000E+00 -0.16074831789E+03  0.16074831797E+03  0.50400001928E-02 0.  1.
    10030    2    1    2    0    0  0.00000000000E+00  0.00000000000E+00  0.57517366970E+03  0.89667030558E+03  0.68789017044E+03 0.  0.
        5    1    3    3  502    0  0.22936896704E+03  0.23998668961E+02 -0.44973969351E+02  0.23501235514E+03  0.46999998093E+01 0.  1.
       -5    1    3    3    0  502 -0.22936896704E+03 -0.23998668961E+02  0.62014763906E+03  0.66165795044E+03  0.46999998093E+01 0. -1.
</event>
<event>
 5   0  0.6167756E-02  0.6951867E+03  0.7818609E-02  0.9725499E-01
       -2   -1    0    0    0  501  0.00000000000E+00  0.00000000000E+00  0.85273371083E+02  0.85273371121E+02  0.25500000920E-02 0.  1.
        2   -1    0    0  501    0  0.00000000000E+00  0.00000000000E+00 -0.14168684327E+04  0.14168684327E+04  0.25500000920E-02 0. -1.
    10030    2    1    2    0    0  0.00000000000E+00  0.00000000000E+00 -0.13315950616E+04  0.15021418038E+04  0.69518673079E+03 0.  0.
        4    1    3    3  502    0 -0.29830418856E+03  0.13789361425E+03 -0.42114768239E+03  0.53419754871E+03  0.12699999809E+01 0.  1.
       -4    1    3    3    0  502  0.29830418856E+03 -0.13789361425E+03 -0.91044737923E+03  0.96794425512E+03  0.12699999809E+01 0. -1.
</event>
<event>
 5   0  0.6131198E-02  0.6993264E+03  0.7818609E-02  0.9718385E-01
        2   -1    0    0  501    0  0.00000000000E+00  0.00000000000E+00  0.66942048745E+03  0.66942048745E+03  0.25500000920E-02 0.  1.
       -2   -1    0    0    0  501  0.00000000000E+00  0.00000000000E+00 -0.18264208533E+03  0.18264208535E+03  0.25500000920E-02 0. -1.
    10030    2    1    2    0    0  0.00000000000E+00  0.00000000000E+00  0.48677840211E+03  0.85206257280E+03  0.69932640105E+03 0.  0.
        1    1    3    3  502    0 -0.17951197067E+03 -0.45135015166E+02  0.60483185878E+03  0.63252137880E+03  0.50400001928E-02 0.  1.
       -1    1    3    3    0  502  0.17951197067E+03  0.45135015166E+02 -0.11805345667E+03  0.21954119401E+03  0.50400001928E-02 0. -1.
</event>
<event>
 5   0  0.6248886E-02  0.7029082E+03  0.7818609E-02  0.9712272E-01
       -2   -1    0    0    0  501  0.00000000000E+00  0.00000000000E+00  0.93842626679E+02  0.93842626714E+02  0.25500000920E-02 0.  1.
        2   -1    0    0  501    0  0.00000000000E+00  0.00000000000E+00 -0.13162461677E+04  0.13162461677E+04  0.25500000920E-02 0. -1.
    10030    2    1    2    0    0  0.00000000000E+00  0.00000000000E+00 -0.12224035411E+04  0.14100887945E+04  0.70290823800E+03 0.  0.
        3    1    3    3  502    0 -0.26625796130E+02  0.13123876693E+03  0.40657670056E+02  0.13994857377E+03  0.10100000352E+00 0.  1.
       -3    1    3    3    0  502  0.26625796130E+02 -0.13123876693E+03 -0.12630612111E+04  0.12701402207E+04  0.10100000352E+00 0. -1.
</event>
<event>
 5   0  0.5899787E-02  0.7031978E+03  0.7818609E-02  0.9711779E-01
       -2   -1    0    0    0  501  0.00000000000E+00  0.00000000000E+00  0.16935934108E+03  0.16935934110E+03  0.25500000920E-02 0. -1.
        2   -1    0    0  501    0  0.00000000000E+00  0.00000000000E+00 -0.72993778070E+03  0.72993778071E+03  0.25500000920E-02 0.  1.
    10030    2    1    2    0    0  0.00000000000E+00  0.00000000000E+00 -0.56057843962E+03  0.89929712180E+03  0.70319778605E+03 0.  0.
        2    1    3    3  502    0 -0.30679877949E+03  0.54575664445E+02 -0.48854369864E+03  0.57946435588E+03  0.25500000920E-02 0.  1.
       -2    1    3    3    0  502  0.30679877949E+03 -0.54575664445E+02 -0.72034740983E+02  0.31983276592E+03  0.25500000920E-02 0. -1.
</event>
<event>
 5   0  0.6131198E-02  0.6987292E+03  0.7818609E-02  0.9719408E-01
       -2   -1    0    0    0  501  0.00000000000E+00  0.00000000000E+00  0.14008464335E+03  0.14008464338E+03  0.25500000920E-02 0.  1.
        2   -1    0    0  501    0  0.00000000000E+00  0.00000000000E+00 -0.87129912808E+03  0.87129912808E+03  0.25500000920E-02 0. -1.
    10030    2    1    2    0    0  0.00000000000E+00  0.00000000000E+00 -0.73121448472E+03  0.10113837715E+04  0.69872921114E+03 0.  0.
        1    1    3    3  502    0 -0.26096065824E+03 -0.19601555054E+02 -0.70062800307E+03  0.74790660168E+03  0.50400001928E-02 0. -1.
       -1    1    3    3    0  502  0.26096065824E+03  0.19601555054E+02 -0.30586481647E+02  0.26347716978E+03  0.50400001928E-02 0.  1.
</event>
<event>
 5   0  0.5987810E-02  0.7080743E+03  0.7818609E-02  0.9703523E-01
       -2   -1    0    0    0  501  0.00000000000E+00  0.00000000000E+00  0.92067014826E+02  0.92067014861E+02  0.25500000920E-02 0.  1.
        2   -1    0    0  501    0  0.00000000000E+00  0.00000000000E+00 -0.13614246454E+04  0.13614246454E+04  0.25500000920E-02 0. -1.
    10030    2    1    2    0    0  0.00000000000E+00  0.00000000000E+00 -0.12693576306E+04  0.14534916603E+04  0.70807429847E+03 0.  0.
        5    1    3    3  502    0 -0.34121450044E+03 -0.93650999098E+02 -0.61197139385E+03  0.70691507398E+03  0.46999998093E+01 0. -1.
       -5    1    3    3    0  502  0.34121450044E+03  0.93650999098E+02 -0.65738623672E+03  0.74657658627E+03  0.46999998093E+01 0.  1.
</event>
<event>
 5   0  0.2439375E-02  0.7023439E+03  0.7818609E-02  0.9713232E-01
        3   -1    0    0  501    0  0.00000000000E+00  0.00000000000E+00  0.30679363038E+03  0.30679364701E+03  0.10100000352E+00 0. -1.
       -3   -1    0    0    0  501  0.00000000000E+00  0.00000000000E+00 -0.40196969743E+03  0.40196971012E+03  0.10100000352E+00 0.  1.
    10030    2    1    2    0    0  0.00000000000E+00  0.00000000000E+00 -0.95176067053E+02  0.70876335713E+03  0.70234394186E+03 0.  0.
        3    1    3    3  502    0  0.96333225795E+02 -0.24063139461E+03  0.19151252885E+03  0.32227413388E+03  0.10100000352E+00 0. -1.
       -3    1    3    3    0  502 -0.96333225795E+02  0.24063139461E+03 -0.28668859590E+03  0.38648922324E+03  0.10100000352E+00 0.  1.
</event>
<event>
 5   0  0.5899787E-02  0.7272305E+03  0.7818609E-02  0.9671765E-01
       -2   -1    0    0    0  501  0.00000000000E+00  0.00000000000E+00  0.93842960528E+02  0.93842960563E+02  0.25500000920E-02 0. -1.
        2   -1    0    0  501    0  0.00000000000E+00  0.00000000000E+00 -0.14089076046E+04  0.14089076046E+04  0.25500000920E-02 0.  1.
    10030    2    1    2    0    0  0.00000000000E+00  0.00000000000E+00 -0.13150646441E+04  0.15027505652E+04  0.72723052950E+03 0.  0.
        2    1    3    3  502    0  0.47068548850E+02 -0.15835850656E+03 -0.13268781375E+04  0.13371232018E+04  0.25500000920E-02 0.  1.
       -2    1    3    3    0  502 -0.47068548850E+02  0.15835850656E+03  0.11813493387E+02  0.16562736345E+03  0.25500000920E-02 0. -1.
</event>
<event>
 5   0  0.3717372E-02  0.7024322E+03  0.7818609E-02  0.9713082E-01
        1   -1    0    0  501    0  0.00000000000E+00  0.00000000000E+00  0.88426291389E+03  0.88426291391E+03  0.50400001928E-02 0.  1.
       -1   -1    0    0    0  501  0.00000000000E+00  0.00000000000E+00 -0.13949780787E+03  0.13949780796E+03  0.50400001928E-02 0. -1.
    10030    2    1    2    0    0  0.00000000000E+00  0.00000000000E+00  0.74476510602E+03  0.10237607219E+04  0.70243216932E+03 0.  0.
        3    1    3    3  502    0 -0.24418951979E+03  0.24008361941E+03  0.25870076721E+03  0.42917917359E+03  0.10100000352E+00 0. -1.
       -3    1    3    3    0  502  0.24418951979E+03 -0.24008361941E+03  0.48606433881E+03  0.59458154828E+03  0.10100000352E+00 0.  1.
</event>
<event>
 5   0  0.3439015E-02  0.6661403E+03  0.7818609E-02  0.9776956E-01
       -1   -1    0    0    0  501  0.00000000000E+00  0.00000000000E+00  0.79609637496E+02  0.79609637656E+02  0.50400001928E-02 0.  1.
        1   -1    0    0  501    0  0.00000000000E+00  0.00000000000E+00 -0.13934962486E+04  0.13934962487E+04  0.50400001928E-02 0. -1.
    10030    2    1    2    0    0  0.00000000000E+00  0.00000000000E+00 -0.13138866111E+04  0.14731058863E+04  0.66614031955E+03 0.  0.
        1    1    3    3  502    0 -0.20321026662E+03  0.60151070088E+02 -0.88723427977E+02  0.22974858082E+03  0.50400001928E-02 0.  1.
       -1    1    3    3    0  502  0.20321026662E+03 -0.60151070088E+02 -0.12251631832E+04  0.12433573055E+04  0.50400001928E-02 0. -1.
</event>
<event>
 5   0  0.5899787E-02  0.6964990E+03  0.7818609E-02  0.9723238E-01
       -2   -1    0    0    0  501  0.00000000000E+00  0.00000000000E+00  0.56967987224E+02  0.56967987281E+02  0.25500000920E-02 0.  1.
        2   -1    0    0  501    0  0.00000000000E+00  0.00000000000E+00 -0.21288749684E+04  0.21288749684E+04  0.25500000920E-02 0. -1.
    10030    2    1    2    0    0  0.00000000000E+00  0.00000000000E+00 -0.20719069812E+04  0.21858429557E+04  0.69649902245E+03 0.  0.
        2    1    3    3  502    0  0.17560920293E+03  0.12020467237E+03 -0.17083305263E+03  0.27289501149E+03  0.25500000920E-02 0.  1.
       -2    1    3    3    0  502 -0.17560920293E+03 -0.12020467237E+03 -0.19010739286E+04  0.19129479442E+04  0.25500000920E-02 0. -1.
</event>
<event>
 5   0  0.5987810E-02  0.7040546E+03  0.7818609E-02  0.9710323E-01
       -2   -1    0    0    0  501  0.00000000000E+00  0.00000000000E+00  0.21795067937E+03  0.21795067939E+03  0.25500000920E-02 0.  1.
        2   -1    0    0  501    0  0.00000000000E+00  0.00000000000E+00 -0.56858381778E+03  0.56858381778E+03  0.25500000920E-02 0. -1.
    10030    2    1    2    0    0  0.00000000000E+00  0.00000000000E+00 -0.35063313841E+03  0.78653449717E+03  0.70405462678E+03 0.  0.
        5    1    3    3  502    0 -0.32311949717E+03 -0.35149261128E+02 -0.24358832494E+02  0.32597104584E+03  0.46999998093E+01 0.  1.
       -5    1    3    3    0  502  0.32311949717E+03  0.35149261128E+02 -0.32627430591E+03  0.46056345133E+03  0.46999998093E+01 0. -1.
</event>
<event>
 5   0  0.5987810E-02  0.7096130E+03  0.7818609E-02  0.9700932E-01
       -2   -1    0    0    0  501  0.00000000000E+00  0.00000000000E+00  0.14852595905E+03  0.14852595907E+03  0.25500000920E-02 0.  1.
        2   -1    0    0  501    0  0.00000000000E+00  0.00000000000E+00 -0.84758013721E+03  0.84758013721E+03  0.25500000920E-02 0. -1.
    10030    2    1    2    0    0  0.00000000000E+00  0.00000000000E+00 -0.69905417816E+03  0.99610609628E+03  0.70961300090E+03 0.  0.
        5    1    3    3  502    0  0.15697898856E+03  0.23610594158E+03 -0.50176148489E+02  0.28797248892E+03  0.46999998093E+01 0.  1.
       -5    1    3    3    0  502 -0.15697898856E+03 -0.23610594158E+03 -0.64887802967E+03  0.70813360737E+03  0.46999998093E+01 0. -1.
</event>
<event>
 5   0  0.3749730E-02  0.7024389E+03  0.7818609E-02  0.9713070E-01
        1   -1    0    0  501    0  0.00000000000E+00  0.00000000000E+00  0.58826696767E+03  0.58826696770E+03  0.50400001928E-02 0.  1.
       -1   -1    0    0    0  501  0.00000000000E+00  0.00000000000E+00 -0.20969240115E+03  0.20969240121E+03  0.50400001928E-02 0. -1.
    10030    2    1    2    0    0  0.00000000000E+00  0.00000000000E+00  0.37857456653E+03  0.79795936890E+03  0.70243893115E+03 0.  0.
        4    1    3    3  502    0  0.25171869534E+03  0.17745578992E+02  0.46679375985E+03  0.53063663113E+03  0.12699999809E+01 0.  1.
       -4    1    3    3    0  502 -0.25171869534E+03 -0.17745578992E+02 -0.88219193327E+02  0.26732273777E+03  0.12699999809E+01 0. -1.
</event>
<event>
 5   0  0.3601475E-02  0.5029915E+03  0.7818609E-02  0.1013001E+00
        1   -1    0    0  501    0  0.00000000000E+00  0.00000000000E+00  0.11253657455E+03  0.11253657466E+03  0.50400001928E-02 0.  1.
       -1   -1    0    0    0  501  0.00000000000E+00  0.00000000000E+00 -0.56204040386E+03  0.56204040388E+03  0.50400001928E-02 0. -1.
    10030    2    1    2    0    0  0.00000000000E+00  0.00000000000E+00 -0.44950382931E+03  0.67457697854E+03  0.50299145859E+03 0.  0.
        5    1    3    3  502    0 -0.31810728960E+02 -0.23867586371E+03 -0.12757853475E+03  0.27253708541E+03  0.46999998093E+01 0. -1.
       -5    1    3    3    0  502  0.31810728960E+02  0.23867586371E+03 -0.32192529456E+03  0.40203989313E+03  0.46999998093E+01 0.  1.
</event>
<event>
 5   0  0.6131198E-02  0.7317406E+03  0.7818609E-02  0.9664440E-01
       -2   -1    0    0    0  501  0.00000000000E+00  0.00000000000E+00  0.37773102847E+03  0.37773102848E+03  0.25500000920E-02 0. -1.
        2   -1    0    0  501    0  0.00000000000E+00  0.00000000000E+00 -0.35438199914E+03  0.35438199915E+03  0.25500000920E-02 0.  1.
    10030    2    1    2    0    0  0.00000000000E+00  0.00000000000E+00  0.23349029327E+02  0.73211302763E+03  0.73174060161E+03 0.  0.
        1    1    3    3  502    0 -0.15360147791E+02  0.36423357625E+03 -0.19309695076E+02  0.36506834505E+03  0.50400001928E-02 0. -1.
       -1    1    3    3    0  502  0.15360147791E+02 -0.36423357625E+03  0.42658724403E+02  0.36704468257E+03  0.50400001928E-02 0.  1.
</event>
<event>
 5   0  0.6167756E-02  0.7082812E+03  0.7818609E-02  0.9703174E-01
       -2   -1    0    0    0  501  0.00000000000E+00  0.00000000000E+00  0.72642343474E+03  0.72642343475E+03  0.25500000920E-02 0. -1.
        2   -1    0    0  501    0  0.00000000000E+00  0.00000000000E+00 -0.17264800635E+03  0.17264800637E+03  0.25500000920E-02 0.  1.
    10030    2    1    2    0    0  0.00000000000E+00  0.00000000000E+00  0.55377542839E+03  0.89907144111E+03  0.70828118084E+03 0.  0.
        4    1    3    3  502    0  0.15434429733E+03  0.87983993842E+01 -0.12755057420E+03  0.20042538719E+03  0.12699999809E+01 0.  1.
       -4    1    3    3    0  502 -0.15434429733E+03 -0.87983993842E+01  0.68132600260E+03  0.69864605392E+03  0.12699999809E+01 0. -1.
</event>
<event>
 5   0  0.5899787E-02  0.7016268E+03  0.7818609E-02  0.9714454E-01
        2   -1    0    0  501    0  0.00000000000E+00  0.00000000000E+00  0.25761859649E+03  0.25761859650E+03  0.25500000920E-02 0. -1.
       -2   -1    0    0    0  501  0.00000000000E+00  0.00000000000E+00 -0.47772185737E+03  0.47772185738E+03  0.25500000920E-02 0.  1.
    10030    2    1    2    0    0  0.00000000000E+00  0.00000000000E+00 -0.22010326088E+03  0.73534045388E+03  0.70162677946E+03 0.  0.
        2    1    3    3  502    0 -0.45135020132E+02  0.20969911249E+03 -0.40098557792E+03  0.45475303355E+03  0.25500000920E-02 0.  1.
       -2    1    3    3    0  502  0.45135020132E+02 -0.20969911249E+03  0.18088231704E+03  0.28058742032E+03  0.25500000920E-02 0. -1.
</event>
<event>
 5   0  0.5899787E-02  0.6987526E+03  0.7818609E-02  0.9719368E-01
        2   -1    0    0  501    0  0.00000000000E+00  0.00000000000E+00  0.14747076457E+04  0.14747076457E+04  0.25500000920E-02 0. -1.
       -2   -1    0    0    0  501  0.00000000000E+00  0.00000000000E+00 -0.82771513212E+02  0.82771513252E+02  0.25500000920E-02 0.  1.
    10030    2    1    2    0    0  0.00000000000E+00  0.00000000000E+00  0.13919361325E+04  0.15574791589E+04  0.69875255538E+03 0.  0.
        2    1    3    3  502    0 -0.13777719593E+03 -0.82565918192E+01 -0.19425403041E+02  0.13938462367E+03  0.25500000920E-02 0.  1.
       -2    1    3    3    0  502  0.13777719593E+03  0.82565918192E+01  0.14113615355E+04  0.14180945353E+04  0.25500000920E-02 0. -1.
</event>
<event>
 5   0  0.2439375E-02  0.6946348E+03  0.7818609E-02  0.9726452E-01
       -4   -1    0    0    0  501  0.00000000000E+00  0.00000000000E+00  0.12544151808E+04  0.12544158237E+04  0.12699999809E+01 0.  1.
        4   -1    0    0  501    0  0.00000000000E+00  0.00000000000E+00 -0.96158966631E+02  0.96167352899E+02  0.12699999809E+01 0. -1.
    10030    2    1    2    0    0  0.00000000000E+00  0.00000000000E+00  0.11582562141E+04  0.13505831766E+04  0.69463476677E+03 0.  0.
        4    1    3    3  502    0 -0.20863004189E+03  0.25798512309E+03  0.37947009255E+03  0.50406545424E+03  0.12699999809E+01 0. -1.
       -4    1    3    3    0  502  0.20863004189E+03 -0.25798512309E+03  0.77878612159E+03  0.84651772232E+03  0.12699999809E+01 0.  1.
</event>
<event>
 5   0  0.3439015E-02  0.6930159E+03  0.7818609E-02  0.9729251E-01
        1   -1    0    0  501    0  0.00000000000E+00  0.00000000000E+00  0.49316137602E+03  0.49316137605E+03  0.50400001928E-02 0. -1.
       -1   -1    0    0    0  501  0.00000000000E+00  0.00000000000E+00 -0.24346543434E+03  0.24346543439E+03  0.50400001928E-02 0.  1.
    10030    2    1    2    0    0  0.00000000000E+00  0.00000000000E+00  0.24969594168E+03  0.73662681044E+03  0.69301586891E+03 0.  0.
        1    1    3    3  502    0  0.32611628993E+02  0.97996813976E+02 -0.22672436923E+03  0.24914018850E+03  0.50400001928E-02 0.  1.
       -1    1    3    3    0  502 -0.32611628993E+02 -0.97996813976E+02  0.47642031091E+03  0.48748662194E+03  0.50400001928E-02 0. -1.
</event>
<event>
 5   0  0.5987810E-02  0.9329513E+03  0.7818609E-02  0.9385303E-01
       -2   -1    0    0    0  501  0.00000000000E+00  0.00000000000E+00  0.67050653467E+03  0.67050653468E+03  0.25500000920E-02 0.  1.
        2   -1    0    0  501    0  0.00000000000E+00  0.00000000000E+00 -0.32453006300E+03  0.32453006301E+03  0.25500000920E-02 0. -1.
    10030    2    1    2    0    0  0.00000000000E+00  0.00000000000E+00  0.34597647167E+03  0.99503659769E+03  0.93295129122E+03 0.  0.
        5    1    3    3  502    0  0.41905311425E+03  0.14096120908E+03  0.14427911730E+02  0.44238651614E+03  0.46999998093E+01 0. -1.
       -5    1    3    3    0  502 -0.41905311425E+03 -0.14096120908E+03  0.33154855994E+03  0.55265008154E+03  0.46999998093E+01 0.  1.
</event>
<event>
 5   0  0.6131198E-02  0.6811026E+03  0.7818609E-02  0.9750106E-01
        2   -1    0    0  501    0  0.00000000000E+00  0.00000000000E+00  0.38865808569E+03  0.38865808570E+03  0.25500000920E-02 0.  1.
       -2   -1    0    0    0  501  0.00000000000E+00  0.00000000000E+00 -0.29839896688E+03  0.29839896689E+03  0.25500000920E-02 0. -1.
    10030    2    1    2    0    0  0.00000000000E+00  0.00000000000E+00  0.90259118812E+02  0.68705705260E+03  0.68110255101E+03 0.  0.
        1    1    3    3  502    0 -0.29639605790E+03 -0.13531797180E+03 -0.54800087200E+02  0.33040070553E+03  0.50400001928E-02 0. -1.
       -1    1    3    3    0  502  0.29639605790E+03  0.13531797180E+03  0.14505920601E+03  0.35665634707E+03  0.50400001928E-02 0.  1.
</event>
<event>
 5   0  0.3749730E-02  0.7069740E+03  0.7818609E-02  0.9705380E-01
        1   -1    0    0  501    0  0.00000000000E+00  0.00000000000E+00  0.24463752871E+03  0.24463752876E+03  0.50400001928E-02 0. -1.
       -1   -1    0    0    0  501  0.00000000000E+00  0.00000000000E+00 -0.51076810998E+03  0.51076811001E+03  0.50400001928E-02 0.  1.
    10030    2    1    2    0    0  0.00000000000E+00  0.00000000000E+00 -0.26613058127E+03  0.75540563877E+03  0.70697396897E+03 0.  0.
        4    1    3    3  502    0  0.39263821797E+02 -0.24999388776E+03 -0.39677810676E+03  0.47060925461E+03  0.12699999809E+01 0.  1.
       -4    1    3    3    0  502 -0.39263821797E+02  0.24999388776E+03  0.13064752549E+03  0.28479638417E+03  0.12699999809E+01 0. -1.
</event>
<event>
 5   0  0.3717372E-02  0.6815289E+03  0.7818609E-02  0.9749352E-01
        1   -1    0    0  501    0  0.00000000000E+00  0.00000000000E+00  0.77281374334E+03  0.77281374336E+03  0.50400001928E-02 0.  1.
       -1   -1    0    0    0  501  0.00000000000E+00  0.00000000000E+00 -0.15025664485E+03  0.15025664493E+03  0.50400001928E-02 0. -1.
    10030    2    1    2    0    0  0.00000000000E+00  0.00000000000E+00  0.62255709850E+03  0.92307038829E+03  0.68152887015E+03 0.  0.
        3    1    3    3  502    0 -0.16060469764E+03  0.26451222042E+03  0.11802059272E+03  0.33119398268E+03  0.10100000352E+00 0.  1.
       -3    1    3    3    0  502  0.16060469764E+03 -0.26451222042E+03  0.50453650578E+03  0.59187640561E+03  0.10100000352E+00 0. -1.
</event>
<event>
 5   0  0.5987810E-02  0.7012638E+03  0.7818609E-02  0.9715073E-01
        2   -1    0    0  501    0  0.00000000000E+00  0.00000000000E+00  0.62016699776E+03  0.62016699776E+03  0.25500000920E-02 0.  1.
       -2   -1    0    0    0  501  0.00000000000E+00  0.00000000000E+00 -0.19824131434E+03  0.19824131436E+03  0.25500000920E-02 0. -1.
    10030    2    1    2    0    0  0.00000000000E+00  0.00000000000E+00  0.42192568342E+03  0.81840831212E+03  0.70126377564E+03 0.  0.
        5    1    3    3  502    0  0.24035667346E+03 -0.21642398842E+03  0.53044602021E+02  0.32779031871E+03  0.46999998093E+01 0.  1.
       -5    1    3    3    0  502 -0.24035667346E+03  0.21642398842E+03  0.36888108140E+03  0.49061799340E+03  0.46999998093E+01 0. -1.
</event>
<event>
 5   0  0.5987810E-02  0.6881681E+03  0.7818609E-02  0.9737683E-01
        2   -1    0    0  501    0  0.00000000000E+00  0.00000000000E+00  0.55430967016E+03  0.55430967017E+03  0.25500000920E-02 0.  1.
       -2   -1    0    0    0  501  0.00000000000E+00  0.00000000000E+00 -0.21358788660E+03  0.21358788661E+03  0.25500000920E-02 0. -1.
    10030    2    1    2    0    0  0.00000000000E+00  0.00000000000E+00  0.34072178357E+03  0.76789755678E+03  0.68816809277E+03 0.  0.
        5    1    3    3  502    0 -0.26044952202E+02 -0.23185453638E+03  0.45251375227E+03  0.50914207405E+03  0.46999998093E+01 0.  1.
       -5    1    3    3    0  502  0.26044952202E+02  0.23185453638E+03 -0.11179196870E+03  0.25875548273E+03  0.46999998093E+01 0. -1.
</event>
<event>
 5   0  0.5899787E-02  0.6988067E+03  0.7818609E-02  0.9719275E-01
        2   -1    0    0  501    0  0.00000000000E+00  0.00000000000E+00  0.93045464502E+03  0.93045464502E+03  0.25500000920E-02 0. -1.
       -2   -1    0    0    0  501  0.00000000000E+00  0.00000000000E+00 -0.13120759277E+03  0.13120759279E+03  0.25500000920E-02 0.  1.
    10030    2    1    2    0    0  0.00000000000E+00  0.00000000000E+00  0.79924705225E+03  0.10616622378E+04  0.69880673771E+03 0.  0.
        2    1    3    3  502    0 -0.10698979530E+03  0.22910692918E+03  0.33279694753E+02  0.25503791755E+03  0.25500000920E-02 0.  1.
       -2    1    3    3    0  502  0.10698979530E+03 -0.22910692918E+03  0.76596735750E+03  0.80662432027E+03  0.25500000920E-02 0. -1.
</event>
<event>
 5   0  0.6167756E-02  0.6835773E+03  0.7818609E-02  0.9745737E-01
       -2   -1    0    0    0  501  0.00000000000E+00  0.00000000000E+00  0.68641957697E+03  0.68641957697E+03  0.25500000920E-02 0.  1.
        2   -1    0    0  501    0  0.00000000000E+00  0.00000000000E+00 -0.17018672258E+03  0.17018672259E+03  0.25500000920E-02 0. -1.
    10030    2    1    2    0    0  0.00000000000E+00  0.00000000000E+00  0.51623285439E+03  0.85660629957E+03  0.68357734932E+03 0.  0.
        4    1    3    3  502    0 -0.50553265903E+02  0.45805712817E+02  0.67779859571E+03  0.68122415199E+03  0.12699999809E+01 0.  1.
       -4    1    3    3    0  502  0.50553265903E+02 -0.45805712817E+02 -0.16156574131E+03  0.17538214757E+03  0.12699999809E+01 0. -1.
</event>
<event>
 5   0  0.3439015E-02  0.7113896E+03  0.7818609E-02  0.9697950E-01
       -1   -1    0    0    0  501  0.00000000000E+00  0.00000000000E+00  0.21371206625E+03  0.21371206631E+03  0.50400001928E-02 0. -1.
        1   -1    0    0  501    0  0.00000000000E+00  0.00000000000E+00 -0.59200578351E+03  0.59200578354E+03  0.50400001928E-02 0.  1.
    10030    2    1    2    0    0  0.00000000000E+00  0.00000000000E+00 -0.37829371726E+03  0.80571784985E+03  0.71138956771E+03 0.  0.
        1    1    3    3  502    0  0.47050273470E+02 -0.25500821306E+03 -0.46489616784E+03  0.53232636968E+03  0.50400001928E-02 0.  1.
       -1    1    3    3    0  502 -0.47050273470E+02  0.25500821306E+03  0.86602450576E+02  0.27339148017E+03  0.50400001928E-02 0. -1.
</event>
<event>
 5   0  0.3439015E-02  0.7191499E+03  0.7818609E-02  0.9685032E-01
       -1   -1    0    0    0  501  0.00000000000E+00  0.00000000000E+00  0.15075659517E+03  0.15075659525E+03  0.50400001928E-02 0. -1.
        1   -1    0    0  501    0  0.00000000000E+00  0.00000000000E+00 -0.85763515007E+03  0.85763515009E+03  0.50400001928E-02 0.  1.
    10030    2    1    2    0    0  0.00000000000E+00  0.00000000000E+00 -0.70687855490E+03  0.10083917453E+04  0.71914992921E+03 0.  0.
        1    1    3    3  502    0 -0.15033457120E+02 -0.32099265805E+03 -0.12720288265E+03  0.34560507047E+03  0.50400001928E-02 0. -1.
       -1    1    3    3    0  502  0.15033457120E+02  0.32099265805E+03 -0.57967567225E+03  0.66278667487E+03  0.50400001928E-02 0.  1.
</event>
<event>
 5   0  0.3717372E-02  0.7117478E+03  0.7818609E-02  0.9697350E-01
       -1   -1    0    0    0  501  0.00000000000E+00  0.00000000000E+00  0.10108014523E+03  0.10108014535E+03  0.50400001928E-02 0.  1.
        1   -1    0    0  501    0  0.00000000000E+00  0.00000000000E+00 -0.12529288350E+04  0.12529288350E+04  0.50400001928E-02 0. -1.
    10030    2    1    2    0    0  0.00000000000E+00  0.00000000000E+00 -0.11518486898E+04  0.13540089803E+04  0.71174778873E+03 0.  0.
        3    1    3    3  502    0  0.12902362328E+03 -0.27720383627E+03 -0.22951942113E+03  0.38231954839E+03  0.10100000352E+00 0. -1.
       -3    1    3    3    0  502 -0.12902362328E+03  0.27720383627E+03 -0.92232926862E+03  0.97168943195E+03  0.10100000352E+00 0.  1.
</event>
<event>
 5   0  0.6131198E-02  0.6967549E+03  0.7818609E-02  0.9722798E-01
        2   -1    0    0  501    0  0.00000000000E+00  0.00000000000E+00  0.11040360448E+04  0.11040360448E+04  0.25500000920E-02 0.  1.
       -2   -1    0    0    0  501  0.00000000000E+00  0.00000000000E+00 -0.10993013867E+03  0.10993013870E+03  0.25500000920E-02 0. -1.
    10030    2    1    2    0    0  0.00000000000E+00  0.00000000000E+00  0.99410590611E+03  0.12139661835E+04  0.69675486513E+03 0.  0.
        1    1    3    3  502    0  0.32706755521E+03 -0.55304440551E+02  0.31155519835E+03  0.45508066148E+03  0.50400001928E-02 0.  1.
       -1    1    3    3    0  502 -0.32706755521E+03  0.55304440551E+02  0.68255070776E+03  0.75888552200E+03  0.50400001928E-02 0. -1.
</event>
<event>
 5   0  0.3601475E-02  0.7273579E+03  0.7818609E-02  0.9671557E-01
       -1   -1    0    0    0  501  0.00000000000E+00  0.00000000000E+00  0.26186338931E+03  0.26186338936E+03  0.50400001928E-02 0. -1.
        1   -1    0    0  501    0  0.00000000000E+00  0.00000000000E+00 -0.50508164027E+03  0.50508164030E+03  0.50400001928E-02 0.  1.
    10030    2    1    2    0    0  0.00000000000E+00  0.00000000000E+00 -0.24321825096E+03  0.76694502965E+03  0.72735793177E+03 0.  0.
        5    1    3    3  502    0 -0.36012307085E+03  0.47192510929E+02 -0.10261362107E+03  0.37744854547E+03  0.46999998093E+01 0.  1.
       -5    1    3    3    0  502  0.36012307085E+03 -0.47192510929E+02 -0.14060462989E+03  0.38949648419E+03  0.46999998093E+01 0. -1.
</event>
<event>
 5   0  0.5899787E-02  0.7001193E+03  0.7818609E-02  0.9717028E-01
        2   -1    0    0  501    0  0.00000000000E+00  0.00000000000E+00  0.68218547795E+03  0.68218547796E+03  0.25500000920E-02 0.  1.
       -2   -1    0    0    0  501  0.00000000000E+00  0.00000000000E+00 -0.17963115542E+03  0.17963115544E+03  0.25500000920E-02 0. -1.
    10030    2    1    2    0    0  0.00000000000E+00  0.00000000000E+00  0.50255432254E+03  0.86181663339E+03  0.70011932018E+03 0.  0.
        2    1    3    3  502    0 -0.17138558796E+03  0.10381337193E+03  0.60461007309E+03  0.63694864506E+03  0.25500000920E-02 0.  1.
       -2    1    3    3    0  502  0.17138558796E+03 -0.10381337193E+03 -0.10205575055E+03  0.22486798834E+03  0.25500000920E-02 0. -1.
</event>
<event>
 5   0  0.3749730E-02  0.6981899E+03  0.7818609E-02  0.9720333E-01
        1   -1    0    0  501    0  0.00000000000E+00  0.00000000000E+00  0.67265218264E+03  0.67265218266E+03  0.50400001928E-02 0. -1.
       -1   -1    0    0    0  501  0.00000000000E+00  0.00000000000E+00 -0.18117431904E+03  0.18117431911E+03  0.50400001928E-02 0.  1.
    10030    2    1    2    0    0  0.00000000000E+00  0.00000000000E+00  0.49147786361E+03  0.85382650177E+03  0.69818994887E+03 0.  0.
        4    1    3    3  502    0 -0.32169035622E+03 -0.42725382652E+02  0.40308930415E+03  0.51748695020E+03  0.12699999809E+01 0. -1.
       -4    1    3    3    0  502  0.32169035622E+03  0.42725382652E+02  0.88388559459E+02  0.33633955157E+03  0.12699999809E+01 0.  1.
</event>
<event>
 5   0  0.3601475E-02  0.6664408E+03  0.7818609E-02  0.9776409E-01
       -1   -1    0    0    0  501  0.00000000000E+00  0.00000000000E+00  0.47730585016E+03  0.47730585019E+03  0.50400001928E-02 0. -1.
        1   -1    0    0  501    0  0.00000000000E+00  0.00000000000E+00 -0.23263036703E+03  0.23263036709E+03  0.50400001928E-02 0.  1.
    10030    2    1    2    0    0  0.00000000000E+00  0.00000000000E+00  0.24467548313E+03  0.70993621728E+03  0.66644080049E+03 0.  0.
        5    1    3    3  502    0 -0.24190714283E+03 -0.15776446600E+03  0.29932909276E+03  0.41596717209E+03  0.46999998093E+01 0. -1.
       -5    1    3    3    0  502  0.24190714283E+03  0.15776446600E+03 -0.54653609632E+02  0.29396904519E+03  0.46999998093E+01 0.  1.
</event>
<event>
 5   0  0.6131198E-02  0.7200830E+03  0.7818609E-02  0.9683491E-01
        2   -1    0    0  501    0  0.00000000000E+00  0.00000000000E+00  0.58528720740E+03  0.58528720740E+03  0.25500000920E-02 0. -1.
       -2   -1    0    0    0  501  0.00000000000E+00  0.00000000000E+00 -0.22148079229E+03  0.22148079230E+03  0.25500000920E-02 0.  1.
    10030    2    1    2    0    0  0.00000000000E+00  0.00000000000E+00  0.36380641511E+03  0.80676799971E+03  0.72008297972E+03 0.  0.
        1    1    3    3  502    0 -0.71404751398E+01 -0.16156368645E+03 -0.17849785824E+03  0.24086364729E+03  0.50400001928E-02 0.  1.
       -1    1    3    3    0  502  0.71404751398E+01  0.16156368645E+03  0.54230427335E+03  0.56590435242E+03  0.50400001928E-02 0. -1.
</event>
<event>
 5   0  0.3717372E-02  0.6895016E+03  0.7818609E-02  0.9735356E-01
       -1   -1    0    0    0  501  0.00000000000E+00  0.00000000000E+00  0.40618193181E+02  0.40618193494E+02  0.50400001928E-02 0. -1.
        1   -1    0    0  501    0  0.00000000000E+00  0.00000000000E+00 -0.29261049990E+04  0.29261049990E+04  0.50400001928E-02 0.  1.
    10030    2    1    2    0    0  0.00000000000E+00  0.00000000000E+00 -0.28854868058E+04  0.29667231925E+04  0.68950155500E+03 0.  0.
        3    1    3    3  502    0  0.22409109772E+03  0.19695623201E+03 -0.21860603086E+04  0.22063246045E+04  0.10100000352E+00 0.  1.
       -3    1    3    3    0  502 -0.22409109772E+03 -0.19695623201E+03 -0.69942649717E+03  0.76039858794E+03  0.10100000352E+00 0. -1.
</event>
<event>
 5   0  0.5899787E-02  0.5745323E+03  0.7818609E-02  0.9959699E-01
       -2   -1    0    0    0  501  0.00000000000E+00  0.00000000000E+00  0.29891152414E+02  0.29891152523E+02  0.25500000920E-02 0. -1.
        2   -1    0    0  501    0  0.00000000000E+00  0.00000000000E+00 -0.27607448394E+04  0.27607448394E+04  0.25500000920E-02 0.  1.
    10030    2    1    2    0    0  0.00000000000E+00  0.00000000000E+00 -0.27308536870E+04  0.27906359920E+04  0.57453231389E+03 0.  0.
        2    1    3    3  502    0 -0.13271775040E+03  0.24432789160E+03 -0.17160813934E+04  0.17384606606E+04  0.25500000920E-02 0.  1.
       -2    1    3    3    0  502  0.13271775040E+03 -0.24432789160E+03 -0.10147722936E+04  0.10521753313E+04  0.25500000920E-02 0. -1.
</event>
<event>
 5   0  0.5899787E-02  0.7626400E+03  0.7818609E-02  0.9615726E-01
       -2   -1    0    0    0  501  0.00000000000E+00  0.00000000000E+00  0.33720446390E+03  0.33720446391E+03  0.25500000920E-02 0.  1.
        2   -1    0    0  501    0  0.00000000000E+00  0.00000000000E+00 -0.43120706157E+03  0.43120706158E+03  0.25500000920E-02 0. -1.
    10030    2    1    2    0    0  0.00000000000E+00  0.00000000000E+00 -0.94002597676E+02  0.76841152549E+03  0.76264000953E+03 0.  0.
        2    1    3    3  502    0 -0.22138924950E+03  0.28800176190E+03  0.69836307064E+02  0.36991259028E+03  0.25500000920E-02 0.  1.
       -2    1    3    3    0  502  0.22138924950E+03 -0.28800176190E+03 -0.16383890474E+03  0.39849893521E+03  0.25500000920E-02 0. -1.
</event>
<event>
 5   0  0.6167756E-02  0.7072436E+03  0.7818609E-02  0.9704924E-01
        2   -1    0    0  501    0  0.00000000000E+00  0.00000000000E+00  0.32163402949E+03  0.32163402950E+03  0.25500000920E-02 0.  1.
       -2   -1    0    0    0  501  0.00000000000E+00  0.00000000000E+00 -0.38879090379E+03  0.38879090380E+03  0.25500000920E-02 0. -1.
    10030    2    1    2    0    0  0.00000000000E+00  0.00000000000E+00 -0.67156874298E+02  0.71042493330E+03  0.70724362146E+03 0.  0.
        4    1    3    3  502    0  0.34872225396E+02  0.31232238170E+03 -0.19643553755E+03  0.37060744127E+03  0.12699999809E+01 0. -1.
       -4    1    3    3    0  502 -0.34872225396E+02 -0.31232238170E+03  0.12927866326E+03  0.33981749203E+03  0.12699999809E+01 0.  1.
</event>
<event>
 5   0  0.6248886E-02  0.7093982E+03  0.7818609E-02  0.9701294E-01
       -2   -1    0    0    0  501  0.00000000000E+00  0.00000000000E+00  0.18704176871E+03  0.18704176873E+03  0.25500000920E-02 0.  1.
        2   -1    0    0  501    0  0.00000000000E+00  0.00000000000E+00 -0.67263833917E+03  0.67263833918E+03  0.25500000920E-02 0. -1.
    10030    2    1    2    0    0  0.00000000000E+00  0.00000000000E+00 -0.48559657046E+03  0.85968010791E+03  0.70939823702E+03 0.  0.
        3    1    3    3  502    0  0.15019398785E+02  0.31660770399E+03 -0.49869673962E+02  0.32086292268E+03  0.10100000352E+00 0.  1.
       -3    1    3    3    0  502 -0.15019398785E+02 -0.31660770399E+03 -0.43572689650E+03  0.53881718523E+03  0.10100000352E+00 0. -1.
</event>
<event>
 5   0  0.6131198E-02  0.7007389E+03  0.7818609E-02  0.9715969E-01
        2   -1    0    0  501    0  0.00000000000E+00  0.00000000000E+00  0.47442030328E+03  0.47442030328E+03  0.25500000920E-02 0.  1.
       -2   -1    0    0    0  501  0.00000000000E+00  0.00000000000E+00 -0.25875528459E+03  0.25875528460E+03  0.25500000920E-02 0. -1.
    10030    2    1    2    0    0  0.00000000000E+00  0.00000000000E+00  0.21566501869E+03  0.73317558789E+03  0.70073892598E+03 0.  0.
        1    1    3    3  502    0 -0.13417092432E+03  0.31520522408E+03  0.30927828838E+02  0.34396613328E+03  0.50400001928E-02 0. -1.
       -1    1    3    3    0  502  0.13417092432E+03 -0.31520522408E+03  0.18473718985E+03  0.38920945461E+03  0.50400001928E-02 0.  1.
</event>
<event>
 5   0  0.5987810E-02  0.7053598E+03  0.7818609E-02  0.9708110E-01
       -2   -1    0    0    0  501  0.00000000000E+00  0.00000000000E+00  0.10681484731E+03  0.10681484734E+03  0.25500000920E-02 0. -1.
        2   -1    0    0  501    0  0.00000000000E+00  0.00000000000E+00 -0.11644741117E+04  0.11644741117E+04  0.25500000920E-02 0.  1.
    10030    2    1    2    0    0  0.00000000000E+00  0.00000000000E+00 -0.10576592644E+04  0.12712889591E+04  0.70535983571E+03 0.  0.
        5    1    3    3  502    0 -0.52103325090E+02 -0.10899571622E+03  0.68298987308E+02  0.13885843260E+03  0.46999998093E+01 0. -1.
       -5    1    3    3    0  502  0.52103325090E+02  0.10899571622E+03 -0.11259582517E+04  0.11324305265E+04  0.46999998093E+01 0.  1.
</event>
<event>
 5   0  0.3749730E-02  0.6568364E+03  0.7818609E-02  0.9794035E-01
       -1   -1    0    0    0  501  0.00000000000E+00  0.00000000000E+00  0.60089169902E+03  0.60089169904E+03  0.50400001928E-02 0.  1.
        1   -1    0    0  501    0  0.00000000000E+00  0.00000000000E+00 -0.17949743429E+03  0.17949743436E+03  0.50400001928E-02 0. -1.
    10030    2    1    2    0    0  0.00000000000E+00  0.00000000000E+00  0.42139426473E+03  0.78038913340E+03  0.65683641280E+03 0.  0.
        4    1    3    3  502    0  0.25196574272E+03  0.10206329493E+03  0.42962179654E+03  0.50840943406E+03  0.12699999809E+01 0.  1.
       -4    1    3    3    0  502 -0.25196574272E+03 -0.10206329493E+03 -0.82275318122E+01  0.27197969934E+03  0.12699999809E+01 0. -1.
</event>
<event>
 5   0  0.3717372E-02  0.6092364E+03  0.7818609E-02  0.9886427E-01
        1   -1    0    0  501    0  0.00000000000E+00  0.00000000000E+00  0.14861328684E+04  0.14861328684E+04  0.50400001928E-02 0.  1.
       -1   -1    0    0    0  501  0.00000000000E+00  0.00000000000E+00 -0.62438720303E+02  0.62438720506E+02  0.50400001928E-02 0. -1.
    10030    2    1    2    0    0  0.00000000000E+00  0.00000000000E+00  0.14236941481E+04  0.15485715889E+04  0.60923635698E+03 0.  0.
        3    1    3    3  502    0  0.25147831651E+03 -0.16396790412E+03  0.84307530022E+03  0.89493172326E+03  0.10100000352E+00 0.  1.
       -3    1    3    3    0  502 -0.25147831651E+03  0.16396790412E+03  0.58061884787E+03  0.65363986565E+03  0.10100000352E+00 0. -1.
</event>
<event>
 5   0  0.6167756E-02  0.6065822E+03  0.7818609E-02  0.9891843E-01
       -2   -1    0    0    0  501  0.00000000000E+00  0.00000000000E+00  0.94127082517E+02  0.94127082551E+02  0.25500000920E-02 0.  1.
        2   -1    0    0  501    0  0.00000000000E+00  0.00000000000E+00 -0.97724793904E+03  0.97724793905E+03  0.25500000920E-02 0. -1.
    10030    2    1    2    0    0  0.00000000000E+00  0.00000000000E+00 -0.88312085653E+03  0.10713750216E+04  0.60658222004E+03 0.  0.
        4    1    3    3  502    0 -0.19652723840E+03  0.23020168323E+03 -0.47544820529E+03  0.56362077606E+03  0.12699999809E+01 0.  1.
       -4    1    3    3    0  502  0.19652723840E+03 -0.23020168323E+03 -0.40767265124E+03  0.50775424554E+03  0.12699999809E+01 0. -1.
</event>
<event>
 5   0  0.5899787E-02  0.7030335E+03  0.7818609E-02  0.9712059E-01
       -2   -1    0    0    0  501  0.00000000000E+00  0.00000000000E+00  0.30298079352E+03  0.30298079353E+03  0.25500000920E-02 0. -1.
        2   -1    0    0  501    0  0.00000000000E+00  0.00000000000E+00 -0.40782790128E+03  0.40782790129E+03  0.25500000920E-02 0.  1.
    10030    2    1    2    0    0  0.00000000000E+00  0.00000000000E+00 -0.10484710776E+03  0.71080869482E+03  0.70303348756E+03 0.  0.
        2    1    3    3  502    0  0.37834920535E+02  0.96119370286E+02 -0.39213594888E+03  0.40551327594E+03  0.25500000920E-02 0.  1.
       -2    1    3    3    0  502 -0.37834920535E+02 -0.96119370286E+02  0.28728884112E+03  0.30529541888E+03  0.25500000920E-02 0. -1.
</event>
<event>
 5   0  0.3601475E-02  0.6316037E+03  0.7818609E-02  0.9841924E-01
       -1   -1    0    0    0  501  0.00000000000E+00  0.00000000000E+00  0.67136589916E+02  0.67136590105E+02  0.50400001928E-02 0. -1.
        1   -1    0    0  501    0  0.00000000000E+00  0.00000000000E+00 -0.14854913525E+04  0.14854913525E+04  0.50400001928E-02 0.  1.
    10030    2    1    2    0    0  0.00000000000E+00  0.00000000000E+00 -0.14183547625E+04  0.15526279426E+04  0.63160374890E+03 0.  0.
        5    1    3    3  502    0 -0.25134856839E+03 -0.94225735928E+02 -0.30038500186E+03  0.40287446120E+03  0.46999998093E+01 0. -1.
       -5    1    3    3    0  502  0.25134856839E+03  0.94225735928E+02 -0.11179697607E+04  0.11497534814E+04  0.46999998093E+01 0.  1.
</event>
<event>
 5   0  0.3755872E-02  0.7021318E+03  0.7818609E-02  0.9713594E-01
        1   -1    0    0  501    0  0.00000000000E+00  0.00000000000E+00  0.26110714332E+03  0.26110714337E+03  0.50400001928E-02 0. -1.
       -1   -1    0    0    0  501  0.00000000000E+00  0.00000000000E+00 -0.47201794800E+03  0.47201794803E+03  0.50400001928E-02 0.  1.
    10030    2    1    2    0    0  0.00000000000E+00  0.00000000000E+00 -0.21091080468E+03  0.73312509140E+03  0.70213177688E+03 0.  0.
        2    1    3    3  502    0  0.20142316333E+03 -0.71890588205E+02  0.18523581426E+03  0.28293436393E+03  0.25500000920E-02 0. -1.
       -2    1    3    3    0  502 -0.20142316333E+03  0.71890588205E+02 -0.39614661894E+03  0.45019072747E+03  0.25500000920E-02 0.  1.
</event>
<event>
 5   0  0.5987810E-02  0.7140912E+03  0.7818609E-02  0.9693433E-01
        2   -1    0    0  501    0  0.00000000000E+00  0.00000000000E+00  0.18795352288E+04  0.18795352288E+04  0.25500000920E-02 0.  1.
       -2   -1    0    0    0  501  0.00000000000E+00  0.00000000000E+00 -0.67826106753E+02  0.67826106801E+02  0.25500000920E-02 0. -1.
    10030    2    1    2    0    0  0.00000000000E+00  0.00000000000E+00  0.18117091220E+04  0.19473613356E+04  0.71409119060E+03 0.  0.
        5    1    3    3  502    0  0.19176935690E+03 -0.29773088312E+03  0.10290345347E+04  0.10882799863E+04  0.46999998093E+01 0. -1.
       -5    1    3    3    0  502 -0.19176935690E+03  0.29773088312E+03  0.78267458732E+03  0.85908134926E+03  0.46999998093E+01 0.  1.
</event>
<event>
 5   0  0.3755872E-02  0.7017719E+03  0.7818609E-02  0.9714207E-01
        1   -1    0    0  501    0  0.00000000000E+00  0.00000000000E+00  0.40949618977E+03  0.40949618980E+03  0.50400001928E-02 0.  1.
       -1   -1    0    0    0  501  0.00000000000E+00  0.00000000000E+00 -0.30066444106E+03  0.30066444110E+03  0.50400001928E-02 0. -1.
    10030    2    1    2    0    0  0.00000000000E+00  0.00000000000E+00  0.10883174871E+03  0.71016063090E+03  0.70177188042E+03 0.  0.
        2    1    3    3  502    0 -0.10154800702E+03 -0.31392725887E+03 -0.66420976868E+02  0.33656213061E+03  0.25500000920E-02 0. -1.
       -2    1    3    3    0  502  0.10154800702E+03  0.31392725887E+03  0.17525272558E+03  0.37359850029E+03  0.25500000920E-02 0.  1.
</event>
<event>
 5   0  0.3439015E-02  0.7090086E+03  0.7818609E-02  0.9701949E-01
        1   -1    0    0  501    0  0.00000000000E+00  0.00000000000E+00  0.10740965572E+04  0.10740965572E+04  0.50400001928E-02 0. -1.
       -1   -1    0    0    0  501  0.00000000000E+00  0.00000000000E+00 -0.11700371395E+03  0.11700371406E+03  0.50400001928E-02 0.  1.
    10030    2    1    2    0    0  0.00000000000E+00  0.00000000000E+00  0.95709284327E+03  0.11911002713E+04  0.70900856528E+03 0.  0.
        1    1    3    3  502    0 -0.95824501370E+02  0.75493032493E+02  0.10377250437E+04  0.10448707094E+04  0.50400001928E-02 0. -1.
       -1    1    3    3    0  502  0.95824501370E+02 -0.75493032493E+02 -0.80632200389E+02  0.14622956193E+03  0.50400001928E-02 0.  1.
</event>
<event>
 5   0  0.3439015E-02  0.6829439E+03  0.7818609E-02  0.9746853E-01
       -1   -1    0    0    0  501  0.00000000000E+00  0.00000000000E+00  0.23059824298E+03  0.23059824304E+03  0.50400001928E-02 0.  1.
        1   -1    0    0  501    0  0.00000000000E+00  0.00000000000E+00 -0.50565478242E+03  0.50565478245E+03  0.50400001928E-02 0. -1.
    10030    2    1    2    0    0  0.00000000000E+00  0.00000000000E+00 -0.27505653944E+03  0.73625302549E+03  0.68294393448E+03 0.  0.
        1    1    3    3  502    0  0.10280227499E+03 -0.73320301226E+02 -0.47956141582E+03  0.49590656971E+03  0.50400001928E-02 0. -1.
       -1    1    3    3    0  502 -0.10280227499E+03  0.73320301226E+02  0.20450487638E+03  0.24034645578E+03  0.50400001928E-02 0.  1.
</event>
<event>
 5   0  0.6131198E-02  0.6916995E+03  0.7818609E-02  0.9731533E-01
        2   -1    0    0  501    0  0.00000000000E+00  0.00000000000E+00  0.18833132766E+03  0.18833132768E+03  0.25500000920E-02 0.  1.
       -2   -1    0    0    0  501  0.00000000000E+00  0.00000000000E+00 -0.63511492672E+03  0.63511492673E+03  0.25500000920E-02 0. -1.
    10030    2    1    2    0    0  0.00000000000E+00  0.00000000000E+00 -0.44678359906E+03  0.82344625441E+03  0.69169946473E+03 0.  0.
        1    1    3    3  502    0 -0.21513120336E+03 -0.74001215557E+02  0.86711865493E+02  0.24346778474E+03  0.50400001928E-02 0.  1.
       -1    1    3    3    0  502  0.21513120336E+03  0.74001215557E+02 -0.53349546455E+03  0.57997846967E+03  0.50400001928E-02 0. -1.
</event>
<event>
 5   0  0.3601475E-02  0.7211303E+03  0.7818609E-02  0.9681764E-01
        1   -1    0    0  501    0  0.00000000000E+00  0.00000000000E+00  0.11066158226E+04  0.11066158226E+04  0.50400001928E-02 0. -1.
       -1   -1    0    0    0  501  0.00000000000E+00  0.00000000000E+00 -0.11748181429E+03  0.11748181440E+03  0.50400001928E-02 0.  1.
    10030    2    1    2    0    0  0.00000000000E+00  0.00000000000E+00  0.98913400829E+03  0.12240976370E+04  0.72113032007E+03 0.  0.
        5    1    3    3  502    0 -0.25612235043E+03 -0.71078577253E+02  0.81086253479E+02  0.27793505183E+03  0.46999998093E+01 0.  1.
       -5    1    3    3    0  502  0.25612235043E+03  0.71078577253E+02  0.90804775481E+03  0.94616258515E+03  0.46999998093E+01 0. -1.
</event>
<event>
 5   0  0.6248886E-02  0.6796557E+03  0.7818609E-02  0.9752670E-01
       -2   -1    0    0    0  501  0.00000000000E+00  0.00000000000E+00  0.19605123025E+03  0.19605123026E+03  0.25500000920E-02 0.  1.
        2   -1    0    0  501    0  0.00000000000E+00  0.00000000000E+00 -0.58904488198E+03  0.58904488199E+03  0.25500000920E-02 0. -1.
    10030    2    1    2    0    0  0.00000000000E+00  0.00000000000E+00 -0.39299365173E+03  0.78509611225E+03  0.67965571812E+03 0.  0.
        3    1    3    3  502    0  0.22334009977E+03 -0.24523611743E+03 -0.11113056729E+03  0.34981647566E+03  0.10100000352E+00 0.  1.
       -3    1    3    3    0  502 -0.22334009977E+03  0.24523611743E+03 -0.28186308444E+03  0.43527963659E+03  0.10100000352E+00 0. -1.
</event>
<event>
 5   0  0.5987810E-02  0.6797696E+03  0.7818609E-02  0.9752468E-01
       -2   -1    0    0    0  501  0.00000000000E+00  0.00000000000E+00  0.13822515026E+03  0.13822515029E+03  0.25500000920E-02 0.  1.
        2   -1    0    0  501    0  0.00000000000E+00  0.00000000000E+00 -0.83575007295E+03  0.83575007296E+03  0.25500000920E-02 0. -1.
    10030    2    1    2    0    0  0.00000000000E+00  0.00000000000E+00 -0.69752492269E+03  0.97397522324E+03  0.67976960635E+03 0.  0.
        5    1    3    3  502    0  0.68835906214E+02 -0.14534195923E+03  0.80210219314E+02  0.17977329161E+03  0.46999998093E+01 0.  1.
       -5    1    3    3    0  502 -0.68835906214E+02  0.14534195923E+03 -0.77773514200E+03  0.79420193163E+03  0.46999998093E+01 0. -1.
</event>
<event>
 5   0  0.6167756E-02  0.6967600E+03  0.7818609E-02  0.9722789E-01
        2   -1    0    0  501    0  0.00000000000E+00  0.00000000000E+00  0.17173208223E+03  0.17173208225E+03  0.25500000920E-02 0. -1.
       -2   -1    0    0    0  501  0.00000000000E+00  0.00000000000E+00 -0.70673242247E+03  0.70673242248E+03  0.25500000920E-02 0.  1.
    10030    2    1    2    0    0  0.00000000000E+00  0.00000000000E+00 -0.53500034024E+03  0.87846450472E+03  0.69676001751E+03 0.  0.
        4    1    3    3  502    0  0.31335705549E+02 -0.27687354216E+03 -0.53114030882E+03  0.59979373566E+03  0.12699999809E+01 0.  1.
       -4    1    3    3    0  502 -0.31335705549E+02  0.27687354216E+03 -0.38600314273E+01  0.27867076906E+03  0.12699999809E+01 0. -1.
</event>
<event>
 5   0  0.6131198E-02  0.6826721E+03  0.7818609E-02  0.9747333E-01
        2   -1    0    0  501    0  0.00000000000E+00  0.00000000000E+00  0.48269251132E+03  0.48269251133E+03  0.25500000920E-02 0. -1.
       -2   -1    0    0    0  501  0.00000000000E+00  0.00000000000E+00 -0.24137583802E+03  0.24137583803E+03  0.25500000920E-02 0.  1.
    10030    2    1    2    0    0  0.00000000000E+00  0.00000000000E+00  0.24131667331E+03  0.72406834936E+03  0.68267213048E+03 0.  0.
        1    1    3    3  502    0  0.17364695353E+02 -0.34083718965E+03  0.11405277113E+03  0.35983267934E+03  0.50400001928E-02 0.  1.
       -1    1    3    3    0  502 -0.17364695353E+02  0.34083718965E+03  0.12726390218E+03  0.36423567002E+03  0.50400001928E-02 0. -1.
</event>
<event>
 5   0  0.3755872E-02  0.6974430E+03  0.7818609E-02  0.9721615E-01
       -1   -1    0    0    0  501  0.00000000000E+00  0.00000000000E+00  0.15224453041E+03  0.15224453049E+03  0.50400001928E-02 0. -1.
        1   -1    0    0  501    0  0.00000000000E+00  0.00000000000E+00 -0.79875899059E+03  0.79875899060E+03  0.50400001928E-02 0.  1.
    10030    2    1    2    0    0  0.00000000000E+00  0.00000000000E+00 -0.64651446018E+03  0.95100352110E+03  0.69744300837E+03 0.  0.
        2    1    3    3  502    0  0.12965348282E+03 -0.30226713240E+03 -0.48128430295E+03  0.58293226468E+03  0.25500000920E-02 0.  1.
       -2    1    3    3    0  502 -0.12965348282E+03  0.30226713240E+03 -0.16523015723E+03  0.36807125642E+03  0.25500000920E-02 0. -1.
</event>
<event>
 5   0  0.3717372E-02  0.6927687E+03  0.7818609E-02  0.9729679E-01
       -1   -1    0    0    0  501  0.00000000000E+00  0.00000000000E+00  0.44955515742E+03  0.44955515744E+03  0.50400001928E-02 0. -1.
        1   -1    0    0  501    0  0.00000000000E+00  0.00000000000E+00 -0.26689078512E+03  0.26689078517E+03  0.50400001928E-02 0.  1.
    10030    2    1    2    0    0  0.00000000000E+00  0.00000000000E+00  0.18266437230E+03  0.71644594261E+03  0.69276873181E+03 0.  0.
        3    1    3    3  502    0 -0.52360784011E+02  0.22861931917E+02  0.44464850328E+03  0.44830416160E+03  0.10100000352E+00 0. -1.
       -3    1    3    3    0  502  0.52360784011E+02 -0.22861931917E+02 -0.26198413099E+03  0.26814178101E+03  0.10100000352E+00 0.  1.
</event>
<event>
 5   0  0.2439375E-02  0.6276351E+03  0.7818609E-02  0.9849675E-01
        3   -1    0    0  501    0  0.00000000000E+00  0.00000000000E+00  0.17820241576E+03  0.17820244438E+03  0.10100000352E+00 0. -1.
       -3   -1    0    0    0  501  0.00000000000E+00  0.00000000000E+00 -0.55263810797E+03  0.55263811720E+03  0.10100000352E+00 0.  1.
    10030    2    1    2    0    0  0.00000000000E+00  0.00000000000E+00 -0.37443569221E+03  0.73084056158E+03  0.62763511601E+03 0.  0.
        4    1    3    3  502    0  0.35926665865E+02 -0.30101288462E+03 -0.92759487820E+02  0.31702589407E+03  0.12699999809E+01 0.  1.
       -4    1    3    3    0  502 -0.35926665865E+02  0.30101288462E+03 -0.28167620439E+03  0.41381466751E+03  0.12699999809E+01 0. -1.
</event>
<event>
 5   0  0.6248886E-02  0.7188960E+03  0.7818609E-02  0.9685452E-01
        2   -1    0    0  501    0  0.00000000000E+00  0.00000000000E+00  0.36213604956E+03  0.36213604957E+03  0.25500000920E-02 0. -1.
       -2   -1    0    0    0  501  0.00000000000E+00  0.00000000000E+00 -0.35677987802E+03  0.35677987803E+03  0.25500000920E-02 0.  1.
    10030    2    1    2    0    0  0.00000000000E+00  0.00000000000E+00  0.53561715445E+01  0.71891592760E+03  0.71889597466E+03 0.  0.
        3    1    3    3  502    0  0.29200372800E+03  0.20913719422E+03  0.16760458789E+02  0.35956288234E+03  0.10100000352E+00 0. -1.
       -3    1    3    3    0  502 -0.29200372800E+03 -0.20913719422E+03 -0.11404287244E+02  0.35935304527E+03  0.10100000352E+00 0.  1.
</event>
<event>
 5   0  0.6248886E-02  0.6337770E+03  0.7818609E-02  0.9837706E-01
       -2   -1    0    0    0  501  0.00000000000E+00  0.00000000000E+00  0.42845782824E+02  0.42845782900E+02  0.25500000920E-02 0. -1.
        2   -1    0    0  501    0  0.00000000000E+00  0.00000000000E+00 -0.23437153256E+04  0.23437153256E+04  0.25500000920E-02 0.  1.
    10030    2    1    2    0    0  0.00000000000E+00  0.00000000000E+00 -0.23008695427E+04  0.23865611085E+04  0.63377698896E+03 0.  0.
        3    1    3    3  502    0 -0.11773284525E+03 -0.29401219642E+03 -0.11906605170E+04  0.12320619593E+04  0.10100000352E+00 0. -1.
       -3    1    3    3    0  502  0.11773284525E+03  0.29401219642E+03 -0.11102090257E+04  0.11544991492E+04  0.10100000352E+00 0.  1.
</event>
<event>
 5   0  0.3755872E-02  0.6921854E+03  0.7818609E-02  0.9730690E-01
        1   -1    0    0  501    0  0.00000000000E+00  0.00000000000E+00  0.28065347153E+03  0.28065347158E+03  0.50400001928E-02 0. -1.
       -1   -1    0    0    0  501  0.00000000000E+00  0.00000000000E+00 -0.42679023134E+03  0.42679023137E+03  0.50400001928E-02 0.  1.
    10030    2    1    2    0    0  0.00000000000E+00  0.00000000000E+00 -0.14613675981E+03  0.70744370295E+03  0.69218540889E+03 0.  0.
        2    1    3    3  502    0  0.16949839136E+02 -0.12552856965E+03 -0.40224806409E+03  0.42172055193E+03  0.25500000920E-02 0.  1.
       -2    1    3    3    0  502 -0.16949839136E+02  0.12552856965E+03  0.25611130428E+03  0.28572315103E+03  0.25500000920E-02 0. -1.
</event>
<event>
 5   0  0.3439015E-02  0.6342558E+03  0.7818609E-02  0.9836779E-01
        1   -1    0    0  501    0  0.00000000000E+00  0.00000000000E+00  0.14066550729E+03  0.14066550738E+03  0.50400001928E-02 0.  1.
       -1   -1    0    0    0  501  0.00000000000E+00  0.00000000000E+00 -0.71495918248E+03  0.71495918250E+03  0.50400001928E-02 0. -1.
    10030    2    1    2    0    0  0.00000000000E+00  0.00000000000E+00 -0.57429367519E+03  0.85562468988E+03  0.63425577219E+03 0.  0.
        1    1    3    3  502    0 -0.20015774538E+03 -0.12206583209E+03  0.94714257227E+00  0.23444420978E+03  0.50400001928E-02 0.  1.
       -1    1    3    3    0  502  0.20015774538E+03  0.12206583209E+03 -0.57524081777E+03  0.62118048009E+03  0.50400001928E-02 0. -1.
</event>
<event>
 5   0  0.5987810E-02  0.6697435E+03  0.7818609E-02  0.9770421E-01
        2   -1    0    0  501    0  0.00000000000E+00  0.00000000000E+00  0.16256740167E+04  0.16256740167E+04  0.25500000920E-02 0.  1.
       -2   -1    0    0    0  501  0.00000000000E+00  0.00000000000E+00 -0.68980057610E+02  0.68980057657E+02  0.25500000920E-02 0. -1.
    10030    2    1    2    0    0  0.00000000000E+00  0.00000000000E+00  0.15566939591E+04  0.16946540744E+04  0.66974349528E+03 0.  0.
        5    1    3    3  502    0  0.18660780038E+03 -0.48510259650E+02  0.14710277187E+04  0.14836173212E+04  0.46999998093E+01 0.  1.
       -5    1    3    3    0  502 -0.18660780038E+03  0.48510259650E+02  0.85666240363E+02  0.21103675318E+03  0.46999998093E+01 0. -1.
</event>
<event>
 5   0  0.2439375E-02  0.7043264E+03  0.7818609E-02  0.9709862E-01
        3   -1    0    0  501    0  0.00000000000E+00  0.00000000000E+00  0.89501089625E+03  0.89501090195E+03  0.10100000352E+00 0. -1.
       -3   -1    0    0    0  501  0.00000000000E+00  0.00000000000E+00 -0.13856692911E+03  0.13856696592E+03  0.10100000352E+00 0.  1.
    10030    2    1    2    0    0  0.00000000000E+00  0.00000000000E+00  0.75644396714E+03  0.10335778679E+04  0.70432643961E+03 0.  0.
        5    1    3    3  502    0  0.40632420236E+02 -0.13096734450E+03 -0.97730354910E+02  0.16845400313E+03  0.46999998093E+01 0.  1.
       -5    1    3    3    0  502 -0.40632420236E+02  0.13096734450E+03  0.85417432205E+03  0.86512386474E+03  0.46999998093E+01 0. -1.
</event>
<event>
 5   0  0.3749730E-02  0.7037747E+03  0.7818609E-02  0.9710799E-01
        1   -1    0    0  501    0  0.00000000000E+00  0.00000000000E+00  0.73035014978E+03  0.73035014980E+03  0.50400001928E-02 0. -1.
       -1   -1    0    0    0  501  0.00000000000E+00  0.00000000000E+00 -0.16954155395E+03  0.16954155403E+03  0.50400001928E-02 0.  1.
    10030    2    1    2    0    0  0.00000000000E+00  0.00000000000E+00  0.56080859583E+03  0.89989170382E+03  0.70377467804E+03 0.  0.
        4    1    3    3  502    0  0.14750657088E+03  0.31184901623E+03  0.36913190615E+03  0.50524051145E+03  0.12699999809E+01 0.  1.
       -4    1    3    3    0  502 -0.14750657088E+03 -0.31184901623E+03  0.19167668968E+03  0.39465119237E+03  0.12699999809E+01 0. -1.
</event>
<event>
 5   0  0.3749730E-02  0.7132266E+03  0.7818609E-02  0.9694877E-01
       -1   -1    0    0    0  501  0.00000000000E+00  0.00000000000E+00  0.31882867649E+03  0.31882867653E+03  0.50400001928E-02 0.  1.
        1   -1    0    0  501    0  0.00000000000E+00  0.00000000000E+00 -0.39887577421E+03  0.39887577424E+03  0.50400001928E-02 0. -1.
    10030    2    1    2    0    0  0.00000000000E+00  0.00000000000E+00 -0.80047097725E+02  0.71770445077E+03  0.71322657045E+03 0.  0.
        4    1    3    3  502    0 -0.19448436910E+03 -0.88232065045E+02 -0.32740782624E+03  0.39090480261E+03  0.12699999809E+01 0. -1.
       -4    1    3    3    0  502  0.19448436910E+03  0.88232065045E+02  0.24736072851E+03  0.32679964816E+03  0.12699999809E+01 0.  1.
</event>
<event>
 5   0  0.6167756E-02  0.6998018E+03  0.7818609E-02  0.9717571E-01
        2   -1    0    0  501    0  0.00000000000E+00  0.00000000000E+00  0.56445466960E+03  0.56445466960E+03  0.25500000920E-02 0.  1.
       -2   -1    0    0    0  501  0.00000000000E+00  0.00000000000E+00 -0.21690074115E+03  0.21690074116E+03  0.25500000920E-02 0. -1.
    10030    2    1    2    0    0  0.00000000000E+00  0.00000000000E+00  0.34755392845E+03  0.78135541077E+03  0.69980178962E+03 0.  0.
        4    1    3    3  502    0 -0.71127174135E+02  0.15947636402E+03 -0.16477029378E+03  0.24008883396E+03  0.12699999809E+01 0. -1.
       -4    1    3    3    0  502  0.71127174135E+02 -0.15947636402E+03  0.51232422223E+03  0.54126657680E+03  0.12699999809E+01 0.  1.
</event>
<event>
 5   0  0.3439015E-02  0.7138205E+03  0.7818609E-02  0.9693885E-01
        1   -1    0    0  501    0  0.00000000000E+00  0.00000000000E+00  0.40500120009E+03  0.40500120012E+03  0.50400001928E-02 0. -1.
       -1   -1    0    0    0  501  0.00000000000E+00  0.00000000000E+00 -0.31452978028E+03  0.31452978032E+03  0.50400001928E-02 0.  1.
    10030    2    1    2    0    0  0.00000000000E+00  0.00000000000E+00  0.90471419810E+02  0.71953098044E+03  0.71382053347E+03 0.  0.
        1    1    3    3  502    0 -0.19334592387E+03  0.27727413264E+03 -0.70229109628E+02  0.34524732985E+03  0.50400001928E-02 0.  1.
       -1    1    3    3    0  502  0.19334592387E+03 -0.27727413264E+03  0.16070052944E+03  0.37428365058E+03  0.50400001928E-02 0. -1.
</event>
<event>
 5   0  0.3439015E-02  0.6892545E+03  0.7818609E-02  0.9735787E-01
        1   -1    0    0  501    0  0.00000000000E+00  0.00000000000E+00  0.67792922939E+03  0.67792922941E+03  0.50400001928E-02 0.  1.
       -1   -1    0    0    0  501  0.00000000000E+00  0.00000000000E+00 -0.17519223339E+03  0.17519223346E+03  0.50400001928E-02 0. -1.
    10030    2    1    2    0    0  0.00000000000E+00  0.00000000000E+00  0.50273699601E+03  0.85312146287E+03  0.68925448367E+03 0.  0.
        1    1    3    3  502    0 -0.66992255049E+01 -0.23772612020E+03 -0.57347469510E+02  0.24463711929E+03  0.50400001928E-02 0. -1.
       -1    1    3    3    0  502  0.66992255049E+01  0.23772612020E+03  0.56008446552E+03  0.60848434358E+03  0.50400001928E-02 0.  1.
</event>
<event>
 5   0  0.3439015E-02  0.6923765E+03  0.7818609E-02  0.9730359E-01
        1   -1    0    0  501    0  0.00000000000E+00  0.00000000000E+00  0.68600890113E+03  0.68600890114E+03  0.50400001928E-02 0.  1.
       -1   -1    0    0    0  501  0.00000000000E+00  0.00000000000E+00 -0.17470081727E+03  0.17470081734E+03  0.50400001928E-02 0. -1.
    10030    2    1    2    0    0  0.00000000000E+00  0.00000000000E+00  0.51130808386E+03  0.86070971848E+03  0.69237653259E+03 0.  0.
        1    1    3    3  502    0 -0.32980521972E+03 -0.76786369656E+02  0.16619501620E+03  0.37721136377E+03  0.50400001928E-02 0. -1.
       -1    1    3    3    0  502  0.32980521972E+03  0.76786369656E+02  0.34511306765E+03  0.48349835471E+03  0.50400001928E-02 0.  1.
</event>
<event>
 5   0  0.3601475E-02  0.6868595E+03  0.7818609E-02  0.9739972E-01
        1   -1    0    0  501    0  0.00000000000E+00  0.00000000000E+00  0.58087802708E+03  0.58087802710E+03  0.50400001928E-02 0. -1.
       -1   -1    0    0    0  501  0.00000000000E+00  0.00000000000E+00 -0.20304431353E+03  0.20304431359E+03  0.50400001928E-02 0.  1.
    10030    2    1    2    0    0  0.00000000000E+00  0.00000000000E+00  0.37783371355E+03  0.78392234069E+03  0.68685946244E+03 0.  0.
        5    1    3    3  502    0  0.54926564583E+01  0.13016506304E+03 -0.17370642793E+03  0.21718454368E+03  0.46999998093E+01 0.  1.
       -5    1    3    3    0  502 -0.54926564583E+01 -0.13016506304E+03  0.55154014147E+03  0.56673779702E+03  0.46999998093E+01 0. -1.
</event>
<event>
 5   0  0.3717372E-02  0.6759235E+03  0.7818609E-02  0.9759316E-01
        1   -1    0    0  501    0  0.00000000000E+00  0.00000000000E+00  0.36094035352E+03  0.36094035356E+03  0.50400001928E-02 0.  1.
       -1   -1    0    0    0  501  0.00000000000E+00  0.00000000000E+00 -0.31644603346E+03  0.31644603350E+03  0.50400001928E-02 0. -1.
    10030    2    1    2    0    0  0.00000000000E+00  0.00000000000E+00  0.44494320061E+02  0.67738638706E+03  0.67592349630E+03 0.  0.
        3    1    3    3  502    0 -0.22381920197E+03  0.73149205783E+02 -0.22070749985E+03  0.32273464667E+03  0.10100000352E+00 0. -1.
       -3    1    3    3    0  502  0.22381920197E+03 -0.73149205783E+02  0.26520181991E+03  0.35465174038E+03  0.10100000352E+00 0.  1.
</event>
<event>
 5   0  0.3755872E-02  0.7041503E+03  0.7818609E-02  0.9710161E-01
       -1   -1    0    0    0  501  0.00000000000E+00  0.00000000000E+00  0.40018919177E+03  0.40018919180E+03  0.50400001928E-02 0.  1.
        1   -1    0    0  501    0  0.00000000000E+00  0.00000000000E+00 -0.30974575293E+03  0.30974575297E+03  0.50400001928E-02 0. -1.
    10030    2    1    2    0    0  0.00000000000E+00  0.00000000000E+00  0.90443438833E+02  0.70993494477E+03  0.70415027528E+03 0.  0.
        2    1    3    3  502    0 -0.21788271654E+03  0.14407316450E+03 -0.19278314221E+03  0.32464641508E+03  0.25500000920E-02 0. -1.
       -2    1    3    3    0  502  0.21788271654E+03 -0.14407316450E+03  0.28322658104E+03  0.38528852969E+03  0.25500000920E-02 0.  1.
</event>
<event>
 5   0  0.3755872E-02  0.6876901E+03  0.7818609E-02  0.9738518E-01
        1   -1    0    0  501    0  0.00000000000E+00  0.00000000000E+00  0.11015037344E+04  0.11015037344E+04  0.50400001928E-02 0. -1.
       -1   -1    0    0    0  501  0.00000000000E+00  0.00000000000E+00 -0.10733456406E+03  0.10733456417E+03  0.50400001928E-02 0.  1.
    10030    2    1    2    0    0  0.00000000000E+00  0.00000000000E+00  0.99416917035E+03  0.12088382986E+04  0.68769011398E+03 0.  0.
        2    1    3    3  502    0 -0.99416692313E+02  0.19171996621E+03  0.96741079531E+03  0.99122342135E+03  0.25500000920E-02 0. -1.
       -2    1    3    3    0  502  0.99416692313E+02 -0.19171996621E+03  0.26758375045E+02  0.21761487724E+03  0.25500000920E-02 0.  1.
</event>
<event>
 5   0  0.3755872E-02  0.6653542E+03  0.7818609E-02  0.9778387E-01
       -1   -1    0    0    0  501  0.00000000000E+00  0.00000000000E+00  0.68970308860E+03  0.68970308861E+03  0.50400001928E-02 0.  1.
        1   -1    0    0  501    0  0.00000000000E+00  0.00000000000E+00 -0.16046624346E+03  0.16046624354E+03  0.50400001928E-02 0. -1.
    10030    2    1    2    0    0  0.00000000000E+00  0.00000000000E+00  0.52923684513E+03  0.85016933216E+03  0.66535423279E+03 0.  0.
        2    1    3    3  502    0 -0.20606895472E+03  0.25164334279E+03  0.17530902939E+03  0.36948889274E+03  0.25500000920E-02 0. -1.
       -2    1    3    3    0  502  0.20606895472E+03 -0.25164334279E+03  0.35392781575E+03  0.48068043941E+03  0.25500000920E-02 0.  1.
</event>
<event>
 5   0  0.5987810E-02  0.4753533E+03  0.7818609E-02  0.1020420E+00
       -2   -1    0    0    0  501  0.00000000000E+00  0.00000000000E+00  0.14708482500E+03  0.14708482502E+03  0.25500000920E-02 0.  1.
        2   -1    0    0  501    0  0.00000000000E+00  0.00000000000E+00 -0.38406535143E+03  0.38406535144E+03  0.25500000920E-02 0. -1.
    10030    2    1    2    0    0  0.00000000000E+00  0.00000000000E+00 -0.23698052644E+03  0.53115017646E+03  0.47535327920E+03 0.  0.
        5    1    3    3  502    0  0.62220407949E+02 -0.16231451748E+03 -0.29952894971E+03  0.34634818242E+03  0.46999998093E+01 0. -1.
       -5    1    3    3    0  502 -0.62220407949E+02  0.16231451748E+03  0.62548423275E+02  0.18480199404E+03  0.46999998093E+01 0.  1.
</event>
<event>
 5   0  0.3439015E-02  0.7108819E+03  0.7818609E-02  0.9698801E-01
        1   -1    0    0  501    0  0.00000000000E+00  0.00000000000E+00  0.80984390382E+03  0.80984390384E+03  0.50400001928E-02 0. -1.
       -1   -1    0    0    0  501  0.00000000000E+00  0.00000000000E+00 -0.15600325685E+03  0.15600325693E+03  0.50400001928E-02 0.  1.
    10030    2    1    2    0    0  0.00000000000E+00  0.00000000000E+00  0.65384064698E+03  0.96584716077E+03  0.71088194964E+03 0.  0.
        1    1    3    3  502    0 -0.73678944757E+02 -0.21377977876E+03 -0.45679520314E+02  0.23068809963E+03  0.50400001928E-02 0.  1.
       -1    1    3    3    0  502  0.73678944757E+02  0.21377977876E+03  0.69952016729E+03  0.73515906114E+03  0.50400001928E-02 0. -1.
</event>
<event>
 5   0  0.3601475E-02  0.7714944E+03  0.7818609E-02  0.9602220E-01
        1   -1    0    0  501    0  0.00000000000E+00  0.00000000000E+00  0.98359444249E+03  0.98359444250E+03  0.50400001928E-02 0. -1.
       -1   -1    0    0    0  501  0.00000000000E+00  0.00000000000E+00 -0.15128279723E+03  0.15128279732E+03  0.50400001928E-02 0.  1.
    10030    2    1    2    0    0  0.00000000000E+00  0.00000000000E+00  0.83231164526E+03  0.11348772398E+04  0.77149444238E+03 0.  0.
        5    1    3    3  502    0  0.24878237307E+03  0.24657885740E+03  0.65373683373E+03  0.74167900053E+03  0.46999998093E+01 0. -1.
       -5    1    3    3    0  502 -0.24878237307E+03 -0.24657885740E+03  0.17857481153E+03  0.39319823929E+03  0.46999998093E+01 0.  1.
</event>
<event>
 5   0  0.6248886E-02  0.6761133E+03  0.7818609E-02  0.9758977E-01
       -2   -1    0    0    0  501  0.00000000000E+00  0.00000000000E+00  0.17298029518E+03  0.17298029520E+03  0.25500000920E-02 0. -1.
        2   -1    0    0  501    0  0.00000000000E+00  0.00000000000E+00 -0.66066647598E+03  0.66066647598E+03  0.25500000920E-02 0.  1.
    10030    2    1    2    0    0  0.00000000000E+00  0.00000000000E+00 -0.48768618080E+03  0.83364677118E+03  0.67611325099E+03 0.  0.
        3    1    3    3  502    0  0.15669198816E+03 -0.26342309285E+03 -0.68002745229E+02  0.31395618892E+03  0.10100000352E+00 0. -1.
       -3    1    3    3    0  502 -0.15669198816E+03  0.26342309285E+03 -0.41968343557E+03  0.51969058226E+03  0.10100000352E+00 0.  1.
</event>
<event>
 5   0  0.3749730E-02  0.6889960E+03  0.7818609E-02  0.9736238E-01
        1   -1    0    0  501    0  0.00000000000E+00  0.00000000000E+00  0.60944258791E+03  0.60944258794E+03  0.50400001928E-02 0.  1.
       -1   -1    0    0    0  501  0.00000000000E+00  0.00000000000E+00 -0.19473349741E+03  0.19473349747E+03  0.50400001928E-02 0. -1.
    10030    2    1    2    0    0  0.00000000000E+00  0.00000000000E+00  0.41470909051E+03  0.80417608541E+03  0.68899604251E+03 0.  0.
        4    1    3    3  502    0 -0.15221429935E+03 -0.10958634777E+03  0.54462231281E+03  0.57601513613E+03  0.12699999809E+01 0.  1.
       -4    1    3    3    0  502  0.15221429935E+03  0.10958634777E+03 -0.12991322231E+03  0.22816094927E+03  0.12699999809E+01 0. -1.
</event>
<event>
 5   0  0.6167756E-02  0.7003902E+03  0.7818609E-02  0.9716565E-01
       -2   -1    0    0    0  501  0.00000000000E+00  0.00000000000E+00  0.80611536453E+02  0.80611536493E+02  0.25500000920E-02 0. -1.
        2   -1    0    0  501    0  0.00000000000E+00  0.00000000000E+00 -0.15213281925E+04  0.15213281925E+04  0.25500000920E-02 0.  1.
    10030    2    1    2    0    0  0.00000000000E+00  0.00000000000E+00 -0.14407166561E+04  0.16019397290E+04  0.70039018578E+03 0.  0.
        4    1    3    3  502    0  0.24539176749E+03 -0.10654471313E+03 -0.20349889880E+03  0.33612841320E+03  0.12699999809E+01 0. -1.
       -4    1    3    3    0  502 -0.24539176749E+03  0.10654471313E+03 -0.12372177573E+04  0.12658113158E+04  0.12699999809E+01 0.  1.
</event>
<event>
 5   0  0.6131198E-02  0.6983721E+03  0.7818609E-02  0.9720020E-01
        2   -1    0    0  501    0  0.00000000000E+00  0.00000000000E+00  0.66511769839E+03  0.66511769840E+03  0.25500000920E-02 0.  1.
       -2   -1    0    0    0  501  0.00000000000E+00  0.00000000000E+00 -0.18332226642E+03  0.18332226643E+03  0.25500000920E-02 0. -1.
    10030    2    1    2    0    0  0.00000000000E+00  0.00000000000E+00  0.48179543198E+03  0.84843996483E+03  0.69837206104E+03 0.  0.
        1    1    3    3  502    0 -0.99521281082E+02  0.10002709128E+02 -0.16554600641E+03  0.19341670001E+03  0.50400001928E-02 0. -1.
       -1    1    3    3    0  502  0.99521281082E+02 -0.10002709128E+02  0.64734143839E+03  0.65502326482E+03  0.50400001928E-02 0.  1.
</event>
<event>
 5   0  0.3717372E-02  0.6806156E+03  0.7818609E-02  0.9750969E-01
        1   -1    0    0  501    0  0.00000000000E+00  0.00000000000E+00  0.13861807129E+04  0.13861807130E+04  0.50400001928E-02 0.  1.
       -1   -1    0    0    0  501  0.00000000000E+00  0.00000000000E+00 -0.83545675110E+02  0.83545675262E+02  0.50400001928E-02 0. -1.
    10030    2    1    2    0    0  0.00000000000E+00  0.00000000000E+00  0.13026350378E+04  0.14697263882E+04  0.68061561430E+03 0.  0.
        3    1    3    3  502    0 -0.20005944068E+03  0.63530682530E+02  0.12297383433E+04  0.12475240802E+04  0.10100000352E+00 0.  1.
       -3    1    3    3    0  502  0.20005944068E+03 -0.63530682530E+02  0.72896694554E+02  0.22220230806E+03  0.10100000352E+00 0. -1.
</event>
<event>
 5   0  0.6248886E-02  0.6409399E+03  0.7818609E-02  0.9823930E-01
        2   -1    0    0  501    0  0.00000000000E+00  0.00000000000E+00  0.29478157161E+03  0.29478157162E+03  0.25500000920E-02 0. -1.
       -2   -1    0    0    0  501  0.00000000000E+00  0.00000000000E+00 -0.34839687625E+03  0.34839687626E+03  0.25500000920E-02 0.  1.
    10030    2    1    2    0    0  0.00000000000E+00  0.00000000000E+00 -0.53615304640E+02  0.64317844788E+03  0.64093986841E+03 0.  0.
        3    1    3    3  502    0  0.26396063814E+03  0.12522146130E+03  0.10535402775E+03  0.31057223672E+03  0.10100000352E+00 0. -1.
       -3    1    3    3    0  502 -0.26396063814E+03 -0.12522146130E+03 -0.15896933239E+03  0.33260621116E+03  0.10100000352E+00 0.  1.
</event>
<event>
 5   0  0.3749730E-02  0.7126593E+03  0.7818609E-02  0.9695825E-01
       -1   -1    0    0    0  501  0.00000000000E+00  0.00000000000E+00  0.83668653017E+02  0.83668653169E+02  0.50400001928E-02 0.  1.
        1   -1    0    0  501    0  0.00000000000E+00  0.00000000000E+00 -0.15175434617E+04  0.15175434617E+04  0.50400001928E-02 0. -1.
    10030    2    1    2    0    0  0.00000000000E+00  0.00000000000E+00 -0.14338748087E+04  0.16012121149E+04  0.71265929437E+03 0.  0.
        4    1    3    3  502    0  0.17736051638E+03  0.76647931971E+02 -0.13896226370E+04  0.14029912132E+04  0.12699999809E+01 0. -1.
       -4    1    3    3    0  502 -0.17736051638E+03 -0.76647931971E+02 -0.44252171665E+02  0.19822090163E+03  0.12699999809E+01 0.  1.
</event>
<event>
 5   0  0.5899787E-02  0.7250617E+03  0.7818609E-02  0.9675308E-01
        2   -1    0    0  501    0  0.00000000000E+00  0.00000000000E+00  0.14241327273E+04  0.14241327273E+04  0.25500000920E-02 0.  1.
       -2   -1    0    0    0  501  0.00000000000E+00  0.00000000000E+00 -0.92286771042E+02  0.92286771077E+02  0.25500000920E-02 0. -1.
    10030    2    1    2    0    0  0.00000000000E+00  0.00000000000E+00  0.13318459563E+04  0.15164194984E+04  0.72506168280E+03 0.  0.
        2    1    3    3  502    0  0.11019623656E+03  0.53304813570E+02  0.13796020442E+04  0.13850221710E+04  0.25500000920E-02 0.  1.
       -2    1    3    3    0  502 -0.11019623656E+03 -0.53304813570E+02 -0.47756087965E+02  0.13139732739E+03  0.25500000920E-02 0. -1.
</event>
<event>
 5   0  0.3749730E-02  0.7209471E+03  0.7818609E-02  0.9682066E-01
        1   -1    0    0  501    0  0.00000000000E+00  0.00000000000E+00  0.10869290062E+04  0.10869290062E+04  0.50400001928E-02 0.  1.
       -1   -1    0    0    0  501  0.00000000000E+00  0.00000000000E+00 -0.11954890738E+03  0.11954890748E+03  0.50400001928E-02 0. -1.
    10030    2    1    2    0    0  0.00000000000E+00  0.00000000000E+00  0.96738009882E+03  0.12064779137E+04  0.72094708587E+03 0.  0.
        4    1    3    3  502    0  0.21665264812E+03 -0.28591152989E+03  0.54299273896E+03  0.65078913661E+03  0.12699999809E+01 0.  1.
       -4    1    3    3    0  502 -0.21665264812E+03  0.28591152989E+03  0.42438735986E+03  0.55568877708E+03  0.12699999809E+01 0. -1.
</event>
<event>
 5   0  0.3749730E-02  0.6913471E+03  0.7818609E-02  0.9732145E-01
       -1   -1    0    0    0  501  0.00000000000E+00  0.00000000000E+00  0.13872869778E+03  0.13872869788E+03  0.50400001928E-02 0. -1.
        1   -1    0    0  501    0  0.00000000000E+00  0.00000000000E+00 -0.86132301111E+03  0.86132301112E+03  0.50400001928E-02 0.  1.
    10030    2    1    2    0    0  0.00000000000E+00  0.00000000000E+00 -0.72259431333E+03  0.10000517090E+04  0.69134714798E+03 0.  0.
        4    1    3    3  502    0 -0.18946842131E+02  0.20291276555E+03  0.42581727611E+02  0.20820035946E+03  0.12699999809E+01 0. -1.
       -4    1    3    3    0  502  0.18946842131E+02 -0.20291276555E+03 -0.76517604094E+03  0.79185134954E+03  0.12699999809E+01 0.  1.
</event>
<event>
 5   0  0.3755872E-02  0.7056333E+03  0.7818609E-02  0.9707647E-01
       -1   -1    0    0    0  501  0.00000000000E+00  0.00000000000E+00  0.19783311527E+03  0.19783311533E+03  0.50400001928E-02 0.  1.
        1   -1    0    0  501    0  0.00000000000E+00  0.00000000000E+00 -0.62921517352E+03  0.62921517354E+03  0.50400001928E-02 0. -1.
    10030    2    1    2    0    0  0.00000000000E+00  0.00000000000E+00 -0.43138205825E+03  0.82704828887E+03  0.70563332684E+03 0.  0.
        2    1    3    3  502    0 -0.24987657765E+03  0.15403183194E+03 -0.44511509268E+03  0.53318998025E+03  0.25500000920E-02 0. -1.
       -2    1    3    3    0  502  0.24987657765E+03 -0.15403183194E+03  0.13733034421E+02  0.29385830862E+03  0.25500000920E-02 0.  1.
</event>
<event>
 5   0  0.5899787E-02  0.6609572E+03  0.7818609E-02  0.9786433E-01
        2   -1    0    0  501    0  0.00000000000E+00  0.00000000000E+00  0.14012173297E+04  0.14012173297E+04  0.25500000920E-02 0.  1.
       -2   -1    0    0    0  501  0.00000000000E+00  0.00000000000E+00 -0.77943725229E+02  0.77943725271E+02  0.25500000920E-02 0. -1.
    10030    2    1    2    0    0  0.00000000000E+00  0.00000000000E+00  0.13232736045E+04  0.14791610550E+04  0.66095718035E+03 0.  0.
        2    1    3    3  502    0  0.23168227855E+01 -0.30283347218E+02  0.13980874257E+04  0.13984172835E+04  0.25500000920E-02 0.  1.
       -2    1    3    3    0  502 -0.23168227855E+01  0.30283347218E+02 -0.74813821221E+02  0.80743771516E+02  0.25500000920E-02 0. -1.
</event>
<event>
 5   0  0.6131198E-02  0.6959485E+03  0.7818609E-02  0.9724186E-01
        2   -1    0    0  501    0  0.00000000000E+00  0.00000000000E+00  0.18744840113E+04  0.18744840113E+04  0.25500000920E-02 0. -1.
       -2   -1    0    0    0  501  0.00000000000E+00  0.00000000000E+00 -0.64597019510E+02  0.64597019561E+02  0.25500000920E-02 0.  1.
    10030    2    1    2    0    0  0.00000000000E+00  0.00000000000E+00  0.18098869918E+04  0.19390810308E+04  0.69594850470E+03 0.  0.
        1    1    3    3  502    0 -0.34670332927E+01 -0.15656790228E+03  0.17707457687E+04  0.17776574771E+04  0.50400001928E-02 0. -1.
       -1    1    3    3    0  502  0.34670332927E+01  0.15656790228E+03  0.39141223062E+02  0.16142355378E+03  0.50400001928E-02 0.  1.
</event>
<event>
 5   0  0.5987810E-02  0.6957512E+03  0.7818609E-02  0.9724526E-01
       -2   -1    0    0    0  501  0.00000000000E+00  0.00000000000E+00  0.20888036578E+03  0.20888036580E+03  0.25500000920E-02 0. -1.
        2   -1    0    0  501    0  0.00000000000E+00  0.00000000000E+00 -0.57936236626E+03  0.57936236626E+03  0.25500000920E-02 0.  1.
    10030    2    1    2    0    0  0.00000000000E+00  0.00000000000E+00 -0.37048200048E+03  0.78824273206E+03  0.69575117101E+03 0.  0.
        5    1    3    3  502    0  0.41427297604E+02  0.22512820858E+03 -0.48196774800E+03  0.53358591754E+03  0.46999998093E+01 0.  1.
       -5    1    3    3    0  502 -0.41427297604E+02 -0.22512820858E+03  0.11148574752E+03  0.25465681452E+03  0.46999998093E+01 0. -1.
</event>
<event>
 5   0  0.6131198E-02  0.6893583E+03  0.7818609E-02  0.9735606E-01
        2   -1    0    0  501    0  0.00000000000E+00  0.00000000000E+00  0.46585966286E+03  0.46585966287E+03  0.25500000920E-02 0.  1.
       -2   -1    0    0    0  501  0.00000000000E+00  0.00000000000E+00 -0.25502040716E+03  0.25502040718E+03  0.25500000920E-02 0. -1.
    10030    2    1    2    0    0  0.00000000000E+00  0.00000000000E+00  0.21083925569E+03  0.72088007004E+03  0.68935831296E+03 0.  0.
        1    1    3    3  502    0  0.10019150966E+03 -0.21972355514E+03  0.36260651065E+03  0.43566071763E+03  0.50400001928E-02 0.  1.
       -1    1    3    3    0  502 -0.10019150966E+03  0.21972355514E+03 -0.15176725496E+03  0.28521935242E+03  0.50400001928E-02 0. -1.
</event>
<event>
 5   0  0.3439015E-02  0.6855265E+03  0.7818609E-02  0.9742309E-01
       -1   -1    0    0    0  501  0.00000000000E+00  0.00000000000E+00  0.14434910761E+03  0.14434910770E+03  0.50400001928E-02 0. -1.
        1   -1    0    0  501    0  0.00000000000E+00  0.00000000000E+00 -0.81390628413E+03  0.81390628415E+03  0.50400001928E-02 0.  1.
    10030    2    1    2    0    0  0.00000000000E+00  0.00000000000E+00 -0.66955717652E+03  0.95825539185E+03  0.68552650086E+03 0.  0.
        1    1    3    3  502    0 -0.33125680684E+03 -0.84554468658E+02 -0.36919255581E+03  0.50317360178E+03  0.50400001928E-02 0. -1.
       -1    1    3    3    0  502  0.33125680684E+03  0.84554468658E+02 -0.30036462072E+03  0.45508179006E+03  0.50400001928E-02 0.  1.
</event>
<event>
 5   0  0.5987810E-02  0.6948910E+03  0.7818609E-02  0.9726009E-01
       -2   -1    0    0    0  501  0.00000000000E+00  0.00000000000E+00  0.24333999714E+03  0.24333999715E+03  0.25500000920E-02 0. -1.
        2   -1    0    0  501    0  0.00000000000E+00  0.00000000000E+00 -0.49608932975E+03  0.49608932976E+03  0.25500000920E-02 0.  1.
    10030    2    1    2    0    0  0.00000000000E+00  0.00000000000E+00 -0.25274933262E+03  0.73942932691E+03  0.69489100178E+03 0.  0.
        5    1    3    3  502    0 -0.18971827612E+03 -0.27703608466E+03 -0.22127770898E+03  0.40215411348E+03  0.46999998093E+01 0.  1.
       -5    1    3    3    0  502  0.18971827612E+03  0.27703608466E+03 -0.31471623638E+02  0.33727521343E+03  0.46999998093E+01 0. -1.
</event>
<event>
 5   0  0.3601475E-02  0.7001954E+03  0.7818609E-02  0.9716898E-01
        1   -1    0    0  501    0  0.00000000000E+00  0.00000000000E+00  0.10871440999E+03  0.10871441011E+03  0.50400001928E-02 0. -1.
       -1   -1    0    0    0  501  0.00000000000E+00  0.00000000000E+00 -0.11274347211E+04  0.11274347211E+04  0.50400001928E-02 0.  1.
    10030    2    1    2    0    0  0.00000000000E+00  0.00000000000E+00 -0.10187203111E+04  0.12361491312E+04  0.70019540299E+03 0.  0.
        5    1    3    3  502    0  0.13412261272E+03  0.14352016323E+03  0.21877031185E+01  0.19650391482E+03  0.46999998093E+01 0. -1.
       -5    1    3    3    0  502 -0.13412261272E+03 -0.14352016323E+03 -0.10209080142E+04  0.10396452164E+04  0.46999998093E+01 0.  1.
</event>
<event>
 5   0  0.6167756E-02  0.6947703E+03  0.7818609E-02  0.9726218E-01
       -2   -1    0    0    0  501  0.00000000000E+00  0.00000000000E+00  0.20341879106E+03  0.20341879108E+03  0.25500000920E-02 0. -1.
        2   -1    0    0  501    0  0.00000000000E+00  0.00000000000E+00 -0.59324128851E+03  0.59324128852E+03  0.25500000920E-02 0.  1.
    10030    2    1    2    0    0  0.00000000000E+00  0.00000000000E+00 -0.38982249745E+03  0.79666007960E+03  0.69477025189E+03 0.  0.
        4    1    3    3  502    0 -0.29534144069E+03  0.14296734830E+03 -0.64129588623E+02  0.33433582863E+03  0.12699999809E+01 0.  1.
       -4    1    3    3    0  502  0.29534144069E+03 -0.14296734830E+03 -0.32569290882E+03  0.46232425096E+03  0.12699999809E+01 0. -1.
</event>
<event>
 5   0  0.6167756E-02  0.6605003E+03  0.7818609E-02  0.9787273E-01
       -2   -1    0    0    0  501  0.00000000000E+00  0.00000000000E+00  0.16423709633E+03  0.16423709635E+03  0.25500000920E-02 0. -1.
        2   -1    0    0  501    0  0.00000000000E+00  0.00000000000E+00 -0.66407138200E+03  0.66407138200E+03  0.25500000920E-02 0.  1.
    10030    2    1    2    0    0  0.00000000000E+00  0.00000000000E+00 -0.49983428566E+03  0.82830847835E+03  0.66050028175E+03 0.  0.
        4    1    3    3  502    0 -0.23621250332E+03  0.12010996087E+03 -0.27657030359E+01  0.26501322880E+03  0.12699999809E+01 0.  1.
       -4    1    3    3    0  502  0.23621250332E+03 -0.12010996087E+03 -0.49706858263E+03  0.56329524955E+03  0.12699999809E+01 0. -1.
</event>
<event>
 5   0  0.2439375E-02  0.6969120E+03  0.7818609E-02  0.9722528E-01
        4   -1    0    0  501    0  0.00000000000E+00  0.00000000000E+00  0.28507535206E+03  0.28507818094E+03  0.12699999809E+01 0. -1.
       -4   -1    0    0    0  501  0.00000000000E+00  0.00000000000E+00 -0.42592211200E+03  0.42592400541E+03  0.12699999809E+01 0.  1.
    10030    2    1    2    0    0  0.00000000000E+00  0.00000000000E+00 -0.14084675994E+03  0.71100218636E+03  0.69691197380E+03 0.  0.
        3    1    3    3  502    0  0.92927581376E+02 -0.11513463137E+03 -0.39228568120E+03  0.41926075967E+03  0.10100000352E+00 0.  1.
       -3    1    3    3    0  502 -0.92927581376E+02  0.11513463137E+03  0.25143892126E+03  0.29174142669E+03  0.10100000352E+00 0. -1.
</event>
<event>
 5   0  0.2439375E-02  0.7049033E+03  0.7818609E-02  0.9708884E-01
        3   -1    0    0  501    0  0.00000000000E+00  0.00000000000E+00  0.28520976622E+03  0.28520978411E+03  0.10100000352E+00 0.  1.
       -3   -1    0    0    0  501  0.00000000000E+00  0.00000000000E+00 -0.43554658895E+03  0.43554660066E+03  0.10100000352E+00 0. -1.
    10030    2    1    2    0    0  0.00000000000E+00  0.00000000000E+00 -0.15033682273E+03  0.72075638477E+03  0.70490325997E+03 0.  0.
        3    1    3    3  502    0 -0.97463575866E+02  0.58496007474E+00 -0.42149318995E+03  0.43261531431E+03  0.10100000352E+00 0. -1.
       -3    1    3    3    0  502  0.97463575866E+02 -0.58496007474E+00  0.27115636722E+03  0.28814107046E+03  0.10100000352E+00 0.  1.
</event>
<event>
 5   0  0.3439015E-02  0.6808283E+03  0.7818609E-02  0.9750592E-01
       -1   -1    0    0    0  501  0.00000000000E+00  0.00000000000E+00  0.90913791596E+02  0.90913791736E+02  0.50400001928E-02 0.  1.
        1   -1    0    0  501    0  0.00000000000E+00  0.00000000000E+00 -0.12746336513E+04  0.12746336514E+04  0.50400001928E-02 0. -1.
    10030    2    1    2    0    0  0.00000000000E+00  0.00000000000E+00 -0.11837198597E+04  0.13655474431E+04  0.68082825512E+03 0.  0.
        1    1    3    3  502    0  0.89755898785E+02 -0.70701279426E+02  0.51305621694E+02  0.12524799049E+03  0.50400001928E-02 0.  1.
       -1    1    3    3    0  502 -0.89755898785E+02  0.70701279426E+02 -0.12350254814E+04  0.12402994526E+04  0.50400001928E-02 0. -1.
</event>
<event>
 5   0  0.3601475E-02  0.6934443E+03  0.7818609E-02  0.9728509E-01
       -1   -1    0    0    0  501  0.00000000000E+00  0.00000000000E+00  0.20137642960E+03  0.20137642966E+03  0.50400001928E-02 0.  1.
        1   -1    0    0  501    0  0.00000000000E+00  0.00000000000E+00 -0.59697278403E+03  0.59697278405E+03  0.50400001928E-02 0. -1.
    10030    2    1    2    0    0  0.00000000000E+00  0.00000000000E+00 -0.39559635443E+03  0.79834921371E+03  0.69344429581E+03 0.  0.
        5    1    3    3  502    0  0.31975952151E+03  0.12706622811E+03 -0.14892389454E+03  0.37495652319E+03  0.46999998093E+01 0.  1.
       -5    1    3    3    0  502 -0.31975952151E+03 -0.12706622811E+03 -0.24667245989E+03  0.42339269052E+03  0.46999998093E+01 0. -1.
</event>
<event>
 5   0  0.6167756E-02  0.7170111E+03  0.7818609E-02  0.9688575E-01
       -2   -1    0    0    0  501  0.00000000000E+00  0.00000000000E+00  0.15530702327E+03  0.15530702329E+03  0.25500000920E-02 0.  1.
        2   -1    0    0  501    0  0.00000000000E+00  0.00000000000E+00 -0.82756214365E+03  0.82756214365E+03  0.25500000920E-02 0. -1.
    10030    2    1    2    0    0  0.00000000000E+00  0.00000000000E+00 -0.67225512037E+03  0.98286916695E+03  0.71701105463E+03 0.  0.
        4    1    3    3  502    0 -0.24620606821E+03 -0.87735055947E+01 -0.69313839902E+03  0.73562004834E+03  0.12699999809E+01 0. -1.
       -4    1    3    3    0  502  0.24620606821E+03  0.87735055947E+01  0.20883278647E+02  0.24724911860E+03  0.12699999809E+01 0.  1.
</event>
<event>
 5   0  0.5987810E-02  0.7096738E+03  0.7818609E-02  0.9700830E-01
       -2   -1    0    0    0  501  0.00000000000E+00  0.00000000000E+00  0.13253904189E+03  0.13253904191E+03  0.25500000920E-02 0.  1.
        2   -1    0    0  501    0  0.00000000000E+00  0.00000000000E+00 -0.94997836211E+03  0.94997836211E+03  0.25500000920E-02 0. -1.
    10030    2    1    2    0    0  0.00000000000E+00  0.00000000000E+00 -0.81743932022E+03  0.10825174040E+04  0.70967378970E+03 0.  0.
        5    1    3    3  502    0 -0.26175467005E+03 -0.18368957726E+03 -0.17423965634E+03  0.36419626017E+03  0.46999998093E+01 0.  1.
       -5    1    3    3    0  502  0.26175467005E+03  0.18368957726E+03 -0.64319966388E+03  0.71832114385E+03  0.46999998093E+01 0. -1.
</event>
<event>
 5   0  0.6131198E-02  0.7058679E+03  0.7818609E-02  0.9707250E-01
       -2   -1    0    0    0  501  0.00000000000E+00  0.00000000000E+00  0.32969443401E+03  0.32969443402E+03  0.25500000920E-02 0. -1.
        2   -1    0    0  501    0  0.00000000000E+00  0.00000000000E+00 -0.37781157127E+03  0.37781157127E+03  0.25500000920E-02 0.  1.
    10030    2    1    2    0    0  0.00000000000E+00  0.00000000000E+00 -0.48117137255E+02  0.70750600529E+03  0.70586789744E+03 0.  0.
        1    1    3    3  502    0  0.15310915149E+03  0.11921828929E+02  0.29444897014E+03  0.33209146077E+03  0.50400001928E-02 0. -1.
       -1    1    3    3    0  502 -0.15310915149E+03 -0.11921828929E+02 -0.34256610740E+03  0.37541454452E+03  0.50400001928E-02 0.  1.
</event>
<event>
 5   0  0.6131198E-02  0.6956184E+03  0.7818609E-02  0.9724755E-01
       -2   -1    0    0    0  501  0.00000000000E+00  0.00000000000E+00  0.39595707003E+03  0.39595707004E+03  0.25500000920E-02 0. -1.
        2   -1    0    0  501    0  0.00000000000E+00  0.00000000000E+00 -0.30551608891E+03  0.30551608892E+03  0.25500000920E-02 0.  1.
    10030    2    1    2    0    0  0.00000000000E+00  0.00000000000E+00  0.90440981115E+02  0.70147315896E+03  0.69561844547E+03 0.  0.
        1    1    3    3  502    0 -0.13967819542E+03 -0.15237291599E+03  0.32729562331E+03  0.38710454514E+03  0.50400001928E-02 0. -1.
       -1    1    3    3    0  502  0.13967819542E+03  0.15237291599E+03 -0.23685464220E+03  0.31436861382E+03  0.50400001928E-02 0.  1.
</event>
<event>
 5   0  0.3601475E-02  0.6964023E+03  0.7818609E-02  0.9723405E-01
        1   -1    0    0  501    0  0.00000000000E+00  0.00000000000E+00  0.32220630154E+03  0.32220630158E+03  0.50400001928E-02 0.  1.
       -1   -1    0    0    0  501  0.00000000000E+00  0.00000000000E+00 -0.37629317801E+03  0.37629317804E+03  0.50400001928E-02 0. -1.
    10030    2    1    2    0    0  0.00000000000E+00  0.00000000000E+00 -0.54086876466E+02  0.69849947962E+03  0.69640227802E+03 0.  0.
        5    1    3    3  502    0  0.31937258171E+03  0.46908016695E+01  0.11194186746E+03  0.33848769735E+03  0.46999998093E+01 0.  1.
       -5    1    3    3    0  502 -0.31937258171E+03 -0.46908016695E+01 -0.16602874393E+03  0.36001178227E+03  0.46999998093E+01 0. -1.
</event>
<event>
 5   0  0.3601475E-02  0.7050802E+03  0.7818609E-02  0.9708584E-01
        1   -1    0    0  501    0  0.00000000000E+00  0.00000000000E+00  0.43196029715E+03  0.43196029718E+03  0.50400001928E-02 0.  1.
       -1   -1    0    0    0  501  0.00000000000E+00  0.00000000000E+00 -0.28772212609E+03  0.28772212614E+03  0.50400001928E-02 0. -1.
    10030    2    1    2    0    0  0.00000000000E+00  0.00000000000E+00  0.14423817106E+03  0.71968242331E+03  0.70508023688E+03 0.  0.
        5    1    3    3  502    0  0.34371680029E+03  0.76084478282E+02  0.53510826990E+02  0.35611175948E+03  0.46999998093E+01 0. -1.
       -5    1    3    3    0  502 -0.34371680029E+03 -0.76084478282E+02  0.90727344068E+02  0.36357066383E+03  0.46999998093E+01 0.  1.
</event>
<event>
 5   0  0.6167756E-02  0.7153524E+03  0.7818609E-02  0.9691332E-01
        2   -1    0    0  501    0  0.00000000000E+00  0.00000000000E+00  0.51081097456E+03  0.51081097456E+03  0.25500000920E-02 0.  1.
       -2   -1    0    0    0  501  0.00000000000E+00  0.00000000000E+00 -0.25044930818E+03  0.25044930819E+03  0.25500000920E-02 0. -1.
    10030    2    1    2    0    0  0.00000000000E+00  0.00000000000E+00  0.26036166638E+03  0.76126028275E+03  0.71535237525E+03 0.  0.
        4    1    3    3  502    0  0.19931923927E+02  0.20301948256E+03  0.44283191424E+03  0.48756118494E+03  0.12699999809E+01 0.  1.
       -4    1    3    3    0  502 -0.19931923927E+02 -0.20301948256E+03 -0.18247024786E+03  0.27369909781E+03  0.12699999809E+01 0. -1.
</event>
<event>
 5   0  0.3749730E-02  0.7100005E+03  0.7818609E-02  0.9700281E-01
        1   -1    0    0  501    0  0.00000000000E+00  0.00000000000E+00  0.86021890757E+03  0.86021890758E+03  0.50400001928E-02 0. -1.
       -1   -1    0    0    0  501  0.00000000000E+00  0.00000000000E+00 -0.14650362457E+03  0.14650362465E+03  0.50400001928E-02 0.  1.
    10030    2    1    2    0    0  0.00000000000E+00  0.00000000000E+00  0.71371528300E+03  0.10067225322E+04  0.71000052938E+03 0.  0.
        4    1    3    3  502    0 -0.29656167769E+03 -0.26883499595E+02  0.82821284565E+02  0.30908336950E+03  0.12699999809E+01 0.  1.
       -4    1    3    3    0  502  0.29656167769E+03  0.26883499595E+02  0.63089399844E+03  0.69763916274E+03  0.12699999809E+01 0. -1.
</event>
<event>
 5   0  0.6167756E-02  0.7020501E+03  0.7818609E-02  0.9713733E-01
       -2   -1    0    0    0  501  0.00000000000E+00  0.00000000000E+00  0.67487968989E+02  0.67487969037E+02  0.25500000920E-02 0.  1.
        2   -1    0    0  501    0  0.00000000000E+00  0.00000000000E+00 -0.18257860914E+04  0.18257860914E+04  0.25500000920E-02 0. -1.
    10030    2    1    2    0    0  0.00000000000E+00  0.00000000000E+00 -0.17582981224E+04  0.18932740604E+04  0.70205012688E+03 0.  0.
        4    1    3    3  502    0 -0.11298487339E+03 -0.19623277655E+03 -0.16024898388E+04  0.16184091512E+04  0.12699999809E+01 0. -1.
       -4    1    3    3    0  502  0.11298487339E+03  0.19623277655E+03 -0.15580828360E+03  0.27486490926E+03  0.12699999809E+01 0.  1.
</event>
<event>
 5   0  0.3717372E-02  0.6523128E+03  0.7818609E-02  0.9802449E-01
       -1   -1    0    0    0  501  0.00000000000E+00  0.00000000000E+00  0.89679458163E+02  0.89679458304E+02  0.50400001928E-02 0. -1.
        1   -1    0    0  501    0  0.00000000000E+00  0.00000000000E+00 -0.11862024250E+04  0.11862024250E+04  0.50400001928E-02 0.  1.
    10030    2    1    2    0    0  0.00000000000E+00  0.00000000000E+00 -0.10965229668E+04  0.12758818833E+04  0.65231278032E+03 0.  0.
        3    1    3    3  502    0 -0.61884292821E+01 -0.27980991201E+03 -0.87582143646E+03  0.91945368686E+03  0.10100000352E+00 0.  1.
       -3    1    3    3    0  502  0.61884292821E+01  0.27980991201E+03 -0.22070153039E+03  0.35642819647E+03  0.10100000352E+00 0. -1.
</event>
<event>
 5   0  0.3749730E-02  0.6985555E+03  0.7818609E-02  0.9719706E-01
        1   -1    0    0  501    0  0.00000000000E+00  0.00000000000E+00  0.44314352513E+03  0.44314352516E+03  0.50400001928E-02 0. -1.
       -1   -1    0    0    0  501  0.00000000000E+00  0.00000000000E+00 -0.27529440827E+03  0.27529440832E+03  0.50400001928E-02 0.  1.
    10030    2    1    2    0    0  0.00000000000E+00  0.00000000000E+00  0.16784911685E+03  0.71843793348E+03  0.69855546539E+03 0.  0.
        4    1    3    3  502    0 -0.30991665937E+03  0.13170473457E+03 -0.11444724290E+02  0.33693777983E+03  0.12699999809E+01 0. -1.
       -4    1    3    3    0  502  0.30991665937E+03 -0.13170473457E+03  0.17929384114E+03  0.38150015365E+03  0.12699999809E+01 0.  1.
</event>
<event>
 5   0  0.3755872E-02  0.7002673E+03  0.7818609E-02  0.9716775E-01
        1   -1    0    0  501    0  0.00000000000E+00  0.00000000000E+00  0.12628742764E+04  0.12628742764E+04  0.50400001928E-02 0.  1.
       -1   -1    0    0    0  501  0.00000000000E+00  0.00000000000E+00 -0.97075043266E+02  0.97075043397E+02  0.50400001928E-02 0. -1.
    10030    2    1    2    0    0  0.00000000000E+00  0.00000000000E+00  0.11657992331E+04  0.13599493198E+04  0.70026730643E+03 0.  0.
        2    1    3    3  502    0 -0.20075807733E+03  0.28651328282E+03  0.61035795439E+03  0.70351297027E+03  0.25500000920E-02 0.  1.
       -2    1    3    3    0  502  0.20075807733E+03 -0.28651328282E+03  0.55544127872E+03  0.65643634951E+03  0.25500000920E-02 0. -1.
</event>
<event>
 5   0  0.6131198E-02  0.6998196E+03  0.7818609E-02  0.9717541E-01
       -2   -1    0    0    0  501  0.00000000000E+00  0.00000000000E+00  0.36961833606E+03  0.36961833607E+03  0.25500000920E-02 0.  1.
        2   -1    0    0  501    0  0.00000000000E+00  0.00000000000E+00 -0.33125219234E+03  0.33125219235E+03  0.25500000920E-02 0. -1.
    10030    2    1    2    0    0  0.00000000000E+00  0.00000000000E+00  0.38366143725E+02  0.70087052842E+03  0.69981964578E+03 0.  0.
        1    1    3    3  502    0  0.25418054025E+03 -0.10898742974E+03 -0.19550038099E+03  0.33868334160E+03  0.50400001928E-02 0. -1.
       -1    1    3    3    0  502 -0.25418054025E+03  0.10898742974E+03  0.23386652472E+03  0.36218718682E+03  0.50400001928E-02 0.  1.
</event>
<event>
 5   0  0.3439015E-02  0.6582287E+03  0.7818609E-02  0.9791460E-01
        1   -1    0    0  501    0  0.00000000000E+00  0.00000000000E+00  0.19197197449E+04  0.19197197449E+04  0.50400001928E-02 0.  1.
       -1   -1    0    0    0  501  0.00000000000E+00  0.00000000000E+00 -0.56422958149E+02  0.56422958374E+02  0.50400001928E-02 0. -1.
    10030    2    1    2    0    0  0.00000000000E+00  0.00000000000E+00  0.18632967868E+04  0.19761427033E+04  0.65822873548E+03 0.  0.
        1    1    3    3  502    0  0.47104005408E+02  0.93276491687E+02  0.18685936165E+04  0.18715131298E+04  0.50400001928E-02 0.  1.
       -1    1    3    3    0  502 -0.47104005408E+02 -0.93276491687E+02 -0.52968297340E+01  0.10462957353E+03  0.50400001928E-02 0. -1.
</event>
<event>
 5   0  0.6131198E-02  0.5319406E+03  0.7818609E-02  0.1005763E+00
        2   -1    0    0  501    0  0.00000000000E+00  0.00000000000E+00  0.19532271647E+04  0.19532271647E+04  0.25500000920E-02 0.  1.
       -2   -1    0    0    0  501  0.00000000000E+00  0.00000000000E+00 -0.36217085326E+02  0.36217085416E+02  0.25500000920E-02 0. -1.
    10030    2    1    2    0    0  0.00000000000E+00  0.00000000000E+00  0.19170100794E+04  0.19894442501E+04  0.53194057930E+03 0.  0.
        1    1    3    3  502    0  0.81360014838E+02  0.43206451907E+02  0.18916563967E+04  0.18938981421E+04  0.50400001928E-02 0.  1.
       -1    1    3    3    0  502 -0.81360014838E+02 -0.43206451907E+02  0.25353682649E+02  0.95546107980E+02  0.50400001928E-02 0. -1.
</event>
<event>
 5   0  0.5899787E-02  0.6756669E+03  0.7818609E-02  0.9759774E-01
       -2   -1    0    0    0  501  0.00000000000E+00  0.00000000000E+00  0.11984040172E+03  0.11984040174E+03  0.25500000920E-02 0.  1.
        2   -1    0    0  501    0  0.00000000000E+00  0.00000000000E+00 -0.95236186106E+03  0.95236186107E+03  0.25500000920E-02 0. -1.
    10030    2    1    2    0    0  0.00000000000E+00  0.00000000000E+00 -0.83252145935E+03  0.10722022628E+04  0.67566686473E+03 0.  0.
        2    1    3    3  502    0  0.17664687828E+03  0.12122355814E+03 -0.17472580046E+01  0.21424827554E+03  0.25500000920E-02 0.  1.
       -2    1    3    3    0  502 -0.17664687828E+03 -0.12122355814E+03 -0.83077420134E+03  0.85795398727E+03  0.25500000920E-02 0. -1.
</event>
<event>
 5   0  0.6167756E-02  0.7019903E+03  0.7818609E-02  0.9713835E-01
        2   -1    0    0  501    0  0.00000000000E+00  0.00000000000E+00  0.48462811570E+03  0.48462811571E+03  0.25500000920E-02 0. -1.
       -2   -1    0    0    0  501  0.00000000000E+00  0.00000000000E+00 -0.25421055933E+03  0.25421055934E+03  0.25500000920E-02 0.  1.
    10030    2    1    2    0    0  0.00000000000E+00  0.00000000000E+00  0.23041755638E+03  0.73883867505E+03  0.70199026878E+03 0.  0.
        4    1    3    3  502    0  0.16788241820E+03 -0.13085828019E+03  0.40894169774E+03  0.46102420857E+03  0.12699999809E+01 0. -1.
       -4    1    3    3    0  502 -0.16788241820E+03  0.13085828019E+03 -0.17852414136E+03  0.27781446648E+03  0.12699999809E+01 0.  1.
</event>
<event>
 5   0  0.3755872E-02  0.7007269E+03  0.7818609E-02  0.9715990E-01
        1   -1    0    0  501    0  0.00000000000E+00  0.00000000000E+00  0.10409412249E+04  0.10409412249E+04  0.50400001928E-02 0.  1.
       -1   -1    0    0    0  501  0.00000000000E+00  0.00000000000E+00 -0.11792649524E+03  0.11792649535E+03  0.50400001928E-02 0. -1.
    10030    2    1    2    0    0  0.00000000000E+00  0.00000000000E+00  0.92301472963E+03  0.11588677202E+04  0.70072690964E+03 0.  0.
        2    1    3    3  502    0  0.10152610659E+03 -0.32071373204E+03  0.29955487423E+03  0.45044197286E+03  0.25500000920E-02 0. -1.
       -2    1    3    3    0  502 -0.10152610659E+03  0.32071373204E+03  0.62345985540E+03  0.70842574737E+03  0.25500000920E-02 0.  1.
</event>
<event>
 5   0  0.3439015E-02  0.6655286E+03  0.7818609E-02  0.9778069E-01
       -1   -1    0    0    0  501  0.00000000000E+00  0.00000000000E+00  0.28233880365E+03  0.28233880370E+03  0.50400001928E-02 0.  1.
        1   -1    0    0  501    0  0.00000000000E+00  0.00000000000E+00 -0.39219575517E+03  0.39219575520E+03  0.50400001928E-02 0. -1.
    10030    2    1    2    0    0  0.00000000000E+00  0.00000000000E+00 -0.10985695152E+03  0.67453455890E+03  0.66552860296E+03 0.  0.
        1    1    3    3  502    0  0.12521329512E+03  0.16493870146E+03 -0.31893155962E+03  0.38026370358E+03  0.50400001928E-02 0. -1.
       -1    1    3    3    0  502 -0.12521329512E+03 -0.16493870146E+03  0.20907460810E+03  0.29427085532E+03  0.50400001928E-02 0.  1.
</event>
<event>
 5   0  0.6167756E-02  0.6684308E+03  0.7818609E-02  0.9772797E-01
       -2   -1    0    0    0  501  0.00000000000E+00  0.00000000000E+00  0.41859836325E+03  0.41859836326E+03  0.25500000920E-02 0. -1.
        2   -1    0    0  501    0  0.00000000000E+00  0.00000000000E+00 -0.26684272106E+03  0.26684272108E+03  0.25500000920E-02 0.  1.
    10030    2    1    2    0    0  0.00000000000E+00  0.00000000000E+00  0.15175564218E+03  0.68544108433E+03  0.66843077813E+03 0.  0.
        4    1    3    3  502    0 -0.31428808232E+03 -0.10241790134E+03  0.12644695251E+03  0.35391647306E+03  0.12699999809E+01 0.  1.
       -4    1    3    3    0  502  0.31428808232E+03  0.10241790134E+03  0.25308689671E+02  0.33152461127E+03  0.12699999809E+01 0. -1.
</event>
<event>
 5   0  0.5987810E-02  0.7020412E+03  0.7818609E-02  0.9713748E-01
        2   -1    0    0  501    0  0.00000000000E+00  0.00000000000E+00  0.12480002554E+04  0.12480002554E+04  0.25500000920E-02 0.  1.
       -2   -1    0    0    0  501  0.00000000000E+00  0.00000000000E+00 -0.98730328286E+02  0.98730328319E+02  0.25500000920E-02 0. -1.
    10030    2    1    2    0    0  0.00000000000E+00  0.00000000000E+00  0.11492699271E+04  0.13467305838E+04  0.70204123795E+03 0.  0.
        5    1    3    3  502    0 -0.22846554686E+03 -0.13330919938E+03  0.13206888627E+03  0.29568924475E+03  0.46999998093E+01 0. -1.
       -5    1    3    3    0  502  0.22846554686E+03  0.13330919938E+03  0.10172010409E+04  0.10510413390E+04  0.46999998093E+01 0.  1.
</event>
<event>
 5   0  0.2439375E-02  0.6704662E+03  0.7818609E-02  0.9769116E-01
       -4   -1    0    0    0  501  0.00000000000E+00  0.00000000000E+00  0.11500847178E+03  0.11501548366E+03  0.12699999809E+01 0.  1.
        4   -1    0    0  501    0  0.00000000000E+00  0.00000000000E+00 -0.97711876004E+03  0.97711958537E+03  0.12699999809E+01 0. -1.
    10030    2    1    2    0    0  0.00000000000E+00  0.00000000000E+00 -0.86211028825E+03  0.10921350690E+04  0.67046615119E+03 0.  0.
        3    1    3    3  502    0  0.21448866940E+03 -0.18213907314E+03 -0.13424672708E+03  0.31177271400E+03  0.10100000352E+00 0. -1.
       -3    1    3    3    0  502 -0.21448866940E+03  0.18213907314E+03 -0.72786356117E+03  0.78036235503E+03  0.10100000352E+00 0.  1.
</event>
<event>
 5   0  0.2439375E-02  0.6961519E+03  0.7818609E-02  0.9723836E-01
       -3   -1    0    0    0  501  0.00000000000E+00  0.00000000000E+00  0.33304394874E+03  0.33304396406E+03  0.10100000352E+00 0.  1.
        3   -1    0    0  501    0  0.00000000000E+00  0.00000000000E+00 -0.36378637944E+03  0.36378639346E+03  0.10100000352E+00 0. -1.
    10030    2    1    2    0    0  0.00000000000E+00  0.00000000000E+00 -0.30742430698E+02  0.69683035752E+03  0.69615188725E+03 0.  0.
        2    1    3    3  502    0  0.17415419591E+03 -0.11446783363E+03 -0.29443369544E+03  0.36072672469E+03  0.25500000920E-02 0. -1.
       -2    1    3    3    0  502 -0.17415419591E+03  0.11446783363E+03  0.26369126475E+03  0.33610363283E+03  0.25500000920E-02 0.  1.
</event>
<event>
 5   0  0.3717372E-02  0.6319469E+03  0.7818609E-02  0.9841257E-01
        1   -1    0    0  501    0  0.00000000000E+00  0.00000000000E+00  0.95255499952E+03  0.95255499954E+03  0.50400001928E-02 0.  1.
       -1   -1    0    0    0  501  0.00000000000E+00  0.00000000000E+00 -0.10481203406E+03  0.10481203418E+03  0.50400001928E-02 0. -1.
    10030    2    1    2    0    0  0.00000000000E+00  0.00000000000E+00  0.84774296547E+03  0.10573670337E+04  0.63194691905E+03 0.  0.
        3    1    3    3  502    0  0.52703267948E+02 -0.75485928900E+02  0.92961628393E+03  0.93416390717E+03  0.10100000352E+00 0.  1.
       -3    1    3    3    0  502 -0.52703267948E+02  0.75485928900E+02 -0.81873318460E+02  0.12320312655E+03  0.10100000352E+00 0. -1.
</event>
<event>
 5   0  0.5899787E-02  0.6949651E+03  0.7818609E-02  0.9725881E-01
       -2   -1    0    0    0  501  0.00000000000E+00  0.00000000000E+00  0.98087900416E+02  0.98087900449E+02  0.25500000920E-02 0.  1.
        2   -1    0    0  501    0  0.00000000000E+00  0.00000000000E+00 -0.12309787351E+04  0.12309787351E+04  0.25500000920E-02 0. -1.
    10030    2    1    2    0    0  0.00000000000E+00  0.00000000000E+00 -0.11328908346E+04  0.13290666355E+04  0.69496509150E+03 0.  0.
        2    1    3    3  502    0 -0.33219645178E+03  0.80182252507E+02 -0.68679807121E+03  0.76712141596E+03  0.25500000920E-02 0. -1.
       -2    1    3    3    0  502  0.33219645178E+03 -0.80182252507E+02 -0.44609276343E+03  0.56194521955E+03  0.25500000920E-02 0.  1.
</event>
<event>
 5   0  0.6167756E-02  0.7014141E+03  0.7818609E-02  0.9714817E-01
       -2   -1    0    0    0  501  0.00000000000E+00  0.00000000000E+00  0.73424697410E+02  0.73424697455E+02  0.25500000920E-02 0. -1.
        2   -1    0    0  501    0  0.00000000000E+00  0.00000000000E+00 -0.16751235532E+04  0.16751235532E+04  0.25500000920E-02 0.  1.
    10030    2    1    2    0    0  0.00000000000E+00  0.00000000000E+00 -0.16016988558E+04  0.17485482507E+04  0.70141411466E+03 0.  0.
        4    1    3    3  502    0 -0.26851520123E+03 -0.35552460060E+02 -0.13562071205E+04  0.13829908739E+04  0.12699999809E+01 0.  1.
       -4    1    3    3    0  502  0.26851520123E+03  0.35552460060E+02 -0.24549173532E+03  0.36555737678E+03  0.12699999809E+01 0. -1.
</event>
<event>
 5   0  0.3439015E-02  0.6939070E+03  0.7818609E-02  0.9727709E-01
       -1   -1    0    0    0  501  0.00000000000E+00  0.00000000000E+00  0.55133289528E+03  0.55133289531E+03  0.50400001928E-02 0.  1.
        1   -1    0    0  501    0  0.00000000000E+00  0.00000000000E+00 -0.21833768034E+03  0.21833768039E+03  0.50400001928E-02 0. -1.
    10030    2    1    2    0    0  0.00000000000E+00  0.00000000000E+00  0.33299521495E+03  0.76967057570E+03  0.69390704127E+03 0.  0.
        1    1    3    3  502    0  0.16357115032E+03 -0.11388816747E+03 -0.14850031233E+03  0.24855256726E+03  0.50400001928E-02 0. -1.
       -1    1    3    3    0  502 -0.16357115032E+03  0.11388816747E+03  0.48149552728E+03  0.52111800844E+03  0.50400001928E-02 0.  1.
</event>
<event>
 5   0  0.3439015E-02  0.6963770E+03  0.7818609E-02  0.9723448E-01
        1   -1    0    0  501    0  0.00000000000E+00  0.00000000000E+00  0.48108649318E+03  0.48108649321E+03  0.50400001928E-02 0. -1.
       -1   -1    0    0    0  501  0.00000000000E+00  0.00000000000E+00 -0.25200300306E+03  0.25200300311E+03  0.50400001928E-02 0.  1.
    10030    2    1    2    0    0  0.00000000000E+00  0.00000000000E+00  0.22908349012E+03  0.73308949632E+03  0.69637702731E+03 0.  0.
        1    1    3    3  502    0  0.11342407541E+03 -0.21586520998E+03  0.37618522007E+03  0.44830584380E+03  0.50400001928E-02 0. -1.
       -1    1    3    3    0  502 -0.11342407541E+03  0.21586520998E+03 -0.14710172994E+03  0.28478365252E+03  0.50400001928E-02 0.  1.
</event>
<event>
 5   0  0.6248886E-02  0.6901617E+03  0.7818609E-02  0.9734206E-01
       -2   -1    0    0    0  501  0.00000000000E+00  0.00000000000E+00  0.10384005720E+03  0.10384005724E+03  0.25500000920E-02 0. -1.
        2   -1    0    0  501    0  0.00000000000E+00  0.00000000000E+00 -0.11467713599E+04  0.11467713599E+04  0.25500000920E-02 0.  1.
    10030    2    1    2    0    0  0.00000000000E+00  0.00000000000E+00 -0.10429313027E+04  0.12506114171E+04  0.69016173070E+03 0.  0.
        3    1    3    3  502    0  0.28325181163E+02 -0.17078669421E+03 -0.10623889269E+04  0.10764017155E+04  0.10100000352E+00 0.  1.
       -3    1    3    3    0  502 -0.28325181163E+02  0.17078669421E+03  0.19457624247E+02  0.17420970165E+03  0.10100000352E+00 0. -1.
</event>
<event>
 5   0  0.3749730E-02  0.7030701E+03  0.7818609E-02  0.9711996E-01
       -1   -1    0    0    0  501  0.00000000000E+00  0.00000000000E+00  0.46660497885E+03  0.46660497888E+03  0.50400001928E-02 0.  1.
        1   -1    0    0  501    0  0.00000000000E+00  0.00000000000E+00 -0.26484261018E+03  0.26484261023E+03  0.50400001928E-02 0. -1.
    10030    2    1    2    0    0  0.00000000000E+00  0.00000000000E+00  0.20176236867E+03  0.73144758910E+03  0.70307006919E+03 0.  0.
        4    1    3    3  502    0 -0.61539615553E+02 -0.10675412443E+03  0.44339856763E+03  0.46020372667E+03  0.12699999809E+01 0.  1.
       -4    1    3    3    0  502  0.61539615553E+02  0.10675412443E+03 -0.24163619895E+03  0.27124386244E+03  0.12699999809E+01 0. -1.
</event>
<event>
 5   0  0.3439015E-02  0.7076918E+03  0.7818609E-02  0.9704168E-01
       -1   -1    0    0    0  501  0.00000000000E+00  0.00000000000E+00  0.59250793979E+03  0.59250793981E+03  0.50400001928E-02 0.  1.
        1   -1    0    0  501    0  0.00000000000E+00  0.00000000000E+00 -0.21131685213E+03  0.21131685219E+03  0.50400001928E-02 0. -1.
    10030    2    1    2    0    0  0.00000000000E+00  0.00000000000E+00  0.38119108766E+03  0.80382479200E+03  0.70769177678E+03 0.  0.
        1    1    3    3  502    0  0.25136938969E+03  0.92749957410E+02  0.45311421533E+03  0.52640442326E+03  0.50400001928E-02 0.  1.
       -1    1    3    3    0  502 -0.25136938969E+03 -0.92749957410E+02 -0.71923127670E+02  0.27742036874E+03  0.50400001928E-02 0. -1.
</event>
<event>
 5   0  0.2439375E-02  0.8889607E+03  0.7818609E-02  0.9439487E-01
        3   -1    0    0  501    0  0.00000000000E+00  0.00000000000E+00  0.39706025075E+03  0.39706026360E+03  0.10100000352E+00 0.  1.
       -3   -1    0    0    0  501  0.00000000000E+00  0.00000000000E+00 -0.49756372278E+03  0.49756373303E+03  0.10100000352E+00 0. -1.
    10030    2    1    2    0    0  0.00000000000E+00  0.00000000000E+00 -0.10050347202E+03  0.89462399662E+03  0.88896071198E+03 0.  0.
        2    1    3    3  502    0  0.35195397290E+03  0.20017325769E+03  0.13427904046E+03  0.42658151958E+03  0.25500000920E-02 0.  1.
       -2    1    3    3    0  502 -0.35195397290E+03 -0.20017325769E+03 -0.23478251248E+03  0.46804247704E+03  0.25500000920E-02 0. -1.
</event>
<event>
 5   0  0.3439015E-02  0.5047566E+03  0.7818609E-02  0.1012545E+00
       -1   -1    0    0    0  501  0.00000000000E+00  0.00000000000E+00  0.38845211310E+02  0.38845211637E+02  0.50400001928E-02 0. -1.
        1   -1    0    0  501    0  0.00000000000E+00  0.00000000000E+00 -0.16397083193E+04  0.16397083193E+04  0.50400001928E-02 0.  1.
    10030    2    1    2    0    0  0.00000000000E+00  0.00000000000E+00 -0.16008631079E+04  0.16785535309E+04  0.50475664009E+03 0.  0.
        1    1    3    3  502    0  0.10061493220E+03 -0.90674075108E+01 -0.15695378103E+04  0.15727855927E+04  0.50400001928E-02 0.  1.
       -1    1    3    3    0  502 -0.10061493220E+03  0.90674075108E+01 -0.31325297626E+02  0.10576793823E+03  0.50400001928E-02 0. -1.
</event>
<event>
 5   0  0.3717372E-02  0.7011001E+03  0.7818609E-02  0.9715353E-01
        1   -1    0    0  501    0  0.00000000000E+00  0.00000000000E+00  0.45480261126E+03  0.45480261129E+03  0.50400001928E-02 0.  1.
       -1   -1    0    0    0  501  0.00000000000E+00  0.00000000000E+00 -0.27019486983E+03  0.27019486987E+03  0.50400001928E-02 0. -1.
    10030    2    1    2    0    0  0.00000000000E+00  0.00000000000E+00  0.18460774143E+03  0.72499748116E+03  0.70110008522E+03 0.  0.
        3    1    3    3  502    0  0.20015715433E+03 -0.27805126811E+03  0.15544847164E+02  0.34295341754E+03  0.10100000352E+00 0.  1.
       -3    1    3    3    0  502 -0.20015715433E+03  0.27805126811E+03  0.16906289427E+03  0.38204406362E+03  0.10100000352E+00 0. -1.
</event>
<event>
 5   0  0.5987810E-02  0.7242920E+03  0.7818609E-02  0.9676568E-01
       -2   -1    0    0    0  501  0.00000000000E+00  0.00000000000E+00  0.15818578900E+03  0.15818578902E+03  0.25500000920E-02 0.  1.
        2   -1    0    0  501    0  0.00000000000E+00  0.00000000000E+00 -0.82908674809E+03  0.82908674809E+03  0.25500000920E-02 0. -1.
    10030    2    1    2    0    0  0.00000000000E+00  0.00000000000E+00 -0.67090095909E+03  0.98727253711E+03  0.72429204442E+03 0.  0.
        5    1    3    3  502    0 -0.17318968264E+02 -0.25297634686E+03  0.16929525717E+02  0.25417646935E+03  0.46999998093E+01 0.  1.
       -5    1    3    3    0  502  0.17318968264E+02  0.25297634686E+03 -0.68783048481E+03  0.73309606776E+03  0.46999998093E+01 0. -1.
</event>
<event>
 5   0  0.3749730E-02  0.7111657E+03  0.7818609E-02  0.9698326E-01
       -1   -1    0    0    0  501  0.00000000000E+00  0.00000000000E+00  0.46182079317E+03  0.46182079319E+03  0.50400001928E-02 0. -1.
        1   -1    0    0  501    0  0.00000000000E+00  0.00000000000E+00 -0.27378403974E+03  0.27378403978E+03  0.50400001928E-02 0.  1.
    10030    2    1    2    0    0  0.00000000000E+00  0.00000000000E+00  0.18803675343E+03  0.73560483297E+03  0.71116569775E+03 0.  0.
        4    1    3    3  502    0 -0.14911065067E+03  0.26333392813E+03 -0.99102855930E+02  0.31843638737E+03  0.12699999809E+01 0.  1.
       -4    1    3    3    0  502  0.14911065067E+03 -0.26333392813E+03  0.28713960936E+03  0.41716844561E+03  0.12699999809E+01 0. -1.
</event>
<event>
 5   0  0.3439015E-02  0.7062203E+03  0.7818609E-02  0.9706653E-01
       -1   -1    0    0    0  501  0.00000000000E+00  0.00000000000E+00  0.25205120526E+03  0.25205120531E+03  0.50400001928E-02 0.  1.
        1   -1    0    0  501    0  0.00000000000E+00  0.00000000000E+00 -0.49468825072E+03  0.49468825074E+03  0.50400001928E-02 0. -1.
    10030    2    1    2    0    0  0.00000000000E+00  0.00000000000E+00 -0.24263704546E+03  0.74673945606E+03  0.70622027683E+03 0.  0.
        1    1    3    3  502    0  0.13405728275E+03 -0.31031341742E+03 -0.13378236072E+02  0.33829683610E+03  0.50400001928E-02 0.  1.
       -1    1    3    3    0  502 -0.13405728275E+03  0.31031341742E+03 -0.22925880939E+03  0.40844261996E+03  0.50400001928E-02 0. -1.
</event>
<event>
 5   0  0.3439015E-02  0.7140089E+03  0.7818609E-02  0.9693571E-01
       -1   -1    0    0    0  501  0.00000000000E+00  0.00000000000E+00  0.43233268116E+03  0.43233268119E+03  0.50400001928E-02 0. -1.
        1   -1    0    0  501    0  0.00000000000E+00  0.00000000000E+00 -0.29480112944E+03  0.29480112949E+03  0.50400001928E-02 0.  1.
    10030    2    1    2    0    0  0.00000000000E+00  0.00000000000E+00  0.13753155172E+03  0.72713381068E+03  0.71400885913E+03 0.  0.
        1    1    3    3  502    0 -0.13488963066E+03  0.85546865163E+02  0.39391314951E+03  0.42506593369E+03  0.50400001928E-02 0. -1.
       -1    1    3    3    0  502  0.13488963066E+03 -0.85546865163E+02 -0.25638159779E+03  0.30206787699E+03  0.50400001928E-02 0.  1.
</event>
<event>
 5   0  0.5987810E-02  0.6935911E+03  0.7818609E-02  0.9728255E-01
       -2   -1    0    0    0  501  0.00000000000E+00  0.00000000000E+00  0.35347986341E+03  0.35347986342E+03  0.25500000920E-02 0. -1.
        2   -1    0    0  501    0  0.00000000000E+00  0.00000000000E+00 -0.34023768597E+03  0.34023768598E+03  0.25500000920E-02 0.  1.
    10030    2    1    2    0    0  0.00000000000E+00  0.00000000000E+00  0.13242177440E+02  0.69371754940E+03  0.69359114980E+03 0.  0.
        5    1    3    3  502    0  0.92589014127E+02  0.33417347288E+03  0.59536877896E+01  0.34684603487E+03  0.46999998093E+01 0. -1.
       -5    1    3    3    0  502 -0.92589014127E+02 -0.33417347288E+03  0.72884896501E+01  0.34687151453E+03  0.46999998093E+01 0.  1.
</event>
<event>
 5   0  0.2439375E-02  0.7053965E+03  0.7818609E-02  0.9708048E-01
       -3   -1    0    0    0  501  0.00000000000E+00  0.00000000000E+00  0.78808496566E+03  0.78808497213E+03  0.10100000352E+00 0. -1.
        3   -1    0    0  501    0  0.00000000000E+00  0.00000000000E+00 -0.15784598853E+03  0.15784602084E+03  0.10100000352E+00 0.  1.
    10030    2    1    2    0    0  0.00000000000E+00  0.00000000000E+00  0.63023897713E+03  0.94593099297E+03  0.70539653754E+03 0.  0.
        5    1    3    3  502    0 -0.23681421981E+03 -0.31284340672E+02 -0.32800819778E+02  0.24115901072E+03  0.46999998093E+01 0.  1.
       -5    1    3    3    0  502  0.23681421981E+03  0.31284340672E+02  0.66303979691E+03  0.70477198225E+03  0.46999998093E+01 0. -1.
</event>
<event>
 5   0  0.6167756E-02  0.6938630E+03  0.7818609E-02  0.9727785E-01
       -2   -1    0    0    0  501  0.00000000000E+00  0.00000000000E+00  0.15922987092E+03  0.15922987094E+03  0.25500000920E-02 0.  1.
        2   -1    0    0  501    0  0.00000000000E+00  0.00000000000E+00 -0.75589747435E+03  0.75589747435E+03  0.25500000920E-02 0. -1.
    10030    2    1    2    0    0  0.00000000000E+00  0.00000000000E+00 -0.59666760343E+03  0.91512734529E+03  0.69386297575E+03 0.  0.
        4    1    3    3  502    0  0.24881933951E+03  0.70894269408E+02 -0.60317318452E+03  0.65632047399E+03  0.12699999809E+01 0. -1.
       -4    1    3    3    0  502 -0.24881933951E+03 -0.70894269408E+02  0.65055810859E+01  0.25880687130E+03  0.12699999809E+01 0.  1.
</event>
<event>
 5   0  0.3601475E-02  0.6963220E+03  0.7818609E-02  0.9723543E-01
       -1   -1    0    0    0  501  0.00000000000E+00  0.00000000000E+00  0.15200721012E+03  0.15200721021E+03  0.50400001928E-02 0. -1.
        1   -1    0    0  501    0  0.00000000000E+00  0.00000000000E+00 -0.79743636326E+03  0.79743636328E+03  0.50400001928E-02 0.  1.
    10030    2    1    2    0    0  0.00000000000E+00  0.00000000000E+00 -0.64542915314E+03  0.94944357349E+03  0.69632198552E+03 0.  0.
        5    1    3    3  502    0 -0.17181893933E+03 -0.22251699706E+03 -0.60267796441E+03  0.66504013464E+03  0.46999998093E+01 0.  1.
       -5    1    3    3    0  502  0.17181893933E+03  0.22251699706E+03 -0.42751188728E+02  0.28440343885E+03  0.46999998093E+01 0. -1.
</event>
<event>
 5   0  0.6167756E-02  0.6977567E+03  0.7818609E-02  0.9721076E-01
        2   -1    0    0  501    0  0.00000000000E+00  0.00000000000E+00  0.49488780257E+03  0.49488780258E+03  0.25500000920E-02 0. -1.
       -2   -1    0    0    0  501  0.00000000000E+00  0.00000000000E+00 -0.24594683499E+03  0.24594683500E+03  0.25500000920E-02 0.  1.
    10030    2    1    2    0    0  0.00000000000E+00  0.00000000000E+00  0.24894096758E+03  0.74083463758E+03  0.69775665880E+03 0.  0.
        4    1    3    3  502    0 -0.36183678799E+02  0.16135295402E+02 -0.24354823132E+03  0.24675283230E+03  0.12699999809E+01 0.  1.
       -4    1    3    3    0  502  0.36183678799E+02 -0.16135295402E+02  0.49248919891E+03  0.49408180528E+03  0.12699999809E+01 0. -1.
</event>
<event>
 5   0  0.3717372E-02  0.7208829E+03  0.7818609E-02  0.9682171E-01
        1   -1    0    0  501    0  0.00000000000E+00  0.00000000000E+00  0.44725947157E+03  0.44725947160E+03  0.50400001928E-02 0. -1.
       -1   -1    0    0    0  501  0.00000000000E+00  0.00000000000E+00 -0.29047573052E+03  0.29047573056E+03  0.50400001928E-02 0.  1.
    10030    2    1    2    0    0  0.00000000000E+00  0.00000000000E+00  0.15678374105E+03  0.73773520216E+03  0.72088285252E+03 0.  0.
        3    1    3    3  502    0 -0.17182353567E+03 -0.25272527957E+03 -0.11719002388E+03  0.32730246904E+03  0.10100000352E+00 0.  1.
       -3    1    3    3    0  502  0.17182353567E+03  0.25272527957E+03  0.27397376493E+03  0.41043273312E+03  0.10100000352E+00 0. -1.
</event>
<event>
 5   0  0.5899787E-02  0.6852092E+03  0.7818609E-02  0.9742866E-01
        2   -1    0    0  501    0  0.00000000000E+00  0.00000000000E+00  0.66944527091E+03  0.66944527091E+03  0.25500000920E-02 0. -1.
       -2   -1    0    0    0  501  0.00000000000E+00  0.00000000000E+00 -0.17533606361E+03  0.17533606363E+03  0.25500000920E-02 0.  1.
    10030    2    1    2    0    0  0.00000000000E+00  0.00000000000E+00  0.49410920730E+03  0.84478133455E+03  0.68520916111E+03 0.  0.
        2    1    3    3  502    0  0.30944374811E+03  0.13754099561E+03  0.31117555514E+03  0.45989475409E+03  0.25500000920E-02 0.  1.
       -2    1    3    3    0  502 -0.30944374811E+03 -0.13754099561E+03  0.18293365215E+03  0.38488658045E+03  0.25500000920E-02 0. -1.
</event>
<event>
 5   0  0.6131198E-02  0.7030281E+03  0.7818609E-02  0.9712068E-01
       -2   -1    0    0    0  501  0.00000000000E+00  0.00000000000E+00  0.86828396062E+02  0.86828396099E+02  0.25500000920E-02 0.  1.
        2   -1    0    0  501    0  0.00000000000E+00  0.00000000000E+00 -0.14230610922E+04  0.14230610922E+04  0.25500000920E-02 0. -1.
    10030    2    1    2    0    0  0.00000000000E+00  0.00000000000E+00 -0.13362326961E+04  0.15098894883E+04  0.70302805680E+03 0.  0.
        1    1    3    3  502    0 -0.44184879926E+02 -0.18587617567E+03 -0.13018130926E+04  0.13157581785E+04  0.50400001928E-02 0. -1.
       -1    1    3    3    0  502  0.44184879926E+02  0.18587617567E+03 -0.34419603530E+02  0.19413130976E+03  0.50400001928E-02 0.  1.
</event>
<event>
 5   0  0.2439375E-02  0.6889113E+03  0.7818609E-02  0.9736385E-01
       -3   -1    0    0    0  501  0.00000000000E+00  0.00000000000E+00  0.90104810618E+02  0.90104867224E+02  0.10100000352E+00 0. -1.
        3   -1    0    0  501    0  0.00000000000E+00  0.00000000000E+00 -0.13167960066E+04  0.13167960105E+04  0.10100000352E+00 0.  1.
    10030    2    1    2    0    0  0.00000000000E+00  0.00000000000E+00 -0.12266911960E+04  0.14069008777E+04  0.68891130733E+03 0.  0.
        3    1    3    3  502    0  0.29756503746E+03  0.16125999356E+03 -0.74410998224E+03  0.81746523652E+03  0.10100000352E+00 0. -1.
       -3    1    3    3    0  502 -0.29756503746E+03 -0.16125999356E+03 -0.48258121375E+03  0.58943564119E+03  0.10100000352E+00 0.  1.
</event>
<event>
 5   0  0.3749730E-02  0.7060961E+03  0.7818609E-02  0.9706863E-01
       -1   -1    0    0    0  501  0.00000000000E+00  0.00000000000E+00  0.73966333943E+02  0.73966334115E+02  0.50400001928E-02 0. -1.
        1   -1    0    0  501    0  0.00000000000E+00  0.00000000000E+00 -0.16851305880E+04  0.16851305880E+04  0.50400001928E-02 0.  1.
    10030    2    1    2    0    0  0.00000000000E+00  0.00000000000E+00 -0.16111642540E+04  0.17590969221E+04  0.70609611800E+03 0.  0.
        4    1    3    3  502    0 -0.17184806940E+03 -0.26649931446E+03 -0.11922369135E+04  0.12336872028E+04  0.12699999809E+01 0.  1.
       -4    1    3    3    0  502  0.17184806940E+03  0.26649931446E+03 -0.41892734048E+03  0.52540971923E+03  0.12699999809E+01 0. -1.
</event>
<event>
 5   0  0.6131198E-02  0.7091462E+03  0.7818609E-02  0.9701717E-01
       -2   -1    0    0    0  501  0.00000000000E+00  0.00000000000E+00  0.37612412366E+03  0.37612412367E+03  0.25500000920E-02 0. -1.
        2   -1    0    0  501    0  0.00000000000E+00  0.00000000000E+00 -0.33425694174E+03  0.33425694175E+03  0.25500000920E-02 0.  1.
    10030    2    1    2    0    0  0.00000000000E+00  0.00000000000E+00  0.41867181924E+02  0.71038106542E+03  0.70914624527E+03 0.  0.
        1    1    3    3  502    0  0.28120176234E+02  0.18173217110E+03  0.32461947303E+03  0.37308863373E+03  0.50400001928E-02 0. -1.
       -1    1    3    3    0  502 -0.28120176234E+02 -0.18173217110E+03 -0.28275229111E+03  0.33729243169E+03  0.50400001928E-02 0.  1.
</event>
<event>
 5   0  0.2439375E-02  0.7161657E+03  0.7818609E-02  0.9689979E-01
        4   -1    0    0  501    0  0.00000000000E+00  0.00000000000E+00  0.31659413700E+03  0.31659668426E+03  0.12699999809E+01 0.  1.
       -4   -1    0    0    0  501  0.00000000000E+00  0.00000000000E+00 -0.40500338931E+03  0.40500538052E+03  0.12699999809E+01 0. -1.
    10030    2    1    2    0    0  0.00000000000E+00  0.00000000000E+00 -0.88409252305E+02  0.72160206478E+03  0.71616572384E+03 0.  0.
        4    1    3    3  502    0  0.85129317400E+02  0.33399620197E+03 -0.14200459544E+03  0.37278329045E+03  0.12699999809E+01 0. -1.
       -4    1    3    3    0  502 -0.85129317400E+02 -0.33399620197E+03  0.53595343139E+02  0.34881877432E+03  0.12699999809E+01 0.  1.
</event>
<event>
 5   0  0.6167756E-02  0.6958027E+03  0.7818609E-02  0.9724437E-01
       -2   -1    0    0    0  501  0.00000000000E+00  0.00000000000E+00  0.19719215382E+03  0.19719215384E+03  0.25500000920E-02 0.  1.
        2   -1    0    0  501    0  0.00000000000E+00  0.00000000000E+00 -0.61379393006E+03  0.61379393007E+03  0.25500000920E-02 0. -1.
    10030    2    1    2    0    0  0.00000000000E+00  0.00000000000E+00 -0.41660177624E+03  0.81098608391E+03  0.69580269353E+03 0.  0.
        4    1    3    3  502    0  0.17780997889E+03 -0.27486306608E+03 -0.71045758716E+02  0.33498538240E+03  0.12699999809E+01 0.  1.
       -4    1    3    3    0  502 -0.17780997889E+03  0.27486306608E+03 -0.34555601752E+03  0.47600070151E+03  0.12699999809E+01 0. -1.
</event>
<event>
 5   0  0.6248886E-02  0.7162697E+03  0.7818609E-02  0.9689806E-01
        2   -1    0    0  501    0  0.00000000000E+00  0.00000000000E+00  0.73866006647E+03  0.73866006647E+03  0.25500000920E-02 0.  1.
       -2   -1    0    0    0  501  0.00000000000E+00  0.00000000000E+00 -0.17363950184E+03  0.17363950186E+03  0.25500000920E-02 0. -1.
    10030    2    1    2    0    0  0.00000000000E+00  0.00000000000E+00  0.56502056463E+03  0.91229956833E+03  0.71626968658E+03 0.  0.
        3    1    3    3  502    0 -0.27056454197E+03 -0.73474661787E+02 -0.13146337104E+01  0.28036660956E+03  0.10100000352E+00 0. -1.
       -3    1    3    3    0  502  0.27056454197E+03  0.73474661787E+02  0.56633519834E+03  0.63193295877E+03  0.10100000352E+00 0.  1.
</event>
<event>
 5   0  0.3755872E-02  0.6632789E+03  0.7818609E-02  0.9782176E-01
        1   -1    0    0  501    0  0.00000000000E+00  0.00000000000E+00  0.44174534660E+03  0.44174534663E+03  0.50400001928E-02 0.  1.
       -1   -1    0    0    0  501  0.00000000000E+00  0.00000000000E+00 -0.24897768522E+03  0.24897768527E+03  0.50400001928E-02 0. -1.
    10030    2    1    2    0    0  0.00000000000E+00  0.00000000000E+00  0.19276766138E+03  0.69072303190E+03  0.66327892739E+03 0.  0.
        2    1    3    3  502    0 -0.84210122270E+02  0.21889518768E+03 -0.14779237220E+03  0.27721658170E+03  0.25500000920E-02 0. -1.
       -2    1    3    3    0  502  0.84210122270E+02 -0.21889518768E+03  0.34056003358E+03  0.41350645020E+03  0.25500000920E-02 0.  1.
</event>
<event>
 5   0  0.3749730E-02  0.6956209E+03  0.7818609E-02  0.9724751E-01
        1   -1    0    0  501    0  0.00000000000E+00  0.00000000000E+00  0.68400340057E+03  0.68400340059E+03  0.50400001928E-02 0.  1.
       -1   -1    0    0    0  501  0.00000000000E+00  0.00000000000E+00 -0.17685890624E+03  0.17685890631E+03  0.50400001928E-02 0. -1.
    10030    2    1    2    0    0  0.00000000000E+00  0.00000000000E+00  0.50714449433E+03  0.86086230690E+03  0.69562085456E+03 0.  0.
        4    1    3    3  502    0  0.15485322883E+03  0.11903746622E+03  0.60972100807E+03  0.64024273633E+03  0.12699999809E+01 0.  1.
       -4    1    3    3    0  502 -0.15485322883E+03 -0.11903746622E+03 -0.10257651374E+03  0.22061957056E+03  0.12699999809E+01 0. -1.
</event>
<event>
 5   0  0.3717372E-02  0.7008781E+03  0.7818609E-02  0.9715732E-01
        1   -1    0    0  501    0  0.00000000000E+00  0.00000000000E+00  0.75215152495E+03  0.75215152497E+03  0.50400001928E-02 0. -1.
       -1   -1    0    0    0  501  0.00000000000E+00  0.00000000000E+00 -0.16327496177E+03  0.16327496184E+03  0.50400001928E-02 0.  1.
    10030    2    1    2    0    0  0.00000000000E+00  0.00000000000E+00  0.58887656319E+03  0.91542648682E+03  0.70087805365E+03 0.  0.
        3    1    3    3  502    0 -0.12188939292E+03  0.30530835463E+03  0.13587969498E+03  0.35571550040E+03  0.10100000352E+00 0.  1.
       -3    1    3    3    0  502  0.12188939292E+03 -0.30530835463E+03  0.45299686821E+03  0.55971098642E+03  0.10100000352E+00 0. -1.
</event>
<event>
 5   0  0.3717372E-02  0.6722540E+03  0.7818609E-02  0.9765894E-01
        1   -1    0    0  501    0  0.00000000000E+00  0.00000000000E+00  0.34324743516E+03  0.34324743519E+03  0.50400001928E-02 0.  1.
       -1   -1    0    0    0  501  0.00000000000E+00  0.00000000000E+00 -0.32915429520E+03  0.32915429524E+03  0.50400001928E-02 0. -1.
    10030    2    1    2    0    0  0.00000000000E+00  0.00000000000E+00  0.14093139956E+02  0.67240173043E+03  0.67225402230E+03 0.  0.
        3    1    3    3  502    0 -0.26064652081E+03 -0.20170893373E+03  0.73078153896E+02  0.33758484790E+03  0.10100000352E+00 0.  1.
       -3    1    3    3    0  502  0.26064652081E+03  0.20170893373E+03 -0.58985013941E+02  0.33481688253E+03  0.10100000352E+00 0. -1.
</event>
<event>
 5   0  0.6131198E-02  0.6849772E+03  0.7818609E-02  0.9743274E-01
       -2   -1    0    0    0  501  0.00000000000E+00  0.00000000000E+00  0.17530879696E+03  0.17530879698E+03  0.25500000920E-02 0. -1.
        2   -1    0    0  501    0  0.00000000000E+00  0.00000000000E+00 -0.66909611930E+03  0.66909611930E+03  0.25500000920E-02 0.  1.
    10030    2    1    2    0    0  0.00000000000E+00  0.00000000000E+00 -0.49378732234E+03  0.84440491628E+03  0.68497718424E+03 0.  0.
        1    1    3    3  502    0  0.13996992030E+03  0.19047904710E+03 -0.55241797647E+03  0.60086559789E+03  0.50400001928E-02 0.  1.
       -1    1    3    3    0  502 -0.13996992030E+03 -0.19047904710E+03  0.58630654131E+02  0.24353931839E+03  0.50400001928E-02 0. -1.
</event>
<event>
 5   0  0.5987810E-02  0.7295335E+03  0.7818609E-02  0.9668018E-01
        2   -1    0    0  501    0  0.00000000000E+00  0.00000000000E+00  0.11999215429E+04  0.11999215429E+04  0.25500000920E-02 0.  1.
       -2   -1    0    0    0  501  0.00000000000E+00  0.00000000000E+00 -0.11088622576E+03  0.11088622578E+03  0.25500000920E-02 0. -1.
    10030    2    1    2    0    0  0.00000000000E+00  0.00000000000E+00  0.10890353172E+04  0.13108077687E+04  0.72953347042E+03 0.  0.
        5    1    3    3  502    0 -0.76183517698E+02  0.14557666571E+03 -0.40569863707E+02  0.16930592963E+03  0.46999998093E+01 0. -1.
       -5    1    3    3    0  502  0.76183517698E+02 -0.14557666571E+03  0.11296051809E+04  0.11415018391E+04  0.46999998093E+01 0.  1.
</event>
<event>
 5   0  0.5899787E-02  0.7014438E+03  0.7818609E-02  0.9714766E-01
       -2   -1    0    0    0  501  0.00000000000E+00  0.00000000000E+00  0.39396501409E+03  0.39396501410E+03  0.25500000920E-02 0.  1.
        2   -1    0    0  501    0  0.00000000000E+00  0.00000000000E+00 -0.31222533177E+03  0.31222533178E+03  0.25500000920E-02 0. -1.
    10030    2    1    2    0    0  0.00000000000E+00  0.00000000000E+00  0.81739682321E+02  0.70619034587E+03  0.70144381738E+03 0.  0.
        2    1    3    3  502    0 -0.67717307096E+02  0.16447566739E+03 -0.26344693352E+03  0.31787130357E+03  0.25500000920E-02 0. -1.
       -2    1    3    3    0  502  0.67717307096E+02 -0.16447566739E+03  0.34518661585E+03  0.38831904230E+03  0.25500000920E-02 0.  1.
</event>
<event>
 5   0  0.3439015E-02  0.7027094E+03  0.7818609E-02  0.9712610E-01
       -1   -1    0    0    0  501  0.00000000000E+00  0.00000000000E+00  0.11876783114E+03  0.11876783125E+03  0.50400001928E-02 0. -1.
        1   -1    0    0  501    0  0.00000000000E+00  0.00000000000E+00 -0.10394239116E+04  0.10394239116E+04  0.50400001928E-02 0.  1.
    10030    2    1    2    0    0  0.00000000000E+00  0.00000000000E+00 -0.92065608045E+03  0.11581917429E+04  0.70270939565E+03 0.  0.
        1    1    3    3  502    0 -0.23440639213E+02 -0.45632673356E+02 -0.10332178520E+04  0.10344906641E+04  0.50400001928E-02 0.  1.
       -1    1    3    3    0  502  0.23440639213E+02  0.45632673356E+02  0.11256177154E+03  0.12370107874E+03  0.50400001928E-02 0. -1.
</event>
<event>
 5   0  0.5899787E-02  0.6791736E+03  0.7818609E-02  0.9753526E-01
        2   -1    0    0  501    0  0.00000000000E+00  0.00000000000E+00  0.82896247997E+03  0.82896247997E+03  0.25500000920E-02 0. -1.
       -2   -1    0    0    0  501  0.00000000000E+00  0.00000000000E+00 -0.13911268324E+03  0.13911268326E+03  0.25500000920E-02 0.  1.
    10030    2    1    2    0    0  0.00000000000E+00  0.00000000000E+00  0.68984979673E+03  0.96807516323E+03  0.67917360051E+03 0.  0.
        2    1    3    3  502    0 -0.26182911516E+03  0.21535056073E+03  0.31681775329E+03  0.46400844643E+03  0.25500000920E-02 0.  1.
       -2    1    3    3    0  502  0.26182911516E+03 -0.21535056073E+03  0.37303204344E+03  0.50406671681E+03  0.25500000920E-02 0. -1.
</event>
<event>
 5   0  0.3439015E-02  0.6974874E+03  0.7818609E-02  0.9721539E-01
       -1   -1    0    0    0  501  0.00000000000E+00  0.00000000000E+00  0.26075995946E+03  0.26075995951E+03  0.50400001928E-02 0. -1.
        1   -1    0    0  501    0  0.00000000000E+00  0.00000000000E+00 -0.46641423418E+03  0.46641423421E+03  0.50400001928E-02 0.  1.
    10030    2    1    2    0    0  0.00000000000E+00  0.00000000000E+00 -0.20565427472E+03  0.72717419372E+03  0.69748736712E+03 0.  0.
        1    1    3    3  502    0 -0.16368667489E+03  0.23811523810E+03 -0.30640722730E+03  0.42116218149E+03  0.50400001928E-02 0.  1.
       -1    1    3    3    0  502  0.16368667489E+03 -0.23811523810E+03  0.10075295258E+03  0.30601201223E+03  0.50400001928E-02 0. -1.
</event>
<event>
 5   0  0.3601475E-02  0.6596667E+03  0.7818609E-02  0.9788807E-01
        1   -1    0    0  501    0  0.00000000000E+00  0.00000000000E+00  0.17777186532E+04  0.17777186532E+04  0.50400001928E-02 0. -1.
       -1   -1    0    0    0  501  0.00000000000E+00  0.00000000000E+00 -0.61196434179E+02  0.61196434386E+02  0.50400001928E-02 0.  1.
    10030    2    1    2    0    0  0.00000000000E+00  0.00000000000E+00  0.17165222190E+04  0.18389150876E+04  0.65966671205E+03 0.  0.
        5    1    3    3  502    0 -0.24583122424E+02 -0.20140886793E+03  0.13348424537E+03  0.24291973108E+03  0.46999998093E+01 0.  1.
       -5    1    3    3    0  502  0.24583122424E+02  0.20140886793E+03  0.15830379737E+04  0.15959953565E+04  0.46999998093E+01 0. -1.
</event>
<event>
 5   0  0.6167756E-02  0.7029601E+03  0.7818609E-02  0.9712183E-01
       -2   -1    0    0    0  501  0.00000000000E+00  0.00000000000E+00  0.42031336760E+03  0.42031336760E+03  0.25500000920E-02 0. -1.
        2   -1    0    0  501    0  0.00000000000E+00  0.00000000000E+00 -0.29391936845E+03  0.29391936847E+03  0.25500000920E-02 0.  1.
    10030    2    1    2    0    0  0.00000000000E+00  0.00000000000E+00  0.12639399914E+03  0.71423273607E+03  0.70296013988E+03 0.  0.
        4    1    3    3  502    0 -0.24707778904E+01 -0.51807105429E+02  0.41640145436E+03  0.41962109696E+03  0.12699999809E+01 0. -1.
       -4    1    3    3    0  502  0.24707778904E+01  0.51807105429E+02 -0.29000745522E+03  0.29461163911E+03  0.12699999809E+01 0.  1.
</event>
<event>
 5   0  0.3439015E-02  0.7889084E+03  0.7818609E-02  0.9576212E-01
        1   -1    0    0  501    0  0.00000000000E+00  0.00000000000E+00  0.10650847438E+03  0.10650847450E+03  0.50400001928E-02 0. -1.
       -1   -1    0    0    0  501  0.00000000000E+00  0.00000000000E+00 -0.14608614268E+04  0.14608614269E+04  0.50400001928E-02 0.  1.
    10030    2    1    2    0    0  0.00000000000E+00  0.00000000000E+00 -0.13543529525E+04  0.15673699014E+04  0.78890841536E+03 0.  0.
        1    1    3    3  502    0 -0.10874878888E+03 -0.33766229383E+03 -0.33448525184E+03  0.48756795166E+03  0.50400001928E-02 0. -1.
       -1    1    3    3    0  502  0.10874878888E+03  0.33766229383E+03 -0.10198677006E+04  0.10798019497E+04  0.50400001928E-02 0.  1.
</event>
<event>
 5   0  0.3601475E-02  0.6756813E+03  0.7818609E-02  0.9759749E-01
       -1   -1    0    0    0  501  0.00000000000E+00  0.00000000000E+00  0.44613633516E+03  0.44613633518E+03  0.50400001928E-02 0.  1.
        1   -1    0    0  501    0  0.00000000000E+00  0.00000000000E+00 -0.25583279380E+03  0.25583279385E+03  0.50400001928E-02 0. -1.
    10030    2    1    2    0    0  0.00000000000E+00  0.00000000000E+00  0.19030354135E+03  0.70196912904E+03  0.67568130081E+03 0.  0.
        5    1    3    3  502    0  0.75103532803E+02  0.80575023547E+02 -0.23661773844E+03  0.26104198743E+03  0.46999998093E+01 0. -1.
       -5    1    3    3    0  502 -0.75103532803E+02 -0.80575023547E+02  0.42692127980E+03  0.44092714160E+03  0.46999998093E+01 0.  1.
</event>
<event>
 5   0  0.3439015E-02  0.6994133E+03  0.7818609E-02  0.9718236E-01
        1   -1    0    0  501    0  0.00000000000E+00  0.00000000000E+00  0.28947306622E+03  0.28947306626E+03  0.50400001928E-02 0.  1.
       -1   -1    0    0    0  501  0.00000000000E+00  0.00000000000E+00 -0.42247370388E+03  0.42247370391E+03  0.50400001928E-02 0. -1.
    10030    2    1    2    0    0  0.00000000000E+00  0.00000000000E+00 -0.13300063766E+03  0.71194677017E+03  0.69941334984E+03 0.  0.
        1    1    3    3  502    0  0.17428623667E+03 -0.28072530649E+03  0.50060926527E+02  0.33419827407E+03  0.50400001928E-02 0.  1.
       -1    1    3    3    0  502 -0.17428623667E+03  0.28072530649E+03 -0.18306156419E+03  0.37774849610E+03  0.50400001928E-02 0. -1.
</event>
<event>
 5   0  0.3755872E-02  0.7504154E+03  0.7818609E-02  0.9634699E-01
        1   -1    0    0  501    0  0.00000000000E+00  0.00000000000E+00  0.62644550105E+03  0.62644550107E+03  0.50400001928E-02 0.  1.
       -1   -1    0    0    0  501  0.00000000000E+00  0.00000000000E+00 -0.22472955675E+03  0.22472955681E+03  0.50400001928E-02 0. -1.
    10030    2    1    2    0    0  0.00000000000E+00  0.00000000000E+00  0.40171594430E+03  0.85117505788E+03  0.75041540446E+03 0.  0.
        2    1    3    3  502    0 -0.35054490623E+03 -0.13148563439E+02  0.49841257698E+02  0.35431450292E+03  0.25500000920E-02 0.  1.
       -2    1    3    3    0  502  0.35054490623E+03  0.13148563439E+02  0.35187468660E+03  0.49686055497E+03  0.25500000920E-02 0. -1.
</event>
<event>
 5   0  0.3755872E-02  0.6999520E+03  0.7818609E-02  0.9717314E-01
       -1   -1    0    0    0  501  0.00000000000E+00  0.00000000000E+00  0.47560262370E+03  0.47560262373E+03  0.50400001928E-02 0. -1.
        1   -1    0    0  501    0  0.00000000000E+00  0.00000000000E+00 -0.25753261660E+03  0.25753261665E+03  0.50400001928E-02 0.  1.
    10030    2    1    2    0    0  0.00000000000E+00  0.00000000000E+00  0.21807000710E+03  0.73313524038E+03  0.69995196456E+03 0.  0.
        2    1    3    3  502    0 -0.31081512176E+03  0.14613388263E+03  0.17946909151E+03  0.38751813684E+03  0.25500000920E-02 0. -1.
       -2    1    3    3    0  502  0.31081512176E+03 -0.14613388263E+03  0.38600915594E+02  0.34561710354E+03  0.25500000920E-02 0.  1.
</event>
<event>
 5   0  0.2439375E-02  0.6477065E+03  0.7818609E-02  0.9811092E-01
       -3   -1    0    0    0  501  0.00000000000E+00  0.00000000000E+00  0.90211383364E+02  0.90211439904E+02  0.10100000352E+00 0. -1.
        3   -1    0    0  501    0  0.00000000000E+00  0.00000000000E+00 -0.11626127486E+04  0.11626127530E+04  0.10100000352E+00 0.  1.
    10030    2    1    2    0    0  0.00000000000E+00  0.00000000000E+00 -0.10724013652E+04  0.12528241929E+04  0.64770654631E+03 0.  0.
        3    1    3    3  502    0 -0.22402328964E+03  0.69714648513E+02 -0.96799439379E+03  0.99602194911E+03  0.10100000352E+00 0.  1.
       -3    1    3    3    0  502  0.22402328964E+03 -0.69714648513E+02 -0.10440697144E+03  0.25680224376E+03  0.10100000352E+00 0. -1.
</event>
<event>
 5   0  0.2439375E-02  0.6927107E+03  0.7818609E-02  0.9729780E-01
        3   -1    0    0  501    0  0.00000000000E+00  0.00000000000E+00  0.16872400635E+03  0.16872403658E+03  0.10100000352E+00 0.  1.
       -3   -1    0    0    0  501  0.00000000000E+00  0.00000000000E+00 -0.71099548497E+03  0.71099549215E+03  0.10100000352E+00 0. -1.
    10030    2    1    2    0    0  0.00000000000E+00  0.00000000000E+00 -0.54227147862E+03  0.87971952873E+03  0.69271068470E+03 0.  0.
        5    1    3    3  502    0  0.98090856750E+01  0.34544107401E+02 -0.70858429378E+03  0.70950920001E+03  0.46999998093E+01 0. -1.
       -5    1    3    3    0  502 -0.98090856750E+01 -0.34544107401E+02  0.16631281516E+03  0.17021032871E+03  0.46999998093E+01 0.  1.
</event>
<event>
 5   0  0.3601475E-02  0.6945561E+03  0.7818609E-02  0.9726588E-01
        1   -1    0    0  501    0  0.00000000000E+00  0.00000000000E+00  0.93248234975E+03  0.93248234976E+03  0.50400001928E-02 0.  1.
       -1   -1    0    0    0  501  0.00000000000E+00  0.00000000000E+00 -0.12933439007E+03  0.12933439017E+03  0.50400001928E-02 0. -1.
    10030    2    1    2    0    0  0.00000000000E+00  0.00000000000E+00  0.80314795967E+03  0.10618167399E+04  0.69455607698E+03 0.  0.
        5    1    3    3  502    0  0.26090027375E+03  0.22372642617E+03  0.32578829203E+03  0.47358480532E+03  0.46999998093E+01 0. -1.
       -5    1    3    3    0  502 -0.26090027375E+03 -0.22372642617E+03  0.47735966764E+03  0.58823193461E+03  0.46999998093E+01 0.  1.
</event>
<event>
 5   0  0.6131198E-02  0.6772059E+03  0.7818609E-02  0.9757027E-01
        2   -1    0    0  501    0  0.00000000000E+00  0.00000000000E+00  0.70078550787E+03  0.70078550788E+03  0.25500000920E-02 0.  1.
       -2   -1    0    0    0  501  0.00000000000E+00  0.00000000000E+00 -0.16360490466E+03  0.16360490467E+03  0.25500000920E-02 0. -1.
    10030    2    1    2    0    0  0.00000000000E+00  0.00000000000E+00  0.53718060322E+03  0.86439041255E+03  0.67720586592E+03 0.  0.
        1    1    3    3  502    0 -0.41819698348E+02  0.26345558188E+03  0.23921838332E+01  0.26676479034E+03  0.50400001928E-02 0. -1.
       -1    1    3    3    0  502  0.41819698348E+02 -0.26345558188E+03  0.53478841938E+03  0.59762562221E+03  0.50400001928E-02 0.  1.
</event>
<event>
 5   0  0.3755872E-02  0.5929543E+03  0.7818609E-02  0.9920132E-01
       -1   -1    0    0    0  501  0.00000000000E+00  0.00000000000E+00  0.10938294200E+03  0.10938294211E+03  0.50400001928E-02 0. -1.
        1   -1    0    0  501    0  0.00000000000E+00  0.00000000000E+00 -0.80358683921E+03  0.80358683922E+03  0.50400001928E-02 0.  1.
    10030    2    1    2    0    0  0.00000000000E+00  0.00000000000E+00 -0.69420389721E+03  0.91296978134E+03  0.59295427372E+03 0.  0.
        2    1    3    3  502    0  0.31163346436E+02 -0.25165331704E+03 -0.11057853071E+03  0.27663723104E+03  0.25500000920E-02 0. -1.
       -2    1    3    3    0  502 -0.31163346436E+02  0.25165331704E+03 -0.58362536650E+03  0.63633255029E+03  0.25500000920E-02 0.  1.
</event>
<event>
 5   0  0.6248886E-02  0.6967146E+03  0.7818609E-02  0.9722867E-01
        2   -1    0    0  501    0  0.00000000000E+00  0.00000000000E+00  0.42301304145E+03  0.42301304146E+03  0.25500000920E-02 0. -1.
       -2   -1    0    0    0  501  0.00000000000E+00  0.00000000000E+00 -0.28687726836E+03  0.28687726837E+03  0.25500000920E-02 0.  1.
    10030    2    1    2    0    0  0.00000000000E+00  0.00000000000E+00  0.13613577309E+03  0.70989030982E+03  0.69671464981E+03 0.  0.
        3    1    3    3  502    0  0.10514308206E+03  0.95752042414E+02 -0.25595433385E+03  0.29280736424E+03  0.10100000352E+00 0.  1.
       -3    1    3    3    0  502 -0.10514308206E+03 -0.95752042414E+02  0.39209010695E+03  0.41708294559E+03  0.10100000352E+00 0. -1.
</event>
<event>
 5   0  0.3749730E-02  0.8356452E+03  0.7818609E-02  0.9509809E-01
       -1   -1    0    0    0  501  0.00000000000E+00  0.00000000000E+00  0.15510511689E+03  0.15510511697E+03  0.50400001928E-02 0.  1.
        1   -1    0    0  501    0  0.00000000000E+00  0.00000000000E+00 -0.11255315678E+04  0.11255315678E+04  0.50400001928E-02 0. -1.
    10030    2    1    2    0    0  0.00000000000E+00  0.00000000000E+00 -0.97042645088E+03  0.12806366847E+04  0.83564515301E+03 0.  0.
        4    1    3    3  502    0 -0.23547643106E+03  0.34497111929E+03 -0.46843450091E+03  0.62760394938E+03  0.12699999809E+01 0. -1.
       -4    1    3    3    0  502  0.23547643106E+03 -0.34497111929E+03 -0.50199194997E+03  0.65303273537E+03  0.12699999809E+01 0.  1.
</event>
<event>
 5   0  0.6131198E-02  0.6897577E+03  0.7818609E-02  0.9734910E-01
       -2   -1    0    0    0  501  0.00000000000E+00  0.00000000000E+00  0.27817889308E+03  0.27817889309E+03  0.25500000920E-02 0. -1.
        2   -1    0    0  501    0  0.00000000000E+00  0.00000000000E+00 -0.42757165418E+03  0.42757165419E+03  0.25500000920E-02 0.  1.
    10030    2    1    2    0    0  0.00000000000E+00  0.00000000000E+00 -0.14939276110E+03  0.70575054728E+03  0.68975766608E+03 0.  0.
        1    1    3    3  502    0  0.21623946912E+03  0.12639747561E+03 -0.31727046616E+03  0.40422317916E+03  0.50400001928E-02 0.  1.
       -1    1    3    3    0  502 -0.21623946912E+03 -0.12639747561E+03  0.16787770506E+03  0.30152736812E+03  0.50400001928E-02 0. -1.
</event>
<event>
 5   0  0.3439015E-02  0.7017095E+03  0.7818609E-02  0.9714313E-01
        1   -1    0    0  501    0  0.00000000000E+00  0.00000000000E+00  0.80190994867E+03  0.80190994869E+03  0.50400001928E-02 0.  1.
       -1   -1    0    0    0  501  0.00000000000E+00  0.00000000000E+00 -0.15350732990E+03  0.15350732998E+03  0.50400001928E-02 0. -1.
    10030    2    1    2    0    0  0.00000000000E+00  0.00000000000E+00  0.64840261878E+03  0.95541727867E+03  0.70170949854E+03 0.  0.
        1    1    3    3  502    0 -0.76355616977E+02  0.42895845347E+02 -0.13838509688E+03  0.16377017084E+03  0.50400001928E-02 0. -1.
       -1    1    3    3    0  502  0.76355616977E+02 -0.42895845347E+02  0.78678771566E+03  0.79164710783E+03  0.50400001928E-02 0.  1.
</event>
<event>
 5   0  0.6167756E-02  0.6838896E+03  0.7818609E-02  0.9745187E-01
       -2   -1    0    0    0  501  0.00000000000E+00  0.00000000000E+00  0.84829820780E+03  0.84829820780E+03  0.25500000920E-02 0.  1.
        2   -1    0    0  501    0  0.00000000000E+00  0.00000000000E+00 -0.13783623434E+03  0.13783623437E+03  0.25500000920E-02 0. -1.
    10030    2    1    2    0    0  0.00000000000E+00  0.00000000000E+00  0.71046197346E+03  0.98613444217E+03  0.68388955417E+03 0.  0.
        4    1    3    3  502    0  0.97674758218E+02 -0.14981685106E+03  0.77547754432E+03  0.79583445634E+03  0.12699999809E+01 0.  1.
       -4    1    3    3    0  502 -0.97674758218E+02  0.14981685106E+03 -0.65015570861E+02  0.19029998583E+03  0.12699999809E+01 0. -1.
</event>
<event>
 5   0  0.3601475E-02  0.6946610E+03  0.7818609E-02  0.9726406E-01
        1   -1    0    0  501    0  0.00000000000E+00  0.00000000000E+00  0.65315723317E+03  0.65315723319E+03  0.50400001928E-02 0. -1.
       -1   -1    0    0    0  501  0.00000000000E+00  0.00000000000E+00 -0.18470053122E+03  0.18470053129E+03  0.50400001928E-02 0.  1.
    10030    2    1    2    0    0  0.00000000000E+00  0.00000000000E+00  0.46845670195E+03  0.83785776448E+03  0.69466103380E+03 0.  0.
        5    1    3    3  502    0 -0.45512512141E+02 -0.22241901803E+03 -0.82770104205E+02  0.24169110139E+03  0.46999998093E+01 0.  1.
       -5    1    3    3    0  502  0.45512512141E+02  0.22241901803E+03  0.55122680616E+03  0.59616666308E+03  0.46999998093E+01 0. -1.
</event>
<event>
 5   0  0.5899787E-02  0.6847349E+03  0.7818609E-02  0.9743700E-01
       -2   -1    0    0    0  501  0.00000000000E+00  0.00000000000E+00  0.97988639917E+02  0.97988639950E+02  0.25500000920E-02 0. -1.
        2   -1    0    0  501    0  0.00000000000E+00  0.00000000000E+00 -0.11962149607E+04  0.11962149607E+04  0.25500000920E-02 0.  1.
    10030    2    1    2    0    0  0.00000000000E+00  0.00000000000E+00 -0.10982263208E+04  0.12942036006E+04  0.68473491825E+03 0.  0.
        2    1    3    3  502    0 -0.15447931216E+03  0.28301994977E+03 -0.33153774699E+03  0.46247316412E+03  0.25500000920E-02 0.  1.
       -2    1    3    3    0  502  0.15447931216E+03 -0.28301994977E+03 -0.76668857376E+03  0.83173043650E+03  0.25500000920E-02 0. -1.
</event>
<event>
 5   0  0.5987810E-02  0.7023685E+03  0.7818609E-02  0.9713190E-01
        2   -1    0    0  501    0  0.00000000000E+00  0.00000000000E+00  0.65313000239E+03  0.65313000239E+03  0.25500000920E-02 0.  1.
       -2   -1    0    0    0  501  0.00000000000E+00  0.00000000000E+00 -0.18882976653E+03  0.18882976655E+03  0.25500000920E-02 0. -1.
    10030    2    1    2    0    0  0.00000000000E+00  0.00000000000E+00  0.46430023585E+03  0.84195976894E+03  0.70236852400E+03 0.  0.
        5    1    3    3  502    0 -0.19932978279E+03 -0.26349449483E+03  0.89572254475E+02  0.34235506406E+03  0.46999998093E+01 0. -1.
       -5    1    3    3    0  502  0.19932978279E+03  0.26349449483E+03  0.37472798138E+03  0.49960470488E+03  0.46999998093E+01 0.  1.
</event>
<event>
 5   0  0.5899787E-02  0.4639352E+03  0.7818609E-02  0.1023646E+00
       -2   -1    0    0    0  501  0.00000000000E+00  0.00000000000E+00  0.44025652355E+02  0.44025652429E+02  0.25500000920E-02 0. -1.
        2   -1    0    0  501    0  0.00000000000E+00  0.00000000000E+00 -0.12222184389E+04  0.12222184389E+04  0.25500000920E-02 0.  1.
    10030    2    1    2    0    0  0.00000000000E+00  0.00000000000E+00 -0.11781927866E+04  0.12662440914E+04  0.46393518575E+03 0.  0.
        2    1    3    3  502    0 -0.23160361211E+00 -0.97366609670E+02 -0.14447742046E+02  0.98432959803E+02  0.25500000920E-02 0. -1.
       -2    1    3    3    0  502  0.23160361211E+00  0.97366609670E+02 -0.11637450445E+04  0.11678111316E+04  0.25500000920E-02 0.  1.
</event>
<event>
 5   0  0.6248886E-02  0.6956871E+03  0.7818609E-02  0.9724636E-01
        2   -1    0    0  501    0  0.00000000000E+00  0.00000000000E+00  0.19314487094E+04  0.19314487094E+04  0.25500000920E-02 0.  1.
       -2   -1    0    0    0  501  0.00000000000E+00  0.00000000000E+00 -0.62644753276E+02  0.62644753328E+02  0.25500000920E-02 0. -1.
    10030    2    1    2    0    0  0.00000000000E+00  0.00000000000E+00  0.18688039561E+04  0.19940934627E+04  0.69568707884E+03 0.  0.
        3    1    3    3  502    0  0.31468129818E+03 -0.23000698711E+02  0.13541240907E+04  0.13903975743E+04  0.10100000352E+00 0.  1.
       -3    1    3    3    0  502 -0.31468129818E+03  0.23000698711E+02  0.51467986542E+03  0.60369588837E+03  0.10100000352E+00 0. -1.
</event>
<event>
 5   0  0.6248886E-02  0.7075554E+03  0.7818609E-02  0.9704398E-01
        2   -1    0    0  501    0  0.00000000000E+00  0.00000000000E+00  0.25932728440E+04  0.25932728440E+04  0.25500000920E-02 0. -1.
       -2   -1    0    0    0  501  0.00000000000E+00  0.00000000000E+00 -0.48262823561E+02  0.48262823628E+02  0.25500000920E-02 0.  1.
    10030    2    1    2    0    0  0.00000000000E+00  0.00000000000E+00  0.25450100205E+04  0.26415356677E+04  0.70755542484E+03 0.  0.
        3    1    3    3  502    0 -0.13543076807E+03  0.12552455201E+03  0.23990839647E+04  0.24061799156E+04  0.10100000352E+00 0. -1.
       -3    1    3    3    0  502  0.13543076807E+03 -0.12552455201E+03  0.14592605575E+03  0.23535575210E+03  0.10100000352E+00 0.  1.
</event>
<event>
 5   0  0.5899787E-02  0.6885764E+03  0.7818609E-02  0.9736970E-01
       -2   -1    0    0    0  501  0.00000000000E+00  0.00000000000E+00  0.22677510585E+03  0.22677510587E+03  0.25500000920E-02 0.  1.
        2   -1    0    0  501    0  0.00000000000E+00  0.00000000000E+00 -0.52269571880E+03  0.52269571880E+03  0.25500000920E-02 0. -1.
    10030    2    1    2    0    0  0.00000000000E+00  0.00000000000E+00 -0.29592061294E+03  0.74947082467E+03  0.68857643575E+03 0.  0.
        2    1    3    3  502    0 -0.30448657341E+03 -0.10481866948E+03 -0.15388408217E+02  0.32239080318E+03  0.25500000920E-02 0.  1.
       -2    1    3    3    0  502  0.30448657341E+03  0.10481866948E+03 -0.28053220472E+03  0.42708002149E+03  0.25500000920E-02 0. -1.
</event>
<event>
 5   0  0.3601475E-02  0.7116283E+03  0.7818609E-02  0.9697550E-01
       -1   -1    0    0    0  501  0.00000000000E+00  0.00000000000E+00  0.14595713078E+03  0.14595713086E+03  0.50400001928E-02 0. -1.
        1   -1    0    0  501    0  0.00000000000E+00  0.00000000000E+00 -0.86740328765E+03  0.86740328766E+03  0.50400001928E-02 0.  1.
    10030    2    1    2    0    0  0.00000000000E+00  0.00000000000E+00 -0.72144615687E+03  0.10133604185E+04  0.71162826010E+03 0.  0.
        5    1    3    3  502    0 -0.34638587649E+03 -0.22160988547E+02 -0.24943821450E+03  0.42745268474E+03  0.46999998093E+01 0.  1.
       -5    1    3    3    0  502  0.34638587649E+03  0.22160988547E+02 -0.47200794237E+03  0.58590773378E+03  0.46999998093E+01 0. -1.
</event>
<event>
 5   0  0.5987810E-02  0.7039584E+03  0.7818609E-02  0.9710487E-01
       -2   -1    0    0    0  501  0.00000000000E+00  0.00000000000E+00  0.10030920063E+03  0.10030920066E+03  0.25500000920E-02 0.  1.
        2   -1    0    0  501    0  0.00000000000E+00  0.00000000000E+00 -0.12350748188E+04  0.12350748188E+04  0.25500000920E-02 0. -1.
    10030    2    1    2    0    0  0.00000000000E+00  0.00000000000E+00 -0.11347656182E+04  0.13353840195E+04  0.70395843006E+03 0.  0.
        5    1    3    3  502    0  0.19863422656E+03  0.28903841479E+03 -0.62328749734E+03  0.71519798344E+03  0.46999998093E+01 0.  1.
       -5    1    3    3    0  502 -0.19863422656E+03 -0.28903841479E+03 -0.51147812088E+03  0.62018603606E+03  0.46999998093E+01 0. -1.
</event>
<event>
 5   0  0.6248886E-02  0.7130050E+03  0.7818609E-02  0.9695247E-01
        2   -1    0    0  501    0  0.00000000000E+00  0.00000000000E+00  0.14100505185E+04  0.14100505185E+04  0.25500000920E-02 0.  1.
       -2   -1    0    0    0  501  0.00000000000E+00  0.00000000000E+00 -0.90134370283E+02  0.90134370319E+02  0.25500000920E-02 0. -1.
    10030    2    1    2    0    0  0.00000000000E+00  0.00000000000E+00  0.13199161482E+04  0.15001848888E+04  0.71300495253E+03 0.  0.
        3    1    3    3  502    0  0.25558566613E+03 -0.87670456476E+02  0.17064581686E+03  0.31957807603E+03  0.10100000352E+00 0. -1.
       -3    1    3    3    0  502 -0.25558566613E+03  0.87670456476E+02  0.11492703314E+04  0.11806068128E+04  0.10100000352E+00 0.  1.
</event>
<event>
 5   0  0.3749730E-02  0.6689570E+03  0.7818609E-02  0.9771844E-01
        1   -1    0    0  501    0  0.00000000000E+00  0.00000000000E+00  0.17561422796E+03  0.17561422804E+03  0.50400001928E-02 0. -1.
       -1   -1    0    0    0  501  0.00000000000E+00  0.00000000000E+00 -0.63705476067E+03  0.63705476069E+03  0.50400001928E-02 0.  1.
    10030    2    1    2    0    0  0.00000000000E+00  0.00000000000E+00 -0.46144053271E+03  0.81266898873E+03  0.66895703899E+03 0.  0.
        4    1    3    3  502    0  0.30507897451E+03 -0.91414515834E+02 -0.10656683721E+03  0.33583909553E+03  0.12699999809E+01 0.  1.
       -4    1    3    3    0  502 -0.30507897451E+03  0.91414515834E+02 -0.35487369550E+03  0.47682989320E+03  0.12699999809E+01 0. -1.
</event>
<event>
 5   0  0.6131198E-02  0.6093207E+03  0.7818609E-02  0.9886255E-01
        2   -1    0    0  501    0  0.00000000000E+00  0.00000000000E+00  0.51695072995E+03  0.51695072996E+03  0.25500000920E-02 0. -1.
       -2   -1    0    0    0  501  0.00000000000E+00  0.00000000000E+00 -0.17954890141E+03  0.17954890143E+03  0.25500000920E-02 0.  1.
    10030    2    1    2    0    0  0.00000000000E+00  0.00000000000E+00  0.33740182854E+03  0.69649963139E+03  0.60932072230E+03 0.  0.
        1    1    3    3  502    0  0.10667687668E+03  0.21059223802E+03  0.38883984578E+03  0.45489061589E+03  0.50400001928E-02 0. -1.
       -1    1    3    3    0  502 -0.10667687668E+03 -0.21059223802E+03 -0.51438017235E+02  0.24160901551E+03  0.50400001928E-02 0.  1.
</event>
<event>
 5   0  0.5899787E-02  0.6961753E+03  0.7818609E-02  0.9723795E-01
       -2   -1    0    0    0  501  0.00000000000E+00  0.00000000000E+00  0.14363950942E+03  0.14363950944E+03  0.25500000920E-02 0. -1.
        2   -1    0    0  501    0  0.00000000000E+00  0.00000000000E+00 -0.84353530869E+03  0.84353530869E+03  0.25500000920E-02 0.  1.
    10030    2    1    2    0    0  0.00000000000E+00  0.00000000000E+00 -0.69989579927E+03  0.98717481813E+03  0.69617525934E+03 0.  0.
        2    1    3    3  502    0 -0.28416215142E+03  0.12295869581E+03 -0.12441036750E+03  0.33368384546E+03  0.25500000920E-02 0. -1.
       -2    1    3    3    0  502  0.28416215142E+03 -0.12295869581E+03 -0.57548543178E+03  0.65349097267E+03  0.25500000920E-02 0.  1.
</event>
<event>
 5   0  0.3755872E-02  0.6958841E+03  0.7818609E-02  0.9724297E-01
       -1   -1    0    0    0  501  0.00000000000E+00  0.00000000000E+00  0.78531459478E+03  0.78531459479E+03  0.50400001928E-02 0. -1.
        1   -1    0    0  501    0  0.00000000000E+00  0.00000000000E+00 -0.15415947241E+03  0.15415947249E+03  0.50400001928E-02 0.  1.
    10030    2    1    2    0    0  0.00000000000E+00  0.00000000000E+00  0.63115512237E+03  0.93947406729E+03  0.69588413879E+03 0.  0.
        2    1    3    3  502    0  0.19587669282E+03  0.14152855794E+03 -0.22380422138E+02  0.24269094504E+03  0.25500000920E-02 0.  1.
       -2    1    3    3    0  502 -0.19587669282E+03 -0.14152855794E+03  0.65353554451E+03  0.69678312224E+03  0.25500000920E-02 0. -1.
</event>
<event>
 5   0  0.5987810E-02  0.6909685E+03  0.7818609E-02  0.9732803E-01
        2   -1    0    0  501    0  0.00000000000E+00  0.00000000000E+00  0.11303654670E+04  0.11303654670E+04  0.25500000920E-02 0.  1.
       -2   -1    0    0    0  501  0.00000000000E+00  0.00000000000E+00 -0.10559361987E+03  0.10559361991E+03  0.25500000920E-02 0. -1.
    10030    2    1    2    0    0  0.00000000000E+00  0.00000000000E+00  0.10247718471E+04  0.12359590869E+04  0.69096854186E+03 0.  0.
        5    1    3    3  502    0 -0.25896811908E+03 -0.21728715935E+03  0.63961378957E+03  0.72346809614E+03  0.46999998093E+01 0. -1.
       -5    1    3    3    0  502  0.25896811908E+03  0.21728715935E+03  0.38515805755E+03  0.51249099076E+03  0.46999998093E+01 0.  1.
</event>
<event>
 5   0  0.3717372E-02  0.7032638E+03  0.7818609E-02  0.9711667E-01
        1   -1    0    0  501    0  0.00000000000E+00  0.00000000000E+00  0.24483185768E+03  0.24483185774E+03  0.50400001928E-02 0.  1.
       -1   -1    0    0    0  501  0.00000000000E+00  0.00000000000E+00 -0.50501999809E+03  0.50501999811E+03  0.50400001928E-02 0. -1.
    10030    2    1    2    0    0  0.00000000000E+00  0.00000000000E+00 -0.26018814040E+03  0.74985185585E+03  0.70326377506E+03 0.  0.
        3    1    3    3  502    0  0.11691355732E+03  0.23758063031E+03  0.11660214731E+03  0.28932577960E+03  0.10100000352E+00 0.  1.
       -3    1    3    3    0  502 -0.11691355732E+03 -0.23758063031E+03 -0.37679028771E+03  0.46052607624E+03  0.10100000352E+00 0. -1.
</event>
<event>
 5   0  0.3717372E-02  0.6959498E+03  0.7818609E-02  0.9724184E-01
        1   -1    0    0  501    0  0.00000000000E+00  0.00000000000E+00  0.23530225960E+04  0.23530225960E+04  0.50400001928E-02 0. -1.
       -1   -1    0    0    0  501  0.00000000000E+00  0.00000000000E+00 -0.51460001354E+02  0.51460001600E+02  0.50400001928E-02 0.  1.
    10030    2    1    2    0    0  0.00000000000E+00  0.00000000000E+00  0.23015625946E+04  0.24044825976E+04  0.69594984382E+03 0.  0.
        3    1    3    3  502    0  0.15408523192E+03 -0.81822801284E+01  0.22283612725E+04  0.22336971996E+04  0.10100000352E+00 0. -1.
       -3    1    3    3    0  502 -0.15408523192E+03  0.81822801284E+01  0.73201322090E+02  0.17078539798E+03  0.10100000352E+00 0.  1.
</event>
<event>
 5   0  0.3749730E-02  0.6385775E+03  0.7818609E-02  0.9828452E-01
       -1   -1    0    0    0  501  0.00000000000E+00  0.00000000000E+00  0.10018398541E+03  0.10018398554E+03  0.50400001928E-02 0.  1.
        1   -1    0    0  501    0  0.00000000000E+00  0.00000000000E+00 -0.10175809639E+04  0.10175809639E+04  0.50400001928E-02 0. -1.
    10030    2    1    2    0    0  0.00000000000E+00  0.00000000000E+00 -0.91739697846E+03  0.11177649494E+04  0.63857753332E+03 0.  0.
        4    1    3    3  502    0  0.15109425943E+03  0.27576535552E+03 -0.36174954404E+03  0.47931237419E+03  0.12699999809E+01 0.  1.
       -4    1    3    3    0  502 -0.15109425943E+03 -0.27576535552E+03 -0.55564743442E+03  0.63845257523E+03  0.12699999809E+01 0. -1.
</event>
<event>
 5   0  0.6167756E-02  0.6858407E+03  0.7818609E-02  0.9741758E-01
        2   -1    0    0  501    0  0.00000000000E+00  0.00000000000E+00  0.12905191636E+04  0.12905191636E+04  0.25500000920E-02 0.  1.
       -2   -1    0    0    0  501  0.00000000000E+00  0.00000000000E+00 -0.91121749008E+02  0.91121749044E+02  0.25500000920E-02 0. -1.
    10030    2    1    2    0    0  0.00000000000E+00  0.00000000000E+00  0.11993974146E+04  0.13816409127E+04  0.68584069096E+03 0.  0.
        4    1    3    3  502    0  0.14102357187E+03 -0.27529806676E+03  0.89793009275E+03  0.94971402946E+03  0.12699999809E+01 0. -1.
       -4    1    3    3    0  502 -0.14102357187E+03  0.27529806676E+03  0.30146732186E+03  0.43192688320E+03  0.12699999809E+01 0.  1.
</event>
<event>
 5   0  0.5899787E-02  0.7354545E+03  0.7818609E-02  0.9658450E-01
        2   -1    0    0  501    0  0.00000000000E+00  0.00000000000E+00  0.90070623430E+03  0.90070623430E+03  0.25500000920E-02 0. -1.
       -2   -1    0    0    0  501  0.00000000000E+00  0.00000000000E+00 -0.15013035096E+03  0.15013035098E+03  0.25500000920E-02 0.  1.
    10030    2    1    2    0    0  0.00000000000E+00  0.00000000000E+00  0.75057588334E+03  0.10508365853E+04  0.73545453451E+03 0.  0.
        2    1    3    3  502    0  0.16234145224E+03 -0.25305219492E+03  0.67782538976E+03  0.74151022884E+03  0.25500000920E-02 0. -1.
       -2    1    3    3    0  502 -0.16234145224E+03  0.25305219492E+03  0.72750493577E+02  0.30932635644E+03  0.25500000920E-02 0.  1.
</event>
<event>
 5   0  0.6167756E-02  0.6774520E+03  0.7818609E-02  0.9756589E-01
        2   -1    0    0  501    0  0.00000000000E+00  0.00000000000E+00  0.68214313792E+03  0.68214313793E+03  0.25500000920E-02 0. -1.
       -2   -1    0    0    0  501  0.00000000000E+00  0.00000000000E+00 -0.16819825639E+03  0.16819825641E+03  0.25500000920E-02 0.  1.
    10030    2    1    2    0    0  0.00000000000E+00  0.00000000000E+00  0.51394488154E+03  0.85034139433E+03  0.67745195081E+03 0.  0.
        4    1    3    3  502    0 -0.19603245640E+03 -0.12811750391E+03  0.56415395635E+03  0.61083067878E+03  0.12699999809E+01 0. -1.
       -4    1    3    3    0  502  0.19603245640E+03  0.12811750391E+03 -0.50209074812E+02  0.23951071555E+03  0.12699999809E+01 0.  1.
</event>
<event>
 5   0  0.6131198E-02  0.6990768E+03  0.7818609E-02  0.9718812E-01
        2   -1    0    0  501    0  0.00000000000E+00  0.00000000000E+00  0.30323576141E+03  0.30323576142E+03  0.25500000920E-02 0.  1.
       -2   -1    0    0    0  501  0.00000000000E+00  0.00000000000E+00 -0.40291118522E+03  0.40291118522E+03  0.25500000920E-02 0. -1.
    10030    2    1    2    0    0  0.00000000000E+00  0.00000000000E+00 -0.99675423806E+02  0.70614694664E+03  0.69907676270E+03 0.  0.
        1    1    3    3  502    0  0.65037741583E+02 -0.18707924004E+03  0.24108294963E+03  0.31200887569E+03  0.50400001928E-02 0.  1.
       -1    1    3    3    0  502 -0.65037741583E+02  0.18707924004E+03 -0.34075837343E+03  0.39413807095E+03  0.50400001928E-02 0. -1.
</event>
<event>
 5   0  0.6248886E-02  0.7030303E+03  0.7818609E-02  0.9712064E-01
       -2   -1    0    0    0  501  0.00000000000E+00  0.00000000000E+00  0.17191302923E+03  0.17191302925E+03  0.25500000920E-02 0.  1.
        2   -1    0    0  501    0  0.00000000000E+00  0.00000000000E+00 -0.71875228906E+03  0.71875228906E+03  0.25500000920E-02 0. -1.
    10030    2    1    2    0    0  0.00000000000E+00  0.00000000000E+00 -0.54683925983E+03  0.89066531831E+03  0.70303025052E+03 0.  0.
        3    1    3    3  502    0  0.95164366136E+02 -0.56256657267E+02 -0.69615604274E+03  0.70487893579E+03  0.10100000352E+00 0. -1.
       -3    1    3    3    0  502 -0.95164366136E+02  0.56256657267E+02  0.14931678291E+03  0.18578638252E+03  0.10100000352E+00 0.  1.
</event>
<event>
 5   0  0.3439015E-02  0.7051010E+03  0.7818609E-02  0.9708548E-01
       -1   -1    0    0    0  501  0.00000000000E+00  0.00000000000E+00  0.72694709738E+03  0.72694709739E+03  0.50400001928E-02 0.  1.
        1   -1    0    0  501    0  0.00000000000E+00  0.00000000000E+00 -0.17097787066E+03  0.17097787073E+03  0.50400001928E-02 0. -1.
    10030    2    1    2    0    0  0.00000000000E+00  0.00000000000E+00  0.55596922672E+03  0.89792496813E+03  0.70510103342E+03 0.  0.
        1    1    3    3  502    0  0.38199439947E+02 -0.67865971703E+02  0.71585624565E+03  0.72007996208E+03  0.50400001928E-02 0.  1.
       -1    1    3    3    0  502 -0.38199439947E+02  0.67865971703E+02 -0.15988701893E+03  0.17784500605E+03  0.50400001928E-02 0. -1.
</event>
<event>
 5   0  0.5899787E-02  0.6727578E+03  0.7818609E-02  0.9764989E-01
        2   -1    0    0  501    0  0.00000000000E+00  0.00000000000E+00  0.61983797667E+03  0.61983797667E+03  0.25500000920E-02 0. -1.
       -2   -1    0    0    0  501  0.00000000000E+00  0.00000000000E+00 -0.18254896508E+03  0.18254896510E+03  0.25500000920E-02 0.  1.
    10030    2    1    2    0    0  0.00000000000E+00  0.00000000000E+00  0.43728901159E+03  0.80238694178E+03  0.67275784996E+03 0.  0.
        2    1    3    3  502    0 -0.20436269844E+03  0.13590521464E+03 -0.55715240793E+02  0.25167146828E+03  0.25500000920E-02 0.  1.
       -2    1    3    3    0  502  0.20436269844E+03 -0.13590521464E+03  0.49300425238E+03  0.55071547350E+03  0.25500000920E-02 0. -1.
</event>
<event>
 5   0  0.3755872E-02  0.6846135E+03  0.7818609E-02  0.9743913E-01
       -1   -1    0    0    0  501  0.00000000000E+00  0.00000000000E+00  0.42104603853E+03  0.42104603856E+03  0.50400001928E-02 0.  1.
        1   -1    0    0  501    0  0.00000000000E+00  0.00000000000E+00 -0.27829242687E+03  0.27829242692E+03  0.50400001928E-02 0. -1.
    10030    2    1    2    0    0  0.00000000000E+00  0.00000000000E+00  0.14275361166E+03  0.69933846548E+03  0.68461353745E+03 0.  0.
        2    1    3    3  502    0 -0.92511989095E+02 -0.32331599796E+03  0.61103239613E+01  0.33634660505E+03  0.25500000920E-02 0. -1.
       -2    1    3    3    0  502  0.92511989095E+02  0.32331599796E+03  0.13664328770E+03  0.36299186043E+03  0.25500000920E-02 0.  1.
</event>
<event>
 5   0  0.5899787E-02  0.7123145E+03  0.7818609E-02  0.9696402E-01
       -2   -1    0    0    0  501  0.00000000000E+00  0.00000000000E+00  0.12652428387E+03  0.12652428389E+03  0.25500000920E-02 0.  1.
        2   -1    0    0  501    0  0.00000000000E+00  0.00000000000E+00 -0.10025583818E+04  0.10025583818E+04  0.25500000920E-02 0. -1.
    10030    2    1    2    0    0  0.00000000000E+00  0.00000000000E+00 -0.87603409795E+03  0.11290826657E+04  0.71231448479E+03 0.  0.
        2    1    3    3  502    0 -0.32409689005E+03 -0.74051279752E+02 -0.23548746285E+03  0.40740241941E+03  0.25500000920E-02 0.  1.
       -2    1    3    3    0  502  0.32409689005E+03  0.74051279752E+02 -0.64054663510E+03  0.72168024631E+03  0.25500000920E-02 0. -1.
</event>
<event>
 5   0  0.6167756E-02  0.7021208E+03  0.7818609E-02  0.9713612E-01
        2   -1    0    0  501    0  0.00000000000E+00  0.00000000000E+00  0.10917251906E+03  0.10917251909E+03  0.25500000920E-02 0. -1.
       -2   -1    0    0    0  501  0.00000000000E+00  0.00000000000E+00 -0.11288866119E+04  0.11288866119E+04  0.25500000920E-02 0.  1.
    10030    2    1    2    0    0  0.00000000000E+00  0.00000000000E+00 -0.10197140928E+04  0.12380591310E+04  0.70212077358E+03 0.  0.
        4    1    3    3  502    0 -0.22903225425E+03 -0.23346544206E+03 -0.73484298704E+03  0.80433681665E+03  0.12699999809E+01 0.  1.
       -4    1    3    3    0  502  0.22903225425E+03  0.23346544206E+03 -0.28487110577E+03  0.43372231430E+03  0.12699999809E+01 0. -1.
</event>
<event>
 5   0  0.3749730E-02  0.6860174E+03  0.7818609E-02  0.9741448E-01
       -1   -1    0    0    0  501  0.00000000000E+00  0.00000000000E+00  0.15069380409E+03  0.15069380417E+03  0.50400001928E-02 0. -1.
        1   -1    0    0  501    0  0.00000000000E+00  0.00000000000E+00 -0.78075511183E+03  0.78075511185E+03  0.50400001928E-02 0.  1.
    10030    2    1    2    0    0  0.00000000000E+00  0.00000000000E+00 -0.63006130774E+03  0.93144891602E+03  0.68601736978E+03 0.  0.
        4    1    3    3  502    0  0.56974472020E+02  0.11614325514E+03  0.11629793502E+03  0.17396025053E+03  0.12699999809E+01 0. -1.
       -4    1    3    3    0  502 -0.56974472020E+02 -0.11614325514E+03 -0.74635924277E+03  0.75748866548E+03  0.12699999809E+01 0.  1.
</event>
<event>
 5   0  0.3717372E-02  0.6879895E+03  0.7818609E-02  0.9737995E-01
        1   -1    0    0  501    0  0.00000000000E+00  0.00000000000E+00  0.81929693115E+03  0.81929693116E+03  0.50400001928E-02 0. -1.
       -1   -1    0    0    0  501  0.00000000000E+00  0.00000000000E+00 -0.14443164009E+03  0.14443164018E+03  0.50400001928E-02 0.  1.
    10030    2    1    2    0    0  0.00000000000E+00  0.00000000000E+00  0.67486529106E+03  0.96372857134E+03  0.68798953345E+03 0.  0.
        3    1    3    3  502    0  0.38226940802E+02  0.33764270946E+03  0.41245654877E+03  0.53440089173E+03  0.10100000352E+00 0.  1.
       -3    1    3    3    0  502 -0.38226940802E+02 -0.33764270946E+03  0.26240874229E+03  0.42932767961E+03  0.10100000352E+00 0. -1.
</event>
<event>
 5   0  0.6248886E-02  0.6987138E+03  0.7818609E-02  0.9719434E-01
       -2   -1    0    0    0  501  0.00000000000E+00  0.00000000000E+00  0.12650635610E+03  0.12650635613E+03  0.25500000920E-02 0.  1.
        2   -1    0    0  501    0  0.00000000000E+00  0.00000000000E+00 -0.96477564579E+03  0.96477564579E+03  0.25500000920E-02 0. -1.
    10030    2    1    2    0    0  0.00000000000E+00  0.00000000000E+00 -0.83826928969E+03  0.10912820019E+04  0.69871382245E+03 0.  0.
        3    1    3    3  502    0 -0.30030353951E+03  0.48574145706E+02 -0.15084012821E+03  0.33955031726E+03  0.10100000352E+00 0.  1.
       -3    1    3    3    0  502  0.30030353951E+03 -0.48574145706E+02 -0.68742916148E+03  0.75173168466E+03  0.10100000352E+00 0. -1.
</event>
<event>
 5   0  0.3601475E-02  0.6960862E+03  0.7818609E-02  0.9723949E-01
        1   -1    0    0  501    0  0.00000000000E+00  0.00000000000E+00  0.16244057412E+04  0.16244057412E+04  0.50400001928E-02 0.  1.
       -1   -1    0    0    0  501  0.00000000000E+00  0.00000000000E+00 -0.74571268503E+02  0.74571268673E+02  0.50400001928E-02 0. -1.
    10030    2    1    2    0    0  0.00000000000E+00  0.00000000000E+00  0.15498344727E+04  0.16989770099E+04  0.69608619247E+03 0.  0.
        5    1    3    3  502    0  0.13022498089E+03  0.21673759762E+03  0.13585499509E+04  0.13818877636E+04  0.46999998093E+01 0.  1.
       -5    1    3    3    0  502 -0.13022498089E+03 -0.21673759762E+03  0.19128452176E+03  0.31708924632E+03  0.46999998093E+01 0. -1.
</event>
<event>
 5   0  0.3749730E-02  0.6884862E+03  0.7818609E-02  0.9737127E-01
       -1   -1    0    0    0  501  0.00000000000E+00  0.00000000000E+00  0.92615092364E+02  0.92615092502E+02  0.50400001928E-02 0. -1.
        1   -1    0    0  501    0  0.00000000000E+00  0.00000000000E+00 -0.12795249469E+04  0.12795249469E+04  0.50400001928E-02 0.  1.
    10030    2    1    2    0    0  0.00000000000E+00  0.00000000000E+00 -0.11869098545E+04  0.13721400394E+04  0.68848622713E+03 0.  0.
        4    1    3    3  502    0  0.15166977795E+03  0.37768146945E+02  0.17814027619E+02  0.15731848889E+03  0.12699999809E+01 0. -1.
       -4    1    3    3    0  502 -0.15166977795E+03 -0.37768146945E+02 -0.12047238821E+04  0.12148215505E+04  0.12699999809E+01 0.  1.
</event>
<event>
 5   0  0.6167756E-02  0.6250086E+03  0.7818609E-02  0.9854838E-01
        2   -1    0    0  501    0  0.00000000000E+00  0.00000000000E+00  0.20945287009E+04  0.20945287009E+04  0.25500000920E-02 0. -1.
       -2   -1    0    0    0  501  0.00000000000E+00  0.00000000000E+00 -0.46625731757E+02  0.46625731827E+02  0.25500000920E-02 0.  1.
    10030    2    1    2    0    0  0.00000000000E+00  0.00000000000E+00  0.20479029691E+04  0.21411544327E+04  0.62500858695E+03 0.  0.
        4    1    3    3  502    0 -0.28468417850E+02  0.25996454048E+03  0.43789624446E+03  0.51004582827E+03  0.12699999809E+01 0.  1.
       -4    1    3    3    0  502  0.28468417850E+02 -0.25996454048E+03  0.16100067247E+04  0.16311086044E+04  0.12699999809E+01 0. -1.
</event>
<event>
 5   0  0.6131198E-02  0.6932698E+03  0.7818609E-02  0.9728811E-01
        2   -1    0    0  501    0  0.00000000000E+00  0.00000000000E+00  0.44812589349E+03  0.44812589349E+03  0.25500000920E-02 0. -1.
       -2   -1    0    0    0  501  0.00000000000E+00  0.00000000000E+00 -0.26812943564E+03  0.26812943565E+03  0.25500000920E-02 0.  1.
    10030    2    1    2    0    0  0.00000000000E+00  0.00000000000E+00  0.17999645785E+03  0.71625532915E+03  0.69326976834E+03 0.  0.
        1    1    3    3  502    0 -0.18020494845E+03  0.22021782619E+03  0.29451608384E+03  0.40952342800E+03  0.50400001928E-02 0. -1.
       -1    1    3    3    0  502  0.18020494845E+03 -0.22021782619E+03 -0.11451962599E+03  0.30673190115E+03  0.50400001928E-02 0.  1.
</event>
<event>
 5   0  0.3755872E-02  0.6788069E+03  0.7818609E-02  0.9754178E-01
       -1   -1    0    0    0  501  0.00000000000E+00  0.00000000000E+00  0.37658780816E+03  0.37658780819E+03  0.50400001928E-02 0. -1.
        1   -1    0    0  501    0  0.00000000000E+00  0.00000000000E+00 -0.30589067124E+03  0.30589067129E+03  0.50400001928E-02 0.  1.
    10030    2    1    2    0    0  0.00000000000E+00  0.00000000000E+00  0.70697136915E+02  0.68247847948E+03  0.67880688696E+03 0.  0.
        2    1    3    3  502    0 -0.15957448776E+03  0.25472498748E+03 -0.12312971098E+03  0.32482266258E+03  0.25500000920E-02 0.  1.
       -2    1    3    3    0  502  0.15957448776E+03 -0.25472498748E+03  0.19382684789E+03  0.35765581690E+03  0.25500000920E-02 0. -1.
</event>
<event>
 5   0  0.5899787E-02  0.6995304E+03  0.7818609E-02  0.9718036E-01
        2   -1    0    0  501    0  0.00000000000E+00  0.00000000000E+00  0.83788146710E+03  0.83788146710E+03  0.25500000920E-02 0. -1.
       -2   -1    0    0    0  501  0.00000000000E+00  0.00000000000E+00 -0.14600598315E+03  0.14600598317E+03  0.25500000920E-02 0.  1.
    10030    2    1    2    0    0  0.00000000000E+00  0.00000000000E+00  0.69187548395E+03  0.98388745028E+03  0.69953043502E+03 0.  0.
        2    1    3    3  502    0  0.23887407384E+02 -0.32136000831E+03  0.15467047068E+03  0.35744344683E+03  0.25500000920E-02 0. -1.
       -2    1    3    3    0  502 -0.23887407384E+02  0.32136000831E+03  0.53720501327E+03  0.62644400345E+03  0.25500000920E-02 0.  1.
</event>
<event>
 5   0  0.2439375E-02  0.6915992E+03  0.7818609E-02  0.9731708E-01
        3   -1    0    0  501    0  0.00000000000E+00  0.00000000000E+00  0.12501625002E+04  0.12501625043E+04  0.10100000352E+00 0.  1.
       -3   -1    0    0    0  501  0.00000000000E+00  0.00000000000E+00 -0.95649415409E+02  0.95649468734E+02  0.10100000352E+00 0. -1.
    10030    2    1    2    0    0  0.00000000000E+00  0.00000000000E+00  0.11545130848E+04  0.13458119730E+04  0.69159916408E+03 0.  0.
        4    1    3    3  502    0  0.17810583530E+02  0.21169588868E+03  0.11081934867E+04  0.11283735122E+04  0.12699999809E+01 0.  1.
       -4    1    3    3    0  502 -0.17810583530E+02 -0.21169588868E+03  0.46319598076E+02  0.21743846080E+03  0.12699999809E+01 0. -1.
</event>
<event>
 5   0  0.6131198E-02  0.7056575E+03  0.7818609E-02  0.9707606E-01
        2   -1    0    0  501    0  0.00000000000E+00  0.00000000000E+00  0.10892920788E+04  0.10892920788E+04  0.25500000920E-02 0.  1.
       -2   -1    0    0    0  501  0.00000000000E+00  0.00000000000E+00 -0.11428352402E+03  0.11428352405E+03  0.25500000920E-02 0. -1.
    10030    2    1    2    0    0  0.00000000000E+00  0.00000000000E+00  0.97500855477E+03  0.12035756028E+04  0.70565753018E+03 0.  0.
        1    1    3    3  502    0 -0.19470398338E+03  0.28990028751E+03  0.40160660712E+03  0.53220267262E+03  0.50400001928E-02 0. -1.
       -1    1    3    3    0  502  0.19470398338E+03 -0.28990028751E+03  0.57340194765E+03  0.67137293022E+03  0.50400001928E-02 0.  1.
</event>
<event>
 5   0  0.6248886E-02  0.7727096E+03  0.7818609E-02  0.9600381E-01
        2   -1    0    0  501    0  0.00000000000E+00  0.00000000000E+00  0.14438563565E+04  0.14438563565E+04  0.25500000920E-02 0.  1.
       -2   -1    0    0    0  501  0.00000000000E+00  0.00000000000E+00 -0.10338287559E+03  0.10338287562E+03  0.25500000920E-02 0. -1.
    10030    2    1    2    0    0  0.00000000000E+00  0.00000000000E+00  0.13404734809E+04  0.15472392322E+04  0.77270957572E+03 0.  0.
        3    1    3    3  502    0 -0.31283862781E+03  0.21169729573E+03  0.50773403171E+03  0.63283300264E+03  0.10100000352E+00 0. -1.
       -3    1    3    3    0  502  0.31283862781E+03 -0.21169729573E+03  0.83273944924E+03  0.91440622952E+03  0.10100000352E+00 0.  1.
</event>
<event>
 5   0  0.5899787E-02  0.6664199E+03  0.7818609E-02  0.9776447E-01
       -2   -1    0    0    0  501  0.00000000000E+00  0.00000000000E+00  0.24010936936E+03  0.24010936938E+03  0.25500000920E-02 0. -1.
        2   -1    0    0  501    0  0.00000000000E+00  0.00000000000E+00 -0.46240956293E+03  0.46240956294E+03  0.25500000920E-02 0.  1.
    10030    2    1    2    0    0  0.00000000000E+00  0.00000000000E+00 -0.22230019357E+03  0.70251893232E+03  0.66641989331E+03 0.  0.
        2    1    3    3  502    0 -0.76689082865E+01  0.16906285788E+03  0.19143083086E+03  0.25551286676E+03  0.25500000920E-02 0. -1.
       -2    1    3    3    0  502  0.76689082865E+01 -0.16906285788E+03 -0.41373102443E+03  0.44700606556E+03  0.25500000920E-02 0.  1.
</event>
<event>
 5   0  0.3601475E-02  0.6924296E+03  0.7818609E-02  0.9730267E-01
       -1   -1    0    0    0  501  0.00000000000E+00  0.00000000000E+00  0.10727868531E+03  0.10727868543E+03  0.50400001928E-02 0. -1.
        1   -1    0    0  501    0  0.00000000000E+00  0.00000000000E+00 -0.11173206098E+04  0.11173206098E+04  0.50400001928E-02 0.  1.
    10030    2    1    2    0    0  0.00000000000E+00  0.00000000000E+00 -0.10100419245E+04  0.12245992953E+04  0.69242959547E+03 0.  0.
        5    1    3    3  502    0 -0.19586180624E+03 -0.64724568439E+02 -0.99670283018E+03  0.10178358112E+04  0.46999998093E+01 0.  1.
       -5    1    3    3    0  502  0.19586180624E+03  0.64724568439E+02 -0.13339094343E+02  0.20676348406E+03  0.46999998093E+01 0. -1.
</event>
<event>
 5   0  0.6167756E-02  0.6966973E+03  0.7818609E-02  0.9722897E-01
        2   -1    0    0  501    0  0.00000000000E+00  0.00000000000E+00  0.58913789617E+03  0.58913789618E+03  0.25500000920E-02 0.  1.
       -2   -1    0    0    0  501  0.00000000000E+00  0.00000000000E+00 -0.20597346745E+03  0.20597346746E+03  0.25500000920E-02 0. -1.
    10030    2    1    2    0    0  0.00000000000E+00  0.00000000000E+00  0.38316442872E+03  0.79511136364E+03  0.69669728086E+03 0.  0.
        4    1    3    3  502    0 -0.11746476090E+03 -0.96065584407E+02  0.54943275572E+03  0.57000397588E+03  0.12699999809E+01 0.  1.
       -4    1    3    3    0  502  0.11746476090E+03  0.96065584407E+02 -0.16626832700E+03  0.22510738776E+03  0.12699999809E+01 0. -1.
</event>
<event>
 5   0  0.3717372E-02  0.7099138E+03  0.7818609E-02  0.9700427E-01
       -1   -1    0    0    0  501  0.00000000000E+00  0.00000000000E+00  0.50854047266E+02  0.50854047516E+02  0.50400001928E-02 0. -1.
        1   -1    0    0  501    0  0.00000000000E+00  0.00000000000E+00 -0.24775685660E+04  0.24775685660E+04  0.50400001928E-02 0.  1.
    10030    2    1    2    0    0  0.00000000000E+00  0.00000000000E+00 -0.24267145188E+04  0.25284226136E+04  0.70991376740E+03 0.  0.
        3    1    3    3  502    0 -0.13076625672E+03  0.18001632879E+03 -0.22834265637E+03  0.31881981031E+03  0.10100000352E+00 0.  1.
       -3    1    3    3    0  502  0.13076625672E+03 -0.18001632879E+03 -0.21983718624E+04  0.22096028032E+04  0.10100000352E+00 0. -1.
</event>
<event>
 5   0  0.3439015E-02  0.7089763E+03  0.7818609E-02  0.9702004E-01
        1   -1    0    0  501    0  0.00000000000E+00  0.00000000000E+00  0.36836850412E+03  0.36836850415E+03  0.50400001928E-02 0. -1.
       -1   -1    0    0    0  501  0.00000000000E+00  0.00000000000E+00 -0.34113077460E+03  0.34113077464E+03  0.50400001928E-02 0.  1.
    10030    2    1    2    0    0  0.00000000000E+00  0.00000000000E+00  0.27237729517E+02  0.70949927879E+03  0.70897625679E+03 0.  0.
        1    1    3    3  502    0 -0.13206376961E+03 -0.25861695251E+03  0.21708699480E+03  0.36256079588E+03  0.50400001928E-02 0. -1.
       -1    1    3    3    0  502  0.13206376961E+03  0.25861695251E+03 -0.18984926528E+03  0.34693848291E+03  0.50400001928E-02 0.  1.
</event>
<event>
 5   0  0.6248886E-02  0.7011118E+03  0.7818609E-02  0.9715333E-01
       -2   -1    0    0    0  501  0.00000000000E+00  0.00000000000E+00  0.29242913824E+03  0.29242913826E+03  0.25500000920E-02 0.  1.
        2   -1    0    0  501    0  0.00000000000E+00  0.00000000000E+00 -0.42023665954E+03  0.42023665954E+03  0.25500000920E-02 0. -1.
    10030    2    1    2    0    0  0.00000000000E+00  0.00000000000E+00 -0.12780752129E+03  0.71266579780E+03  0.70111181480E+03 0.  0.
        3    1    3    3  502    0 -0.13728098794E+03  0.52273821255E+02  0.25963515755E+03  0.29831032043E+03  0.10100000352E+00 0.  1.
       -3    1    3    3    0  502  0.13728098794E+03 -0.52273821255E+02 -0.38744267884E+03  0.41435547737E+03  0.10100000352E+00 0. -1.
</event>
<event>
 5   0  0.3601475E-02  0.6947169E+03  0.7818609E-02  0.9726310E-01
       -1   -1    0    0    0  501  0.00000000000E+00  0.00000000000E+00  0.20828215329E+03  0.20828215335E+03  0.50400001928E-02 0.  1.
        1   -1    0    0  501    0  0.00000000000E+00  0.00000000000E+00 -0.57930017346E+03  0.57930017348E+03  0.50400001928E-02 0. -1.
    10030    2    1    2    0    0  0.00000000000E+00  0.00000000000E+00 -0.37101802017E+03  0.78758232683E+03  0.69471688495E+03 0.  0.
        5    1    3    3  502    0  0.18219690328E+03 -0.11300074807E+03  0.12427846134E+03  0.24785501121E+03  0.46999998093E+01 0.  1.
       -5    1    3    3    0  502 -0.18219690328E+03  0.11300074807E+03 -0.49529648152E+03  0.53972731562E+03  0.46999998093E+01 0. -1.
</event>
<event>
 5   0  0.3717372E-02  0.6958033E+03  0.7818609E-02  0.9724436E-01
       -1   -1    0    0    0  501  0.00000000000E+00  0.00000000000E+00  0.35386800493E+03  0.35386800496E+03  0.50400001928E-02 0. -1.
        1   -1    0    0  501    0  0.00000000000E+00  0.00000000000E+00 -0.34203588956E+03  0.34203588960E+03  0.50400001928E-02 0.  1.
    10030    2    1    2    0    0  0.00000000000E+00  0.00000000000E+00  0.11832115367E+02  0.69590389456E+03  0.69580329944E+03 0.  0.
        3    1    3    3  502    0 -0.13332806459E+03 -0.27962550838E+03  0.16427008837E+03  0.35064436382E+03  0.10100000352E+00 0. -1.
       -3    1    3    3    0  502  0.13332806459E+03  0.27962550838E+03 -0.15243797301E+03  0.34525953073E+03  0.10100000352E+00 0.  1.
</event>
<event>
 5   0  0.3749730E-02  0.6982433E+03  0.7818609E-02  0.9720241E-01
       -1   -1    0    0    0  501  0.00000000000E+00  0.00000000000E+00  0.79416092953E+02  0.79416093113E+02  0.50400001928E-02 0.  1.
        1   -1    0    0  501    0  0.00000000000E+00  0.00000000000E+00 -0.15347763289E+04  0.15347763289E+04  0.50400001928E-02 0. -1.
    10030    2    1    2    0    0  0.00000000000E+00  0.00000000000E+00 -0.14553602359E+04  0.16141924220E+04  0.69824333790E+03 0.  0.
        4    1    3    3  502    0  0.19372078291E+03  0.27268948363E+01 -0.13990917430E+04  0.14124427407E+04  0.12699999809E+01 0. -1.
       -4    1    3    3    0  502 -0.19372078291E+03 -0.27268948363E+01 -0.56268492935E+02  0.20174968125E+03  0.12699999809E+01 0.  1.
</event>
<event>
 5   0  0.3601475E-02  0.6765227E+03  0.7818609E-02  0.9758246E-01
       -1   -1    0    0    0  501  0.00000000000E+00  0.00000000000E+00  0.21193436630E+03  0.21193436636E+03  0.50400001928E-02 0.  1.
        1   -1    0    0  501    0  0.00000000000E+00  0.00000000000E+00 -0.53988762485E+03  0.53988762487E+03  0.50400001928E-02 0. -1.
    10030    2    1    2    0    0  0.00000000000E+00  0.00000000000E+00 -0.32795325854E+03  0.75182199124E+03  0.67652270229E+03 0.  0.
        5    1    3    3  502    0 -0.10637928829E+03  0.20243016641E+03  0.11296795616E+03  0.25510463416E+03  0.46999998093E+01 0.  1.
       -5    1    3    3    0  502  0.10637928829E+03 -0.20243016641E+03 -0.44092121470E+03  0.49671735708E+03  0.46999998093E+01 0. -1.
</event>
<event>
 5   0  0.3749730E-02  0.6937352E+03  0.7818609E-02  0.9728006E-01
        1   -1    0    0  501    0  0.00000000000E+00  0.00000000000E+00  0.54508956795E+03  0.54508956798E+03  0.50400001928E-02 0. -1.
       -1   -1    0    0    0  501  0.00000000000E+00  0.00000000000E+00 -0.22072911386E+03  0.22072911392E+03  0.50400001928E-02 0.  1.
    10030    2    1    2    0    0  0.00000000000E+00  0.00000000000E+00  0.32436045409E+03  0.76581868189E+03  0.69373521560E+03 0.  0.
        4    1    3    3  502    0 -0.16947480292E+03  0.53928959671E+02 -0.16656426366E+03  0.24367049133E+03  0.12699999809E+01 0.  1.
       -4    1    3    3    0  502  0.16947480292E+03 -0.53928959671E+02  0.49092471775E+03  0.52214819057E+03  0.12699999809E+01 0. -1.
</event>
<event>
 5   0  0.6248886E-02  0.6899490E+03  0.7818609E-02  0.9734577E-01
       -2   -1    0    0    0  501  0.00000000000E+00  0.00000000000E+00  0.14124269643E+03  0.14124269645E+03  0.25500000920E-02 0.  1.
        2   -1    0    0  501    0  0.00000000000E+00  0.00000000000E+00 -0.84257394572E+03  0.84257394572E+03  0.25500000920E-02 0. -1.
    10030    2    1    2    0    0  0.00000000000E+00  0.00000000000E+00 -0.70133124929E+03  0.98381664217E+03  0.68994903013E+03 0.  0.
        3    1    3    3  502    0  0.80388259961E+02 -0.32436429843E+03 -0.22855988292E+03  0.40486306416E+03  0.10100000352E+00 0.  1.
       -3    1    3    3    0  502 -0.80388259961E+02  0.32436429843E+03 -0.47277136637E+03  0.57895357802E+03  0.10100000352E+00 0. -1.
</event>
<event>
 5   0  0.3749730E-02  0.7097250E+03  0.7818609E-02  0.9700744E-01
       -1   -1    0    0    0  501  0.00000000000E+00  0.00000000000E+00  0.23420007438E+03  0.23420007443E+03  0.50400001928E-02 0.  1.
        1   -1    0    0  501    0  0.00000000000E+00  0.00000000000E+00 -0.53769158356E+03  0.53769158358E+03  0.50400001928E-02 0. -1.
    10030    2    1    2    0    0  0.00000000000E+00  0.00000000000E+00 -0.30349150918E+03  0.77189165802E+03  0.70972504223E+03 0.  0.
        4    1    3    3  502    0 -0.17852304977E+03  0.29354587418E+03 -0.55163272639E+02  0.34797163548E+03  0.12699999809E+01 0.  1.
       -4    1    3    3    0  502  0.17852304977E+03 -0.29354587418E+03 -0.24832823654E+03  0.42392002254E+03  0.12699999809E+01 0. -1.
</event>
<event>
 5   0  0.6248886E-02  0.7026051E+03  0.7818609E-02  0.9712788E-01
        2   -1    0    0  501    0  0.00000000000E+00  0.00000000000E+00  0.13700681872E+04  0.13700681872E+04  0.25500000920E-02 0. -1.
       -2   -1    0    0    0  501  0.00000000000E+00  0.00000000000E+00 -0.90078337844E+02  0.90078337880E+02  0.25500000920E-02 0.  1.
    10030    2    1    2    0    0  0.00000000000E+00  0.00000000000E+00  0.12799898494E+04  0.14601465251E+04  0.70260505282E+03 0.  0.
        3    1    3    3  502    0  0.12528882558E+03  0.96504491447E+02 -0.11917782251E+02  0.15859524085E+03  0.10100000352E+00 0.  1.
       -3    1    3    3    0  502 -0.12528882558E+03 -0.96504491447E+02  0.12919076316E+04  0.13015512842E+04  0.10100000352E+00 0. -1.
</event>
<event>
 5   0  0.6167756E-02  0.7093151E+03  0.7818609E-02  0.9701433E-01
        2   -1    0    0  501    0  0.00000000000E+00  0.00000000000E+00  0.15419623595E+03  0.15419623597E+03  0.25500000920E-02 0.  1.
       -2   -1    0    0    0  501  0.00000000000E+00  0.00000000000E+00 -0.81572654576E+03  0.81572654577E+03  0.25500000920E-02 0. -1.
    10030    2    1    2    0    0  0.00000000000E+00  0.00000000000E+00 -0.66153030982E+03  0.96992278173E+03  0.70931505815E+03 0.  0.
        4    1    3    3  502    0  0.26738725658E+02 -0.89794023122E+02  0.13696504325E+03  0.16594867282E+03  0.12699999809E+01 0.  1.
       -4    1    3    3    0  502 -0.26738725658E+02  0.89794023122E+02 -0.79849535306E+03  0.80397410891E+03  0.12699999809E+01 0. -1.
</event>
<event>
 5   0  0.3749730E-02  0.7197074E+03  0.7818609E-02  0.9684111E-01
        1   -1    0    0  501    0  0.00000000000E+00  0.00000000000E+00  0.76944166764E+03  0.76944166765E+03  0.50400001928E-02 0. -1.
       -1   -1    0    0    0  501  0.00000000000E+00  0.00000000000E+00 -0.16829694417E+03  0.16829694425E+03  0.50400001928E-02 0.  1.
    10030    2    1    2    0    0  0.00000000000E+00  0.00000000000E+00  0.60114472347E+03  0.93773861190E+03  0.71970738894E+03 0.  0.
        4    1    3    3  502    0  0.69457931100E+02 -0.84211976372E+02 -0.14620076063E+03  0.18246187675E+03  0.12699999809E+01 0.  1.
       -4    1    3    3    0  502 -0.69457931100E+02  0.84211976372E+02  0.74734548410E+03  0.75527673515E+03  0.12699999809E+01 0. -1.
</event>
<event>
 5   0  0.3439015E-02  0.6926526E+03  0.7818609E-02  0.9729880E-01
        1   -1    0    0  501    0  0.00000000000E+00  0.00000000000E+00  0.67612095922E+03  0.67612095924E+03  0.50400001928E-02 0. -1.
       -1   -1    0    0    0  501  0.00000000000E+00  0.00000000000E+00 -0.17739709010E+03  0.17739709017E+03  0.50400001928E-02 0.  1.
    10030    2    1    2    0    0  0.00000000000E+00  0.00000000000E+00  0.49872386913E+03  0.85351804941E+03  0.69265255578E+03 0.  0.
        1    1    3    3  502    0  0.46698697946E+02  0.33896152121E+03  0.31533265586E+03  0.46530674305E+03  0.50400001928E-02 0. -1.
       -1    1    3    3    0  502 -0.46698697946E+02 -0.33896152121E+03  0.18339121327E+03  0.38821130636E+03  0.50400001928E-02 0.  1.
</event>
<event>
 5   0  0.5899787E-02  0.8281443E+03  0.7818609E-02  0.9520150E-01
        2   -1    0    0  501    0  0.00000000000E+00  0.00000000000E+00  0.16843478395E+03  0.16843478397E+03  0.25500000920E-02 0.  1.
       -2   -1    0    0    0  501  0.00000000000E+00  0.00000000000E+00 -0.10179355742E+04  0.10179355742E+04  0.25500000920E-02 0. -1.
    10030    2    1    2    0    0  0.00000000000E+00  0.00000000000E+00 -0.84950079026E+03  0.11863703582E+04  0.82814433171E+03 0.  0.
        2    1    3    3  502    0 -0.13772087687E+03  0.33775305575E+03 -0.14398381845E+03  0.39214220198E+03  0.25500000920E-02 0.  1.
       -2    1    3    3    0  502  0.13772087687E+03 -0.33775305575E+03 -0.70551697181E+03  0.79422815620E+03  0.25500000920E-02 0. -1.
</event>
<event>
 5   0  0.6248886E-02  0.6848633E+03  0.7818609E-02  0.9743474E-01
        2   -1    0    0  501    0  0.00000000000E+00  0.00000000000E+00  0.59069423612E+03  0.59069423613E+03  0.25500000920E-02 0. -1.
       -2   -1    0    0    0  501  0.00000000000E+00  0.00000000000E+00 -0.19851121012E+03  0.19851121014E+03  0.25500000920E-02 0.  1.
    10030    2    1    2    0    0  0.00000000000E+00  0.00000000000E+00  0.39218302600E+03  0.78920544627E+03  0.68486327872E+03 0.  0.
        3    1    3    3  502    0  0.26209718003E+03  0.22037153778E+03  0.19716696865E+03  0.39513715362E+03  0.10100000352E+00 0. -1.
       -3    1    3    3    0  502 -0.26209718003E+03 -0.22037153778E+03  0.19501605734E+03  0.39406829264E+03  0.10100000352E+00 0.  1.
</event>
<event>
 5   0  0.3749730E-02  0.6995693E+03  0.7818609E-02  0.9717969E-01
       -1   -1    0    0    0  501  0.00000000000E+00  0.00000000000E+00  0.11942210733E+03  0.11942210743E+03  0.50400001928E-02 0.  1.
        1   -1    0    0  501    0  0.00000000000E+00  0.00000000000E+00 -0.10245112282E+04  0.10245112282E+04  0.50400001928E-02 0. -1.
    10030    2    1    2    0    0  0.00000000000E+00  0.00000000000E+00 -0.90508912085E+03  0.11439333356E+04  0.69956926724E+03 0.  0.
        4    1    3    3  502    0 -0.20222757279E+03 -0.25201508447E+03 -0.67156377541E+03  0.74525640644E+03  0.12699999809E+01 0. -1.
       -4    1    3    3    0  502  0.20222757279E+03  0.25201508447E+03 -0.23352534544E+03  0.39867692918E+03  0.12699999809E+01 0.  1.
</event>
<event>
 5   0  0.3755872E-02  0.6882677E+03  0.7818609E-02  0.9737509E-01
        1   -1    0    0  501    0  0.00000000000E+00  0.00000000000E+00  0.74099080982E+03  0.74099080983E+03  0.50400001928E-02 0.  1.
       -1   -1    0    0    0  501  0.00000000000E+00  0.00000000000E+00 -0.15982399628E+03  0.15982399636E+03  0.50400001928E-02 0. -1.
    10030    2    1    2    0    0  0.00000000000E+00  0.00000000000E+00  0.58116681354E+03  0.90081480619E+03  0.68826771673E+03 0.  0.
        2    1    3    3  502    0  0.85340637923E+02 -0.29069959351E+03  0.50420036407E+03  0.58822383943E+03  0.25500000920E-02 0.  1.
       -2    1    3    3    0  502 -0.85340637923E+02  0.29069959351E+03  0.76966449474E+02  0.31259096676E+03  0.25500000920E-02 0. -1.
</event>
<event>
 5   0  0.3439015E-02  0.7096513E+03  0.7818609E-02  0.9700868E-01
        1   -1    0    0  501    0  0.00000000000E+00  0.00000000000E+00  0.28622500786E+03  0.28622500790E+03  0.50400001928E-02 0. -1.
       -1   -1    0    0    0  501  0.00000000000E+00  0.00000000000E+00 -0.43986800837E+03  0.43986800840E+03  0.50400001928E-02 0.  1.
    10030    2    1    2    0    0  0.00000000000E+00  0.00000000000E+00 -0.15364300051E+03  0.72609301630E+03  0.70965125006E+03 0.  0.
        1    1    3    3  502    0 -0.16221621307E+03  0.74727376228E+01  0.24597371435E+03  0.29474227686E+03  0.50400001928E-02 0. -1.
       -1    1    3    3    0  502  0.16221621307E+03 -0.74727376228E+01 -0.39961671487E+03  0.43135073944E+03  0.50400001928E-02 0.  1.
</event>
<event>
 5   0  0.5899787E-02  0.6999362E+03  0.7818609E-02  0.9717341E-01
        2   -1    0    0  501    0  0.00000000000E+00  0.00000000000E+00  0.13626296711E+04  0.13626296711E+04  0.25500000920E-02 0. -1.
       -2   -1    0    0    0  501  0.00000000000E+00  0.00000000000E+00 -0.89883310532E+02  0.89883310568E+02  0.25500000920E-02 0.  1.
    10030    2    1    2    0    0  0.00000000000E+00  0.00000000000E+00  0.12727463605E+04  0.14525129816E+04  0.69993618536E+03 0.  0.
        2    1    3    3  502    0  0.19152169361E+03  0.59541329452E+02  0.12315344244E+04  0.12477590984E+04  0.25500000920E-02 0. -1.
       -2    1    3    3    0  502 -0.19152169361E+03 -0.59541329452E+02  0.41211936142E+02  0.20475388329E+03  0.25500000920E-02 0.  1.
</event>
<event>
 5   0  0.2439375E-02  0.7079497E+03  0.7818609E-02  0.9703733E-01
       -3   -1    0    0    0  501  0.00000000000E+00  0.00000000000E+00  0.21825737419E+03  0.21825739756E+03  0.10100000352E+00 0. -1.
        3   -1    0    0  501    0  0.00000000000E+00  0.00000000000E+00 -0.57408452049E+03  0.57408452937E+03  0.10100000352E+00 0.  1.
    10030    2    1    2    0    0  0.00000000000E+00  0.00000000000E+00 -0.35582714630E+03  0.79234192693E+03  0.70794969534E+03 0.  0.
        1    1    3    3  502    0 -0.40582008840E+02 -0.15044106167E+03  0.17780889613E+03  0.23642211412E+03  0.50400001928E-02 0. -1.
       -1    1    3    3    0  502  0.40582008840E+02  0.15044106167E+03 -0.53363604242E+03  0.55591981281E+03  0.50400001928E-02 0.  1.
</event>
<event>
 5   0  0.3717372E-02  0.6874473E+03  0.7818609E-02  0.9738943E-01
       -1   -1    0    0    0  501  0.00000000000E+00  0.00000000000E+00  0.14076663741E+03  0.14076663750E+03  0.50400001928E-02 0. -1.
        1   -1    0    0  501    0  0.00000000000E+00  0.00000000000E+00 -0.83930349223E+03  0.83930349224E+03  0.50400001928E-02 0.  1.
    10030    2    1    2    0    0  0.00000000000E+00  0.00000000000E+00 -0.69853685481E+03  0.98007012975E+03  0.68744725011E+03 0.  0.
        3    1    3    3  502    0 -0.16393370827E+03 -0.17399644404E+03  0.28361290500E+01  0.23907546314E+03  0.10100000352E+00 0. -1.
       -3    1    3    3    0  502  0.16393370827E+03  0.17399644404E+03 -0.70137298386E+03  0.74099466661E+03  0.10100000352E+00 0.  1.
</event>
<event>
 5   0  0.3439015E-02  0.6930192E+03  0.7818609E-02  0.9729245E-01
       -1   -1    0    0    0  501  0.00000000000E+00  0.00000000000E+00  0.17638611347E+03  0.17638611354E+03  0.50400001928E-02 0.  1.
        1   -1    0    0  501    0  0.00000000000E+00  0.00000000000E+00 -0.68071638677E+03  0.68071638679E+03  0.50400001928E-02 0. -1.
    10030    2    1    2    0    0  0.00000000000E+00  0.00000000000E+00 -0.50433027330E+03  0.85710250033E+03  0.69301924324E+03 0.  0.
        1    1    3    3  502    0  0.30942238942E+02 -0.13944600421E+03 -0.64261174316E+03  0.65829511825E+03  0.50400001928E-02 0. -1.
       -1    1    3    3    0  502 -0.30942238942E+02  0.13944600421E+03  0.13828146985E+03  0.19880738208E+03  0.50400001928E-02 0.  1.
</event>
<event>
 5   0  0.6248886E-02  0.7055027E+03  0.7818609E-02  0.9707868E-01
       -2   -1    0    0    0  501  0.00000000000E+00  0.00000000000E+00  0.12013783575E+03  0.12013783577E+03  0.25500000920E-02 0. -1.
        2   -1    0    0  501    0  0.00000000000E+00  0.00000000000E+00 -0.10357563720E+04  0.10357563720E+04  0.25500000920E-02 0.  1.
    10030    2    1    2    0    0  0.00000000000E+00  0.00000000000E+00 -0.91561853625E+03  0.11558942078E+04  0.70550273964E+03 0.  0.
        3    1    3    3  502    0  0.22565298180E+03  0.27107927000E+03 -0.44879362875E+03  0.57080554502E+03  0.10100000352E+00 0. -1.
       -3    1    3    3    0  502 -0.22565298180E+03 -0.27107927000E+03 -0.46682490750E+03  0.58508866275E+03  0.10100000352E+00 0.  1.
</event>
<event>
 5   0  0.6248886E-02  0.7030010E+03  0.7818609E-02  0.9712114E-01
        2   -1    0    0  501    0  0.00000000000E+00  0.00000000000E+00  0.75208299827E+03  0.75208299827E+03  0.25500000920E-02 0. -1.
       -2   -1    0    0    0  501  0.00000000000E+00  0.00000000000E+00 -0.16428055049E+03  0.16428055051E+03  0.25500000920E-02 0.  1.
    10030    2    1    2    0    0  0.00000000000E+00  0.00000000000E+00  0.58780244777E+03  0.91636354878E+03  0.70300102129E+03 0.  0.
        3    1    3    3  502    0  0.13128224161E+03  0.31289395583E+03  0.41347542013E+03  0.53488277951E+03  0.10100000352E+00 0. -1.
       -3    1    3    3    0  502 -0.13128224161E+03 -0.31289395583E+03  0.17432702764E+03  0.38148076927E+03  0.10100000352E+00 0.  1.
</event>
<event>
 5   0  0.3439015E-02  0.7003025E+03  0.7818609E-02  0.9716715E-01
        1   -1    0    0  501    0  0.00000000000E+00  0.00000000000E+00  0.48090971125E+03  0.48090971128E+03  0.50400001928E-02 0. -1.
       -1   -1    0    0    0  501  0.00000000000E+00  0.00000000000E+00 -0.25494579091E+03  0.25494579096E+03  0.50400001928E-02 0.  1.
    10030    2    1    2    0    0  0.00000000000E+00  0.00000000000E+00  0.22596392034E+03  0.73585550223E+03  0.70030252525E+03 0.  0.
        1    1    3    3  502    0 -0.21603861028E+03  0.36376103162E+02 -0.17403356083E+03  0.27979203408E+03  0.50400001928E-02 0.  1.
       -1    1    3    3    0  502  0.21603861028E+03 -0.36376103162E+02  0.39999748118E+03  0.45606346815E+03  0.50400001928E-02 0. -1.
</event>
<event>
 5   0  0.2439375E-02  0.6870551E+03  0.7818609E-02  0.9739629E-01
        3   -1    0    0  501    0  0.00000000000E+00  0.00000000000E+00  0.10126869972E+04  0.10126870022E+04  0.10100000352E+00 0. -1.
       -3   -1    0    0    0  501  0.00000000000E+00  0.00000000000E+00 -0.11653268522E+03  0.11653272898E+03  0.10100000352E+00 0.  1.
    10030    2    1    2    0    0  0.00000000000E+00  0.00000000000E+00  0.89615431196E+03  0.11292197312E+04  0.68705505637E+03 0.  0.
        5    1    3    3  502    0 -0.73609211853E+01  0.16855318529E+02 -0.11566996576E+03  0.11721738737E+03  0.46999998093E+01 0.  1.
       -5    1    3    3    0  502  0.73609211853E+01 -0.16855318529E+02  0.10118242777E+04  0.10120023438E+04  0.46999998093E+01 0. -1.
</event>
<event>
 5   0  0.6131198E-02  0.7003403E+03  0.7818609E-02  0.9716650E-01
       -2   -1    0    0    0  501  0.00000000000E+00  0.00000000000E+00  0.10446993192E+03  0.10446993195E+03  0.25500000920E-02 0. -1.
        2   -1    0    0  501    0  0.00000000000E+00  0.00000000000E+00 -0.11737265727E+04  0.11737265727E+04  0.25500000920E-02 0.  1.
    10030    2    1    2    0    0  0.00000000000E+00  0.00000000000E+00 -0.10692566408E+04  0.12781965047E+04  0.70034030347E+03 0.  0.
        1    1    3    3  502    0  0.34075025208E+02 -0.15932494628E+03 -0.11003339670E+04  0.11123310590E+04  0.50400001928E-02 0.  1.
       -1    1    3    3    0  502 -0.34075025208E+02  0.15932494628E+03  0.31077326180E+02  0.16586544570E+03  0.50400001928E-02 0. -1.
</event>
<event>
 5   0  0.3755872E-02  0.6989212E+03  0.7818609E-02  0.9719079E-01
        1   -1    0    0  501    0  0.00000000000E+00  0.00000000000E+00  0.12110589947E+04  0.12110589947E+04  0.50400001928E-02 0. -1.
       -1   -1    0    0    0  501  0.00000000000E+00  0.00000000000E+00 -0.10083961844E+03  0.10083961856E+03  0.50400001928E-02 0.  1.
    10030    2    1    2    0    0  0.00000000000E+00  0.00000000000E+00  0.11102193762E+04  0.13118986132E+04  0.69892124597E+03 0.  0.
        2    1    3    3  502    0  0.75852399409E+02  0.15647997733E+03  0.11240804969E+04  0.11374517718E+04  0.25500000920E-02 0. -1.
       -2    1    3    3    0  502 -0.75852399409E+02 -0.15647997733E+03 -0.13861120652E+02  0.17444684139E+03  0.25500000920E-02 0.  1.
</event>
<event>
 5   0  0.3439015E-02  0.7335723E+03  0.7818609E-02  0.9661481E-01
        1   -1    0    0  501    0  0.00000000000E+00  0.00000000000E+00  0.47592320214E+03  0.47592320216E+03  0.50400001928E-02 0.  1.
       -1   -1    0    0    0  501  0.00000000000E+00  0.00000000000E+00 -0.28267602881E+03  0.28267602886E+03  0.50400001928E-02 0. -1.
    10030    2    1    2    0    0  0.00000000000E+00  0.00000000000E+00  0.19324717333E+03  0.75859923102E+03  0.73357230271E+03 0.  0.
        1    1    3    3  502    0 -0.19471297861E+03  0.17715411834E+03  0.36074948558E+03  0.44658360590E+03  0.50400001928E-02 0.  1.
       -1    1    3    3    0  502  0.19471297861E+03 -0.17715411834E+03 -0.16750231226E+03  0.31201562512E+03  0.50400001928E-02 0. -1.
</event>
<event>
 5   0  0.2439375E-02  0.6977392E+03  0.7818609E-02  0.9721106E-01
       -4   -1    0    0    0  501  0.00000000000E+00  0.00000000000E+00  0.62743486713E+03  0.62743615245E+03  0.12699999809E+01 0.  1.
        4   -1    0    0  501    0  0.00000000000E+00  0.00000000000E+00 -0.19397673238E+03  0.19398088980E+03  0.12699999809E+01 0. -1.
    10030    2    1    2    0    0  0.00000000000E+00  0.00000000000E+00  0.43345813475E+03  0.82141704224E+03  0.69773920823E+03 0.  0.
        2    1    3    3  502    0 -0.12337367260E+03  0.19299600161E+03 -0.93051203377E+02  0.24723884441E+03  0.25500000920E-02 0. -1.
       -2    1    3    3    0  502  0.12337367260E+03 -0.19299600161E+03  0.52650933813E+03  0.57417819784E+03  0.25500000920E-02 0.  1.
</event>
<event>
 5   0  0.6131198E-02  0.7895513E+03  0.7818609E-02  0.9575265E-01
        2   -1    0    0  501    0  0.00000000000E+00  0.00000000000E+00  0.16165950721E+04  0.16165950721E+04  0.25500000920E-02 0. -1.
       -2   -1    0    0    0  501  0.00000000000E+00  0.00000000000E+00 -0.96404986898E+02  0.96404986932E+02  0.25500000920E-02 0.  1.
    10030    2    1    2    0    0  0.00000000000E+00  0.00000000000E+00  0.15201900852E+04  0.17130000590E+04  0.78955133278E+03 0.  0.
        1    1    3    3  502    0 -0.21068528236E+03  0.32949283399E+03  0.64337993150E+03  0.75292200934E+03  0.50400001928E-02 0.  1.
       -1    1    3    3    0  502  0.21068528236E+03 -0.32949283399E+03  0.87681015369E+03  0.96007804969E+03  0.50400001928E-02 0. -1.
</event>
<event>
 5   0  0.3755872E-02  0.6183342E+03  0.7818609E-02  0.9868082E-01
       -1   -1    0    0    0  501  0.00000000000E+00  0.00000000000E+00  0.21098803038E+03  0.21098803044E+03  0.50400001928E-02 0.  1.
        1   -1    0    0  501    0  0.00000000000E+00  0.00000000000E+00 -0.45303177207E+03  0.45303177210E+03  0.50400001928E-02 0. -1.
    10030    2    1    2    0    0  0.00000000000E+00  0.00000000000E+00 -0.24204374169E+03  0.66401980254E+03  0.61833415341E+03 0.  0.
        2    1    3    3  502    0 -0.22793674514E+03 -0.16845577863E+03 -0.25364459691E+03  0.38035258733E+03  0.25500000920E-02 0. -1.
       -2    1    3    3    0  502  0.22793674514E+03  0.16845577863E+03  0.11600855216E+02  0.28366721521E+03  0.25500000920E-02 0.  1.
</event>
<event>
 5   0  0.3755872E-02  0.7029988E+03  0.7818609E-02  0.9712118E-01
       -1   -1    0    0    0  501  0.00000000000E+00  0.00000000000E+00  0.13558252163E+03  0.13558252172E+03  0.50400001928E-02 0.  1.
        1   -1    0    0  501    0  0.00000000000E+00  0.00000000000E+00 -0.91126663416E+03  0.91126663418E+03  0.50400001928E-02 0. -1.
    10030    2    1    2    0    0  0.00000000000E+00  0.00000000000E+00 -0.77568411254E+03  0.10468491559E+04  0.70299879998E+03 0.  0.
        2    1    3    3  502    0 -0.12691361457E+03  0.17301676137E+03  0.26737887262E+02  0.21623316096E+03  0.25500000920E-02 0.  1.
       -2    1    3    3    0  502  0.12691361457E+03 -0.17301676137E+03 -0.80242199980E+03  0.83061599494E+03  0.25500000920E-02 0. -1.
</event>
<event>
 5   0  0.5899787E-02  0.6878369E+03  0.7818609E-02  0.9738262E-01
        2   -1    0    0  501    0  0.00000000000E+00  0.00000000000E+00  0.60130141082E+03  0.60130141083E+03  0.25500000920E-02 0.  1.
       -2   -1    0    0    0  501  0.00000000000E+00  0.00000000000E+00 -0.19670649094E+03  0.19670649096E+03  0.25500000920E-02 0. -1.
    10030    2    1    2    0    0  0.00000000000E+00  0.00000000000E+00  0.40459491988E+03  0.79800790179E+03  0.68783687174E+03 0.  0.
        2    1    3    3  502    0  0.28479579301E+03 -0.52288903231E+02 -0.12998130385E+02  0.28984776093E+03  0.25500000920E-02 0. -1.
       -2    1    3    3    0  502 -0.28479579301E+03  0.52288903231E+02  0.41759305026E+03  0.50816014085E+03  0.25500000920E-02 0.  1.
</event>
<event>
 5   0  0.2439375E-02  0.6967333E+03  0.7818609E-02  0.9722835E-01
       -3   -1    0    0    0  501  0.00000000000E+00  0.00000000000E+00  0.10970572332E+04  0.10970572379E+04  0.10100000352E+00 0. -1.
        3   -1    0    0  501    0  0.00000000000E+00  0.00000000000E+00 -0.11062256421E+03  0.11062261031E+03  0.10100000352E+00 0.  1.
    10030    2    1    2    0    0  0.00000000000E+00  0.00000000000E+00  0.98643466901E+03  0.12076798482E+04  0.69673327714E+03 0.  0.
        2    1    3    3  502    0  0.11095411450E+03 -0.26158733989E+02  0.10638126745E+04  0.10699030336E+04  0.25500000920E-02 0. -1.
       -2    1    3    3    0  502 -0.11095411450E+03  0.26158733989E+02 -0.77378005500E+02  0.13777681456E+03  0.25500000920E-02 0.  1.
</event>
<event>
 5   0  0.3439015E-02  0.7224391E+03  0.7818609E-02  0.9679610E-01
        1   -1    0    0  501    0  0.00000000000E+00  0.00000000000E+00  0.21484551886E+04  0.21484551886E+04  0.50400001928E-02 0.  1.
       -1   -1    0    0    0  501  0.00000000000E+00  0.00000000000E+00 -0.60731807021E+02  0.60731807230E+02  0.50400001928E-02 0. -1.
    10030    2    1    2    0    0  0.00000000000E+00  0.00000000000E+00  0.20877233815E+04  0.22091869958E+04  0.72243910786E+03 0.  0.
        1    1    3    3  502    0  0.63175273176E+02  0.12050574895E+03  0.20670978846E+04  0.20715710017E+04  0.50400001928E-02 0.  1.
       -1    1    3    3    0  502 -0.63175273176E+02 -0.12050574895E+03  0.20625496926E+02  0.13761599405E+03  0.50400001928E-02 0. -1.
</event>
<event>
 5   0  0.5987810E-02  0.7054672E+03  0.7818609E-02  0.9707928E-01
       -2   -1    0    0    0  501  0.00000000000E+00  0.00000000000E+00  0.57263274707E+03  0.57263274708E+03  0.25500000920E-02 0.  1.
        2   -1    0    0  501    0  0.00000000000E+00  0.00000000000E+00 -0.21727885273E+03  0.21727885274E+03  0.25500000920E-02 0. -1.
    10030    2    1    2    0    0  0.00000000000E+00  0.00000000000E+00  0.35535389435E+03  0.78991159982E+03  0.70546718230E+03 0.  0.
        5    1    3    3  502    0  0.21613596488E+03 -0.63347800571E+02  0.48159083027E+03  0.53167613916E+03  0.46999998093E+01 0.  1.
       -5    1    3    3    0  502 -0.21613596488E+03  0.63347800571E+02 -0.12623693593E+03  0.25823546066E+03  0.46999998093E+01 0. -1.
</event>
<event>
 5   0  0.3717372E-02  0.5301043E+03  0.7818609E-02  0.1006207E+00
        1   -1    0    0  501    0  0.00000000000E+00  0.00000000000E+00  0.17145233852E+03  0.17145233859E+03  0.50400001928E-02 0.  1.
       -1   -1    0    0    0  501  0.00000000000E+00  0.00000000000E+00 -0.40975032633E+03  0.40975032636E+03  0.50400001928E-02 0. -1.
    10030    2    1    2    0    0  0.00000000000E+00  0.00000000000E+00 -0.23829798781E+03  0.58120266495E+03  0.53010433572E+03 0.  0.
        3    1    3    3  502    0  0.10255903799E+03  0.31384894502E+02 -0.38489545590E+03  0.39955962014E+03  0.10100000352E+00 0. -1.
       -3    1    3    3    0  502 -0.10255903799E+03 -0.31384894502E+02  0.14659746809E+03  0.18164304481E+03  0.10100000352E+00 0.  1.
</event>
<event>
 5   0  0.5899787E-02  0.7012538E+03  0.7818609E-02  0.9715090E-01
        2   -1    0    0  501    0  0.00000000000E+00  0.00000000000E+00  0.22553816172E+03  0.22553816173E+03  0.25500000920E-02 0.  1.
       -2   -1    0    0    0  501  0.00000000000E+00  0.00000000000E+00 -0.54509272441E+03  0.54509272441E+03  0.25500000920E-02 0. -1.
    10030    2    1    2    0    0  0.00000000000E+00  0.00000000000E+00 -0.31955456269E+03  0.77063088614E+03  0.70125376587E+03 0.  0.
        2    1    3    3  502    0  0.63271369386E+02  0.27054840694E+03 -0.39480383466E+03  0.48277300520E+03  0.25500000920E-02 0. -1.
       -2    1    3    3    0  502 -0.63271369386E+02 -0.27054840694E+03  0.75249271975E+02  0.28785788094E+03  0.25500000920E-02 0.  1.
</event>
<event>
 5   0  0.5899787E-02  0.6944680E+03  0.7818609E-02  0.9726740E-01
       -2   -1    0    0    0  501  0.00000000000E+00  0.00000000000E+00  0.22476607305E+03  0.22476607307E+03  0.25500000920E-02 0.  1.
        2   -1    0    0  501    0  0.00000000000E+00  0.00000000000E+00 -0.53643088777E+03  0.53643088777E+03  0.25500000920E-02 0. -1.
    10030    2    1    2    0    0  0.00000000000E+00  0.00000000000E+00 -0.31166481471E+03  0.76119696084E+03  0.69446803847E+03 0.  0.
        2    1    3    3  502    0 -0.15737683771E+03  0.36459610884E+02 -0.49273358158E+03  0.51853944372E+03  0.25500000920E-02 0. -1.
       -2    1    3    3    0  502  0.15737683771E+03 -0.36459610884E+02  0.18106876686E+03  0.24265751712E+03  0.25500000920E-02 0.  1.
</event>
<event>
 5   0  0.3439015E-02  0.6966353E+03  0.7818609E-02  0.9723004E-01
       -1   -1    0    0    0  501  0.00000000000E+00  0.00000000000E+00  0.33941062765E+03  0.33941062769E+03  0.50400001928E-02 0.  1.
        1   -1    0    0  501    0  0.00000000000E+00  0.00000000000E+00 -0.35745842798E+03  0.35745842801E+03  0.50400001928E-02 0. -1.
    10030    2    1    2    0    0  0.00000000000E+00  0.00000000000E+00 -0.18047800327E+02  0.69686905570E+03  0.69663531184E+03 0.  0.
        1    1    3    3  502    0  0.33197729520E+03 -0.25052909652E+02  0.93424410284E+02  0.34578127953E+03  0.50400001928E-02 0.  1.
       -1    1    3    3    0  502 -0.33197729520E+03  0.25052909652E+02 -0.11147221061E+03  0.35108777617E+03  0.50400001928E-02 0. -1.
</event>
<event>
 5   0  0.6248886E-02  0.6973579E+03  0.7818609E-02  0.9721761E-01
       -2   -1    0    0    0  501  0.00000000000E+00  0.00000000000E+00  0.78388710180E+02  0.78388710222E+02  0.25500000920E-02 0.  1.
        2   -1    0    0  501    0  0.00000000000E+00  0.00000000000E+00 -0.15509506373E+04  0.15509506373E+04  0.25500000920E-02 0. -1.
    10030    2    1    2    0    0  0.00000000000E+00  0.00000000000E+00 -0.14725619271E+04  0.16293393475E+04  0.69735792831E+03 0.  0.
        3    1    3    3  502    0  0.30324860624E+03 -0.17200782338E+03 -0.72335609525E+03  0.80298845522E+03  0.10100000352E+00 0. -1.
       -3    1    3    3    0  502 -0.30324860624E+03  0.17200782338E+03 -0.74920583186E+03  0.82635089229E+03  0.10100000352E+00 0.  1.
</event>
<event>
 5   0  0.5899787E-02  0.7048177E+03  0.7818609E-02  0.9709029E-01
        2   -1    0    0  501    0  0.00000000000E+00  0.00000000000E+00  0.16504831807E+04  0.16504831807E+04  0.25500000920E-02 0.  1.
       -2   -1    0    0    0  501  0.00000000000E+00  0.00000000000E+00 -0.75245842405E+02  0.75245842448E+02  0.25500000920E-02 0. -1.
    10030    2    1    2    0    0  0.00000000000E+00  0.00000000000E+00  0.15752373383E+04  0.17257290232E+04  0.70481769941E+03 0.  0.
        2    1    3    3  502    0 -0.74969166179E+02  0.21446989039E+03  0.12800872830E+03  0.26077565893E+03  0.25500000920E-02 0. -1.
       -2    1    3    3    0  502  0.74969166179E+02 -0.21446989039E+03  0.14472286100E+04  0.14649533643E+04  0.25500000920E-02 0.  1.
</event>
<event>
 5   0  0.3717372E-02  0.7162120E+03  0.7818609E-02  0.9689902E-01
       -1   -1    0    0    0  501  0.00000000000E+00  0.00000000000E+00  0.14315513132E+03  0.14315513141E+03  0.50400001928E-02 0. -1.
        1   -1    0    0  501    0  0.00000000000E+00  0.00000000000E+00 -0.89581084599E+03  0.89581084600E+03  0.50400001928E-02 0.  1.
    10030    2    1    2    0    0  0.00000000000E+00  0.00000000000E+00 -0.75265571467E+03  0.10389659774E+04  0.71621203382E+03 0.  0.
        3    1    3    3  502    0 -0.33072839101E+02 -0.33192272572E+03 -0.18733554304E+03  0.38257172455E+03  0.10100000352E+00 0.  1.
       -3    1    3    3    0  502  0.33072839101E+02  0.33192272572E+03 -0.56532017163E+03  0.65639425286E+03  0.10100000352E+00 0. -1.
</event>
<event>
 5   0  0.3717372E-02  0.7180339E+03  0.7818609E-02  0.9686879E-01
        1   -1    0    0  501    0  0.00000000000E+00  0.00000000000E+00  0.83700389108E+03  0.83700389109E+03  0.50400001928E-02 0. -1.
       -1   -1    0    0    0  501  0.00000000000E+00  0.00000000000E+00 -0.15399353359E+03  0.15399353367E+03  0.50400001928E-02 0.  1.
    10030    2    1    2    0    0  0.00000000000E+00  0.00000000000E+00  0.68301035749E+03  0.99099742476E+03  0.71803394589E+03 0.  0.
        3    1    3    3  502    0  0.13001241908E+03  0.21134508064E+03 -0.16599453653E+02  0.24868760381E+03  0.10100000352E+00 0.  1.
       -3    1    3    3    0  502 -0.13001241908E+03 -0.21134508064E+03  0.69960981114E+03  0.74230982095E+03  0.10100000352E+00 0. -1.
</event>
<event>
 5   0  0.3749730E-02  0.6981548E+03  0.7818609E-02  0.9720393E-01
        1   -1    0    0  501    0  0.00000000000E+00  0.00000000000E+00  0.23504692969E+04  0.23504692969E+04  0.50400001928E-02 0. -1.
       -1   -1    0    0    0  501  0.00000000000E+00  0.00000000000E+00 -0.51842852051E+02  0.51842852296E+02  0.50400001928E-02 0.  1.
    10030    2    1    2    0    0  0.00000000000E+00  0.00000000000E+00  0.22986264449E+04  0.24023121492E+04  0.69815480321E+03 0.  0.
        4    1    3    3  502    0 -0.34430129212E+03 -0.16468261803E+02  0.95962894297E+03  0.10196587196E+04  0.12699999809E+01 0.  1.
       -4    1    3    3    0  502  0.34430129212E+03  0.16468261803E+02  0.13389975019E+04  0.13826534296E+04  0.12699999809E+01 0. -1.
</event>
<event>
 5   0  0.6248886E-02  0.7257342E+03  0.7818609E-02  0.9674208E-01
       -2   -1    0    0    0  501  0.00000000000E+00  0.00000000000E+00  0.21720426404E+03  0.21720426406E+03  0.25500000920E-02 0.  1.
        2   -1    0    0  501    0  0.00000000000E+00  0.00000000000E+00 -0.60621521137E+03  0.60621521137E+03  0.25500000920E-02 0. -1.
    10030    2    1    2    0    0  0.00000000000E+00  0.00000000000E+00 -0.38901094732E+03  0.82341947543E+03  0.72573419058E+03 0.  0.
        3    1    3    3  502    0  0.23752221109E+03  0.17629678246E+03 -0.43297485665E+03  0.52437066371E+03  0.10100000352E+00 0. -1.
       -3    1    3    3    0  502 -0.23752221109E+03 -0.17629678246E+03  0.43963909326E+02  0.29904881172E+03  0.10100000352E+00 0.  1.
</event>
<event>
 5   0  0.5899787E-02  0.7266513E+03  0.7818609E-02  0.9672710E-01
       -2   -1    0    0    0  501  0.00000000000E+00  0.00000000000E+00  0.17759592460E+03  0.17759592462E+03  0.25500000920E-02 0.  1.
        2   -1    0    0  501    0  0.00000000000E+00  0.00000000000E+00 -0.74329142051E+03  0.74329142051E+03  0.25500000920E-02 0. -1.
    10030    2    1    2    0    0  0.00000000000E+00  0.00000000000E+00 -0.56569549591E+03  0.92088734513E+03  0.72665129762E+03 0.  0.
        2    1    3    3  502    0  0.99274263218E+02 -0.10069698838E+03 -0.70698787529E+03  0.72099037346E+03  0.25500000920E-02 0. -1.
       -2    1    3    3    0  502 -0.99274263218E+02  0.10069698838E+03  0.14129237938E+03  0.19989697168E+03  0.25500000920E-02 0.  1.
</event>
<event>
 5   0  0.6167756E-02  0.6904502E+03  0.7818609E-02  0.9733705E-01
       -2   -1    0    0    0  501  0.00000000000E+00  0.00000000000E+00  0.43510047753E+03  0.43510047754E+03  0.25500000920E-02 0. -1.
        2   -1    0    0  501    0  0.00000000000E+00  0.00000000000E+00 -0.27391455714E+03  0.27391455715E+03  0.25500000920E-02 0.  1.
    10030    2    1    2    0    0  0.00000000000E+00  0.00000000000E+00  0.16118592039E+03  0.70901503469E+03  0.69045015641E+03 0.  0.
        4    1    3    3  502    0  0.94584720584E+02 -0.31964970242E+03 -0.11578697577E+02  0.33355341515E+03  0.12699999809E+01 0.  1.
       -4    1    3    3    0  502 -0.94584720584E+02  0.31964970242E+03  0.17276461797E+03  0.37546161954E+03  0.12699999809E+01 0. -1.
</event>
<event>
 5   0  0.3755872E-02  0.7014669E+03  0.7818609E-02  0.9714727E-01
       -1   -1    0    0    0  501  0.00000000000E+00  0.00000000000E+00  0.40093818801E+03  0.40093818804E+03  0.50400001928E-02 0.  1.
        1   -1    0    0  501    0  0.00000000000E+00  0.00000000000E+00 -0.30681522766E+03  0.30681522770E+03  0.50400001928E-02 0. -1.
    10030    2    1    2    0    0  0.00000000000E+00  0.00000000000E+00  0.94122960358E+02  0.70775341574E+03  0.70146686723E+03 0.  0.
        2    1    3    3  502    0  0.11994774518E+03  0.17100186128E+03 -0.23721675288E+03  0.31607101416E+03  0.25500000920E-02 0. -1.
       -2    1    3    3    0  502 -0.11994774518E+03 -0.17100186128E+03  0.33133971324E+03  0.39168240159E+03  0.25500000920E-02 0.  1.
</event>
<event>
 5   0  0.3601475E-02  0.5771268E+03  0.7818609E-02  0.9954031E-01
       -1   -1    0    0    0  501  0.00000000000E+00  0.00000000000E+00  0.16194580557E+03  0.16194580565E+03  0.50400001928E-02 0.  1.
        1   -1    0    0  501    0  0.00000000000E+00  0.00000000000E+00 -0.51417719055E+03  0.51417719058E+03  0.50400001928E-02 0. -1.
    10030    2    1    2    0    0  0.00000000000E+00  0.00000000000E+00 -0.35223138499E+03  0.67612299623E+03  0.57712681229E+03 0.  0.
        5    1    3    3  502    0 -0.13482346542E+03 -0.48419053416E+02  0.11729417429E+03  0.18520741044E+03  0.46999998093E+01 0.  1.
       -5    1    3    3    0  502  0.13482346542E+03  0.48419053416E+02 -0.46952555927E+03  0.49091558579E+03  0.46999998093E+01 0. -1.
</event>
<event>
 5   0  0.6131198E-02  0.6690647E+03  0.7818609E-02  0.9771649E-01
       -2   -1    0    0    0  501  0.00000000000E+00  0.00000000000E+00  0.30176719749E+03  0.30176719751E+03  0.25500000920E-02 0.  1.
        2   -1    0    0  501    0  0.00000000000E+00  0.00000000000E+00 -0.37085510575E+03  0.37085510576E+03  0.25500000920E-02 0. -1.
    10030    2    1    2    0    0  0.00000000000E+00  0.00000000000E+00 -0.69087908257E+02  0.67262230327E+03  0.66906473811E+03 0.  0.
        1    1    3    3  502    0 -0.92791900083E+02 -0.12012043506E+03  0.26515635289E+03  0.30552765365E+03  0.50400001928E-02 0.  1.
       -1    1    3    3    0  502  0.92791900083E+02  0.12012043506E+03 -0.33424426115E+03  0.36709464962E+03  0.50400001928E-02 0. -1.
</event>
<event>
 5   0  0.5899787E-02  0.7039742E+03  0.7818609E-02  0.9710460E-01
       -2   -1    0    0    0  501  0.00000000000E+00  0.00000000000E+00  0.48976572426E+03  0.48976572427E+03  0.25500000920E-02 0.  1.
        2   -1    0    0  501    0  0.00000000000E+00  0.00000000000E+00 -0.25296771434E+03  0.25296771435E+03  0.25500000920E-02 0. -1.
    10030    2    1    2    0    0  0.00000000000E+00  0.00000000000E+00  0.23679800992E+03  0.74273343862E+03  0.70397419224E+03 0.  0.
        2    1    3    3  502    0  0.30903836798E+03 -0.92798349091E+02 -0.29980792431E+02  0.32406032524E+03  0.25500000920E-02 0. -1.
       -2    1    3    3    0  502 -0.30903836798E+03  0.92798349091E+02  0.26677880235E+03  0.41867311338E+03  0.25500000920E-02 0.  1.
</event>
<event>
 5   0  0.3439015E-02  0.7165645E+03  0.7818609E-02  0.9689317E-01
       -1   -1    0    0    0  501  0.00000000000E+00  0.00000000000E+00  0.18626680576E+03  0.18626680583E+03  0.50400001928E-02 0. -1.
        1   -1    0    0  501    0  0.00000000000E+00  0.00000000000E+00 -0.68915217507E+03  0.68915217508E+03  0.50400001928E-02 0.  1.
    10030    2    1    2    0    0  0.00000000000E+00  0.00000000000E+00 -0.50288536931E+03  0.87541898091E+03  0.71656451034E+03 0.  0.
        1    1    3    3  502    0 -0.10712412481E+03  0.34178419481E+03 -0.24092193400E+03  0.43166583400E+03  0.50400001928E-02 0. -1.
       -1    1    3    3    0  502  0.10712412481E+03 -0.34178419481E+03 -0.26196343530E+03  0.44375314691E+03  0.50400001928E-02 0.  1.
</event>
<event>
 5   0  0.3717372E-02  0.6728049E+03  0.7818609E-02  0.9764904E-01
       -1   -1    0    0    0  501  0.00000000000E+00  0.00000000000E+00  0.66473787270E+02  0.66473787461E+02  0.50400001928E-02 0.  1.
        1   -1    0    0  501    0  0.00000000000E+00  0.00000000000E+00 -0.17024243798E+04  0.17024243798E+04  0.50400001928E-02 0. -1.
    10030    2    1    2    0    0  0.00000000000E+00  0.00000000000E+00 -0.16359505925E+04  0.17688981672E+04  0.67280486395E+03 0.  0.
        3    1    3    3  502    0  0.67635755839E+02  0.13229358159E+03 -0.24469668366E+02  0.15058207752E+03  0.10100000352E+00 0.  1.
       -3    1    3    3    0  502 -0.67635755839E+02 -0.13229358159E+03 -0.16114809241E+04  0.16183160897E+04  0.10100000352E+00 0. -1.
</event>
<event>
 5   0  0.3749730E-02  0.6911633E+03  0.7818609E-02  0.9732465E-01
       -1   -1    0    0    0  501  0.00000000000E+00  0.00000000000E+00  0.19676281677E+03  0.19676281683E+03  0.50400001928E-02 0. -1.
        1   -1    0    0  501    0  0.00000000000E+00  0.00000000000E+00 -0.60695762573E+03  0.60695762575E+03  0.50400001928E-02 0.  1.
    10030    2    1    2    0    0  0.00000000000E+00  0.00000000000E+00 -0.41019480896E+03  0.80372044258E+03  0.69116334432E+03 0.  0.
        4    1    3    3  502    0  0.21029156100E+03  0.23393111472E+02  0.11262997628E+03  0.23970169534E+03  0.12699999809E+01 0. -1.
       -4    1    3    3    0  502 -0.21029156100E+03 -0.23393111472E+02 -0.52282478523E+03  0.56401874725E+03  0.12699999809E+01 0.  1.
</event>
<event>
 5   0  0.2439375E-02  0.7001014E+03  0.7818609E-02  0.9717059E-01
        3   -1    0    0  501    0  0.00000000000E+00  0.00000000000E+00  0.28230245491E+03  0.28230247298E+03  0.10100000352E+00 0.  1.
       -3   -1    0    0    0  501  0.00000000000E+00  0.00000000000E+00 -0.43405740311E+03  0.43405741487E+03  0.10100000352E+00 0. -1.
    10030    2    1    2    0    0  0.00000000000E+00  0.00000000000E+00 -0.15175494820E+03  0.71635988785E+03  0.70010136738E+03 0.  0.
        2    1    3    3  502    0  0.12967252631E+03  0.31891646572E+03 -0.14069528504E+03  0.37191106387E+03  0.25500000920E-02 0. -1.
       -2    1    3    3    0  502 -0.12967252631E+03 -0.31891646572E+03 -0.11059663157E+02  0.34444882398E+03  0.25500000920E-02 0.  1.
</event>
<event>
 5   0  0.3439015E-02  0.6896491E+03  0.7818609E-02  0.9735099E-01
        1   -1    0    0  501    0  0.00000000000E+00  0.00000000000E+00  0.44975743387E+03  0.44975743390E+03  0.50400001928E-02 0. -1.
       -1   -1    0    0    0  501  0.00000000000E+00  0.00000000000E+00 -0.26437358054E+03  0.26437358059E+03  0.50400001928E-02 0.  1.
    10030    2    1    2    0    0  0.00000000000E+00  0.00000000000E+00  0.18538385333E+03  0.71413101449E+03  0.68964913745E+03 0.  0.
        1    1    3    3  502    0 -0.24321546804E+03  0.10106160087E+03 -0.13777762094E+03  0.29723708369E+03  0.50400001928E-02 0.  1.
       -1    1    3    3    0  502  0.24321546804E+03 -0.10106160087E+03  0.32316147427E+03  0.41689393080E+03  0.50400001928E-02 0. -1.
</event>
<event>
 5   0  0.6248886E-02  0.7127490E+03  0.7818609E-02  0.9695675E-01
        2   -1    0    0  501    0  0.00000000000E+00  0.00000000000E+00  0.59418978089E+03  0.59418978090E+03  0.25500000920E-02 0. -1.
       -2   -1    0    0    0  501  0.00000000000E+00  0.00000000000E+00 -0.21374109317E+03  0.21374109319E+03  0.25500000920E-02 0.  1.
    10030    2    1    2    0    0  0.00000000000E+00  0.00000000000E+00  0.38044868772E+03  0.80793087409E+03  0.71274896935E+03 0.  0.
        3    1    3    3  502    0 -0.23029925522E+03 -0.27196161695E+03  0.18866388912E+03  0.40323063042E+03  0.10100000352E+00 0. -1.
       -3    1    3    3    0  502  0.23029925522E+03  0.27196161695E+03  0.19178479860E+03  0.40470024367E+03  0.10100000352E+00 0.  1.
</event>
<event>
 5   0  0.3755872E-02  0.7119894E+03  0.7818609E-02  0.9696946E-01
        1   -1    0    0  501    0  0.00000000000E+00  0.00000000000E+00  0.16742753112E+03  0.16742753119E+03  0.50400001928E-02 0. -1.
       -1   -1    0    0    0  501  0.00000000000E+00  0.00000000000E+00 -0.75693782354E+03  0.75693782356E+03  0.50400001928E-02 0.  1.
    10030    2    1    2    0    0  0.00000000000E+00  0.00000000000E+00 -0.58951029242E+03  0.92436535475E+03  0.71198941298E+03 0.  0.
        2    1    3    3  502    0  0.13015436217E+03 -0.36785806875E+02 -0.72228124363E+03  0.73483572891E+03  0.25500000920E-02 0.  1.
       -2    1    3    3    0  502 -0.13015436217E+03  0.36785806875E+02  0.13277095121E+03  0.18952962584E+03  0.25500000920E-02 0. -1.
</event>
<event>
 5   0  0.6131198E-02  0.6545787E+03  0.7818609E-02  0.9798225E-01
        2   -1    0    0  501    0  0.00000000000E+00  0.00000000000E+00  0.46847181770E+03  0.46847181771E+03  0.25500000920E-02 0.  1.
       -2   -1    0    0    0  501  0.00000000000E+00  0.00000000000E+00 -0.22865477130E+03  0.22865477131E+03  0.25500000920E-02 0. -1.
    10030    2    1    2    0    0  0.00000000000E+00  0.00000000000E+00  0.23981704641E+03  0.69712658902E+03  0.65457869303E+03 0.  0.
        1    1    3    3  502    0  0.18950408293E+03  0.26605055508E+03  0.97988625213E+02  0.34102267667E+03  0.50400001928E-02 0. -1.
       -1    1    3    3    0  502 -0.18950408293E+03 -0.26605055508E+03  0.14182842119E+03  0.35610391235E+03  0.50400001928E-02 0.  1.
</event>
<event>
 5   0  0.3755872E-02  0.7218356E+03  0.7818609E-02  0.9680602E-01
       -1   -1    0    0    0  501  0.00000000000E+00  0.00000000000E+00  0.45363903625E+03  0.45363903627E+03  0.50400001928E-02 0. -1.
        1   -1    0    0  501    0  0.00000000000E+00  0.00000000000E+00 -0.28714825947E+03  0.28714825951E+03  0.50400001928E-02 0.  1.
    10030    2    1    2    0    0  0.00000000000E+00  0.00000000000E+00  0.16649077678E+03  0.74078729578E+03  0.72183560375E+03 0.  0.
        2    1    3    3  502    0 -0.14866714566E+03  0.13573166428E+03  0.39067108400E+03  0.43948708828E+03  0.25500000920E-02 0. -1.
       -2    1    3    3    0  502  0.14866714566E+03 -0.13573166428E+03 -0.22418030722E+03  0.30130020750E+03  0.25500000920E-02 0.  1.
</event>
<event>
 5   0  0.3717372E-02  0.7076926E+03  0.7818609E-02  0.9704167E-01
        1   -1    0    0  501    0  0.00000000000E+00  0.00000000000E+00  0.47722537169E+03  0.47722537172E+03  0.50400001928E-02 0. -1.
       -1   -1    0    0    0  501  0.00000000000E+00  0.00000000000E+00 -0.26236491017E+03  0.26236491021E+03  0.50400001928E-02 0.  1.
    10030    2    1    2    0    0  0.00000000000E+00  0.00000000000E+00  0.21486046153E+03  0.73959028193E+03  0.70769256546E+03 0.  0.
        3    1    3    3  502    0 -0.21770023556E+03 -0.25308302142E+03  0.23003279146E+03  0.40541275712E+03  0.10100000352E+00 0.  1.
       -3    1    3    3    0  502  0.21770023556E+03  0.25308302142E+03 -0.15172329930E+02  0.33417752481E+03  0.10100000352E+00 0. -1.
</event>
<event>
 5   0  0.6167756E-02  0.7265097E+03  0.7818609E-02  0.9672941E-01
        2   -1    0    0  501    0  0.00000000000E+00  0.00000000000E+00  0.54795117997E+03  0.54795117997E+03  0.25500000920E-02 0.  1.
       -2   -1    0    0    0  501  0.00000000000E+00  0.00000000000E+00 -0.24081355665E+03  0.24081355666E+03  0.25500000920E-02 0. -1.
    10030    2    1    2    0    0  0.00000000000E+00  0.00000000000E+00  0.30713762332E+03  0.78876473663E+03  0.72650966277E+03 0.  0.
        4    1    3    3  502    0  0.83808859102E+02  0.27483449085E+03 -0.87724649259E+02  0.30042494772E+03  0.12699999809E+01 0.  1.
       -4    1    3    3    0  502 -0.83808859102E+02 -0.27483449085E+03  0.39486227258E+03  0.48833978891E+03  0.12699999809E+01 0. -1.
</event>
<event>
 5   0  0.3749730E-02  0.6993633E+03  0.7818609E-02  0.9718322E-01
       -1   -1    0    0    0  501  0.00000000000E+00  0.00000000000E+00  0.60303616493E+03  0.60303616495E+03  0.50400001928E-02 0. -1.
        1   -1    0    0  501    0  0.00000000000E+00  0.00000000000E+00 -0.20276933089E+03  0.20276933095E+03  0.50400001928E-02 0.  1.
    10030    2    1    2    0    0  0.00000000000E+00  0.00000000000E+00  0.40026683404E+03  0.80580549590E+03  0.69936325239E+03 0.  0.
        4    1    3    3  502    0  0.31827915830E+03 -0.10441586153E+03  0.84503324362E+02  0.34546594547E+03  0.12699999809E+01 0. -1.
       -4    1    3    3    0  502 -0.31827915830E+03  0.10441586153E+03  0.31576350968E+03  0.46033955043E+03  0.12699999809E+01 0.  1.
</event>
<event>
 5   0  0.5899787E-02  0.4530988E+03  0.7818609E-02  0.1026802E+00
       -2   -1    0    0    0  501  0.00000000000E+00  0.00000000000E+00  0.10521679689E+03  0.10521679692E+03  0.25500000920E-02 0. -1.
        2   -1    0    0  501    0  0.00000000000E+00  0.00000000000E+00 -0.48779886557E+03  0.48779886558E+03  0.25500000920E-02 0.  1.
    10030    2    1    2    0    0  0.00000000000E+00  0.00000000000E+00 -0.38258206868E+03  0.59301566250E+03  0.45309881560E+03 0.  0.
        2    1    3    3  502    0 -0.16320324443E+03  0.13141767752E+03 -0.78561426396E+02  0.22378070221E+03  0.25500000920E-02 0.  1.
       -2    1    3    3    0  502  0.16320324443E+03 -0.13141767752E+03 -0.30402064228E+03  0.36923496029E+03  0.25500000920E-02 0. -1.
</event>
<event>
 5   0  0.3717372E-02  0.6772356E+03  0.7818609E-02  0.9756974E-01
        1   -1    0    0  501    0  0.00000000000E+00  0.00000000000E+00  0.11557241703E+04  0.11557241703E+04  0.50400001928E-02 0. -1.
       -1   -1    0    0    0  501  0.00000000000E+00  0.00000000000E+00 -0.99212252192E+02  0.99212252320E+02  0.50400001928E-02 0.  1.
    10030    2    1    2    0    0  0.00000000000E+00  0.00000000000E+00  0.10565119181E+04  0.12549364226E+04  0.67723555115E+03 0.  0.
        3    1    3    3  502    0  0.15803464220E+03  0.16649866565E+03  0.98952682252E+03  0.10158051469E+04  0.10100000352E+00 0. -1.
       -3    1    3    3    0  502 -0.15803464220E+03 -0.16649866565E+03  0.66985095586E+02  0.23913127572E+03  0.10100000352E+00 0.  1.
</event>
<event>
 5   0  0.6248886E-02  0.6016131E+03  0.7818609E-02  0.9902065E-01
        2   -1    0    0  501    0  0.00000000000E+00  0.00000000000E+00  0.66879245817E+03  0.66879245817E+03  0.25500000920E-02 0. -1.
       -2   -1    0    0    0  501  0.00000000000E+00  0.00000000000E+00 -0.13529547604E+03  0.13529547606E+03  0.25500000920E-02 0.  1.
    10030    2    1    2    0    0  0.00000000000E+00  0.00000000000E+00  0.53349698213E+03  0.80408793423E+03  0.60161314484E+03 0.  0.
        3    1    3    3  502    0 -0.21740731739E+03 -0.64320640406E+02  0.25247568169E+01  0.22673656748E+03  0.10100000352E+00 0.  1.
       -3    1    3    3    0  502  0.21740731739E+03  0.64320640406E+02  0.53097222531E+03  0.57735136675E+03  0.10100000352E+00 0. -1.
</event>
<event>
 5   0  0.3755872E-02  0.6798779E+03  0.7818609E-02  0.9752276E-01
        1   -1    0    0  501    0  0.00000000000E+00  0.00000000000E+00  0.50970285824E+03  0.50970285827E+03  0.50400001928E-02 0. -1.
       -1   -1    0    0    0  501  0.00000000000E+00  0.00000000000E+00 -0.22671734784E+03  0.22671734789E+03  0.50400001928E-02 0.  1.
    10030    2    1    2    0    0  0.00000000000E+00  0.00000000000E+00  0.28298551040E+03  0.73642020616E+03  0.67987787208E+03 0.  0.
        2    1    3    3  502    0  0.90816502881E+02  0.30330227424E+03  0.74312930185E+01  0.31669406511E+03  0.25500000920E-02 0.  1.
       -2    1    3    3    0  502 -0.90816502881E+02 -0.30330227424E+03  0.27555421739E+03  0.41972614105E+03  0.25500000920E-02 0. -1.
</event>
<event>
 5   0  0.5899787E-02  0.7138488E+03  0.7818609E-02  0.9693838E-01
        2   -1    0    0  501    0  0.00000000000E+00  0.00000000000E+00  0.28465984506E+03  0.28465984507E+03  0.25500000920E-02 0. -1.
       -2   -1    0    0    0  501  0.00000000000E+00  0.00000000000E+00 -0.44753421602E+03  0.44753421603E+03  0.25500000920E-02 0.  1.
    10030    2    1    2    0    0  0.00000000000E+00  0.00000000000E+00 -0.16287437096E+03  0.73219406109E+03  0.71384878117E+03 0.  0.
        2    1    3    3  502    0  0.19165663812E+03  0.18472314709E+03  0.16245524076E+03  0.31184389245E+03  0.25500000920E-02 0.  1.
       -2    1    3    3    0  502 -0.19165663812E+03 -0.18472314709E+03 -0.32532961172E+03  0.42035016864E+03  0.25500000920E-02 0. -1.
</event>
<event>
 5   0  0.6131198E-02  0.6948262E+03  0.7818609E-02  0.9726121E-01
       -2   -1    0    0    0  501  0.00000000000E+00  0.00000000000E+00  0.30396111905E+03  0.30396111906E+03  0.25500000920E-02 0.  1.
        2   -1    0    0  501    0  0.00000000000E+00  0.00000000000E+00 -0.39707665928E+03  0.39707665929E+03  0.25500000920E-02 0. -1.
    10030    2    1    2    0    0  0.00000000000E+00  0.00000000000E+00 -0.93115540238E+02  0.70103777835E+03  0.69482621053E+03 0.  0.
        1    1    3    3  502    0 -0.17587896075E+03 -0.19765069712E+03  0.18061428057E+03  0.32034469760E+03  0.50400001928E-02 0.  1.
       -1    1    3    3    0  502  0.17587896075E+03  0.19765069712E+03 -0.27372982081E+03  0.38069308075E+03  0.50400001928E-02 0. -1.
</event>
<event>
 5   0  0.3439015E-02  0.7026238E+03  0.7818609E-02  0.9712756E-01
       -1   -1    0    0    0  501  0.00000000000E+00  0.00000000000E+00  0.37355402164E+03  0.37355402167E+03  0.50400001928E-02 0. -1.
        1   -1    0    0  501    0  0.00000000000E+00  0.00000000000E+00 -0.33039412986E+03  0.33039412990E+03  0.50400001928E-02 0.  1.
    10030    2    1    2    0    0  0.00000000000E+00  0.00000000000E+00  0.43159891773E+02  0.70394815157E+03  0.70262381389E+03 0.  0.
        1    1    3    3  502    0 -0.21305838651E+03 -0.18563654629E+03  0.23069626498E+03  0.36479524405E+03  0.50400001928E-02 0. -1.
       -1    1    3    3    0  502  0.21305838651E+03  0.18563654629E+03 -0.18753637320E+03  0.33915290752E+03  0.50400001928E-02 0.  1.
</event>
<event>
 5   0  0.3755872E-02  0.6919162E+03  0.7818609E-02  0.9731157E-01
        1   -1    0    0  501    0  0.00000000000E+00  0.00000000000E+00  0.83756044303E+03  0.83756044305E+03  0.50400001928E-02 0.  1.
       -1   -1    0    0    0  501  0.00000000000E+00  0.00000000000E+00 -0.14289953727E+03  0.14289953736E+03  0.50400001928E-02 0. -1.
    10030    2    1    2    0    0  0.00000000000E+00  0.00000000000E+00  0.69466090576E+03  0.98045998041E+03  0.69191617931E+03 0.  0.
        2    1    3    3  502    0 -0.27556924430E+03  0.48289816322E+02  0.63570973297E+03  0.69454818361E+03  0.25500000920E-02 0.  1.
       -2    1    3    3    0  502  0.27556924430E+03 -0.48289816322E+02  0.58951172796E+02  0.28591179679E+03  0.25500000920E-02 0. -1.
</event>
<event>
 5   0  0.5899787E-02  0.7035482E+03  0.7818609E-02  0.9711183E-01
       -2   -1    0    0    0  501  0.00000000000E+00  0.00000000000E+00  0.95059723485E+02  0.95059723519E+02  0.25500000920E-02 0. -1.
        2   -1    0    0  501    0  0.00000000000E+00  0.00000000000E+00 -0.13017607576E+04  0.13017607576E+04  0.25500000920E-02 0.  1.
    10030    2    1    2    0    0  0.00000000000E+00  0.00000000000E+00 -0.12067010341E+04  0.13968204811E+04  0.70354820072E+03 0.  0.
        2    1    3    3  502    0 -0.30230697253E+03  0.36819372050E+02 -0.25378667424E+03  0.39642508476E+03  0.25500000920E-02 0. -1.
       -2    1    3    3    0  502  0.30230697253E+03 -0.36819372050E+02 -0.95291435984E+03  0.10003953963E+04  0.25500000920E-02 0.  1.
</event>
<event>
 5   0  0.6167756E-02  0.6864262E+03  0.7818609E-02  0.9740731E-01
       -2   -1    0    0    0  501  0.00000000000E+00  0.00000000000E+00  0.38090512696E+03  0.38090512697E+03  0.25500000920E-02 0. -1.
        2   -1    0    0  501    0  0.00000000000E+00  0.00000000000E+00 -0.30925079973E+03  0.30925079974E+03  0.25500000920E-02 0.  1.
    10030    2    1    2    0    0  0.00000000000E+00  0.00000000000E+00  0.71654327229E+02  0.69015592671E+03  0.68642615084E+03 0.  0.
        4    1    3    3  502    0 -0.30972371506E+03  0.10630133755E+03  0.13917110768E+03  0.35580748186E+03  0.12699999809E+01 0.  1.
       -4    1    3    3    0  502  0.30972371506E+03 -0.10630133755E+03 -0.67516780451E+02  0.33434844485E+03  0.12699999809E+01 0. -1.
</event>
<event>
 5   0  0.6248886E-02  0.7637631E+03  0.7818609E-02  0.9614002E-01
       -2   -1    0    0    0  501  0.00000000000E+00  0.00000000000E+00  0.11674175719E+03  0.11674175722E+03  0.25500000920E-02 0. -1.
        2   -1    0    0  501    0  0.00000000000E+00  0.00000000000E+00 -0.12491976401E+04  0.12491976401E+04  0.25500000920E-02 0.  1.
    10030    2    1    2    0    0  0.00000000000E+00  0.00000000000E+00 -0.11324558829E+04  0.13659393973E+04  0.76376312454E+03 0.  0.
        3    1    3    3  502    0  0.19870951369E+03 -0.71182055659E+02  0.29356115881E+01  0.21109472730E+03  0.10100000352E+00 0. -1.
       -3    1    3    3    0  502 -0.19870951369E+03  0.71182055659E+02 -0.11353914945E+04  0.11548446700E+04  0.10100000352E+00 0.  1.
</event>
<event>
 5   0  0.5987810E-02  0.6951684E+03  0.7818609E-02  0.9725531E-01
        2   -1    0    0  501    0  0.00000000000E+00  0.00000000000E+00  0.12674405696E+04  0.12674405696E+04  0.25500000920E-02 0. -1.
       -2   -1    0    0    0  501  0.00000000000E+00  0.00000000000E+00 -0.95321839528E+02  0.95321839562E+02  0.25500000920E-02 0.  1.
    10030    2    1    2    0    0  0.00000000000E+00  0.00000000000E+00  0.11721187300E+04  0.13627624091E+04  0.69516837273E+03 0.  0.
        5    1    3    3  502    0  0.49292864084E+02 -0.22159168207E+03  0.70152347052E+02  0.23764701094E+03  0.46999998093E+01 0.  1.
       -5    1    3    3    0  502 -0.49292864084E+02  0.22159168207E+03  0.11019663830E+04  0.11251153982E+04  0.46999998093E+01 0. -1.
</event>
<event>
 5   0  0.3749730E-02  0.7036541E+03  0.7818609E-02  0.9711004E-01
       -1   -1    0    0    0  501  0.00000000000E+00  0.00000000000E+00  0.63453919946E+03  0.63453919948E+03  0.50400001928E-02 0.  1.
        1   -1    0    0  501    0  0.00000000000E+00  0.00000000000E+00 -0.19507427763E+03  0.19507427769E+03  0.50400001928E-02 0. -1.
    10030    2    1    2    0    0  0.00000000000E+00  0.00000000000E+00  0.43946492183E+03  0.82961347717E+03  0.70365410820E+03 0.  0.
        4    1    3    3  502    0 -0.54287664027E+02 -0.34618860548E+03  0.18269281708E+03  0.39518600600E+03  0.12699999809E+01 0. -1.
       -4    1    3    3    0  502  0.54287664027E+02  0.34618860548E+03  0.25677210475E+03  0.43442747117E+03  0.12699999809E+01 0.  1.
</event>
<event>
 5   0  0.3717372E-02  0.6905355E+03  0.7818609E-02  0.9733556E-01
       -1   -1    0    0    0  501  0.00000000000E+00  0.00000000000E+00  0.11139127270E+03  0.11139127281E+03  0.50400001928E-02 0. -1.
        1   -1    0    0  501    0  0.00000000000E+00  0.00000000000E+00 -0.10701900551E+04  0.10701900551E+04  0.50400001928E-02 0.  1.
    10030    2    1    2    0    0  0.00000000000E+00  0.00000000000E+00 -0.95879878242E+03  0.11815813279E+04  0.69053553810E+03 0.  0.
        3    1    3    3  502    0 -0.24716709947E+03  0.79033352331E+02 -0.89687208417E+02  0.27455719149E+03  0.10100000352E+00 0. -1.
       -3    1    3    3    0  502  0.24716709947E+03 -0.79033352331E+02 -0.86911157400E+03  0.90702413646E+03  0.10100000352E+00 0.  1.
</event>
<event>
 5   0  0.3749730E-02  0.6956793E+03  0.7818609E-02  0.9724650E-01
       -1   -1    0    0    0  501  0.00000000000E+00  0.00000000000E+00  0.20155130145E+03  0.20155130151E+03  0.50400001928E-02 0.  1.
        1   -1    0    0  501    0  0.00000000000E+00  0.00000000000E+00 -0.60030590695E+03  0.60030590697E+03  0.50400001928E-02 0. -1.
    10030    2    1    2    0    0  0.00000000000E+00  0.00000000000E+00 -0.39875460549E+03  0.80185720848E+03  0.69567934236E+03 0.  0.
        4    1    3    3  502    0  0.33839998962E+03 -0.23242932791E+01 -0.10665819965E+03  0.35482043313E+03  0.12699999809E+01 0.  1.
       -4    1    3    3    0  502 -0.33839998962E+03  0.23242932791E+01 -0.29209640585E+03  0.44703677535E+03  0.12699999809E+01 0. -1.
</event>
<event>
 5   0  0.6167756E-02  0.6247853E+03  0.7818609E-02  0.9855278E-01
        2   -1    0    0  501    0  0.00000000000E+00  0.00000000000E+00  0.15176284391E+04  0.15176284391E+04  0.25500000920E-02 0. -1.
       -2   -1    0    0    0  501  0.00000000000E+00  0.00000000000E+00 -0.64303738249E+02  0.64303738299E+02  0.25500000920E-02 0.  1.
    10030    2    1    2    0    0  0.00000000000E+00  0.00000000000E+00  0.14533247009E+04  0.15819321774E+04  0.62478534538E+03 0.  0.
        4    1    3    3  502    0 -0.16499001594E+02  0.25380561547E+03  0.11859049641E+04  0.12128733257E+04  0.12699999809E+01 0. -1.
       -4    1    3    3    0  502  0.16499001594E+02 -0.25380561547E+03  0.26741973679E+03  0.36905885171E+03  0.12699999809E+01 0.  1.
</event>
<event>
 5   0  0.6167756E-02  0.7065250E+03  0.7818609E-02  0.9706138E-01
       -2   -1    0    0    0  501  0.00000000000E+00  0.00000000000E+00  0.11216866003E+03  0.11216866006E+03  0.25500000920E-02 0. -1.
        2   -1    0    0  501    0  0.00000000000E+00  0.00000000000E+00 -0.11125602067E+04  0.11125602067E+04  0.25500000920E-02 0.  1.
    10030    2    1    2    0    0  0.00000000000E+00  0.00000000000E+00 -0.10003915466E+04  0.12247288667E+04  0.70652498217E+03 0.  0.
        4    1    3    3  502    0  0.82977257899E+02  0.31739041523E+03 -0.27304792445E+03  0.42682394844E+03  0.12699999809E+01 0. -1.
       -4    1    3    3    0  502 -0.82977257899E+02 -0.31739041523E+03 -0.72734362219E+03  0.79790491830E+03  0.12699999809E+01 0.  1.
</event>
<event>
 5   0  0.3601475E-02  0.6906975E+03  0.7818609E-02  0.9733274E-01
        1   -1    0    0  501    0  0.00000000000E+00  0.00000000000E+00  0.11463972792E+04  0.11463972792E+04  0.50400001928E-02 0.  1.
       -1   -1    0    0    0  501  0.00000000000E+00  0.00000000000E+00 -0.10403528263E+03  0.10403528275E+03  0.50400001928E-02 0. -1.
    10030    2    1    2    0    0  0.00000000000E+00  0.00000000000E+00  0.10423619966E+04  0.12504325620E+04  0.69069751709E+03 0.  0.
        5    1    3    3  502    0  0.24587570674E+03 -0.24144655964E+03  0.56135253849E+03  0.65870332229E+03  0.46999998093E+01 0. -1.
       -5    1    3    3    0  502 -0.24587570674E+03  0.24144655964E+03  0.48100945807E+03  0.59172923966E+03  0.46999998093E+01 0.  1.
</event>
<event>
 5   0  0.5899787E-02  0.7224361E+03  0.7818609E-02  0.9679615E-01
       -2   -1    0    0    0  501  0.00000000000E+00  0.00000000000E+00  0.10944896974E+03  0.10944896977E+03  0.25500000920E-02 0. -1.
        2   -1    0    0  501    0  0.00000000000E+00  0.00000000000E+00 -0.11921398429E+04  0.11921398429E+04  0.25500000920E-02 0.  1.
    10030    2    1    2    0    0  0.00000000000E+00  0.00000000000E+00 -0.10826908731E+04  0.13015888127E+04  0.72243609438E+03 0.  0.
        2    1    3    3  502    0 -0.15825913081E+03  0.32362304908E+03 -0.58903507992E+03  0.69046372516E+03  0.25500000920E-02 0.  1.
       -2    1    3    3    0  502  0.15825913081E+03 -0.32362304908E+03 -0.49365579321E+03  0.61112508749E+03  0.25500000920E-02 0. -1.
</event>
<event>
 5   0  0.3755872E-02  0.7001324E+03  0.7818609E-02  0.9717006E-01
        1   -1    0    0  501    0  0.00000000000E+00  0.00000000000E+00  0.19115439109E+04  0.19115439109E+04  0.50400001928E-02 0. -1.
       -1   -1    0    0    0  501  0.00000000000E+00  0.00000000000E+00 -0.64108564846E+02  0.64108565044E+02  0.50400001928E-02 0.  1.
    10030    2    1    2    0    0  0.00000000000E+00  0.00000000000E+00  0.18474353460E+04  0.19756524759E+04  0.70013237883E+03 0.  0.
        2    1    3    3  502    0 -0.16255927645E+03  0.25153182020E+03  0.14351816041E+04  0.14660968630E+04  0.25500000920E-02 0. -1.
       -2    1    3    3    0  502  0.16255927645E+03 -0.25153182020E+03  0.41225374195E+03  0.50955561295E+03  0.25500000920E-02 0.  1.
</event>
<event>
 5   0  0.3717372E-02  0.6914299E+03  0.7818609E-02  0.9732001E-01
        1   -1    0    0  501    0  0.00000000000E+00  0.00000000000E+00  0.17273304468E+03  0.17273304476E+03  0.50400001928E-02 0.  1.
       -1   -1    0    0    0  501  0.00000000000E+00  0.00000000000E+00 -0.69192799285E+03  0.69192799287E+03  0.50400001928E-02 0. -1.
    10030    2    1    2    0    0  0.00000000000E+00  0.00000000000E+00 -0.51919494817E+03  0.86466103763E+03  0.69142990663E+03 0.  0.
        3    1    3    3  502    0  0.95354797845E+02 -0.50062109157E+02  0.15121992772E+03  0.18565082544E+03  0.10100000352E+00 0.  1.
       -3    1    3    3    0  502 -0.95354797845E+02  0.50062109157E+02 -0.67041487589E+03  0.67901021219E+03  0.10100000352E+00 0. -1.
</event>
<event>
 5   0  0.5987810E-02  0.7019798E+03  0.7818609E-02  0.9713852E-01
       -2   -1    0    0    0  501  0.00000000000E+00  0.00000000000E+00  0.24864623005E+03  0.24864623007E+03  0.25500000920E-02 0. -1.
        2   -1    0    0  501    0  0.00000000000E+00  0.00000000000E+00 -0.49545861080E+03  0.49545861081E+03  0.25500000920E-02 0.  1.
    10030    2    1    2    0    0  0.00000000000E+00  0.00000000000E+00 -0.24681238074E+03  0.74410484087E+03  0.70197981661E+03 0.  0.
        5    1    3    3  502    0  0.29726052638E+03 -0.51590612429E+02  0.66647265258E+02  0.30901352689E+03  0.46999998093E+01 0. -1.
       -5    1    3    3    0  502 -0.29726052638E+03  0.51590612429E+02 -0.31345964600E+03  0.43509131399E+03  0.46999998093E+01 0.  1.
</event>
<event>
 5   0  0.6131198E-02  0.7021955E+03  0.7818609E-02  0.9713485E-01
       -2   -1    0    0    0  501  0.00000000000E+00  0.00000000000E+00  0.98653080379E+02  0.98653080412E+02  0.25500000920E-02 0.  1.
        2   -1    0    0  501    0  0.00000000000E+00  0.00000000000E+00 -0.12495263679E+04  0.12495263679E+04  0.25500000920E-02 0. -1.
    10030    2    1    2    0    0  0.00000000000E+00  0.00000000000E+00 -0.11508732875E+04  0.13481794483E+04  0.70219548626E+03 0.  0.
        1    1    3    3  502    0 -0.11686340337E+03 -0.27395756318E+03 -0.21851290925E+03  0.36940180428E+03  0.50400001928E-02 0.  1.
       -1    1    3    3    0  502  0.11686340337E+03  0.27395756318E+03 -0.93236037825E+03  0.97877764402E+03  0.50400001928E-02 0. -1.
</event>
<event>
 5   0  0.3749730E-02  0.6988120E+03  0.7818609E-02  0.9719266E-01
       -1   -1    0    0    0  501  0.00000000000E+00  0.00000000000E+00  0.10033194323E+03  0.10033194336E+03  0.50400001928E-02 0. -1.
        1   -1    0    0  501    0  0.00000000000E+00  0.00000000000E+00 -0.12168063169E+04  0.12168063169E+04  0.50400001928E-02 0.  1.
    10030    2    1    2    0    0  0.00000000000E+00  0.00000000000E+00 -0.11164743736E+04  0.13171382602E+04  0.69881197013E+03 0.  0.
        4    1    3    3  502    0 -0.26681054176E+02  0.34598948843E+03 -0.63508454889E+03  0.72370892070E+03  0.12699999809E+01 0.  1.
       -4    1    3    3    0  502  0.26681054176E+02 -0.34598948843E+03 -0.48138982473E+03  0.59342933953E+03  0.12699999809E+01 0. -1.
</event>
<event>
 5   0  0.3749730E-02  0.7016943E+03  0.7818609E-02  0.9714339E-01
        1   -1    0    0  501    0  0.00000000000E+00  0.00000000000E+00  0.90613209954E+03  0.90613209956E+03  0.50400001928E-02 0.  1.
       -1   -1    0    0    0  501  0.00000000000E+00  0.00000000000E+00 -0.13584522430E+03  0.13584522439E+03  0.50400001928E-02 0. -1.
    10030    2    1    2    0    0  0.00000000000E+00  0.00000000000E+00  0.77028687524E+03  0.10419773239E+04  0.70169428774E+03 0.  0.
        4    1    3    3  502    0  0.29572852400E+03 -0.17343283646E+03  0.49584701581E+03  0.60282682808E+03  0.12699999809E+01 0.  1.
       -4    1    3    3    0  502 -0.29572852400E+03  0.17343283646E+03  0.27443985943E+03  0.43915049586E+03  0.12699999809E+01 0. -1.
</event>
<event>
 5   0  0.3717372E-02  0.7172619E+03  0.7818609E-02  0.9688159E-01
       -1   -1    0    0    0  501  0.00000000000E+00  0.00000000000E+00  0.29177034235E+03  0.29177034240E+03  0.50400001928E-02 0. -1.
        1   -1    0    0  501    0  0.00000000000E+00  0.00000000000E+00 -0.44081302041E+03  0.44081302044E+03  0.50400001928E-02 0.  1.
    10030    2    1    2    0    0  0.00000000000E+00  0.00000000000E+00 -0.14904267806E+03  0.73258336284E+03  0.71726192121E+03 0.  0.
        3    1    3    3  502    0  0.64793005475E+02 -0.24019511556E+03 -0.33834964119E+03  0.41996704274E+03  0.10100000352E+00 0.  1.
       -3    1    3    3    0  502 -0.64793005475E+02  0.24019511556E+03  0.18930696313E+03  0.31261632009E+03  0.10100000352E+00 0. -1.
</event>
<event>
 5   0  0.6167756E-02  0.6968245E+03  0.7818609E-02  0.9722678E-01
       -2   -1    0    0    0  501  0.00000000000E+00  0.00000000000E+00  0.15731047634E+03  0.15731047636E+03  0.25500000920E-02 0. -1.
        2   -1    0    0  501    0  0.00000000000E+00  0.00000000000E+00 -0.77166568702E+03  0.77166568703E+03  0.25500000920E-02 0.  1.
    10030    2    1    2    0    0  0.00000000000E+00  0.00000000000E+00 -0.61435521068E+03  0.92897616339E+03  0.69682450247E+03 0.  0.
        4    1    3    3  502    0  0.11321723638E+03 -0.48426074230E+02  0.12732971328E+03  0.17713750609E+03  0.12699999809E+01 0. -1.
       -4    1    3    3    0  502 -0.11321723638E+03  0.48426074230E+02 -0.74168492396E+03  0.75183865730E+03  0.12699999809E+01 0.  1.
</event>
<event>
 5   0  0.3601475E-02  0.7031449E+03  0.7818609E-02  0.9711869E-01
        1   -1    0    0  501    0  0.00000000000E+00  0.00000000000E+00  0.13852064407E+04  0.13852064407E+04  0.50400001928E-02 0.  1.
       -1   -1    0    0    0  501  0.00000000000E+00  0.00000000000E+00 -0.89230867087E+02  0.89230867229E+02  0.50400001928E-02 0. -1.
    10030    2    1    2    0    0  0.00000000000E+00  0.00000000000E+00  0.12959755736E+04  0.14744373079E+04  0.70314485537E+03 0.  0.
        5    1    3    3  502    0 -0.24970834865E+03  0.21160167835E+03  0.91694608506E+03  0.97362299818E+03  0.46999998093E+01 0.  1.
       -5    1    3    3    0  502  0.24970834865E+03 -0.21160167835E+03  0.37902948853E+03  0.50081430974E+03  0.46999998093E+01 0. -1.
</event>
<event>
 5   0  0.6248886E-02  0.7010274E+03  0.7818609E-02  0.9715477E-01
        2   -1    0    0  501    0  0.00000000000E+00  0.00000000000E+00  0.27850613031E+03  0.27850613032E+03  0.25500000920E-02 0.  1.
       -2   -1    0    0    0  501  0.00000000000E+00  0.00000000000E+00 -0.44113883291E+03  0.44113883292E+03  0.25500000920E-02 0. -1.
    10030    2    1    2    0    0  0.00000000000E+00  0.00000000000E+00 -0.16263270261E+03  0.71964496324E+03  0.70102744394E+03 0.  0.
        3    1    3    3  502    0 -0.21022070706E+03  0.16854292729E+02  0.20608866160E+03  0.29487176790E+03  0.10100000352E+00 0.  1.
       -3    1    3    3    0  502  0.21022070706E+03 -0.16854292729E+02 -0.36872136421E+03  0.42477319534E+03  0.10100000352E+00 0. -1.
</event>
<event>
 5   0  0.6248886E-02  0.6762579E+03  0.7818609E-02  0.9758719E-01
       -2   -1    0    0    0  501  0.00000000000E+00  0.00000000000E+00  0.44965638813E+02  0.44965638886E+02  0.25500000920E-02 0. -1.
        2   -1    0    0  501    0  0.00000000000E+00  0.00000000000E+00 -0.25426344381E+04  0.25426344381E+04  0.25500000920E-02 0.  1.
    10030    2    1    2    0    0  0.00000000000E+00  0.00000000000E+00 -0.24976687993E+04  0.25876000770E+04  0.67625788534E+03 0.  0.
        3    1    3    3  502    0  0.30232915841E+03  0.55166503388E+02 -0.17884029303E+04  0.18146160239E+04  0.10100000352E+00 0.  1.
       -3    1    3    3    0  502 -0.30232915841E+03 -0.55166503388E+02 -0.70926586900E+03  0.77298405304E+03  0.10100000352E+00 0. -1.
</event>
<event>
 5   0  0.3601475E-02  0.7016481E+03  0.7818609E-02  0.9714418E-01
        1   -1    0    0  501    0  0.00000000000E+00  0.00000000000E+00  0.18883315526E+03  0.18883315532E+03  0.50400001928E-02 0.  1.
       -1   -1    0    0    0  501  0.00000000000E+00  0.00000000000E+00 -0.65177911166E+03  0.65177911168E+03  0.50400001928E-02 0. -1.
    10030    2    1    2    0    0  0.00000000000E+00  0.00000000000E+00 -0.46294595640E+03  0.84061226700E+03  0.70164807766E+03 0.  0.
        5    1    3    3  502    0  0.72536981254E+02  0.27338037670E+03  0.17125306095E+02  0.28339691268E+03  0.46999998093E+01 0.  1.
       -5    1    3    3    0  502 -0.72536981254E+02 -0.27338037670E+03 -0.48007126250E+03  0.55721535431E+03  0.46999998093E+01 0. -1.
</event>
<event>
 5   0  0.2439375E-02  0.7117865E+03  0.7818609E-02  0.9697285E-01
        3   -1    0    0  501    0  0.00000000000E+00  0.00000000000E+00  0.26654928039E+03  0.26654929952E+03  0.10100000352E+00 0. -1.
       -3   -1    0    0    0  501  0.00000000000E+00  0.00000000000E+00 -0.47518416447E+03  0.47518417520E+03  0.10100000352E+00 0.  1.
    10030    2    1    2    0    0  0.00000000000E+00  0.00000000000E+00 -0.20863488408E+03  0.74173347473E+03  0.71178650779E+03 0.  0.
        3    1    3    3  502    0  0.14492827748E+01  0.12107503821E+03 -0.45305978586E+03  0.46896102724E+03  0.10100000352E+00 0.  1.
       -3    1    3    3    0  502 -0.14492827748E+01 -0.12107503821E+03  0.24442490178E+03  0.27277244749E+03  0.10100000352E+00 0. -1.
</event>
<event>
 5   0  0.2439375E-02  0.7034350E+03  0.7818609E-02  0.9711376E-01
        3   -1    0    0  501    0  0.00000000000E+00  0.00000000000E+00  0.16014661964E+04  0.16014661996E+04  0.10100000352E+00 0. -1.
       -3   -1    0    0    0  501  0.00000000000E+00  0.00000000000E+00 -0.77244928041E+02  0.77244994071E+02  0.10100000352E+00 0.  1.
    10030    2    1    2    0    0  0.00000000000E+00  0.00000000000E+00  0.15242212683E+04  0.16787111936E+04  0.70343499827E+03 0.  0.
        4    1    3    3  502    0  0.24173280460E+03 -0.17491794118E+03  0.31774044733E+03  0.43588030437E+03  0.12699999809E+01 0.  1.
       -4    1    3    3    0  502 -0.24173280460E+03  0.17491794118E+03  0.12064808210E+04  0.12428308893E+04  0.12699999809E+01 0. -1.
</event>
<event>
 5   0  0.3601475E-02  0.6921883E+03  0.7818609E-02  0.9730685E-01
       -1   -1    0    0    0  501  0.00000000000E+00  0.00000000000E+00  0.28014923772E+03  0.28014923777E+03  0.50400001928E-02 0.  1.
        1   -1    0    0  501    0  0.00000000000E+00  0.00000000000E+00 -0.42756196608E+03  0.42756196611E+03  0.50400001928E-02 0. -1.
    10030    2    1    2    0    0  0.00000000000E+00  0.00000000000E+00 -0.14741272835E+03  0.70771120387E+03  0.69218829491E+03 0.  0.
        5    1    3    3  502    0  0.32910834555E+03 -0.43258819653E+02 -0.17375500587E+03  0.37469523703E+03  0.46999998093E+01 0.  1.
       -5    1    3    3    0  502 -0.32910834555E+03  0.43258819653E+02  0.26342277519E+02  0.33301596684E+03  0.46999998093E+01 0. -1.
</event>
<event>
 5   0  0.6248886E-02  0.7033026E+03  0.7818609E-02  0.9711601E-01
       -2   -1    0    0    0  501  0.00000000000E+00  0.00000000000E+00  0.12460223763E+03  0.12460223766E+03  0.25500000920E-02 0.  1.
        2   -1    0    0  501    0  0.00000000000E+00  0.00000000000E+00 -0.99242700437E+03  0.99242700437E+03  0.25500000920E-02 0. -1.
    10030    2    1    2    0    0  0.00000000000E+00  0.00000000000E+00 -0.86782476673E+03  0.11170292420E+04  0.70330256774E+03 0.  0.
        3    1    3    3  502    0  0.12062772584E+03  0.29216889990E+03 -0.18917093804E+03  0.36837395172E+03  0.10100000352E+00 0.  1.
       -3    1    3    3    0  502 -0.12062772584E+03 -0.29216889990E+03 -0.67865382870E+03  0.74865529031E+03  0.10100000352E+00 0. -1.
</event>
<event>
 5   0  0.3601475E-02  0.6961560E+03  0.7818609E-02  0.9723829E-01
       -1   -1    0    0    0  501  0.00000000000E+00  0.00000000000E+00  0.58517878754E+03  0.58517878756E+03  0.50400001928E-02 0.  1.
        1   -1    0    0  501    0  0.00000000000E+00  0.00000000000E+00 -0.20704491075E+03  0.20704491081E+03  0.50400001928E-02 0. -1.
    10030    2    1    2    0    0  0.00000000000E+00  0.00000000000E+00  0.37813387679E+03  0.79222369837E+03  0.69615598790E+03 0.  0.
        5    1    3    3  502    0 -0.98251361718E+02 -0.24192575150E+03  0.45094187486E+03  0.52110657626E+03  0.46999998093E+01 0. -1.
       -5    1    3    3    0  502  0.98251361718E+02  0.24192575150E+03 -0.72807998072E+02  0.27111712211E+03  0.46999998093E+01 0.  1.
</event>
<event>
 5   0  0.5899787E-02  0.7201760E+03  0.7818609E-02  0.9683337E-01
        2   -1    0    0  501    0  0.00000000000E+00  0.00000000000E+00  0.42323669216E+03  0.42323669217E+03  0.25500000920E-02 0. -1.
       -2   -1    0    0    0  501  0.00000000000E+00  0.00000000000E+00 -0.30636137838E+03  0.30636137839E+03  0.25500000920E-02 0.  1.
    10030    2    1    2    0    0  0.00000000000E+00  0.00000000000E+00  0.11687531378E+03  0.72959807057E+03  0.72017602404E+03 0.  0.
        2    1    3    3  502    0 -0.65383509542E+02  0.27951356259E+02  0.41605321389E+03  0.42208596095E+03  0.25500000920E-02 0. -1.
       -2    1    3    3    0  502  0.65383509542E+02 -0.27951356259E+02 -0.29917790011E+03  0.30751210961E+03  0.25500000920E-02 0.  1.
</event>
<event>
 5   0  0.6131198E-02  0.7023515E+03  0.7818609E-02  0.9713219E-01
       -2   -1    0    0    0  501  0.00000000000E+00  0.00000000000E+00  0.12886531049E+03  0.12886531052E+03  0.25500000920E-02 0.  1.
        2   -1    0    0  501    0  0.00000000000E+00  0.00000000000E+00 -0.95700249134E+03  0.95700249135E+03  0.25500000920E-02 0. -1.
    10030    2    1    2    0    0  0.00000000000E+00  0.00000000000E+00 -0.82813718085E+03  0.10858678019E+04  0.70235154504E+03 0.  0.
        1    1    3    3  502    0 -0.21485690884E+02  0.83480232467E+01 -0.95583165504E+03  0.95610955293E+03  0.50400001928E-02 0. -1.
       -1    1    3    3    0  502  0.21485690884E+02 -0.83480232467E+01  0.12769447419E+03  0.12975824894E+03  0.50400001928E-02 0.  1.
</event>
<event>
 5   0  0.3439015E-02  0.6843380E+03  0.7818609E-02  0.9744398E-01
        1   -1    0    0  501    0  0.00000000000E+00  0.00000000000E+00  0.49799376558E+03  0.49799376560E+03  0.50400001928E-02 0.  1.
       -1   -1    0    0    0  501  0.00000000000E+00  0.00000000000E+00 -0.23510259786E+03  0.23510259791E+03  0.50400001928E-02 0. -1.
    10030    2    1    2    0    0  0.00000000000E+00  0.00000000000E+00  0.26289116772E+03  0.73309636351E+03  0.68433801015E+03 0.  0.
        1    1    3    3  502    0  0.16074104871E+03  0.21748737209E+03 -0.93111257638E+02  0.28602123712E+03  0.50400001928E-02 0. -1.
       -1    1    3    3    0  502 -0.16074104871E+03 -0.21748737209E+03  0.35600242536E+03  0.44707512640E+03  0.50400001928E-02 0.  1.
</event>
<event>
 5   0  0.6167756E-02  0.6855548E+03  0.7818609E-02  0.9742259E-01
       -2   -1    0    0    0  501  0.00000000000E+00  0.00000000000E+00  0.12380933505E+03  0.12380933508E+03  0.25500000920E-02 0.  1.
        2   -1    0    0  501    0  0.00000000000E+00  0.00000000000E+00 -0.94901048686E+03  0.94901048686E+03  0.25500000920E-02 0. -1.
    10030    2    1    2    0    0  0.00000000000E+00  0.00000000000E+00 -0.82520115181E+03  0.10728198219E+04  0.68555483326E+03 0.  0.
        4    1    3    3  502    0 -0.12004053906E+03  0.84926603795E+02 -0.89714275179E+03  0.90911439821E+03  0.12699999809E+01 0. -1.
       -4    1    3    3    0  502  0.12004053906E+03 -0.84926603795E+02  0.71941599981E+02  0.16370542373E+03  0.12699999809E+01 0.  1.
</event>
<event>
 5   0  0.6167756E-02  0.7048335E+03  0.7818609E-02  0.9709002E-01
        2   -1    0    0  501    0  0.00000000000E+00  0.00000000000E+00  0.80725758749E+03  0.80725758749E+03  0.25500000920E-02 0.  1.
       -2   -1    0    0    0  501  0.00000000000E+00  0.00000000000E+00 -0.15385121495E+03  0.15385121497E+03  0.25500000920E-02 0. -1.
    10030    2    1    2    0    0  0.00000000000E+00  0.00000000000E+00  0.65340637254E+03  0.96110880246E+03  0.70483348564E+03 0.  0.
        4    1    3    3  502    0 -0.17925663627E+03  0.39613862342E+02  0.73690286331E+03  0.75942718057E+03  0.12699999809E+01 0.  1.
       -4    1    3    3    0  502  0.17925663627E+03 -0.39613862342E+02 -0.83496490769E+02  0.20168162189E+03  0.12699999809E+01 0. -1.
</event>
<event>
 5   0  0.5987810E-02  0.6970570E+03  0.7818609E-02  0.9722278E-01
       -2   -1    0    0    0  501  0.00000000000E+00  0.00000000000E+00  0.32094287068E+03  0.32094287069E+03  0.25500000920E-02 0. -1.
        2   -1    0    0  501    0  0.00000000000E+00  0.00000000000E+00 -0.37848516054E+03  0.37848516055E+03  0.25500000920E-02 0.  1.
    10030    2    1    2    0    0  0.00000000000E+00  0.00000000000E+00 -0.57542289859E+02  0.69942803125E+03  0.69705699607E+03 0.  0.
        5    1    3    3  502    0 -0.20387044711E+03 -0.10237867879E+03 -0.29311644654E+03  0.37146183425E+03  0.46999998093E+01 0.  1.
       -5    1    3    3    0  502  0.20387044711E+03  0.10237867879E+03  0.23557415669E+03  0.32796619699E+03  0.46999998093E+01 0. -1.
</event>
<event>
 5   0  0.2439375E-02  0.7058938E+03  0.7818609E-02  0.9707206E-01
       -3   -1    0    0    0  501  0.00000000000E+00  0.00000000000E+00  0.18374016332E+03  0.18374019108E+03  0.10100000352E+00 0.  1.
        3   -1    0    0  501    0  0.00000000000E+00  0.00000000000E+00 -0.67797643458E+03  0.67797644210E+03  0.10100000352E+00 0. -1.
    10030    2    1    2    0    0  0.00000000000E+00  0.00000000000E+00 -0.49423627125E+03  0.86171663318E+03  0.70589380510E+03 0.  0.
        5    1    3    3  502    0 -0.92177893582E+02 -0.32843584151E+03 -0.35754371938E+03  0.49419274309E+03  0.46999998093E+01 0. -1.
       -5    1    3    3    0  502  0.92177893582E+02  0.32843584151E+03 -0.13669255187E+03  0.36752389009E+03  0.46999998093E+01 0.  1.
</event>
<event>
 5   0  0.3749730E-02  0.6737512E+03  0.7818609E-02  0.9763205E-01
        1   -1    0    0  501    0  0.00000000000E+00  0.00000000000E+00  0.18565950519E+04  0.18565950519E+04  0.50400001928E-02 0.  1.
       -1   -1    0    0    0  501  0.00000000000E+00  0.00000000000E+00 -0.61125433210E+02  0.61125433418E+02  0.50400001928E-02 0. -1.
    10030    2    1    2    0    0  0.00000000000E+00  0.00000000000E+00  0.17954696187E+04  0.19177204854E+04  0.67375122130E+03 0.  0.
        4    1    3    3  502    0 -0.14602965820E+03 -0.61339259578E+02  0.51476342003E+02  0.16654906942E+03  0.12699999809E+01 0. -1.
       -4    1    3    3    0  502  0.14602965820E+03  0.61339259578E+02  0.17439932767E+04  0.17511714159E+04  0.12699999809E+01 0.  1.
</event>
<event>
 5   0  0.3755872E-02  0.6617074E+03  0.7818609E-02  0.9785056E-01
       -1   -1    0    0    0  501  0.00000000000E+00  0.00000000000E+00  0.22077703500E+03  0.22077703506E+03  0.50400001928E-02 0.  1.
        1   -1    0    0  501    0  0.00000000000E+00  0.00000000000E+00 -0.49581327863E+03  0.49581327865E+03  0.50400001928E-02 0. -1.
    10030    2    1    2    0    0  0.00000000000E+00  0.00000000000E+00 -0.27503624363E+03  0.71659031371E+03  0.66170744472E+03 0.  0.
        2    1    3    3  502    0 -0.16597461387E+02 -0.25848565293E+03  0.85404434162E+02  0.27273471703E+03  0.25500000920E-02 0. -1.
       -2    1    3    3    0  502  0.16597461387E+02  0.25848565293E+03 -0.36044067779E+03  0.44385559668E+03  0.25500000920E-02 0.  1.
</event>
<event>
 5   0  0.6248886E-02  0.6957597E+03  0.7818609E-02  0.9724511E-01
        2   -1    0    0  501    0  0.00000000000E+00  0.00000000000E+00  0.72344073928E+03  0.72344073929E+03  0.25500000920E-02 0.  1.
       -2   -1    0    0    0  501  0.00000000000E+00  0.00000000000E+00 -0.16728447050E+03  0.16728447052E+03  0.25500000920E-02 0. -1.
    10030    2    1    2    0    0  0.00000000000E+00  0.00000000000E+00  0.55615626878E+03  0.89072520981E+03  0.69575973158E+03 0.  0.
        3    1    3    3  502    0 -0.39117666793E+02 -0.11982047837E+03 -0.13702355762E+03  0.18617895809E+03  0.10100000352E+00 0. -1.
       -3    1    3    3    0  502  0.39117666793E+02  0.11982047837E+03  0.69317982639E+03  0.70454625172E+03  0.10100000352E+00 0.  1.
</event>
<event>
 5   0  0.6167756E-02  0.6909981E+03  0.7818609E-02  0.9732752E-01
       -2   -1    0    0    0  501  0.00000000000E+00  0.00000000000E+00  0.73368124936E+03  0.73368124937E+03  0.25500000920E-02 0.  1.
        2   -1    0    0  501    0  0.00000000000E+00  0.00000000000E+00 -0.16269954592E+03  0.16269954594E+03  0.25500000920E-02 0. -1.
    10030    2    1    2    0    0  0.00000000000E+00  0.00000000000E+00  0.57098170344E+03  0.89638079531E+03  0.69099813642E+03 0.  0.
        4    1    3    3  502    0  0.20477291214E+03  0.11814499406E+03  0.61232439943E+03  0.65637867744E+03  0.12699999809E+01 0.  1.
       -4    1    3    3    0  502 -0.20477291214E+03 -0.11814499406E+03 -0.41342695983E+02  0.24000211787E+03  0.12699999809E+01 0. -1.
</event>
<event>
 5   0  0.6167756E-02  0.7052621E+03  0.7818609E-02  0.9708275E-01
        2   -1    0    0  501    0  0.00000000000E+00  0.00000000000E+00  0.52298966114E+03  0.52298966114E+03  0.25500000920E-02 0. -1.
       -2   -1    0    0    0  501  0.00000000000E+00  0.00000000000E+00 -0.23776501508E+03  0.23776501510E+03  0.25500000920E-02 0.  1.
    10030    2    1    2    0    0  0.00000000000E+00  0.00000000000E+00  0.28522464606E+03  0.76075467624E+03  0.70526206385E+03 0.  0.
        4    1    3    3  502    0 -0.23619608111E+03  0.17428211194E+03 -0.68170826537E+02  0.30134982622E+03  0.12699999809E+01 0.  1.
       -4    1    3    3    0  502  0.23619608111E+03 -0.17428211194E+03  0.35339547259E+03  0.45940485002E+03  0.12699999809E+01 0. -1.
</event>
<event>
 5   0  0.3717372E-02  0.7097414E+03  0.7818609E-02  0.9700717E-01
       -1   -1    0    0    0  501  0.00000000000E+00  0.00000000000E+00  0.15136486006E+03  0.15136486014E+03  0.50400001928E-02 0. -1.
        1   -1    0    0  501    0  0.00000000000E+00  0.00000000000E+00 -0.83198448618E+03  0.83198448620E+03  0.50400001928E-02 0.  1.
    10030    2    1    2    0    0  0.00000000000E+00  0.00000000000E+00 -0.68061962612E+03  0.98334934634E+03  0.70974140466E+03 0.  0.
        3    1    3    3  502    0 -0.89457316276E+02  0.28920271405E+03 -0.83739425415E+02  0.31409094673E+03  0.10100000352E+00 0. -1.
       -3    1    3    3    0  502  0.89457316276E+02 -0.28920271405E+03 -0.59688020071E+03  0.66925839961E+03  0.10100000352E+00 0.  1.
</event>
<event>
 5   0  0.3439015E-02  0.6958795E+03  0.7818609E-02  0.9724305E-01
       -1   -1    0    0    0  501  0.00000000000E+00  0.00000000000E+00  0.22030771579E+03  0.22030771584E+03  0.50400001928E-02 0.  1.
        1   -1    0    0  501    0  0.00000000000E+00  0.00000000000E+00 -0.54951358150E+03  0.54951358152E+03  0.50400001928E-02 0. -1.
    10030    2    1    2    0    0  0.00000000000E+00  0.00000000000E+00 -0.32920586572E+03  0.76982129737E+03  0.69587953545E+03 0.  0.
        1    1    3    3  502    0  0.50696585972E+02  0.22787039987E+03 -0.45002359630E+03  0.50696775067E+03  0.50400001928E-02 0. -1.
       -1    1    3    3    0  502 -0.50696585972E+02 -0.22787039987E+03  0.12081773058E+03  0.26285354670E+03  0.50400001928E-02 0.  1.
</event>
<event>
 5   0  0.3755872E-02  0.7224893E+03  0.7818609E-02  0.9679527E-01
        1   -1    0    0  501    0  0.00000000000E+00  0.00000000000E+00  0.13366690364E+04  0.13366690365E+04  0.50400001928E-02 0.  1.
       -1   -1    0    0    0  501  0.00000000000E+00  0.00000000000E+00 -0.97629014281E+02  0.97629014411E+02  0.50400001928E-02 0. -1.
    10030    2    1    2    0    0  0.00000000000E+00  0.00000000000E+00  0.12390400222E+04  0.14342980509E+04  0.72248925403E+03 0.  0.
        2    1    3    3  502    0 -0.70420447550E+02  0.21205447762E+03  0.56013618018E+02  0.23035552158E+03  0.25500000920E-02 0. -1.
       -2    1    3    3    0  502  0.70420447550E+02 -0.21205447762E+03  0.11830264041E+04  0.12039425293E+04  0.25500000920E-02 0.  1.
</event>
<event>
 5   0  0.6131198E-02  0.6937145E+03  0.7818609E-02  0.9728042E-01
        2   -1    0    0  501    0  0.00000000000E+00  0.00000000000E+00  0.32398298023E+03  0.32398298024E+03  0.25500000920E-02 0.  1.
       -2   -1    0    0    0  501  0.00000000000E+00  0.00000000000E+00 -0.37134651631E+03  0.37134651631E+03  0.25500000920E-02 0. -1.
    10030    2    1    2    0    0  0.00000000000E+00  0.00000000000E+00 -0.47363536080E+02  0.69532949655E+03  0.69371449763E+03 0.  0.
        1    1    3    3  502    0  0.38810563493E+02  0.21564707224E+03  0.24583086395E+03  0.32930644285E+03  0.50400001928E-02 0.  1.
       -1    1    3    3    0  502 -0.38810563493E+02 -0.21564707224E+03 -0.29319440003E+03  0.36602305370E+03  0.50400001928E-02 0. -1.
</event>
<event>
 5   0  0.6167756E-02  0.7075595E+03  0.7818609E-02  0.9704391E-01
        2   -1    0    0  501    0  0.00000000000E+00  0.00000000000E+00  0.11380361432E+04  0.11380361432E+04  0.25500000920E-02 0. -1.
       -2   -1    0    0    0  501  0.00000000000E+00  0.00000000000E+00 -0.10997902057E+03  0.10997902060E+03  0.25500000920E-02 0.  1.
    10030    2    1    2    0    0  0.00000000000E+00  0.00000000000E+00  0.10280571226E+04  0.12480151638E+04  0.70755946866E+03 0.  0.
        4    1    3    3  502    0  0.46436282373E+02  0.12012816293E+03  0.10952138350E+04  0.11027611079E+04  0.12699999809E+01 0. -1.
       -4    1    3    3    0  502 -0.46436282373E+02 -0.12012816293E+03 -0.67156712341E+02  0.14525405592E+03  0.12699999809E+01 0.  1.
</event>
<event>
 5   0  0.3601475E-02  0.7306848E+03  0.7818609E-02  0.9666150E-01
       -1   -1    0    0    0  501  0.00000000000E+00  0.00000000000E+00  0.28905099902E+03  0.28905099906E+03  0.50400001928E-02 0. -1.
        1   -1    0    0  501    0  0.00000000000E+00  0.00000000000E+00 -0.46177001071E+03  0.46177001073E+03  0.50400001928E-02 0.  1.
    10030    2    1    2    0    0  0.00000000000E+00  0.00000000000E+00 -0.17271901169E+03  0.75082100980E+03  0.73068483750E+03 0.  0.
        5    1    3    3  502    0  0.29713789967E+03  0.92343819353E+02 -0.28303603062E+03  0.42065401106E+03  0.46999998093E+01 0.  1.
       -5    1    3    3    0  502 -0.29713789967E+03 -0.92343819353E+02  0.11031701893E+03  0.33016699874E+03  0.46999998093E+01 0. -1.
</event>
<event>
 5   0  0.6131198E-02  0.7025790E+03  0.7818609E-02  0.9712832E-01
       -2   -1    0    0    0  501  0.00000000000E+00  0.00000000000E+00  0.39915389119E+03  0.39915389120E+03  0.25500000920E-02 0.  1.
        2   -1    0    0  501    0  0.00000000000E+00  0.00000000000E+00 -0.30916477179E+03  0.30916477180E+03  0.25500000920E-02 0. -1.
    10030    2    1    2    0    0  0.00000000000E+00  0.00000000000E+00  0.89989119401E+02  0.70831866300E+03  0.70257902526E+03 0.  0.
        1    1    3    3  502    0 -0.19310916677E+03 -0.74554142885E+02  0.33113507463E+03  0.39051236624E+03  0.50400001928E-02 0.  1.
       -1    1    3    3    0  502  0.19310916677E+03  0.74554142885E+02 -0.24114595522E+03  0.31780629676E+03  0.50400001928E-02 0. -1.
</event>
<event>
 5   0  0.3439015E-02  0.6982591E+03  0.7818609E-02  0.9720214E-01
       -1   -1    0    0    0  501  0.00000000000E+00  0.00000000000E+00  0.16269138422E+03  0.16269138430E+03  0.50400001928E-02 0. -1.
        1   -1    0    0  501    0  0.00000000000E+00  0.00000000000E+00 -0.74921877319E+03  0.74921877321E+03  0.50400001928E-02 0.  1.
    10030    2    1    2    0    0  0.00000000000E+00  0.00000000000E+00 -0.58652738897E+03  0.91191015751E+03  0.69825909041E+03 0.  0.
        1    1    3    3  502    0  0.78710151644E+02 -0.20113980267E+03  0.64962024849E+02  0.22554949099E+03  0.50400001928E-02 0. -1.
       -1    1    3    3    0  502 -0.78710151644E+02  0.20113980267E+03 -0.65148941382E+03  0.68636066651E+03  0.50400001928E-02 0.  1.
</event>
<event>
 5   0  0.3601475E-02  0.6954935E+03  0.7818609E-02  0.9724970E-01
        1   -1    0    0  501    0  0.00000000000E+00  0.00000000000E+00  0.23396496399E+03  0.23396496405E+03  0.50400001928E-02 0.  1.
       -1   -1    0    0    0  501  0.00000000000E+00  0.00000000000E+00 -0.51686282210E+03  0.51686282213E+03  0.50400001928E-02 0. -1.
    10030    2    1    2    0    0  0.00000000000E+00  0.00000000000E+00 -0.28289785811E+03  0.75082778617E+03  0.69549346968E+03 0.  0.
        5    1    3    3  502    0  0.14562191120E+03  0.15396971590E+03 -0.43905027782E+03  0.48754451170E+03  0.46999998093E+01 0. -1.
       -5    1    3    3    0  502 -0.14562191120E+03 -0.15396971590E+03  0.15615241971E+03  0.26328327447E+03  0.46999998093E+01 0.  1.
</event>
<event>
 5   0  0.3601475E-02  0.6931018E+03  0.7818609E-02  0.9729102E-01
       -1   -1    0    0    0  501  0.00000000000E+00  0.00000000000E+00  0.64207802472E+03  0.64207802474E+03  0.50400001928E-02 0. -1.
        1   -1    0    0  501    0  0.00000000000E+00  0.00000000000E+00 -0.18704504113E+03  0.18704504120E+03  0.50400001928E-02 0.  1.
    10030    2    1    2    0    0  0.00000000000E+00  0.00000000000E+00  0.45503298359E+03  0.82912306594E+03  0.69310175466E+03 0.  0.
        5    1    3    3  502    0  0.24087461175E+03 -0.24165665279E+03  0.29985653901E+03  0.45426264475E+03  0.46999998093E+01 0. -1.
       -5    1    3    3    0  502 -0.24087461175E+03  0.24165665279E+03  0.15517644458E+03  0.37486042120E+03  0.46999998093E+01 0.  1.
</event>
<event>
 5   0  0.5987810E-02  0.6936169E+03  0.7818609E-02  0.9728211E-01
        2   -1    0    0  501    0  0.00000000000E+00  0.00000000000E+00  0.31838571777E+03  0.31838571778E+03  0.25500000920E-02 0. -1.
       -2   -1    0    0    0  501  0.00000000000E+00  0.00000000000E+00 -0.37776854548E+03  0.37776854548E+03  0.25500000920E-02 0.  1.
    10030    2    1    2    0    0  0.00000000000E+00  0.00000000000E+00 -0.59382827708E+02  0.69615426326E+03  0.69361692456E+03 0.  0.
        5    1    3    3  502    0 -0.15648652852E+03  0.10381233678E+03 -0.32228656577E+03  0.37303586335E+03  0.46999998093E+01 0.  1.
       -5    1    3    3    0  502  0.15648652852E+03 -0.10381233678E+03  0.26290373806E+03  0.32311839991E+03  0.46999998093E+01 0. -1.
</event>
<event>
 5   0  0.5987810E-02  0.6942427E+03  0.7818609E-02  0.9727129E-01
       -2   -1    0    0    0  501  0.00000000000E+00  0.00000000000E+00  0.11903882573E+03  0.11903882575E+03  0.25500000920E-02 0. -1.
        2   -1    0    0  501    0  0.00000000000E+00  0.00000000000E+00 -0.10122177914E+04  0.10122177914E+04  0.25500000920E-02 0.  1.
    10030    2    1    2    0    0  0.00000000000E+00  0.00000000000E+00 -0.89317896567E+03  0.11312566172E+04  0.69424265868E+03 0.  0.
        5    1    3    3  502    0 -0.30282505088E+03  0.11797329367E+03 -0.24801695104E+03  0.40884619047E+03  0.46999998093E+01 0.  1.
       -5    1    3    3    0  502  0.30282505088E+03 -0.11797329367E+03 -0.64516201464E+03  0.72241042669E+03  0.46999998093E+01 0. -1.
</event>
<event>
 5   0  0.5899787E-02  0.7189478E+03  0.7818609E-02  0.9685367E-01
        2   -1    0    0  501    0  0.00000000000E+00  0.00000000000E+00  0.39713048160E+03  0.39713048161E+03  0.25500000920E-02 0.  1.
       -2   -1    0    0    0  501  0.00000000000E+00  0.00000000000E+00 -0.32538794628E+03  0.32538794629E+03  0.25500000920E-02 0. -1.
    10030    2    1    2    0    0  0.00000000000E+00  0.00000000000E+00  0.71742535321E+02  0.72251842790E+03  0.71894776394E+03 0.  0.
        2    1    3    3  502    0  0.13219079405E+03  0.29022417692E+03 -0.13083505705E+03  0.34470609374E+03  0.25500000920E-02 0. -1.
       -2    1    3    3    0  502 -0.13219079405E+03 -0.29022417692E+03  0.20257759237E+03  0.37781233416E+03  0.25500000920E-02 0.  1.
</event>
<event>
 5   0  0.3439015E-02  0.6705583E+03  0.7818609E-02  0.9768950E-01
       -1   -1    0    0    0  501  0.00000000000E+00  0.00000000000E+00  0.12445338795E+03  0.12445338805E+03  0.50400001928E-02 0. -1.
        1   -1    0    0  501    0  0.00000000000E+00  0.00000000000E+00 -0.90324660120E+03  0.90324660121E+03  0.50400001928E-02 0.  1.
    10030    2    1    2    0    0  0.00000000000E+00  0.00000000000E+00 -0.77879321325E+03  0.10276999893E+04  0.67055827407E+03 0.  0.
        1    1    3    3  502    0 -0.35639018054E+02 -0.70510511389E+02 -0.88877667109E+03  0.89228125774E+03  0.50400001928E-02 0.  1.
       -1    1    3    3    0  502  0.35639018054E+02  0.70510511389E+02  0.10998345783E+03  0.13541873152E+03  0.50400001928E-02 0. -1.
</event>
<event>
 5   0  0.5987810E-02  0.6906381E+03  0.7818609E-02  0.9733378E-01
       -2   -1    0    0    0  501  0.00000000000E+00  0.00000000000E+00  0.10761493869E+03  0.10761493872E+03  0.25500000920E-02 0.  1.
        2   -1    0    0  501    0  0.00000000000E+00  0.00000000000E+00 -0.11080733686E+04  0.11080733686E+04  0.25500000920E-02 0. -1.
    10030    2    1    2    0    0  0.00000000000E+00  0.00000000000E+00 -0.10004584299E+04  0.12156883073E+04  0.69063810390E+03 0.  0.
        5    1    3    3  502    0  0.55697219693E+02  0.19595960842E+03 -0.99095667508E+03  0.10116914403E+04  0.46999998093E+01 0. -1.
       -5    1    3    3    0  502 -0.55697219693E+02 -0.19595960842E+03 -0.95017548023E+01  0.20399686703E+03  0.46999998093E+01 0.  1.
</event>
<event>
 5   0  0.3717372E-02  0.5853029E+03  0.7818609E-02  0.9936376E-01
       -1   -1    0    0    0  501  0.00000000000E+00  0.00000000000E+00  0.61405846252E+02  0.61405846459E+02  0.50400001928E-02 0. -1.
        1   -1    0    0  501    0  0.00000000000E+00  0.00000000000E+00 -0.13947347804E+04  0.13947347804E+04  0.50400001928E-02 0.  1.
    10030    2    1    2    0    0  0.00000000000E+00  0.00000000000E+00 -0.13333289341E+04  0.14561406269E+04  0.58530289473E+03 0.  0.
        3    1    3    3  502    0 -0.24764705700E+02  0.45076174690E+02 -0.13834032871E+04  0.13843589914E+04  0.10100000352E+00 0.  1.
       -3    1    3    3    0  502  0.24764705700E+02 -0.45076174690E+02  0.50074352909E+02  0.71781635488E+02  0.10100000352E+00 0. -1.
</event>
<event>
 5   0  0.6248886E-02  0.6626055E+03  0.7818609E-02  0.9783409E-01
        2   -1    0    0  501    0  0.00000000000E+00  0.00000000000E+00  0.38763867971E+03  0.38763867971E+03  0.25500000920E-02 0.  1.
       -2   -1    0    0    0  501  0.00000000000E+00  0.00000000000E+00 -0.28315420891E+03  0.28315420892E+03  0.25500000920E-02 0. -1.
    10030    2    1    2    0    0  0.00000000000E+00  0.00000000000E+00  0.10448447079E+03  0.67079288864E+03  0.66260553485E+03 0.  0.
        3    1    3    3  502    0  0.41989637836E+02 -0.83922626297E+02  0.37390302015E+03  0.38549917713E+03  0.10100000352E+00 0.  1.
       -3    1    3    3    0  502 -0.41989637836E+02  0.83922626297E+02 -0.26941854935E+03  0.28529371151E+03  0.10100000352E+00 0. -1.
</event>
<event>
 5   0  0.5987810E-02  0.6873909E+03  0.7818609E-02  0.9739042E-01
        2   -1    0    0  501    0  0.00000000000E+00  0.00000000000E+00  0.43950965976E+03  0.43950965977E+03  0.25500000920E-02 0. -1.
       -2   -1    0    0    0  501  0.00000000000E+00  0.00000000000E+00 -0.26876895469E+03  0.26876895470E+03  0.25500000920E-02 0.  1.
    10030    2    1    2    0    0  0.00000000000E+00  0.00000000000E+00  0.17074070507E+03  0.70827861447E+03  0.68739086941E+03 0.  0.
        5    1    3    3  502    0 -0.17752761755E+03 -0.29339097492E+03  0.62097683162E+02  0.34852909694E+03  0.46999998093E+01 0. -1.
       -5    1    3    3    0  502  0.17752761755E+03  0.29339097492E+03  0.10864302191E+03  0.35974951754E+03  0.46999998093E+01 0.  1.
</event>
<event>
 5   0  0.3749730E-02  0.5856466E+03  0.7818609E-02  0.9935640E-01
        1   -1    0    0  501    0  0.00000000000E+00  0.00000000000E+00  0.14207529566E+03  0.14207529575E+03  0.50400001928E-02 0. -1.
       -1   -1    0    0    0  501  0.00000000000E+00  0.00000000000E+00 -0.60352152635E+03  0.60352152637E+03  0.50400001928E-02 0.  1.
    10030    2    1    2    0    0  0.00000000000E+00  0.00000000000E+00 -0.46144623069E+03  0.74559682212E+03  0.58564664888E+03 0.  0.
        4    1    3    3  502    0 -0.14698881239E+03  0.15166493169E+03  0.27490426019E+02  0.21299131178E+03  0.12699999809E+01 0. -1.
       -4    1    3    3    0  502  0.14698881239E+03 -0.15166493169E+03 -0.48893665671E+03  0.53260551034E+03  0.12699999809E+01 0.  1.
</event>
<event>
 5   0  0.6248886E-02  0.7018187E+03  0.7818609E-02  0.9714127E-01
        2   -1    0    0  501    0  0.00000000000E+00  0.00000000000E+00  0.35839674039E+03  0.35839674040E+03  0.25500000920E-02 0.  1.
       -2   -1    0    0    0  501  0.00000000000E+00  0.00000000000E+00 -0.34357836416E+03  0.34357836417E+03  0.25500000920E-02 0. -1.
    10030    2    1    2    0    0  0.00000000000E+00  0.00000000000E+00  0.14818376230E+02  0.70197510456E+03  0.70181868253E+03 0.  0.
        3    1    3    3  502    0  0.93741682474E+02  0.24833969932E+03 -0.22215720844E+03  0.34614150972E+03  0.10100000352E+00 0. -1.
       -3    1    3    3    0  502 -0.93741682474E+02 -0.24833969932E+03  0.23697558467E+03  0.35583359484E+03  0.10100000352E+00 0.  1.
</event>
<event>
 5   0  0.5899787E-02  0.7750564E+03  0.7818609E-02  0.9596841E-01
        2   -1    0    0  501    0  0.00000000000E+00  0.00000000000E+00  0.21846259366E+03  0.21846259368E+03  0.25500000920E-02 0. -1.
       -2   -1    0    0    0  501  0.00000000000E+00  0.00000000000E+00 -0.68743163590E+03  0.68743163591E+03  0.25500000920E-02 0.  1.
    10030    2    1    2    0    0  0.00000000000E+00  0.00000000000E+00 -0.46896904224E+03  0.90589422959E+03  0.77505638029E+03 0.  0.
        2    1    3    3  502    0  0.22231164817E+03  0.12804353904E+03  0.10499511037E+03  0.27720315657E+03  0.25500000920E-02 0. -1.
       -2    1    3    3    0  502 -0.22231164817E+03 -0.12804353904E+03 -0.57396415261E+03  0.62869107302E+03  0.25500000920E-02 0.  1.
</event>
<event>
 5   0  0.6167756E-02  0.6906562E+03  0.7818609E-02  0.9733346E-01
       -2   -1    0    0    0  501  0.00000000000E+00  0.00000000000E+00  0.35748461720E+03  0.35748461721E+03  0.25500000920E-02 0.  1.
        2   -1    0    0  501    0  0.00000000000E+00  0.00000000000E+00 -0.33358497528E+03  0.33358497529E+03  0.25500000920E-02 0. -1.
    10030    2    1    2    0    0  0.00000000000E+00  0.00000000000E+00  0.23899641920E+02  0.69106959250E+03  0.69065620159E+03 0.  0.
        4    1    3    3  502    0 -0.56495815356E+02 -0.32682810413E+03 -0.84240426829E+02  0.34220819571E+03  0.12699999809E+01 0.  1.
       -4    1    3    3    0  502  0.56495815356E+02  0.32682810413E+03  0.10814006875E+03  0.34886139679E+03  0.12699999809E+01 0. -1.
</event>
<event>
 5   0  0.5987810E-02  0.6627772E+03  0.7818609E-02  0.9783095E-01
       -2   -1    0    0    0  501  0.00000000000E+00  0.00000000000E+00  0.35468129655E+03  0.35468129656E+03  0.25500000920E-02 0.  1.
        2   -1    0    0  501    0  0.00000000000E+00  0.00000000000E+00 -0.30962557174E+03  0.30962557175E+03  0.25500000920E-02 0. -1.
    10030    2    1    2    0    0  0.00000000000E+00  0.00000000000E+00  0.45055724806E+02  0.66430686831E+03  0.66277718500E+03 0.  0.
        5    1    3    3  502    0  0.26121739602E+03 -0.21831338060E+02  0.22569046023E+03  0.34593266562E+03  0.46999998093E+01 0.  1.
       -5    1    3    3    0  502 -0.26121739602E+03  0.21831338060E+02 -0.18063473542E+03  0.31837420270E+03  0.46999998093E+01 0. -1.
</event>
<event>
 5   0  0.6131198E-02  0.6263330E+03  0.7818609E-02  0.9852231E-01
       -2   -1    0    0    0  501  0.00000000000E+00  0.00000000000E+00  0.28723140643E+03  0.28723140645E+03  0.25500000920E-02 0. -1.
        2   -1    0    0  501    0  0.00000000000E+00  0.00000000000E+00 -0.34144338257E+03  0.34144338258E+03  0.25500000920E-02 0.  1.
    10030    2    1    2    0    0  0.00000000000E+00  0.00000000000E+00 -0.54211976140E+02  0.62867478903E+03  0.62633302005E+03 0.  0.
        1    1    3    3  502    0 -0.24280450082E+03  0.13451849903E+03 -0.17264469828E+03  0.32688750981E+03  0.50400001928E-02 0.  1.
       -1    1    3    3    0  502  0.24280450082E+03 -0.13451849903E+03  0.11843272214E+03  0.30178727922E+03  0.50400001928E-02 0. -1.
</event>
<event>
 5   0  0.6131198E-02  0.6930539E+03  0.7818609E-02  0.9729185E-01
        2   -1    0    0  501    0  0.00000000000E+00  0.00000000000E+00  0.10526465998E+04  0.10526465998E+04  0.25500000920E-02 0.  1.
       -2   -1    0    0    0  501  0.00000000000E+00  0.00000000000E+00 -0.11407523782E+03  0.11407523785E+03  0.25500000920E-02 0. -1.
    10030    2    1    2    0    0  0.00000000000E+00  0.00000000000E+00  0.93857136202E+03  0.11667218377E+04  0.69305385429E+03 0.  0.
        1    1    3    3  502    0 -0.20850874562E+03 -0.27216191948E+03  0.38456104904E+03  0.51520404489E+03  0.50400001928E-02 0. -1.
       -1    1    3    3    0  502  0.20850874562E+03  0.27216191948E+03  0.55401031298E+03  0.65151779280E+03  0.50400001928E-02 0.  1.
</event>
<event>
 5   0  0.3439015E-02  0.6985128E+03  0.7818609E-02  0.9719779E-01
       -1   -1    0    0    0  501  0.00000000000E+00  0.00000000000E+00  0.20482580629E+03  0.20482580635E+03  0.50400001928E-02 0.  1.
        1   -1    0    0  501    0  0.00000000000E+00  0.00000000000E+00 -0.59553061992E+03  0.59553061994E+03  0.50400001928E-02 0. -1.
    10030    2    1    2    0    0  0.00000000000E+00  0.00000000000E+00 -0.39070481363E+03  0.80035642630E+03  0.69851281858E+03 0.  0.
        1    1    3    3  502    0  0.18182027002E+03  0.23182522925E+03  0.19553159634E+02  0.29526915447E+03  0.50400001928E-02 0.  1.
       -1    1    3    3    0  502 -0.18182027002E+03 -0.23182522925E+03 -0.41025797326E+03  0.50508727182E+03  0.50400001928E-02 0. -1.
</event>
<event>
 5   0  0.3755872E-02  0.7050543E+03  0.7818609E-02  0.9708628E-01
        1   -1    0    0  501    0  0.00000000000E+00  0.00000000000E+00  0.25913285374E+03  0.25913285379E+03  0.50400001928E-02 0. -1.
       -1   -1    0    0    0  501  0.00000000000E+00  0.00000000000E+00 -0.47958176610E+03  0.47958176612E+03  0.50400001928E-02 0.  1.
    10030    2    1    2    0    0  0.00000000000E+00  0.00000000000E+00 -0.22044891236E+03  0.73871461991E+03  0.70505430054E+03 0.  0.
        2    1    3    3  502    0 -0.51820659732E+02  0.71701133961E+02 -0.46776223039E+03  0.47605455315E+03  0.25500000920E-02 0.  1.
       -2    1    3    3    0  502  0.51820659732E+02 -0.71701133961E+02  0.24731331803E+03  0.26266006676E+03  0.25500000920E-02 0. -1.
</event>
<event>
 5   0  0.6131198E-02  0.6752970E+03  0.7818609E-02  0.9760436E-01
       -2   -1    0    0    0  501  0.00000000000E+00  0.00000000000E+00  0.14153423066E+03  0.14153423069E+03  0.25500000920E-02 0. -1.
        2   -1    0    0  501    0  0.00000000000E+00  0.00000000000E+00 -0.80550492540E+03  0.80550492540E+03  0.25500000920E-02 0.  1.
    10030    2    1    2    0    0  0.00000000000E+00  0.00000000000E+00 -0.66397069473E+03  0.94703915609E+03  0.67529703072E+03 0.  0.
        1    1    3    3  502    0 -0.22043013177E+03  0.24879730601E+03 -0.41515365919E+03  0.53182901692E+03  0.50400001928E-02 0. -1.
       -1    1    3    3    0  502  0.22043013177E+03 -0.24879730601E+03 -0.24881703554E+03  0.41521013917E+03  0.50400001928E-02 0.  1.
</event>
<event>
 5   0  0.3717372E-02  0.7019005E+03  0.7818609E-02  0.9713988E-01
        1   -1    0    0  501    0  0.00000000000E+00  0.00000000000E+00  0.94087785372E+03  0.94087785373E+03  0.50400001928E-02 0.  1.
       -1   -1    0    0    0  501  0.00000000000E+00  0.00000000000E+00 -0.13090548237E+03  0.13090548247E+03  0.50400001928E-02 0. -1.
    10030    2    1    2    0    0  0.00000000000E+00  0.00000000000E+00  0.80997237134E+03  0.10717833362E+04  0.70190047544E+03 0.  0.
        3    1    3    3  502    0 -0.25643645365E+03  0.41055774541E+02  0.44540158047E+02  0.26349396059E+03  0.10100000352E+00 0. -1.
       -3    1    3    3    0  502  0.25643645365E+03 -0.41055774541E+02  0.76543221329E+03  0.80828937562E+03  0.10100000352E+00 0.  1.
</event>
<event>
 5   0  0.5987810E-02  0.7033616E+03  0.7818609E-02  0.9711501E-01
        2   -1    0    0  501    0  0.00000000000E+00  0.00000000000E+00  0.92993724760E+03  0.92993724761E+03  0.25500000920E-02 0. -1.
       -2   -1    0    0    0  501  0.00000000000E+00  0.00000000000E+00 -0.13299756364E+03  0.13299756367E+03  0.25500000920E-02 0.  1.
    10030    2    1    2    0    0  0.00000000000E+00  0.00000000000E+00  0.79693968396E+03  0.10629348113E+04  0.70336160909E+03 0.  0.
        5    1    3    3  502    0  0.73621587013E+02 -0.32724143619E+03  0.23889318930E+03  0.41182416336E+03  0.46999998093E+01 0.  1.
       -5    1    3    3    0  502 -0.73621587013E+02  0.32724143619E+03  0.55804649466E+03  0.65111064792E+03  0.46999998093E+01 0. -1.
</event>
<event>
 5   0  0.3717372E-02  0.7006891E+03  0.7818609E-02  0.9716054E-01
       -1   -1    0    0    0  501  0.00000000000E+00  0.00000000000E+00  0.59925953940E+03  0.59925953942E+03  0.50400001928E-02 0.  1.
        1   -1    0    0  501    0  0.00000000000E+00  0.00000000000E+00 -0.20482162327E+03  0.20482162333E+03  0.50400001928E-02 0. -1.
    10030    2    1    2    0    0  0.00000000000E+00  0.00000000000E+00  0.39443791613E+03  0.80408116275E+03  0.70068912265E+03 0.  0.
        3    1    3    3  502    0 -0.19360623521E+03  0.28722753426E+03  0.25748781514E+03  0.43160516203E+03  0.10100000352E+00 0.  1.
       -3    1    3    3    0  502  0.19360623521E+03 -0.28722753426E+03  0.13695010099E+03  0.37247600072E+03  0.10100000352E+00 0. -1.
</event>
<event>
 5   0  0.5899787E-02  0.7033322E+03  0.7818609E-02  0.9711551E-01
       -2   -1    0    0    0  501  0.00000000000E+00  0.00000000000E+00  0.77057432315E+03  0.77057432316E+03  0.25500000920E-02 0.  1.
        2   -1    0    0  501    0  0.00000000000E+00  0.00000000000E+00 -0.16048945907E+03  0.16048945909E+03  0.25500000920E-02 0. -1.
    10030    2    1    2    0    0  0.00000000000E+00  0.00000000000E+00  0.61008486408E+03  0.93106378225E+03  0.70333222963E+03 0.  0.
        2    1    3    3  502    0 -0.14963071627E+03  0.14017780848E+03 -0.73176715957E+02  0.21770163299E+03  0.25500000920E-02 0. -1.
       -2    1    3    3    0  502  0.14963071627E+03 -0.14017780848E+03  0.68326158004E+03  0.71336214926E+03  0.25500000920E-02 0.  1.
</event>
<event>
 5   0  0.3749730E-02  0.7553579E+03  0.7818609E-02  0.9626982E-01
       -1   -1    0    0    0  501  0.00000000000E+00  0.00000000000E+00  0.94212428054E+02  0.94212428189E+02  0.50400001928E-02 0. -1.
        1   -1    0    0  501    0  0.00000000000E+00  0.00000000000E+00 -0.15140400543E+04  0.15140400543E+04  0.50400001928E-02 0.  1.
    10030    2    1    2    0    0  0.00000000000E+00  0.00000000000E+00 -0.14198276263E+04  0.16082524825E+04  0.75535790141E+03 0.  0.
        4    1    3    3  502    0  0.22688934295E+03  0.24363182257E+03 -0.10896185364E+04  0.11393442881E+04  0.12699999809E+01 0.  1.
       -4    1    3    3    0  502 -0.22688934295E+03 -0.24363182257E+03 -0.33020908982E+03  0.46890819443E+03  0.12699999809E+01 0. -1.
</event>
<event>
 5   0  0.3601475E-02  0.6990718E+03  0.7818609E-02  0.9718821E-01
       -1   -1    0    0    0  501  0.00000000000E+00  0.00000000000E+00  0.12061189540E+03  0.12061189551E+03  0.50400001928E-02 0. -1.
        1   -1    0    0  501    0  0.00000000000E+00  0.00000000000E+00 -0.10129627893E+04  0.10129627893E+04  0.50400001928E-02 0.  1.
    10030    2    1    2    0    0  0.00000000000E+00  0.00000000000E+00 -0.89235089385E+03  0.11335746848E+04  0.69907184767E+03 0.  0.
        5    1    3    3  502    0 -0.15623503619E+03  0.48407727232E+01 -0.95307401000E+03  0.96581829459E+03  0.46999998093E+01 0.  1.
       -5    1    3    3    0  502  0.15623503619E+03 -0.48407727232E+01  0.60723116155E+02  0.16775639019E+03  0.46999998093E+01 0. -1.
</event>
<event>
 5   0  0.3439015E-02  0.6768639E+03  0.7818609E-02  0.9757637E-01
       -1   -1    0    0    0  501  0.00000000000E+00  0.00000000000E+00  0.21362990872E+03  0.21362990878E+03  0.50400001928E-02 0.  1.
        1   -1    0    0  501    0  0.00000000000E+00  0.00000000000E+00 -0.53614298340E+03  0.53614298343E+03  0.50400001928E-02 0. -1.
    10030    2    1    2    0    0  0.00000000000E+00  0.00000000000E+00 -0.32251307468E+03  0.74977289221E+03  0.67686387593E+03 0.  0.
        1    1    3    3  502    0  0.16056972124E+03 -0.62206516670E+02  0.16147472474E+03  0.23606434049E+03  0.50400001928E-02 0.  1.
       -1    1    3    3    0  502 -0.16056972124E+03  0.62206516670E+02 -0.48398779942E+03  0.51370855172E+03  0.50400001928E-02 0. -1.
</event>
<event>
 5   0  0.3755872E-02  0.7645734E+03  0.7818609E-02  0.9612760E-01
        1   -1    0    0  501    0  0.00000000000E+00  0.00000000000E+00  0.26589976481E+03  0.26589976486E+03  0.50400001928E-02 0. -1.
       -1   -1    0    0    0  501  0.00000000000E+00  0.00000000000E+00 -0.54961736011E+03  0.54961736013E+03  0.50400001928E-02 0.  1.
    10030    2    1    2    0    0  0.00000000000E+00  0.00000000000E+00 -0.28371759530E+03  0.81551712499E+03  0.76457341522E+03 0.  0.
        2    1    3    3  502    0  0.25136130123E+03 -0.40206965108E+02 -0.44607105988E+03  0.51359370544E+03  0.25500000920E-02 0.  1.
       -2    1    3    3    0  502 -0.25136130123E+03  0.40206965108E+02  0.16235346459E+03  0.30192341954E+03  0.25500000920E-02 0. -1.
</event>
<event>
 5   0  0.6248886E-02  0.7045029E+03  0.7818609E-02  0.9709562E-01
        2   -1    0    0  501    0  0.00000000000E+00  0.00000000000E+00  0.15295513978E+04  0.15295513978E+04  0.25500000920E-02 0. -1.
       -2   -1    0    0    0  501  0.00000000000E+00  0.00000000000E+00 -0.81122532292E+02  0.81122532332E+02  0.25500000920E-02 0.  1.
    10030    2    1    2    0    0  0.00000000000E+00  0.00000000000E+00  0.14484288655E+04  0.16106739301E+04  0.70450289621E+03 0.  0.
        3    1    3    3  502    0  0.20085295435E+03 -0.28873745733E+03  0.68024669605E+03  0.76579814979E+03  0.10100000352E+00 0. -1.
       -3    1    3    3    0  502 -0.20085295435E+03  0.28873745733E+03  0.76818216943E+03  0.84487578031E+03  0.10100000352E+00 0.  1.
</event>
<event>
 5   0  0.6131198E-02  0.7032897E+03  0.7818609E-02  0.9711623E-01
        2   -1    0    0  501    0  0.00000000000E+00  0.00000000000E+00  0.17315129729E+04  0.17315129729E+04  0.25500000920E-02 0. -1.
       -2   -1    0    0    0  501  0.00000000000E+00  0.00000000000E+00 -0.71413895294E+02  0.71413895339E+02  0.25500000920E-02 0.  1.
    10030    2    1    2    0    0  0.00000000000E+00  0.00000000000E+00  0.16600990776E+04  0.18029268683E+04  0.70328965922E+03 0.  0.
        1    1    3    3  502    0 -0.15571562059E+03  0.14747081433E+03  0.11565186901E+03  0.24366031767E+03  0.50400001928E-02 0.  1.
       -1    1    3    3    0  502  0.15571562059E+03 -0.14747081433E+03  0.15444472086E+04  0.15592665506E+04  0.50400001928E-02 0. -1.
</event>
<event>
 5   0  0.2439375E-02  0.6948746E+03  0.7818609E-02  0.9726038E-01
        4   -1    0    0  501    0  0.00000000000E+00  0.00000000000E+00  0.14718961829E+03  0.14719509717E+03  0.12699999809E+01 0. -1.
       -4   -1    0    0    0  501  0.00000000000E+00  0.00000000000E+00 -0.82009560162E+03  0.82009658498E+03  0.12699999809E+01 0.  1.
    10030    2    1    2    0    0  0.00000000000E+00  0.00000000000E+00 -0.67290598333E+03  0.96729168215E+03  0.69487461887E+03 0.  0.
        5    1    3    3  502    0  0.14458854621E+03 -0.33150498608E+02 -0.77375182336E+03  0.78785707930E+03  0.46999998093E+01 0.  1.
       -5    1    3    3    0  502 -0.14458854621E+03  0.33150498608E+02  0.10084584002E+03  0.17943460285E+03  0.46999998093E+01 0. -1.
</event>
<event>
 5   0  0.3755872E-02  0.7002907E+03  0.7818609E-02  0.9716735E-01
        1   -1    0    0  501    0  0.00000000000E+00  0.00000000000E+00  0.12285291536E+04  0.12285291536E+04  0.50400001928E-02 0.  1.
       -1   -1    0    0    0  501  0.00000000000E+00  0.00000000000E+00 -0.99795557090E+02  0.99795557217E+02  0.50400001928E-02 0. -1.
    10030    2    1    2    0    0  0.00000000000E+00  0.00000000000E+00  0.11287335965E+04  0.13283247108E+04  0.70029065786E+03 0.  0.
        2    1    3    3  502    0  0.78494515208E+01 -0.80360255139E+02  0.12106294324E+04  0.12133190047E+04  0.25500000920E-02 0.  1.
       -2    1    3    3    0  502 -0.78494515208E+01  0.80360255139E+02 -0.81895835917E+02  0.11500570613E+03  0.25500000920E-02 0. -1.
</event>
<event>
 5   0  0.3717372E-02  0.6867997E+03  0.7818609E-02  0.9740077E-01
       -1   -1    0    0    0  501  0.00000000000E+00  0.00000000000E+00  0.15726009345E+03  0.15726009353E+03  0.50400001928E-02 0. -1.
        1   -1    0    0  501    0  0.00000000000E+00  0.00000000000E+00 -0.74986264579E+03  0.74986264580E+03  0.50400001928E-02 0.  1.
    10030    2    1    2    0    0  0.00000000000E+00  0.00000000000E+00 -0.59260255234E+03  0.90712273933E+03  0.68679973732E+03 0.  0.
        3    1    3    3  502    0 -0.25085230365E+03 -0.84964203929E+02 -0.58500234764E+03  0.64216318108E+03  0.10100000352E+00 0. -1.
       -3    1    3    3    0  502  0.25085230365E+03  0.84964203929E+02 -0.76002046977E+01  0.26495955825E+03  0.10100000352E+00 0.  1.
</event>
<event>
 5   0  0.3749730E-02  0.8113320E+03  0.7818609E-02  0.9543758E-01
        1   -1    0    0  501    0  0.00000000000E+00  0.00000000000E+00  0.21737812847E+03  0.21737812853E+03  0.50400001928E-02 0. -1.
       -1   -1    0    0    0  501  0.00000000000E+00  0.00000000000E+00 -0.75704442273E+03  0.75704442274E+03  0.50400001928E-02 0.  1.
    10030    2    1    2    0    0  0.00000000000E+00  0.00000000000E+00 -0.53966629426E+03  0.97442255127E+03  0.81133199078E+03 0.  0.
        4    1    3    3  502    0 -0.71621748234E+02  0.15355599554E+03  0.17284207096E+03  0.24204361793E+03  0.12699999809E+01 0. -1.
       -4    1    3    3    0  502  0.71621748234E+02 -0.15355599554E+03 -0.71250836522E+03  0.73237893334E+03  0.12699999809E+01 0.  1.
</event>
<event>
 5   0  0.5899787E-02  0.6989905E+03  0.7818609E-02  0.9718960E-01
       -2   -1    0    0    0  501  0.00000000000E+00  0.00000000000E+00  0.77374579310E+02  0.77374579352E+02  0.25500000920E-02 0. -1.
        2   -1    0    0  501    0  0.00000000000E+00  0.00000000000E+00 -0.15786441057E+04  0.15786441057E+04  0.25500000920E-02 0.  1.
    10030    2    1    2    0    0  0.00000000000E+00  0.00000000000E+00 -0.15012695264E+04  0.16560186851E+04  0.69899048233E+03 0.  0.
        2    1    3    3  502    0  0.33183416288E+02  0.43715185931E+02  0.67101449012E+02  0.86687721526E+02  0.25500000920E-02 0. -1.
       -2    1    3    3    0  502 -0.33183416288E+02 -0.43715185931E+02 -0.15683709754E+04  0.15693309635E+04  0.25500000920E-02 0.  1.
</event>
<event>
 5   0  0.6131198E-02  0.7307483E+03  0.7818609E-02  0.9666047E-01
        2   -1    0    0  501    0  0.00000000000E+00  0.00000000000E+00  0.16495779762E+04  0.16495779762E+04  0.25500000920E-02 0. -1.
       -2   -1    0    0    0  501  0.00000000000E+00  0.00000000000E+00 -0.80928744955E+02  0.80928744995E+02  0.25500000920E-02 0.  1.
    10030    2    1    2    0    0  0.00000000000E+00  0.00000000000E+00  0.15686492313E+04  0.17305067212E+04  0.73074831607E+03 0.  0.
        1    1    3    3  502    0 -0.13915628777E+03  0.25440738345E+03  0.13107246508E+04  0.13424182282E+04  0.50400001928E-02 0. -1.
       -1    1    3    3    0  502  0.13915628777E+03 -0.25440738345E+03  0.25792458048E+03  0.38808849302E+03  0.50400001928E-02 0.  1.
</event>
<event>
 5   0  0.2439375E-02  0.6926786E+03  0.7818609E-02  0.9729835E-01
       -3   -1    0    0    0  501  0.00000000000E+00  0.00000000000E+00  0.13667507165E+03  0.13667510897E+03  0.10100000352E+00 0. -1.
        3   -1    0    0  501    0  0.00000000000E+00  0.00000000000E+00 -0.87763556794E+03  0.87763557375E+03  0.10100000352E+00 0.  1.
    10030    2    1    2    0    0  0.00000000000E+00  0.00000000000E+00 -0.74096049629E+03  0.10143106827E+04  0.69267864411E+03 0.  0.
        2    1    3    3  502    0 -0.85261381424E+02 -0.70670446564E+02  0.11005036886E+03  0.15612462609E+03  0.25500000920E-02 0. -1.
       -2    1    3    3    0  502  0.85261381424E+02  0.70670446564E+02 -0.85101086515E+03  0.85818605662E+03  0.25500000920E-02 0.  1.
</event>
<event>
 5   0  0.3439015E-02  0.7012808E+03  0.7818609E-02  0.9715044E-01
       -1   -1    0    0    0  501  0.00000000000E+00  0.00000000000E+00  0.24108781955E+03  0.24108781961E+03  0.50400001928E-02 0.  1.
        1   -1    0    0  501    0  0.00000000000E+00  0.00000000000E+00 -0.50997467843E+03  0.50997467846E+03  0.50400001928E-02 0. -1.
    10030    2    1    2    0    0  0.00000000000E+00  0.00000000000E+00 -0.26888685888E+03  0.75106249806E+03  0.70128078052E+03 0.  0.
        1    1    3    3  502    0 -0.31354508105E+03  0.44395830640E+02 -0.29568716298E+03  0.43325789779E+03  0.50400001928E-02 0.  1.
       -1    1    3    3    0  502  0.31354508105E+03 -0.44395830640E+02  0.26800304096E+02  0.31780460027E+03  0.50400001928E-02 0. -1.
</event>
<event>
 5   0  0.5899787E-02  0.6898175E+03  0.7818609E-02  0.9734806E-01
       -2   -1    0    0    0  501  0.00000000000E+00  0.00000000000E+00  0.27090198264E+03  0.27090198265E+03  0.25500000920E-02 0. -1.
        2   -1    0    0  501    0  0.00000000000E+00  0.00000000000E+00 -0.43913317986E+03  0.43913317987E+03  0.25500000920E-02 0.  1.
    10030    2    1    2    0    0  0.00000000000E+00  0.00000000000E+00 -0.16823119722E+03  0.71003516251E+03  0.68981750941E+03 0.  0.
        2    1    3    3  502    0 -0.15748554325E+03 -0.17071257123E+03 -0.34657432210E+03  0.41720287518E+03  0.25500000920E-02 0.  1.
       -2    1    3    3    0  502  0.15748554325E+03  0.17071257123E+03  0.17834312488E+03  0.29283228734E+03  0.25500000920E-02 0. -1.
</event>
<event>
 5   0  0.3439015E-02  0.7121126E+03  0.7818609E-02  0.9696739E-01
        1   -1    0    0  501    0  0.00000000000E+00  0.00000000000E+00  0.88844604573E+03  0.88844604575E+03  0.50400001928E-02 0. -1.
       -1   -1    0    0    0  501  0.00000000000E+00  0.00000000000E+00 -0.14269417713E+03  0.14269417722E+03  0.50400001928E-02 0.  1.
    10030    2    1    2    0    0  0.00000000000E+00  0.00000000000E+00  0.74575186860E+03  0.10311402230E+04  0.71211256827E+03 0.  0.
        1    1    3    3  502    0  0.18470967702E+03  0.30276168081E+03  0.32722879007E+03  0.48255671296E+03  0.50400001928E-02 0.  1.
       -1    1    3    3    0  502 -0.18470967702E+03 -0.30276168081E+03  0.41852307853E+03  0.54858351000E+03  0.50400001928E-02 0. -1.
</event>
<event>
 5   0  0.6131198E-02  0.6202044E+03  0.7818609E-02  0.9864353E-01
       -2   -1    0    0    0  501  0.00000000000E+00  0.00000000000E+00  0.54998292974E+02  0.54998293033E+02  0.25500000920E-02 0. -1.
        2   -1    0    0  501    0  0.00000000000E+00  0.00000000000E+00 -0.17484790141E+04  0.17484790141E+04  0.25500000920E-02 0.  1.
    10030    2    1    2    0    0  0.00000000000E+00  0.00000000000E+00 -0.16934807211E+04  0.18034773072E+04  0.62020435707E+03 0.  0.
        1    1    3    3  502    0 -0.80792906437E+01 -0.28373611026E+03 -0.48364101035E+03  0.56078523707E+03  0.50400001928E-02 0. -1.
       -1    1    3    3    0  502  0.80792906437E+01  0.28373611026E+03 -0.12098397108E+04  0.12426920701E+04  0.50400001928E-02 0.  1.
</event>
<event>
 5   0  0.3717372E-02  0.7122266E+03  0.7818609E-02  0.9696548E-01
       -1   -1    0    0    0  501  0.00000000000E+00  0.00000000000E+00  0.10994278415E+03  0.10994278427E+03  0.50400001928E-02 0.  1.
        1   -1    0    0  501    0  0.00000000000E+00  0.00000000000E+00 -0.11534790493E+04  0.11534790493E+04  0.50400001928E-02 0. -1.
    10030    2    1    2    0    0  0.00000000000E+00  0.00000000000E+00 -0.10435362652E+04  0.12634218336E+04  0.71222664432E+03 0.  0.
        3    1    3    3  502    0 -0.12008223483E+03  0.33140922290E+03 -0.43192952769E+03  0.55750779657E+03  0.10100000352E+00 0.  1.
       -3    1    3    3    0  502  0.12008223483E+03 -0.33140922290E+03 -0.61160673749E+03  0.70591403703E+03  0.10100000352E+00 0. -1.
</event>
<event>
 5   0  0.5987810E-02  0.7091899E+03  0.7818609E-02  0.9701644E-01
        2   -1    0    0  501    0  0.00000000000E+00  0.00000000000E+00  0.58557359964E+03  0.58557359964E+03  0.25500000920E-02 0. -1.
       -2   -1    0    0    0  501  0.00000000000E+00  0.00000000000E+00 -0.21472550382E+03  0.21472550384E+03  0.25500000920E-02 0.  1.
    10030    2    1    2    0    0  0.00000000000E+00  0.00000000000E+00  0.37084809582E+03  0.80029910348E+03  0.70918992157E+03 0.  0.
        5    1    3    3  502    0  0.18863332086E+03 -0.22271103079E+03  0.41261596762E+03  0.50542730407E+03  0.46999998093E+01 0. -1.
       -5    1    3    3    0  502 -0.18863332086E+03  0.22271103079E+03 -0.41767871798E+02  0.29487179941E+03  0.46999998093E+01 0.  1.
</event>
<event>
 5   0  0.6131198E-02  0.7153253E+03  0.7818609E-02  0.9691377E-01
        2   -1    0    0  501    0  0.00000000000E+00  0.00000000000E+00  0.92389985020E+03  0.92389985020E+03  0.25500000920E-02 0. -1.
       -2   -1    0    0    0  501  0.00000000000E+00  0.00000000000E+00 -0.13845935188E+03  0.13845935190E+03  0.25500000920E-02 0.  1.
    10030    2    1    2    0    0  0.00000000000E+00  0.00000000000E+00  0.78544049832E+03  0.10623592021E+04  0.71532530914E+03 0.  0.
        1    1    3    3  502    0 -0.20331188088E+02 -0.23837531100E+03  0.78757358546E+03  0.82310892271E+03  0.50400001928E-02 0. -1.
       -1    1    3    3    0  502  0.20331188088E+02  0.23837531100E+03 -0.21330871344E+01  0.23925027940E+03  0.50400001928E-02 0.  1.
</event>
<event>
 5   0  0.3755872E-02  0.6994129E+03  0.7818609E-02  0.9718237E-01
       -1   -1    0    0    0  501  0.00000000000E+00  0.00000000000E+00  0.16150041775E+03  0.16150041783E+03  0.50400001928E-02 0. -1.
        1   -1    0    0  501    0  0.00000000000E+00  0.00000000000E+00 -0.75724009176E+03  0.75724009178E+03  0.50400001928E-02 0.  1.
    10030    2    1    2    0    0  0.00000000000E+00  0.00000000000E+00 -0.59573967402E+03  0.91874050961E+03  0.69941287148E+03 0.  0.
        2    1    3    3  502    0  0.13684864235E+03  0.12879978315E+03  0.89533266505E+02  0.20816613766E+03  0.25500000920E-02 0. -1.
       -2    1    3    3    0  502 -0.13684864235E+03 -0.12879978315E+03 -0.68527294052E+03  0.71057437195E+03  0.25500000920E-02 0.  1.
</event>
<event>
 5   0  0.5899787E-02  0.7161271E+03  0.7818609E-02  0.9690043E-01
       -2   -1    0    0    0  501  0.00000000000E+00  0.00000000000E+00  0.79296031741E+02  0.79296031782E+02  0.25500000920E-02 0. -1.
        2   -1    0    0  501    0  0.00000000000E+00  0.00000000000E+00 -0.16168464941E+04  0.16168464941E+04  0.25500000920E-02 0.  1.
    10030    2    1    2    0    0  0.00000000000E+00  0.00000000000E+00 -0.15375504624E+04  0.16961425259E+04  0.71612711428E+03 0.  0.
        2    1    3    3  502    0 -0.24544983879E+03 -0.22578049767E+03 -0.10774714181E+04  0.11279038582E+04  0.25500000920E-02 0.  1.
       -2    1    3    3    0  502  0.24544983879E+03  0.22578049767E+03 -0.46007904426E+03  0.56823866770E+03  0.25500000920E-02 0. -1.
</event>
<event>
 5   0  0.6131198E-02  0.6954114E+03  0.7818609E-02  0.9725112E-01
       -2   -1    0    0    0  501  0.00000000000E+00  0.00000000000E+00  0.10786742224E+04  0.10786742224E+04  0.25500000920E-02 0. -1.
        2   -1    0    0  501    0  0.00000000000E+00  0.00000000000E+00 -0.11208135286E+03  0.11208135289E+03  0.25500000920E-02 0.  1.
    10030    2    1    2    0    0  0.00000000000E+00  0.00000000000E+00  0.96659286953E+03  0.11907555753E+04  0.69541143553E+03 0.  0.
        1    1    3    3  502    0 -0.25908441358E+03  0.10393534864E+03  0.83825156561E+03  0.88351173016E+03  0.50400001928E-02 0.  1.
       -1    1    3    3    0  502  0.25908441358E+03 -0.10393534864E+03  0.12834130392E+03  0.30724384514E+03  0.50400001928E-02 0. -1.
</event>
<event>
 5   0  0.3755872E-02  0.7430973E+03  0.7818609E-02  0.9646242E-01
       -1   -1    0    0    0  501  0.00000000000E+00  0.00000000000E+00  0.19644674599E+03  0.19644674605E+03  0.50400001928E-02 0.  1.
        1   -1    0    0  501    0  0.00000000000E+00  0.00000000000E+00 -0.70272677574E+03  0.70272677576E+03  0.50400001928E-02 0. -1.
    10030    2    1    2    0    0  0.00000000000E+00  0.00000000000E+00 -0.50628002975E+03  0.89917352181E+03  0.74309727075E+03 0.  0.
        2    1    3    3  502    0 -0.68688450667E+02  0.36712764958E+02 -0.69273825961E+03  0.69710273755E+03  0.25500000920E-02 0. -1.
       -2    1    3    3    0  502  0.68688450667E+02 -0.36712764958E+02  0.18645822986E+03  0.20207078426E+03  0.25500000920E-02 0.  1.
</event>
<event>
 5   0  0.3749730E-02  0.6886878E+03  0.7818609E-02  0.9736776E-01
       -1   -1    0    0    0  501  0.00000000000E+00  0.00000000000E+00  0.66176906872E+02  0.66176907064E+02  0.50400001928E-02 0.  1.
        1   -1    0    0  501    0  0.00000000000E+00  0.00000000000E+00 -0.17917537607E+04  0.17917537607E+04  0.50400001928E-02 0. -1.
    10030    2    1    2    0    0  0.00000000000E+00  0.00000000000E+00 -0.17255768539E+04  0.18579306678E+04  0.68868780140E+03 0.  0.
        4    1    3    3  502    0 -0.15919263798E+03  0.20302598565E+03 -0.24754432432E+03  0.35754951019E+03  0.12699999809E+01 0.  1.
       -4    1    3    3    0  502  0.15919263798E+03 -0.20302598565E+03 -0.14780325296E+04  0.15003811576E+04  0.12699999809E+01 0. -1.
</event>
<event>
 5   0  0.5987810E-02  0.6956788E+03  0.7818609E-02  0.9724651E-01
        2   -1    0    0  501    0  0.00000000000E+00  0.00000000000E+00  0.43371869675E+03  0.43371869675E+03  0.25500000920E-02 0.  1.
       -2   -1    0    0    0  501  0.00000000000E+00  0.00000000000E+00 -0.27896476675E+03  0.27896476676E+03  0.25500000920E-02 0. -1.
    10030    2    1    2    0    0  0.00000000000E+00  0.00000000000E+00  0.15475393000E+03  0.71268346351E+03  0.69567876230E+03 0.  0.
        5    1    3    3  502    0 -0.53368291777E+01  0.29090782789E+03 -0.11784414110E+03  0.31395091601E+03  0.46999998093E+01 0. -1.
       -5    1    3    3    0  502  0.53368291777E+01 -0.29090782789E+03  0.27259807110E+03  0.39873254750E+03  0.46999998093E+01 0.  1.
</event>
<event>
 5   0  0.3717372E-02  0.7065418E+03  0.7818609E-02  0.9706110E-01
       -1   -1    0    0    0  501  0.00000000000E+00  0.00000000000E+00  0.24166372207E+03  0.24166372212E+03  0.50400001928E-02 0.  1.
        1   -1    0    0  501    0  0.00000000000E+00  0.00000000000E+00 -0.51642145542E+03  0.51642145545E+03  0.50400001928E-02 0. -1.
    10030    2    1    2    0    0  0.00000000000E+00  0.00000000000E+00 -0.27475773335E+03  0.75808517757E+03  0.70654180656E+03 0.  0.
        3    1    3    3  502    0 -0.31763032203E+03  0.85607961441E+02 -0.27554644438E+03  0.42911956113E+03  0.10100000352E+00 0. -1.
       -3    1    3    3    0  502  0.31763032203E+03 -0.85607961441E+02  0.78871102816E+00  0.32896561644E+03  0.10100000352E+00 0.  1.
</event>
<event>
 5   0  0.3439015E-02  0.6933143E+03  0.7818609E-02  0.9728734E-01
        1   -1    0    0  501    0  0.00000000000E+00  0.00000000000E+00  0.74982073690E+03  0.74982073692E+03  0.50400001928E-02 0. -1.
       -1   -1    0    0    0  501  0.00000000000E+00  0.00000000000E+00 -0.16026656285E+03  0.16026656293E+03  0.50400001928E-02 0.  1.
    10030    2    1    2    0    0  0.00000000000E+00  0.00000000000E+00  0.58955417405E+03  0.91008729985E+03  0.69331433651E+03 0.  0.
        1    1    3    3  502    0 -0.14075077197E+03  0.10217636575E+03 -0.98847297755E+02  0.20005393730E+03  0.50400001928E-02 0.  1.
       -1    1    3    3    0  502  0.14075077197E+03 -0.10217636575E+03  0.68840147181E+03  0.71003336255E+03  0.50400001928E-02 0. -1.
</event>
<event>
 5   0  0.6248886E-02  0.7801118E+03  0.7818609E-02  0.9589259E-01
       -2   -1    0    0    0  501  0.00000000000E+00  0.00000000000E+00  0.47475416734E+03  0.47475416735E+03  0.25500000920E-02 0. -1.
        2   -1    0    0  501    0  0.00000000000E+00  0.00000000000E+00 -0.32046815317E+03  0.32046815318E+03  0.25500000920E-02 0.  1.
    10030    2    1    2    0    0  0.00000000000E+00  0.00000000000E+00  0.15428601417E+03  0.79522232052E+03  0.78011176436E+03 0.  0.
        3    1    3    3  502    0 -0.10197270987E+03 -0.12551513352E+03  0.43897058568E+03  0.46781157275E+03  0.10100000352E+00 0. -1.
       -3    1    3    3    0  502  0.10197270987E+03  0.12551513352E+03 -0.28468457151E+03  0.32741074777E+03  0.10100000352E+00 0.  1.
</event>
<event>
 5   0  0.5987810E-02  0.6887041E+03  0.7818609E-02  0.9736747E-01
        2   -1    0    0  501    0  0.00000000000E+00  0.00000000000E+00  0.52772103007E+03  0.52772103007E+03  0.25500000920E-02 0.  1.
       -2   -1    0    0    0  501  0.00000000000E+00  0.00000000000E+00 -0.22469889510E+03  0.22469889512E+03  0.25500000920E-02 0. -1.
    10030    2    1    2    0    0  0.00000000000E+00  0.00000000000E+00  0.30302213496E+03  0.75241992519E+03  0.68870409433E+03 0.  0.
        5    1    3    3  502    0 -0.26365760413E+03 -0.20705968616E+02  0.39239073357E+03  0.47321944925E+03  0.46999998093E+01 0.  1.
       -5    1    3    3    0  502  0.26365760413E+03  0.20705968616E+02 -0.89368598607E+02  0.27920047595E+03  0.46999998093E+01 0. -1.
</event>
<event>
 5   0  0.3601475E-02  0.6497915E+03  0.7818609E-02  0.9807171E-01
       -1   -1    0    0    0  501  0.00000000000E+00  0.00000000000E+00  0.83113168827E+02  0.83113168980E+02  0.50400001928E-02 0. -1.
        1   -1    0    0  501    0  0.00000000000E+00  0.00000000000E+00 -0.12700422968E+04  0.12700422968E+04  0.50400001928E-02 0.  1.
    10030    2    1    2    0    0  0.00000000000E+00  0.00000000000E+00 -0.11869291280E+04  0.13531554658E+04  0.64979147406E+03 0.  0.
        5    1    3    3  502    0  0.27056332075E+03 -0.15811811351E+03 -0.77174553209E+03  0.83295804495E+03  0.46999998093E+01 0. -1.
       -5    1    3    3    0  502 -0.27056332075E+03  0.15811811351E+03 -0.41518359588E+03  0.52019742083E+03  0.46999998093E+01 0.  1.
</event>
<event>
 5   0  0.3755872E-02  0.7016393E+03  0.7818609E-02  0.9714433E-01
       -1   -1    0    0    0  501  0.00000000000E+00  0.00000000000E+00  0.61746512182E+02  0.61746512388E+02  0.50400001928E-02 0.  1.
        1   -1    0    0  501    0  0.00000000000E+00  0.00000000000E+00 -0.19932207129E+04  0.19932207130E+04  0.50400001928E-02 0. -1.
    10030    2    1    2    0    0  0.00000000000E+00  0.00000000000E+00 -0.19314742008E+04  0.20549672253E+04  0.70163930121E+03 0.  0.
        2    1    3    3  502    0  0.63123241417E+02 -0.28822757052E+02  0.41445782817E+02  0.80827271702E+02  0.25500000920E-02 0.  1.
       -2    1    3    3    0  502 -0.63123241417E+02  0.28822757052E+02 -0.19729199836E+04  0.19741399536E+04  0.25500000920E-02 0. -1.
</event>
<event>
 5   0  0.6167756E-02  0.6926074E+03  0.7818609E-02  0.9729959E-01
       -2   -1    0    0    0  501  0.00000000000E+00  0.00000000000E+00  0.90978784494E+02  0.90978784530E+02  0.25500000920E-02 0. -1.
        2   -1    0    0  501    0  0.00000000000E+00  0.00000000000E+00 -0.13181781689E+04  0.13181781689E+04  0.25500000920E-02 0.  1.
    10030    2    1    2    0    0  0.00000000000E+00  0.00000000000E+00 -0.12271993844E+04  0.14091569534E+04  0.69260738540E+03 0.  0.
        4    1    3    3  502    0  0.29542679136E+03 -0.25982029531E+02 -0.97739834758E+03  0.10214015849E+04  0.12699999809E+01 0.  1.
       -4    1    3    3    0  502 -0.29542679136E+03  0.25982029531E+02 -0.24980103681E+03  0.38775536850E+03  0.12699999809E+01 0. -1.
</event>
<event>
 5   0  0.5987810E-02  0.7041888E+03  0.7818609E-02  0.9710095E-01
       -2   -1    0    0    0  501  0.00000000000E+00  0.00000000000E+00  0.13339770573E+03  0.13339770575E+03  0.25500000920E-02 0. -1.
        2   -1    0    0  501    0  0.00000000000E+00  0.00000000000E+00 -0.92932995135E+03  0.92932995135E+03  0.25500000920E-02 0.  1.
    10030    2    1    2    0    0  0.00000000000E+00  0.00000000000E+00 -0.79593224562E+03  0.10627276571E+04  0.70418884794E+03 0.  0.
        5    1    3    3  502    0 -0.35004782876E+03  0.37109035840E+02 -0.38868386839E+03  0.52441186344E+03  0.46999998093E+01 0. -1.
       -5    1    3    3    0  502  0.35004782876E+03 -0.37109035840E+02 -0.40724837723E+03  0.53831579367E+03  0.46999998093E+01 0.  1.
</event>
<event>
 5   0  0.3749730E-02  0.6671289E+03  0.7818609E-02  0.9775158E-01
        1   -1    0    0  501    0  0.00000000000E+00  0.00000000000E+00  0.25388438934E+03  0.25388438939E+03  0.50400001928E-02 0. -1.
       -1   -1    0    0    0  501  0.00000000000E+00  0.00000000000E+00 -0.43825166677E+03  0.43825166680E+03  0.50400001928E-02 0.  1.
    10030    2    1    2    0    0  0.00000000000E+00  0.00000000000E+00 -0.18436727744E+03  0.69213605619E+03  0.66712894352E+03 0.  0.
        4    1    3    3  502    0  0.14473948618E+03  0.18335590772E+03 -0.33921555101E+03  0.41187098793E+03  0.12699999809E+01 0.  1.
       -4    1    3    3    0  502 -0.14473948618E+03 -0.18335590772E+03  0.15484827357E+03  0.28026506825E+03  0.12699999809E+01 0. -1.
</event>
<event>
 5   0  0.5899787E-02  0.7816685E+03  0.7818609E-02  0.9586937E-01
        2   -1    0    0  501    0  0.00000000000E+00  0.00000000000E+00  0.82834787815E+03  0.82834787815E+03  0.25500000920E-02 0.  1.
       -2   -1    0    0    0  501  0.00000000000E+00  0.00000000000E+00 -0.18440488692E+03  0.18440488694E+03  0.25500000920E-02 0. -1.
    10030    2    1    2    0    0  0.00000000000E+00  0.00000000000E+00  0.64394299122E+03  0.10127527651E+04  0.78166846377E+03 0.  0.
        2    1    3    3  502    0 -0.58464983617E+02  0.22452462228E+03 -0.85528071325E+02  0.24727416224E+03  0.25500000920E-02 0. -1.
       -2    1    3    3    0  502  0.58464983617E+02 -0.22452462228E+03  0.72947106255E+03  0.76547860285E+03  0.25500000920E-02 0.  1.
</event>
<event>
 5   0  0.2439375E-02  0.6873833E+03  0.7818609E-02  0.9739055E-01
        3   -1    0    0  501    0  0.00000000000E+00  0.00000000000E+00  0.56494005615E+03  0.56494006518E+03  0.10100000352E+00 0.  1.
       -3   -1    0    0    0  501  0.00000000000E+00  0.00000000000E+00 -0.20909112726E+03  0.20909115165E+03  0.10100000352E+00 0. -1.
    10030    2    1    2    0    0  0.00000000000E+00  0.00000000000E+00  0.35584892890E+03  0.77403121683E+03  0.68738334605E+03 0.  0.
        1    1    3    3  502    0  0.34855797613E+02 -0.33599145288E+03  0.24930942951E+03  0.41983374650E+03  0.50400001928E-02 0. -1.
       -1    1    3    3    0  502 -0.34855797613E+02  0.33599145288E+03  0.10653949938E+03  0.35419747033E+03  0.50400001928E-02 0.  1.
</event>
<event>
 5   0  0.3755872E-02  0.7079011E+03  0.7818609E-02  0.9703815E-01
        1   -1    0    0  501    0  0.00000000000E+00  0.00000000000E+00  0.45268168607E+03  0.45268168610E+03  0.50400001928E-02 0.  1.
       -1   -1    0    0    0  501  0.00000000000E+00  0.00000000000E+00 -0.27675298325E+03  0.27675298330E+03  0.50400001928E-02 0. -1.
    10030    2    1    2    0    0  0.00000000000E+00  0.00000000000E+00  0.17592870282E+03  0.72943466940E+03  0.70790114313E+03 0.  0.
        2    1    3    3  502    0  0.28141858434E+03 -0.85782066429E+02 -0.11481103882E+03  0.31581095163E+03  0.25500000920E-02 0. -1.
       -2    1    3    3    0  502 -0.28141858434E+03  0.85782066429E+02  0.29073974163E+03  0.41362371777E+03  0.25500000920E-02 0.  1.
</event>
<event>
 5   0  0.6131198E-02  0.6999824E+03  0.7818609E-02  0.9717262E-01
       -2   -1    0    0    0  501  0.00000000000E+00  0.00000000000E+00  0.16283081295E+03  0.16283081297E+03  0.25500000920E-02 0.  1.
        2   -1    0    0  501    0  0.00000000000E+00  0.00000000000E+00 -0.75227685814E+03  0.75227685814E+03  0.25500000920E-02 0. -1.
    10030    2    1    2    0    0  0.00000000000E+00  0.00000000000E+00 -0.58944604519E+03  0.91510767110E+03  0.69998243515E+03 0.  0.
        1    1    3    3  502    0  0.29419720612E+03 -0.85131030165E+02 -0.51617770559E+03  0.60019889384E+03  0.50400001928E-02 0. -1.
       -1    1    3    3    0  502 -0.29419720612E+03  0.85131030165E+02 -0.73268339595E+02  0.31490877727E+03  0.50400001928E-02 0.  1.
</event>
<event>
 5   0  0.3439015E-02  0.7396955E+03  0.7818609E-02  0.9651657E-01
        1   -1    0    0  501    0  0.00000000000E+00  0.00000000000E+00  0.61214131411E+03  0.61214131413E+03  0.50400001928E-02 0.  1.
       -1   -1    0    0    0  501  0.00000000000E+00  0.00000000000E+00 -0.22345713837E+03  0.22345713843E+03  0.50400001928E-02 0. -1.
    10030    2    1    2    0    0  0.00000000000E+00  0.00000000000E+00  0.38868417574E+03  0.83559845256E+03  0.73969546805E+03 0.  0.
        1    1    3    3  502    0 -0.17748129920E+03  0.28863350021E+03  0.36181442248E+03  0.49570009617E+03  0.50400001928E-02 0.  1.
       -1    1    3    3    0  502  0.17748129920E+03 -0.28863350021E+03  0.26869753263E+02  0.33989835639E+03  0.50400001928E-02 0. -1.
</event>
<event>
 5   0  0.3717372E-02  0.6768376E+03  0.7818609E-02  0.9757684E-01
        1   -1    0    0  501    0  0.00000000000E+00  0.00000000000E+00  0.15521030239E+04  0.15521030239E+04  0.50400001928E-02 0. -1.
       -1   -1    0    0    0  501  0.00000000000E+00  0.00000000000E+00 -0.73788459472E+02  0.73788459644E+02  0.50400001928E-02 0.  1.
    10030    2    1    2    0    0  0.00000000000E+00  0.00000000000E+00  0.14783145645E+04  0.16258914836E+04  0.67683762078E+03 0.  0.
        3    1    3    3  502    0  0.13319552317E+03 -0.68133827581E+02  0.14683471617E+04  0.14759494109E+04  0.10100000352E+00 0. -1.
       -3    1    3    3    0  502 -0.13319552317E+03  0.68133827581E+02  0.99674027212E+01  0.14994207272E+03  0.10100000352E+00 0.  1.
</event>
<event>
 5   0  0.6167756E-02  0.7317466E+03  0.7818609E-02  0.9664430E-01
       -2   -1    0    0    0  501  0.00000000000E+00  0.00000000000E+00  0.13108051013E+03  0.13108051016E+03  0.25500000920E-02 0.  1.
        2   -1    0    0  501    0  0.00000000000E+00  0.00000000000E+00 -0.10212293730E+04  0.10212293730E+04  0.25500000920E-02 0. -1.
    10030    2    1    2    0    0  0.00000000000E+00  0.00000000000E+00 -0.89014886290E+03  0.11523098832E+04  0.73174658782E+03 0.  0.
        4    1    3    3  502    0 -0.35336133562E+03 -0.31514767309E+02 -0.30418817219E+03  0.46732159277E+03  0.12699999809E+01 0.  1.
       -4    1    3    3    0  502  0.35336133562E+03  0.31514767309E+02 -0.58596069070E+03  0.68498829042E+03  0.12699999809E+01 0. -1.
</event>
<event>
 5   0  0.6131198E-02  0.6966422E+03  0.7818609E-02  0.9722992E-01
        2   -1    0    0  501    0  0.00000000000E+00  0.00000000000E+00  0.11473866276E+04  0.11473866276E+04  0.25500000920E-02 0.  1.
       -2   -1    0    0    0  501  0.00000000000E+00  0.00000000000E+00 -0.10574254802E+03  0.10574254805E+03  0.25500000920E-02 0. -1.
    10030    2    1    2    0    0  0.00000000000E+00  0.00000000000E+00  0.10416440796E+04  0.12531291756E+04  0.69664219106E+03 0.  0.
        1    1    3    3  502    0 -0.32332133275E+03 -0.12069560964E+03  0.60564273335E+03  0.69707046623E+03  0.50400001928E-02 0.  1.
       -1    1    3    3    0  502  0.32332133275E+03  0.12069560964E+03  0.43600134621E+03  0.55605870942E+03  0.50400001928E-02 0. -1.
</event>
<event>
 5   0  0.2439375E-02  0.6945179E+03  0.7818609E-02  0.9726654E-01
        4   -1    0    0  501    0  0.00000000000E+00  0.00000000000E+00  0.19578122622E+03  0.19578534531E+03  0.12699999809E+01 0. -1.
       -4   -1    0    0    0  501  0.00000000000E+00  0.00000000000E+00 -0.61592510981E+03  0.61592641914E+03  0.12699999809E+01 0.  1.
    10030    2    1    2    0    0  0.00000000000E+00  0.00000000000E+00 -0.42014388359E+03  0.81171176445E+03  0.69451789439E+03 0.  0.
        2    1    3    3  502    0 -0.32407911576E+03 -0.59635219816E+02 -0.33812857568E+03  0.47213829162E+03  0.25500000920E-02 0.  1.
       -2    1    3    3    0  502  0.32407911576E+03  0.59635219816E+02 -0.82015307906E+02  0.33957347283E+03  0.25500000920E-02 0. -1.
</event>
<event>
 5   0  0.3749730E-02  0.6864531E+03  0.7818609E-02  0.9740684E-01
       -1   -1    0    0    0  501  0.00000000000E+00  0.00000000000E+00  0.15199151068E+03  0.15199151076E+03  0.50400001928E-02 0.  1.
        1   -1    0    0  501    0  0.00000000000E+00  0.00000000000E+00 -0.77507270690E+03  0.77507270692E+03  0.50400001928E-02 0. -1.
    10030    2    1    2    0    0  0.00000000000E+00  0.00000000000E+00 -0.62308119622E+03  0.92706421768E+03  0.68645312047E+03 0.  0.
        4    1    3    3  502    0 -0.25972408313E+03 -0.18939505839E+03 -0.47402803609E+03  0.57274014998E+03  0.12699999809E+01 0. -1.
       -4    1    3    3    0  502  0.25972408313E+03  0.18939505839E+03 -0.14905316013E+03  0.35432406769E+03  0.12699999809E+01 0.  1.
</event>
<event>
 5   0  0.3601475E-02  0.7007931E+03  0.7818609E-02  0.9715877E-01
       -1   -1    0    0    0  501  0.00000000000E+00  0.00000000000E+00  0.38159430754E+03  0.38159430757E+03  0.50400001928E-02 0.  1.
        1   -1    0    0  501    0  0.00000000000E+00  0.00000000000E+00 -0.32174937503E+03  0.32174937507E+03  0.50400001928E-02 0. -1.
    10030    2    1    2    0    0  0.00000000000E+00  0.00000000000E+00  0.59844932513E+02  0.70334368264E+03  0.70079306501E+03 0.  0.
        5    1    3    3  502    0 -0.25232449567E+03  0.22348525971E+03  0.12588598953E+03  0.35983702531E+03  0.46999998093E+01 0.  1.
       -5    1    3    3    0  502  0.25232449567E+03 -0.22348525971E+03 -0.66041057013E+02  0.34350665733E+03  0.46999998093E+01 0. -1.
</event>
<event>
 5   0  0.5899787E-02  0.7021363E+03  0.7818609E-02  0.9713586E-01
        2   -1    0    0  501    0  0.00000000000E+00  0.00000000000E+00  0.78446040531E+03  0.78446040531E+03  0.25500000920E-02 0.  1.
       -2   -1    0    0    0  501  0.00000000000E+00  0.00000000000E+00 -0.15711291308E+03  0.15711291310E+03  0.25500000920E-02 0. -1.
    10030    2    1    2    0    0  0.00000000000E+00  0.00000000000E+00  0.62734749223E+03  0.94157331841E+03  0.70213633857E+03 0.  0.
        2    1    3    3  502    0  0.20631761673E+03 -0.16707703626E+03  0.62171903530E+03  0.67602977292E+03  0.25500000920E-02 0.  1.
       -2    1    3    3    0  502 -0.20631761673E+03  0.16707703626E+03  0.56284569352E+01  0.26554354549E+03  0.25500000920E-02 0. -1.
</event>
<event>
 5   0  0.3749730E-02  0.5910734E+03  0.7818609E-02  0.9924101E-01
        1   -1    0    0  501    0  0.00000000000E+00  0.00000000000E+00  0.74515724093E+03  0.74515724094E+03  0.50400001928E-02 0.  1.
       -1   -1    0    0    0  501  0.00000000000E+00  0.00000000000E+00 -0.11721276788E+03  0.11721276798E+03  0.50400001928E-02 0. -1.
    10030    2    1    2    0    0  0.00000000000E+00  0.00000000000E+00  0.62794447305E+03  0.86237000893E+03  0.59107340581E+03 0.  0.
        4    1    3    3  502    0  0.12831310537E+03  0.25995282611E+03  0.39779249675E+03  0.49221967473E+03  0.12699999809E+01 0. -1.
       -4    1    3    3    0  502 -0.12831310537E+03 -0.25995282611E+03  0.23015197630E+03  0.37015033420E+03  0.12699999809E+01 0.  1.
</event>
<event>
 5   0  0.5987810E-02  0.6895508E+03  0.7818609E-02  0.9735270E-01
        2   -1    0    0  501    0  0.00000000000E+00  0.00000000000E+00  0.23345728360E+03  0.23345728361E+03  0.25500000920E-02 0. -1.
       -2   -1    0    0    0  501  0.00000000000E+00  0.00000000000E+00 -0.50917266843E+03  0.50917266844E+03  0.25500000920E-02 0.  1.
    10030    2    1    2    0    0  0.00000000000E+00  0.00000000000E+00 -0.27571538483E+03  0.74262995205E+03  0.68955077568E+03 0.  0.
        5    1    3    3  502    0 -0.15645056617E+03  0.25698202434E+03 -0.31913377855E+03  0.43861714410E+03  0.46999998093E+01 0. -1.
       -5    1    3    3    0  502  0.15645056617E+03 -0.25698202434E+03  0.43418393716E+02  0.30401280795E+03  0.46999998093E+01 0.  1.
</event>
<event>
 5   0  0.3601475E-02  0.6949827E+03  0.7818609E-02  0.9725851E-01
        1   -1    0    0  501    0  0.00000000000E+00  0.00000000000E+00  0.11462782186E+04  0.11462782186E+04  0.50400001928E-02 0. -1.
       -1   -1    0    0    0  501  0.00000000000E+00  0.00000000000E+00 -0.10534112147E+03  0.10534112159E+03  0.50400001928E-02 0.  1.
    10030    2    1    2    0    0  0.00000000000E+00  0.00000000000E+00  0.10409370971E+04  0.12516193402E+04  0.69498268510E+03 0.  0.
        5    1    3    3  502    0 -0.10643299162E+03  0.36627868441E+02  0.11124769499E+04  0.11181666407E+04  0.46999998093E+01 0. -1.
       -5    1    3    3    0  502  0.10643299162E+03 -0.36627868441E+02 -0.71539852786E+02  0.13345269943E+03  0.46999998093E+01 0.  1.
</event>
<event>
 5   0  0.3749730E-02  0.6927217E+03  0.7818609E-02  0.9729761E-01
        1   -1    0    0  501    0  0.00000000000E+00  0.00000000000E+00  0.90275691968E+03  0.90275691970E+03  0.50400001928E-02 0.  1.
       -1   -1    0    0    0  501  0.00000000000E+00  0.00000000000E+00 -0.13288829322E+03  0.13288829332E+03  0.50400001928E-02 0. -1.
    10030    2    1    2    0    0  0.00000000000E+00  0.00000000000E+00  0.76986862646E+03  0.10356452130E+04  0.69272166505E+03 0.  0.
        4    1    3    3  502    0 -0.28575151629E+03 -0.16532756821E+03  0.54157177501E+03  0.63426235444E+03  0.12699999809E+01 0.  1.
       -4    1    3    3    0  502  0.28575151629E+03  0.16532756821E+03  0.22829685145E+03  0.40138285857E+03  0.12699999809E+01 0. -1.
</event>
<event>
 5   0  0.5899787E-02  0.7220227E+03  0.7818609E-02  0.9680294E-01
       -2   -1    0    0    0  501  0.00000000000E+00  0.00000000000E+00  0.42015822178E+03  0.42015822179E+03  0.25500000920E-02 0.  1.
        2   -1    0    0  501    0  0.00000000000E+00  0.00000000000E+00 -0.31019076305E+03  0.31019076306E+03  0.25500000920E-02 0. -1.
    10030    2    1    2    0    0  0.00000000000E+00  0.00000000000E+00  0.10996745874E+03  0.73034898485E+03  0.72202271272E+03 0.  0.
        2    1    3    3  502    0  0.49650964312E+02  0.11030759481E+03  0.39904766077E+03  0.41697963895E+03  0.25500000920E-02 0.  1.
       -2    1    3    3    0  502 -0.49650964312E+02 -0.11030759481E+03 -0.28908020203E+03  0.31336934589E+03  0.25500000920E-02 0. -1.
</event>
<event>
 5   0  0.3601475E-02  0.6932517E+03  0.7818609E-02  0.9728843E-01
        1   -1    0    0  501    0  0.00000000000E+00  0.00000000000E+00  0.16790803349E+04  0.16790803349E+04  0.50400001928E-02 0.  1.
       -1   -1    0    0    0  501  0.00000000000E+00  0.00000000000E+00 -0.71556714849E+02  0.71556715027E+02  0.50400001928E-02 0. -1.
    10030    2    1    2    0    0  0.00000000000E+00  0.00000000000E+00  0.16075236201E+04  0.17506370500E+04  0.69325167983E+03 0.  0.
        5    1    3    3  502    0  0.10253732864E+03 -0.70954209161E+02  0.16203956725E+04  0.16251931051E+04  0.46999998093E+01 0.  1.
       -5    1    3    3    0  502 -0.10253732864E+03  0.70954209161E+02 -0.12872052412E+02  0.12544394482E+03  0.46999998093E+01 0. -1.
</event>
<event>
 5   0  0.6131198E-02  0.6918015E+03  0.7818609E-02  0.9731356E-01
        2   -1    0    0  501    0  0.00000000000E+00  0.00000000000E+00  0.18524426051E+04  0.18524426051E+04  0.25500000920E-02 0.  1.
       -2   -1    0    0    0  501  0.00000000000E+00  0.00000000000E+00 -0.64588956103E+02  0.64588956153E+02  0.25500000920E-02 0. -1.
    10030    2    1    2    0    0  0.00000000000E+00  0.00000000000E+00  0.17878536490E+04  0.19170315613E+04  0.69180151533E+03 0.  0.
        1    1    3    3  502    0 -0.28890050826E+03 -0.15939447958E+03  0.11816013044E+04  0.12268055047E+04  0.50400001928E-02 0.  1.
       -1    1    3    3    0  502  0.28890050826E+03  0.15939447958E+03  0.60625234466E+03  0.69022605661E+03  0.50400001928E-02 0. -1.
</event>
<event>
 5   0  0.3439015E-02  0.7336696E+03  0.7818609E-02  0.9661324E-01
       -1   -1    0    0    0  501  0.00000000000E+00  0.00000000000E+00  0.26244524338E+03  0.26244524343E+03  0.50400001928E-02 0.  1.
        1   -1    0    0  501    0  0.00000000000E+00  0.00000000000E+00 -0.51274612022E+03  0.51274612025E+03  0.50400001928E-02 0. -1.
    10030    2    1    2    0    0  0.00000000000E+00  0.00000000000E+00 -0.25030087685E+03  0.77519136367E+03  0.73366962685E+03 0.  0.
        1    1    3    3  502    0  0.35693469412E+03 -0.41506306029E+02 -0.20309984827E+03  0.41276470016E+03  0.50400001928E-02 0. -1.
       -1    1    3    3    0  502 -0.35693469412E+03  0.41506306029E+02 -0.47201028572E+02  0.36242666352E+03  0.50400001928E-02 0.  1.
</event>
<event>
 5   0  0.3755872E-02  0.6986650E+03  0.7818609E-02  0.9719518E-01
        1   -1    0    0  501    0  0.00000000000E+00  0.00000000000E+00  0.10204282303E+04  0.10204282303E+04  0.50400001928E-02 0. -1.
       -1   -1    0    0    0  501  0.00000000000E+00  0.00000000000E+00 -0.11959016274E+03  0.11959016285E+03  0.50400001928E-02 0.  1.
    10030    2    1    2    0    0  0.00000000000E+00  0.00000000000E+00  0.90083806759E+03  0.11400183932E+04  0.69866495032E+03 0.  0.
        2    1    3    3  502    0  0.70758207533E+02  0.69934655679E+01 -0.10765800467E+03  0.12901890741E+03  0.25500000920E-02 0.  1.
       -2    1    3    3    0  502 -0.70758207533E+02 -0.69934655679E+01  0.10084960723E+04  0.10109994858E+04  0.25500000920E-02 0. -1.
</event>
<event>
 5   0  0.6167756E-02  0.7036415E+03  0.7818609E-02  0.9711025E-01
        2   -1    0    0  501    0  0.00000000000E+00  0.00000000000E+00  0.48074431753E+03  0.48074431754E+03  0.25500000920E-02 0.  1.
       -2   -1    0    0    0  501  0.00000000000E+00  0.00000000000E+00 -0.25747125421E+03  0.25747125422E+03  0.25500000920E-02 0. -1.
    10030    2    1    2    0    0  0.00000000000E+00  0.00000000000E+00  0.22327306332E+03  0.73821557176E+03  0.70364150644E+03 0.  0.
        4    1    3    3  502    0 -0.15750630878E+03  0.94102628746E+02  0.42657428360E+03  0.46436060812E+03  0.12699999809E+01 0.  1.
       -4    1    3    3    0  502  0.15750630878E+03 -0.94102628746E+02 -0.20330122029E+03  0.27385496364E+03  0.12699999809E+01 0. -1.
</event>
<event>
 5   0  0.5899787E-02  0.7025235E+03  0.7818609E-02  0.9712926E-01
        2   -1    0    0  501    0  0.00000000000E+00  0.00000000000E+00  0.44036089692E+03  0.44036089693E+03  0.25500000920E-02 0. -1.
       -2   -1    0    0    0  501  0.00000000000E+00  0.00000000000E+00 -0.28019024294E+03  0.28019024295E+03  0.25500000920E-02 0.  1.
    10030    2    1    2    0    0  0.00000000000E+00  0.00000000000E+00  0.16017065399E+03  0.72055113988E+03  0.70252352757E+03 0.  0.
        2    1    3    3  502    0 -0.13686548387E+01  0.33702841615E+03 -0.21423013193E+02  0.33771137382E+03  0.25500000920E-02 0.  1.
       -2    1    3    3    0  502  0.13686548387E+01 -0.33702841615E+03  0.18159366718E+03  0.38283976606E+03  0.25500000920E-02 0. -1.
</event>
<event>
 5   0  0.6167756E-02  0.7215194E+03  0.7818609E-02  0.9681123E-01
        2   -1    0    0  501    0  0.00000000000E+00  0.00000000000E+00  0.43851605136E+03  0.43851605137E+03  0.25500000920E-02 0. -1.
       -2   -1    0    0    0  501  0.00000000000E+00  0.00000000000E+00 -0.29679085007E+03  0.29679085008E+03  0.25500000920E-02 0.  1.
    10030    2    1    2    0    0  0.00000000000E+00  0.00000000000E+00  0.14172520129E+03  0.73530690145E+03  0.72151937371E+03 0.  0.
        4    1    3    3  502    0 -0.37196405182E+02  0.33613306523E+03  0.19886905732E+03  0.39232578931E+03  0.12699999809E+01 0. -1.
       -4    1    3    3    0  502  0.37196405182E+02 -0.33613306523E+03 -0.57143856029E+02  0.34298111214E+03  0.12699999809E+01 0.  1.
</event>
<event>
 5   0  0.2439375E-02  0.7006907E+03  0.7818609E-02  0.9716052E-01
       -4   -1    0    0    0  501  0.00000000000E+00  0.00000000000E+00  0.26231568092E+03  0.26231875525E+03  0.12699999809E+01 0. -1.
        4   -1    0    0  501    0  0.00000000000E+00  0.00000000000E+00 -0.46790993819E+03  0.46791166170E+03  0.12699999809E+01 0.  1.
    10030    2    1    2    0    0  0.00000000000E+00  0.00000000000E+00 -0.20559425727E+03  0.73023041695E+03  0.70069070439E+03 0.  0.
        5    1    3    3  502    0  0.12764822711E+02 -0.30993641234E+03  0.66841914382E+02  0.31735382762E+03  0.46999998093E+01 0. -1.
       -5    1    3    3    0  502 -0.12764822711E+02  0.30993641234E+03 -0.27243617165E+03  0.41287658933E+03  0.46999998093E+01 0.  1.
</event>
<event>
 5   0  0.6131198E-02  0.6766011E+03  0.7818609E-02  0.9758106E-01
        2   -1    0    0  501    0  0.00000000000E+00  0.00000000000E+00  0.11729321286E+04  0.11729321286E+04  0.25500000920E-02 0.  1.
       -2   -1    0    0    0  501  0.00000000000E+00  0.00000000000E+00 -0.97573640413E+02  0.97573640446E+02  0.25500000920E-02 0. -1.
    10030    2    1    2    0    0  0.00000000000E+00  0.00000000000E+00  0.10753584882E+04  0.12705057691E+04  0.67660108711E+03 0.  0.
        1    1    3    3  502    0 -0.16089233851E+03 -0.23371548436E+03  0.88360825111E+03  0.92804785096E+03  0.50400001928E-02 0. -1.
       -1    1    3    3    0  502  0.16089233851E+03  0.23371548436E+03  0.19175023709E+03  0.34245791810E+03  0.50400001928E-02 0.  1.
</event>
<event>
 5   0  0.3749730E-02  0.6982811E+03  0.7818609E-02  0.9720176E-01
       -1   -1    0    0    0  501  0.00000000000E+00  0.00000000000E+00  0.21266004215E+03  0.21266004221E+03  0.50400001928E-02 0. -1.
        1   -1    0    0  501    0  0.00000000000E+00  0.00000000000E+00 -0.57321122832E+03  0.57321122834E+03  0.50400001928E-02 0.  1.
    10030    2    1    2    0    0  0.00000000000E+00  0.00000000000E+00 -0.36055118617E+03  0.78587127056E+03  0.69828110102E+03 0.  0.
        4    1    3    3  502    0 -0.32355259369E+03 -0.96627741450E+02 -0.28014382780E+03  0.43875434864E+03  0.12699999809E+01 0. -1.
       -4    1    3    3    0  502  0.32355259369E+03  0.96627741450E+02 -0.80407358369E+02  0.34711692191E+03  0.12699999809E+01 0.  1.
</event>
<event>
 5   0  0.3755872E-02  0.6895642E+03  0.7818609E-02  0.9735247E-01
        1   -1    0    0  501    0  0.00000000000E+00  0.00000000000E+00  0.20267178987E+04  0.20267178987E+04  0.50400001928E-02 0.  1.
       -1   -1    0    0    0  501  0.00000000000E+00  0.00000000000E+00 -0.58653796366E+02  0.58653796583E+02  0.50400001928E-02 0. -1.
    10030    2    1    2    0    0  0.00000000000E+00  0.00000000000E+00  0.19680641024E+04  0.20853716953E+04  0.68956420776E+03 0.  0.
        2    1    3    3  502    0 -0.21066023085E+03 -0.70513986926E+02  0.18662795457E+03  0.29013780975E+03  0.25500000920E-02 0. -1.
       -2    1    3    3    0  502  0.21066023085E+03  0.70513986926E+02  0.17814361478E+04  0.17952338856E+04  0.25500000920E-02 0.  1.
</event>
<event>
 5   0  0.3439015E-02  0.7047673E+03  0.7818609E-02  0.9709114E-01
       -1   -1    0    0    0  501  0.00000000000E+00  0.00000000000E+00  0.54690566927E+03  0.54690566930E+03  0.50400001928E-02 0.  1.
        1   -1    0    0  501    0  0.00000000000E+00  0.00000000000E+00 -0.22704869633E+03  0.22704869639E+03  0.50400001928E-02 0. -1.
    10030    2    1    2    0    0  0.00000000000E+00  0.00000000000E+00  0.31985697294E+03  0.77395436569E+03  0.70476725025E+03 0.  0.
        1    1    3    3  502    0  0.23796810673E+03 -0.25302421917E+03  0.22512080969E+03  0.41391962298E+03  0.50400001928E-02 0.  1.
       -1    1    3    3    0  502 -0.23796810673E+03  0.25302421917E+03  0.94736163250E+02  0.36003474271E+03  0.50400001928E-02 0. -1.
</event>
<event>
 5   0  0.6131198E-02  0.6406153E+03  0.7818609E-02  0.9824550E-01
       -2   -1    0    0    0  501  0.00000000000E+00  0.00000000000E+00  0.44949953347E+02  0.44949953419E+02  0.25500000920E-02 0.  1.
        2   -1    0    0  501    0  0.00000000000E+00  0.00000000000E+00 -0.22824713007E+04  0.22824713007E+04  0.25500000920E-02 0. -1.
    10030    2    1    2    0    0  0.00000000000E+00  0.00000000000E+00 -0.22375213473E+04  0.23274212541E+04  0.64061526228E+03 0.  0.
        1    1    3    3  502    0  0.76466361029E+02  0.27656597051E+02 -0.22443484537E+04  0.22458210021E+04  0.50400001928E-02 0. -1.
       -1    1    3    3    0  502 -0.76466361029E+02 -0.27656597051E+02  0.68271063314E+01  0.81600252057E+02  0.50400001928E-02 0.  1.
</event>
<event>
 5   0  0.3439015E-02  0.7096885E+03  0.7818609E-02  0.9700806E-01
       -1   -1    0    0    0  501  0.00000000000E+00  0.00000000000E+00  0.40451220885E+03  0.40451220888E+03  0.50400001928E-02 0. -1.
        1   -1    0    0  501    0  0.00000000000E+00  0.00000000000E+00 -0.31127478239E+03  0.31127478243E+03  0.50400001928E-02 0.  1.
    10030    2    1    2    0    0  0.00000000000E+00  0.00000000000E+00  0.93237426461E+02  0.71578699132E+03  0.70968852270E+03 0.  0.
        1    1    3    3  502    0 -0.75356342993E+02  0.50978057616E+02  0.39254868467E+03  0.40295385672E+03  0.50400001928E-02 0. -1.
       -1    1    3    3    0  502  0.75356342993E+02 -0.50978057616E+02 -0.29931125821E+03  0.31283313460E+03  0.50400001928E-02 0.  1.
</event>
<event>
 5   0  0.3601475E-02  0.7029319E+03  0.7818609E-02  0.9712231E-01
       -1   -1    0    0    0  501  0.00000000000E+00  0.00000000000E+00  0.20349772085E+03  0.20349772091E+03  0.50400001928E-02 0.  1.
        1   -1    0    0  501    0  0.00000000000E+00  0.00000000000E+00 -0.60702557409E+03  0.60702557412E+03  0.50400001928E-02 0. -1.
    10030    2    1    2    0    0  0.00000000000E+00  0.00000000000E+00 -0.40352785324E+03  0.81052329503E+03  0.70293191949E+03 0.  0.
        5    1    3    3  502    0  0.12225707670E+03 -0.12140182425E+03  0.15142115161E+03  0.22942460829E+03  0.46999998093E+01 0.  1.
       -5    1    3    3    0  502 -0.12225707670E+03  0.12140182425E+03 -0.55494900486E+03  0.58109868674E+03  0.46999998093E+01 0. -1.
</event>
<event>
 5   0  0.3717372E-02  0.6767521E+03  0.7818609E-02  0.9757836E-01
       -1   -1    0    0    0  501  0.00000000000E+00  0.00000000000E+00  0.11426871352E+04  0.11426871352E+04  0.50400001928E-02 0. -1.
        1   -1    0    0  501    0  0.00000000000E+00  0.00000000000E+00 -0.10020096540E+03  0.10020096553E+03  0.50400001928E-02 0.  1.
    10030    2    1    2    0    0  0.00000000000E+00  0.00000000000E+00  0.10424861698E+04  0.12428881008E+04  0.67675210878E+03 0.  0.
        3    1    3    3  502    0  0.21796692048E+03 -0.35058082951E+02  0.50284940027E+02  0.22642268658E+03  0.10100000352E+00 0.  1.
       -3    1    3    3    0  502 -0.21796692048E+03  0.35058082951E+02  0.99220122980E+03  0.10164654142E+04  0.10100000352E+00 0. -1.
</event>
<event>
 5   0  0.5899787E-02  0.6063235E+03  0.7818609E-02  0.9892373E-01
        2   -1    0    0  501    0  0.00000000000E+00  0.00000000000E+00  0.17632779389E+03  0.17632779390E+03  0.25500000920E-02 0. -1.
       -2   -1    0    0    0  501  0.00000000000E+00  0.00000000000E+00 -0.52122836101E+03  0.52122836102E+03  0.25500000920E-02 0.  1.
    10030    2    1    2    0    0  0.00000000000E+00  0.00000000000E+00 -0.34490056713E+03  0.69755615493E+03  0.60632350117E+03 0.  0.
        2    1    3    3  502    0 -0.12693381729E+03  0.12132482512E+03  0.11186945313E+03  0.20819865925E+03  0.25500000920E-02 0. -1.
       -2    1    3    3    0  502  0.12693381729E+03 -0.12132482512E+03 -0.45677002026E+03  0.48935749568E+03  0.25500000920E-02 0.  1.
</event>
<event>
 5   0  0.5899787E-02  0.7078874E+03  0.7818609E-02  0.9703838E-01
        2   -1    0    0  501    0  0.00000000000E+00  0.00000000000E+00  0.30753657854E+03  0.30753657855E+03  0.25500000920E-02 0. -1.
       -2   -1    0    0    0  501  0.00000000000E+00  0.00000000000E+00 -0.40735360438E+03  0.40735360439E+03  0.25500000920E-02 0.  1.
    10030    2    1    2    0    0  0.00000000000E+00  0.00000000000E+00 -0.99817025841E+02  0.71489018294E+03  0.70788737453E+03 0.  0.
        2    1    3    3  502    0  0.65794799041E+02 -0.24695908514E+03 -0.29719486179E+03  0.39197261537E+03  0.25500000920E-02 0.  1.
       -2    1    3    3    0  502 -0.65794799041E+02  0.24695908514E+03  0.19737783595E+03  0.32291756757E+03  0.25500000920E-02 0. -1.
</event>
<event>
 5   0  0.2439375E-02  0.6877158E+03  0.7818609E-02  0.9738473E-01
        3   -1    0    0  501    0  0.00000000000E+00  0.00000000000E+00  0.24574373775E+03  0.24574375850E+03  0.10100000352E+00 0.  1.
       -3   -1    0    0    0  501  0.00000000000E+00  0.00000000000E+00 -0.48114453456E+03  0.48114454516E+03  0.10100000352E+00 0. -1.
    10030    2    1    2    0    0  0.00000000000E+00  0.00000000000E+00 -0.23540079681E+03  0.72688830366E+03  0.68771583584E+03 0.  0.
        1    1    3    3  502    0  0.15961789683E+03  0.10078649595E+03  0.18607681298E+03  0.26506672953E+03  0.50400001928E-02 0.  1.
       -1    1    3    3    0  502 -0.15961789683E+03 -0.10078649595E+03 -0.42147760979E+03  0.46182157413E+03  0.50400001928E-02 0. -1.
</event>
<event>
 5   0  0.6167756E-02  0.5759693E+03  0.7818609E-02  0.9956556E-01
       -2   -1    0    0    0  501  0.00000000000E+00  0.00000000000E+00  0.59125369872E+02  0.59125369927E+02  0.25500000920E-02 0.  1.
        2   -1    0    0  501    0  0.00000000000E+00  0.00000000000E+00 -0.14027000074E+04  0.14027000074E+04  0.25500000920E-02 0. -1.
    10030    2    1    2    0    0  0.00000000000E+00  0.00000000000E+00 -0.13435746375E+04  0.14618253773E+04  0.57596929362E+03 0.  0.
        4    1    3    3  502    0 -0.67459663363E+02  0.52797479725E+02  0.26032295860E+02  0.89541461760E+02  0.12699999809E+01 0.  1.
       -4    1    3    3    0  502  0.67459663363E+02 -0.52797479725E+02 -0.13696069334E+04  0.13722839156E+04  0.12699999809E+01 0. -1.
</event>
<event>
 5   0  0.2439375E-02  0.6903534E+03  0.7818609E-02  0.9733873E-01
       -3   -1    0    0    0  501  0.00000000000E+00  0.00000000000E+00  0.95308097499E+03  0.95308098034E+03  0.10100000352E+00 0. -1.
        3   -1    0    0  501    0  0.00000000000E+00  0.00000000000E+00 -0.12501239003E+03  0.12501243083E+03  0.10100000352E+00 0.  1.
    10030    2    1    2    0    0  0.00000000000E+00  0.00000000000E+00  0.82806858496E+03  0.10780934112E+04  0.69035340358E+03 0.  0.
        3    1    3    3  502    0  0.26463292245E+03  0.19952571049E+03  0.26338641994E+03  0.42333616571E+03  0.10100000352E+00 0.  1.
       -3    1    3    3    0  502 -0.26463292245E+03 -0.19952571049E+03  0.56468216502E+03  0.65475724546E+03  0.10100000352E+00 0. -1.
</event>
<event>
 5   0  0.3601475E-02  0.7108744E+03  0.7818609E-02  0.9698814E-01
       -1   -1    0    0    0  501  0.00000000000E+00  0.00000000000E+00  0.17011509336E+03  0.17011509343E+03  0.50400001928E-02 0.  1.
        1   -1    0    0  501    0  0.00000000000E+00  0.00000000000E+00 -0.74264790406E+03  0.74264790408E+03  0.50400001928E-02 0. -1.
    10030    2    1    2    0    0  0.00000000000E+00  0.00000000000E+00 -0.57253281070E+03  0.91276299751E+03  0.71087444060E+03 0.  0.
        5    1    3    3  502    0 -0.19227228211E+03  0.21107390076E+03 -0.55801591803E+03  0.62683704168E+03  0.46999998093E+01 0. -1.
       -5    1    3    3    0  502  0.19227228211E+03 -0.21107390076E+03 -0.14516892672E+02  0.28592595583E+03  0.46999998093E+01 0.  1.
</event>
<event>
 5   0  0.3439015E-02  0.7039709E+03  0.7818609E-02  0.9710465E-01
       -1   -1    0    0    0  501  0.00000000000E+00  0.00000000000E+00  0.11872598581E+03  0.11872598592E+03  0.50400001928E-02 0. -1.
        1   -1    0    0  501    0  0.00000000000E+00  0.00000000000E+00 -0.10435269211E+04  0.10435269211E+04  0.50400001928E-02 0.  1.
    10030    2    1    2    0    0  0.00000000000E+00  0.00000000000E+00 -0.92480093525E+03  0.11622529070E+04  0.70397091558E+03 0.  0.
        1    1    3    3  502    0 -0.19777953628E+03  0.67227726767E+02  0.53223997992E+01  0.20896085802E+03  0.50400001928E-02 0. -1.
       -1    1    3    3    0  502  0.19777953628E+03 -0.67227726767E+02 -0.93012333505E+03  0.95329204898E+03  0.50400001928E-02 0.  1.
</event>
<event>
 5   0  0.3755872E-02  0.6882799E+03  0.7818609E-02  0.9737488E-01
        1   -1    0    0  501    0  0.00000000000E+00  0.00000000000E+00  0.10124409221E+04  0.10124409221E+04  0.50400001928E-02 0. -1.
       -1   -1    0    0    0  501  0.00000000000E+00  0.00000000000E+00 -0.11697698979E+03  0.11697698990E+03  0.50400001928E-02 0.  1.
    10030    2    1    2    0    0  0.00000000000E+00  0.00000000000E+00  0.89546393231E+03  0.11294179120E+04  0.68827986016E+03 0.  0.
        2    1    3    3  502    0 -0.17143483109E+03  0.23670782095E+03  0.74587467747E+03  0.80109270893E+03  0.25500000920E-02 0. -1.
       -2    1    3    3    0  502  0.17143483109E+03 -0.23670782095E+03  0.14958925485E+03  0.32832520308E+03  0.25500000920E-02 0.  1.
</event>
<event>
 5   0  0.5987810E-02  0.7054196E+03  0.7818609E-02  0.9708009E-01
       -2   -1    0    0    0  501  0.00000000000E+00  0.00000000000E+00  0.17668945755E+03  0.17668945757E+03  0.25500000920E-02 0. -1.
        2   -1    0    0  501    0  0.00000000000E+00  0.00000000000E+00 -0.70408392993E+03  0.70408392993E+03  0.25500000920E-02 0.  1.
    10030    2    1    2    0    0  0.00000000000E+00  0.00000000000E+00 -0.52739447238E+03  0.88077338750E+03  0.70541961316E+03 0.  0.
        5    1    3    3  502    0 -0.32023094881E+03 -0.13837836776E+03 -0.32840317510E+03  0.47913168196E+03  0.46999998093E+01 0.  1.
       -5    1    3    3    0  502  0.32023094881E+03  0.13837836776E+03 -0.19899129728E+03  0.40164170554E+03  0.46999998093E+01 0. -1.
</event>
<event>
 5   0  0.3717372E-02  0.5664902E+03  0.7818609E-02  0.9977475E-01
       -1   -1    0    0    0  501  0.00000000000E+00  0.00000000000E+00  0.93762329012E+02  0.93762329147E+02  0.50400001928E-02 0.  1.
        1   -1    0    0  501    0  0.00000000000E+00  0.00000000000E+00 -0.85565057636E+03  0.85565057638E+03  0.50400001928E-02 0. -1.
    10030    2    1    2    0    0  0.00000000000E+00  0.00000000000E+00 -0.76188824735E+03  0.94941290553E+03  0.56649021503E+03 0.  0.
        3    1    3    3  502    0  0.59881683101E+02  0.26067902966E+03 -0.22472549256E+03  0.34934356969E+03  0.10100000352E+00 0.  1.
       -3    1    3    3    0  502 -0.59881683101E+02 -0.26067902966E+03 -0.53716275480E+03  0.60006933584E+03  0.10100000352E+00 0. -1.
</event>
<event>
 5   0  0.3755872E-02  0.6301216E+03  0.7818609E-02  0.9844812E-01
        1   -1    0    0  501    0  0.00000000000E+00  0.00000000000E+00  0.10212720754E+04  0.10212720754E+04  0.50400001928E-02 0. -1.
       -1   -1    0    0    0  501  0.00000000000E+00  0.00000000000E+00 -0.97195748529E+02  0.97195748660E+02  0.50400001928E-02 0.  1.
    10030    2    1    2    0    0  0.00000000000E+00  0.00000000000E+00  0.92407632686E+03  0.11184678241E+04  0.63012158795E+03 0.  0.
        2    1    3    3  502    0  0.20621180680E+03 -0.13212736476E+03  0.11023649950E+03  0.26857594012E+03  0.25500000920E-02 0.  1.
       -2    1    3    3    0  502 -0.20621180680E+03  0.13212736476E+03  0.81383982736E+03  0.84989188394E+03  0.25500000920E-02 0. -1.
</event>
<event>
 5   0  0.6248886E-02  0.7085316E+03  0.7818609E-02  0.9702752E-01
        2   -1    0    0  501    0  0.00000000000E+00  0.00000000000E+00  0.77864138483E+03  0.77864138483E+03  0.25500000920E-02 0.  1.
       -2   -1    0    0    0  501  0.00000000000E+00  0.00000000000E+00 -0.16118365359E+03  0.16118365361E+03  0.25500000920E-02 0. -1.
    10030    2    1    2    0    0  0.00000000000E+00  0.00000000000E+00  0.61745773124E+03  0.93982503844E+03  0.70853161751E+03 0.  0.
        3    1    3    3  502    0  0.20611991477E+03 -0.22104019236E+03  0.63570264810E+02  0.30884522770E+03  0.10100000352E+00 0. -1.
       -3    1    3    3    0  502 -0.20611991477E+03  0.22104019236E+03  0.55388746643E+03  0.63097981074E+03  0.10100000352E+00 0.  1.
</event>
<event>
 5   0  0.3717372E-02  0.7059912E+03  0.7818609E-02  0.9707041E-01
       -1   -1    0    0    0  501  0.00000000000E+00  0.00000000000E+00  0.71434875700E+03  0.71434875702E+03  0.50400001928E-02 0. -1.
        1   -1    0    0  501    0  0.00000000000E+00  0.00000000000E+00 -0.17443286505E+03  0.17443286512E+03  0.50400001928E-02 0.  1.
    10030    2    1    2    0    0  0.00000000000E+00  0.00000000000E+00  0.53991589196E+03  0.88878162214E+03  0.70599121911E+03 0.  0.
        3    1    3    3  502    0 -0.18241820313E+03  0.30090718142E+03  0.30521554984E+03  0.46580905394E+03  0.10100000352E+00 0. -1.
       -3    1    3    3    0  502  0.18241820313E+03 -0.30090718142E+03  0.23470034211E+03  0.42297256820E+03  0.10100000352E+00 0.  1.
</event>
<event>
 5   0  0.3717372E-02  0.6906539E+03  0.7818609E-02  0.9733350E-01
        1   -1    0    0  501    0  0.00000000000E+00  0.00000000000E+00  0.60337122500E+03  0.60337122502E+03  0.50400001928E-02 0.  1.
       -1   -1    0    0    0  501  0.00000000000E+00  0.00000000000E+00 -0.19764068635E+03  0.19764068641E+03  0.50400001928E-02 0. -1.
    10030    2    1    2    0    0  0.00000000000E+00  0.00000000000E+00  0.40573053866E+03  0.80101191143E+03  0.69065390193E+03 0.  0.
        3    1    3    3  502    0  0.85343679736E+02 -0.10913127602E+03  0.56972780058E+03  0.58633007430E+03  0.10100000352E+00 0.  1.
       -3    1    3    3    0  502 -0.85343679736E+02  0.10913127602E+03 -0.16399726192E+03  0.21468183713E+03  0.10100000352E+00 0. -1.
</event>
<event>
 5   0  0.3439015E-02  0.6899954E+03  0.7818609E-02  0.9734496E-01
       -1   -1    0    0    0  501  0.00000000000E+00  0.00000000000E+00  0.22198410900E+03  0.22198410906E+03  0.50400001928E-02 0.  1.
        1   -1    0    0  501    0  0.00000000000E+00  0.00000000000E+00 -0.53617982924E+03  0.53617982926E+03  0.50400001928E-02 0. -1.
    10030    2    1    2    0    0  0.00000000000E+00  0.00000000000E+00 -0.31419572023E+03  0.75816393832E+03  0.68999536720E+03 0.  0.
        1    1    3    3  502    0 -0.16800122932E+03  0.20115673802E+03  0.89421931923E+02  0.27692007554E+03  0.50400001928E-02 0.  1.
       -1    1    3    3    0  502  0.16800122932E+03 -0.20115673802E+03 -0.40361765216E+03  0.48124386278E+03  0.50400001928E-02 0. -1.
</event>
<event>
 5   0  0.2439375E-02  0.7026645E+03  0.7818609E-02  0.9712686E-01
       -4   -1    0    0    0  501  0.00000000000E+00  0.00000000000E+00  0.11444534969E+03  0.11445239606E+03  0.12699999809E+01 0. -1.
        4   -1    0    0  501    0  0.00000000000E+00  0.00000000000E+00 -0.10785033702E+04  0.10785041180E+04  0.12699999809E+01 0.  1.
    10030    2    1    2    0    0  0.00000000000E+00  0.00000000000E+00 -0.96405802054E+03  0.11929565140E+04  0.70266448425E+03 0.  0.
        2    1    3    3  502    0  0.31088332862E+03  0.90697800133E+02 -0.71332247713E+03  0.78339229722E+03  0.25500000920E-02 0.  1.
       -2    1    3    3    0  502 -0.31088332862E+03 -0.90697800133E+02 -0.25073554341E+03  0.40956421682E+03  0.25500000920E-02 0. -1.
</event>
<event>
 5   0  0.3749730E-02  0.7140182E+03  0.7818609E-02  0.9693555E-01
       -1   -1    0    0    0  501  0.00000000000E+00  0.00000000000E+00  0.34548649636E+03  0.34548649639E+03  0.50400001928E-02 0. -1.
        1   -1    0    0  501    0  0.00000000000E+00  0.00000000000E+00 -0.36891604068E+03  0.36891604072E+03  0.50400001928E-02 0.  1.
    10030    2    1    2    0    0  0.00000000000E+00  0.00000000000E+00 -0.23429544325E+02  0.71440253711E+03  0.71401823610E+03 0.  0.
        4    1    3    3  502    0 -0.34574771242E+03  0.70803751126E+02  0.42158851946E+02  0.35543442928E+03  0.12699999809E+01 0.  1.
       -4    1    3    3    0  502  0.34574771242E+03 -0.70803751126E+02 -0.65588396271E+02  0.35896810784E+03  0.12699999809E+01 0. -1.
</event>
<event>
 5   0  0.3755872E-02  0.7008504E+03  0.7818609E-02  0.9715779E-01
        1   -1    0    0  501    0  0.00000000000E+00  0.00000000000E+00  0.29403109207E+03  0.29403109211E+03  0.50400001928E-02 0. -1.
       -1   -1    0    0    0  501  0.00000000000E+00  0.00000000000E+00 -0.41763546835E+03  0.41763546839E+03  0.50400001928E-02 0.  1.
    10030    2    1    2    0    0  0.00000000000E+00  0.00000000000E+00 -0.12360437628E+03  0.71166656050E+03  0.70085037740E+03 0.  0.
        2    1    3    3  502    0  0.87198243745E+01  0.32879855731E+03 -0.18455323197E+03  0.37715304860E+03  0.25500000920E-02 0.  1.
       -2    1    3    3    0  502 -0.87198243745E+01 -0.32879855731E+03  0.60948855689E+02  0.33451351190E+03  0.25500000920E-02 0. -1.
</event>
<event>
 5   0  0.6248886E-02  0.7727333E+03  0.7818609E-02  0.9600345E-01
       -2   -1    0    0    0  501  0.00000000000E+00  0.00000000000E+00  0.47893128389E+03  0.47893128390E+03  0.25500000920E-02 0. -1.
        2   -1    0    0  501    0  0.00000000000E+00  0.00000000000E+00 -0.31169225450E+03  0.31169225451E+03  0.25500000920E-02 0.  1.
    10030    2    1    2    0    0  0.00000000000E+00  0.00000000000E+00  0.16723902939E+03  0.79062353841E+03  0.77273325704E+03 0.  0.
        3    1    3    3  502    0 -0.38135029429E+02 -0.38439435141E+03  0.75315984565E+02  0.39355533994E+03  0.10100000352E+00 0. -1.
       -3    1    3    3    0  502  0.38135029429E+02  0.38439435141E+03  0.91923044824E+02  0.39706819847E+03  0.10100000352E+00 0.  1.
</event>
<event>
 5   0  0.6167756E-02  0.7065639E+03  0.7818609E-02  0.9706072E-01
        2   -1    0    0  501    0  0.00000000000E+00  0.00000000000E+00  0.37042295340E+03  0.37042295341E+03  0.25500000920E-02 0. -1.
       -2   -1    0    0    0  501  0.00000000000E+00  0.00000000000E+00 -0.33693413594E+03  0.33693413595E+03  0.25500000920E-02 0.  1.
    10030    2    1    2    0    0  0.00000000000E+00  0.00000000000E+00  0.33488817464E+02  0.70735708936E+03  0.70656390438E+03 0.  0.
        4    1    3    3  502    0  0.16130874400E+03  0.26967551937E+03  0.17836022857E+03  0.36133001629E+03  0.12699999809E+01 0.  1.
       -4    1    3    3    0  502 -0.16130874400E+03 -0.26967551937E+03 -0.14487141111E+03  0.34602707307E+03  0.12699999809E+01 0. -1.
</event>
<event>
 5   0  0.6167756E-02  0.7147680E+03  0.7818609E-02  0.9692305E-01
       -2   -1    0    0    0  501  0.00000000000E+00  0.00000000000E+00  0.80360607389E+02  0.80360607429E+02  0.25500000920E-02 0. -1.
        2   -1    0    0  501    0  0.00000000000E+00  0.00000000000E+00 -0.15893772273E+04  0.15893772273E+04  0.25500000920E-02 0.  1.
    10030    2    1    2    0    0  0.00000000000E+00  0.00000000000E+00 -0.15090166199E+04  0.16697378347E+04  0.71476798862E+03 0.  0.
        4    1    3    3  502    0 -0.23099949239E+03 -0.24429867542E+03 -0.10375385774E+04  0.10906560048E+04  0.12699999809E+01 0. -1.
       -4    1    3    3    0  502  0.23099949239E+03  0.24429867542E+03 -0.47147804252E+03  0.57908182995E+03  0.12699999809E+01 0.  1.
</event>
<event>
 5   0  0.3601475E-02  0.7019049E+03  0.7818609E-02  0.9713980E-01
       -1   -1    0    0    0  501  0.00000000000E+00  0.00000000000E+00  0.16411108063E+03  0.16411108071E+03  0.50400001928E-02 0.  1.
        1   -1    0    0  501    0  0.00000000000E+00  0.00000000000E+00 -0.75051374180E+03  0.75051374181E+03  0.50400001928E-02 0. -1.
    10030    2    1    2    0    0  0.00000000000E+00  0.00000000000E+00 -0.58640266116E+03  0.91462482252E+03  0.70190489737E+03 0.  0.
        5    1    3    3  502    0  0.34196367442E+03 -0.36671732410E+02 -0.38405711149E+03  0.51556369681E+03  0.46999998093E+01 0.  1.
       -5    1    3    3    0  502 -0.34196367442E+03  0.36671732410E+02 -0.20234554967E+03  0.39906112571E+03  0.46999998093E+01 0. -1.
</event>
<event>
 5   0  0.3717372E-02  0.6943694E+03  0.7818609E-02  0.9726910E-01
       -1   -1    0    0    0  501  0.00000000000E+00  0.00000000000E+00  0.17321541805E+03  0.17321541812E+03  0.50400001928E-02 0.  1.
        1   -1    0    0  501    0  0.00000000000E+00  0.00000000000E+00 -0.69588038811E+03  0.69588038813E+03  0.50400001928E-02 0. -1.
    10030    2    1    2    0    0  0.00000000000E+00  0.00000000000E+00 -0.52266497006E+03  0.86909580625E+03  0.69436938982E+03 0.  0.
        3    1    3    3  502    0 -0.19166874795E+03  0.53951763353E+02  0.94645518973E+02  0.22046651939E+03  0.10100000352E+00 0.  1.
       -3    1    3    3    0  502  0.19166874795E+03 -0.53951763353E+02 -0.61731048903E+03  0.64862928687E+03  0.10100000352E+00 0. -1.
</event>
<event>
 5   0  0.6167756E-02  0.6995377E+03  0.7818609E-02  0.9718023E-01
        2   -1    0    0  501    0  0.00000000000E+00  0.00000000000E+00  0.58865482113E+03  0.58865482114E+03  0.25500000920E-02 0.  1.
       -2   -1    0    0    0  501  0.00000000000E+00  0.00000000000E+00 -0.20782679497E+03  0.20782679499E+03  0.25500000920E-02 0. -1.
    10030    2    1    2    0    0  0.00000000000E+00  0.00000000000E+00  0.38082802616E+03  0.79648161613E+03  0.69953768970E+03 0.  0.
        4    1    3    3  502    0 -0.14685065815E+03 -0.31178554208E+03  0.25836072144E+03  0.43072870270E+03  0.12699999809E+01 0.  1.
       -4    1    3    3    0  502  0.14685065815E+03  0.31178554208E+03  0.12246730473E+03  0.36575291342E+03  0.12699999809E+01 0. -1.
</event>
<event>
 5   0  0.2439375E-02  0.6999019E+03  0.7818609E-02  0.9717400E-01
        3   -1    0    0  501    0  0.00000000000E+00  0.00000000000E+00  0.19444809083E+03  0.19444811706E+03  0.10100000352E+00 0. -1.
       -3   -1    0    0    0  501  0.00000000000E+00  0.00000000000E+00 -0.62981148046E+03  0.62981148856E+03  0.10100000352E+00 0.  1.
    10030    2    1    2    0    0  0.00000000000E+00  0.00000000000E+00 -0.43536338963E+03  0.82425960562E+03  0.69990186200E+03 0.  0.
        3    1    3    3  502    0 -0.33122425201E+03 -0.38575436301E+02 -0.34269370049E+03  0.47815954655E+03  0.10100000352E+00 0.  1.
       -3    1    3    3    0  502  0.33122425201E+03  0.38575436301E+02 -0.92669689136E+02  0.34610005907E+03  0.10100000352E+00 0. -1.
</event>
<event>
 5   0  0.5987810E-02  0.6948012E+03  0.7818609E-02  0.9726164E-01
        2   -1    0    0  501    0  0.00000000000E+00  0.00000000000E+00  0.74584924435E+03  0.74584924435E+03  0.25500000920E-02 0. -1.
       -2   -1    0    0    0  501  0.00000000000E+00  0.00000000000E+00 -0.16181176967E+03  0.16181176969E+03  0.25500000920E-02 0.  1.
    10030    2    1    2    0    0  0.00000000000E+00  0.00000000000E+00  0.58403747468E+03  0.90766101404E+03  0.69480122667E+03 0.  0.
        5    1    3    3  502    0 -0.47616365762E+02 -0.24753006486E+03 -0.20216895836E+02  0.25292145851E+03  0.46999998093E+01 0.  1.
       -5    1    3    3    0  502  0.47616365762E+02  0.24753006486E+03  0.60425437052E+03  0.65473955554E+03  0.46999998093E+01 0. -1.
</event>
<event>
 5   0  0.3601475E-02  0.6833587E+03  0.7818609E-02  0.9746122E-01
       -1   -1    0    0    0  501  0.00000000000E+00  0.00000000000E+00  0.32550908303E+03  0.32550908307E+03  0.50400001928E-02 0.  1.
        1   -1    0    0  501    0  0.00000000000E+00  0.00000000000E+00 -0.35865287759E+03  0.35865287762E+03  0.50400001928E-02 0. -1.
    10030    2    1    2    0    0  0.00000000000E+00  0.00000000000E+00 -0.33143794556E+02  0.68416196070E+03  0.68335867401E+03 0.  0.
        5    1    3    3  502    0 -0.10557504264E+03 -0.20113481189E+03  0.23891698159E+03  0.32970398280E+03  0.46999998093E+01 0.  1.
       -5    1    3    3    0  502  0.10557504264E+03  0.20113481189E+03 -0.27206077615E+03  0.35445797790E+03  0.46999998093E+01 0. -1.
</event>
<event>
 5   0  0.3439015E-02  0.6896529E+03  0.7818609E-02  0.9735093E-01
        1   -1    0    0  501    0  0.00000000000E+00  0.00000000000E+00  0.27382950265E+03  0.27382950269E+03  0.50400001928E-02 0.  1.
       -1   -1    0    0    0  501  0.00000000000E+00  0.00000000000E+00 -0.43423108037E+03  0.43423108040E+03  0.50400001928E-02 0. -1.
    10030    2    1    2    0    0  0.00000000000E+00  0.00000000000E+00 -0.16040157772E+03  0.70806058309E+03  0.68965290052E+03 0.  0.
        1    1    3    3  502    0 -0.99581555493E+02  0.98613898350E+02 -0.40367222896E+03  0.42730838466E+03  0.50400001928E-02 0. -1.
       -1    1    3    3    0  502  0.99581555493E+02 -0.98613898350E+02  0.24327065124E+03  0.28075219843E+03  0.50400001928E-02 0.  1.
</event>
<event>
 5   0  0.5899787E-02  0.6424078E+03  0.7818609E-02  0.9821131E-01
        2   -1    0    0  501    0  0.00000000000E+00  0.00000000000E+00  0.78322397994E+03  0.78322397994E+03  0.25500000920E-02 0. -1.
       -2   -1    0    0    0  501  0.00000000000E+00  0.00000000000E+00 -0.13172725358E+03  0.13172725360E+03  0.25500000920E-02 0.  1.
    10030    2    1    2    0    0  0.00000000000E+00  0.00000000000E+00  0.65149672636E+03  0.91495123355E+03  0.64240779518E+03 0.  0.
        2    1    3    3  502    0 -0.19991136327E+03  0.23364978827E+02  0.68227126183E+03  0.71133996804E+03  0.25500000920E-02 0. -1.
       -2    1    3    3    0  502  0.19991136327E+03 -0.23364978827E+02 -0.30774535478E+02  0.20361126551E+03  0.25500000920E-02 0.  1.
</event>
<event>
 5   0  0.5987810E-02  0.6908528E+03  0.7818609E-02  0.9733004E-01
       -2   -1    0    0    0  501  0.00000000000E+00  0.00000000000E+00  0.26714485087E+03  0.26714485089E+03  0.25500000920E-02 0. -1.
        2   -1    0    0  501    0  0.00000000000E+00  0.00000000000E+00 -0.44664675951E+03  0.44664675952E+03  0.25500000920E-02 0.  1.
    10030    2    1    2    0    0  0.00000000000E+00  0.00000000000E+00 -0.17950190864E+03  0.71379161040E+03  0.69085275412E+03 0.  0.
        5    1    3    3  502    0 -0.17559054941E+03 -0.22217606537E+03 -0.29406171715E+03  0.40827518729E+03  0.46999998093E+01 0.  1.
       -5    1    3    3    0  502  0.17559054941E+03  0.22217606537E+03  0.11455980851E+03  0.30551642311E+03  0.46999998093E+01 0. -1.
</event>
<event>
 5   0  0.6131198E-02  0.7066565E+03  0.7818609E-02  0.9705916E-01
        2   -1    0    0  501    0  0.00000000000E+00  0.00000000000E+00  0.14441884340E+04  0.14441884340E+04  0.25500000920E-02 0. -1.
       -2   -1    0    0    0  501  0.00000000000E+00  0.00000000000E+00 -0.86443600670E+02  0.86443600708E+02  0.25500000920E-02 0.  1.
    10030    2    1    2    0    0  0.00000000000E+00  0.00000000000E+00  0.13577448333E+04  0.15306320347E+04  0.70665648886E+03 0.  0.
        1    1    3    3  502    0 -0.21706368175E+03 -0.25556726297E+03  0.43758148702E+03  0.55127926285E+03  0.50400001928E-02 0. -1.
       -1    1    3    3    0  502  0.21706368175E+03  0.25556726297E+03  0.92016334630E+03  0.97935277186E+03  0.50400001928E-02 0.  1.
</event>
<event>
 5   0  0.6167756E-02  0.6974464E+03  0.7818609E-02  0.9721609E-01
       -2   -1    0    0    0  501  0.00000000000E+00  0.00000000000E+00  0.45331626511E+03  0.45331626512E+03  0.25500000920E-02 0. -1.
        2   -1    0    0  501    0  0.00000000000E+00  0.00000000000E+00 -0.26826272190E+03  0.26826272192E+03  0.25500000920E-02 0.  1.
    10030    2    1    2    0    0  0.00000000000E+00  0.00000000000E+00  0.18505354321E+03  0.72157898704E+03  0.69744635685E+03 0.  0.
        4    1    3    3  502    0 -0.15737036973E+03  0.30600823256E+03  0.15105056789E+03  0.37579829513E+03  0.12699999809E+01 0. -1.
       -4    1    3    3    0  502  0.15737036973E+03 -0.30600823256E+03  0.34002975323E+02  0.34578069191E+03  0.12699999809E+01 0.  1.
</event>
<event>
 5   0  0.5987810E-02  0.6655797E+03  0.7818609E-02  0.9777976E-01
        2   -1    0    0  501    0  0.00000000000E+00  0.00000000000E+00  0.10933739767E+03  0.10933739770E+03  0.25500000920E-02 0.  1.
       -2   -1    0    0    0  501  0.00000000000E+00  0.00000000000E+00 -0.10129114244E+04  0.10129114244E+04  0.25500000920E-02 0. -1.
    10030    2    1    2    0    0  0.00000000000E+00  0.00000000000E+00 -0.90357402671E+03  0.11222488221E+04  0.66557974496E+03 0.  0.
        5    1    3    3  502    0 -0.25857808135E+03 -0.20662832429E+03 -0.50943959132E+03  0.60754314724E+03  0.46999998093E+01 0. -1.
       -5    1    3    3    0  502  0.25857808135E+03  0.20662832429E+03 -0.39413443539E+03  0.51470567484E+03  0.46999998093E+01 0.  1.
</event>
<event>
 5   0  0.6248886E-02  0.6980127E+03  0.7818609E-02  0.9720637E-01
       -2   -1    0    0    0  501  0.00000000000E+00  0.00000000000E+00  0.38444349296E+03  0.38444349297E+03  0.25500000920E-02 0.  1.
        2   -1    0    0  501    0  0.00000000000E+00  0.00000000000E+00 -0.31683576506E+03  0.31683576507E+03  0.25500000920E-02 0. -1.
    10030    2    1    2    0    0  0.00000000000E+00  0.00000000000E+00  0.67607727893E+02  0.70127925804E+03  0.69801274550E+03 0.  0.
        3    1    3    3  502    0 -0.33877338142E+03 -0.66413373247E+02 -0.17693180142E+02  0.34567499032E+03  0.10100000352E+00 0.  1.
       -3    1    3    3    0  502  0.33877338142E+03  0.66413373247E+02  0.85300908035E+02  0.35560426772E+03  0.10100000352E+00 0. -1.
</event>
<event>
 5   0  0.3755872E-02  0.7065427E+03  0.7818609E-02  0.9706108E-01
       -1   -1    0    0    0  501  0.00000000000E+00  0.00000000000E+00  0.96121928125E+03  0.96121928126E+03  0.50400001928E-02 0. -1.
        1   -1    0    0  501    0  0.00000000000E+00  0.00000000000E+00 -0.12983577204E+03  0.12983577214E+03  0.50400001928E-02 0.  1.
    10030    2    1    2    0    0  0.00000000000E+00  0.00000000000E+00  0.83138350921E+03  0.10910550534E+04  0.70654270229E+03 0.  0.
        2    1    3    3  502    0  0.24962006572E+03  0.23135751920E+03  0.56189710266E+03  0.65693594276E+03  0.25500000920E-02 0. -1.
       -2    1    3    3    0  502 -0.24962006572E+03 -0.23135751920E+03  0.26948640655E+03  0.43411911064E+03  0.25500000920E-02 0.  1.
</event>
<event>
 5   0  0.5987810E-02  0.6681277E+03  0.7818609E-02  0.9773346E-01
       -2   -1    0    0    0  501  0.00000000000E+00  0.00000000000E+00  0.12093695717E+03  0.12093695719E+03  0.25500000920E-02 0. -1.
        2   -1    0    0  501    0  0.00000000000E+00  0.00000000000E+00 -0.92278380416E+03  0.92278380416E+03  0.25500000920E-02 0.  1.
    10030    2    1    2    0    0  0.00000000000E+00  0.00000000000E+00 -0.80184684699E+03  0.10437207614E+04  0.66812772855E+03 0.  0.
        5    1    3    3  502    0  0.82906533568E+02 -0.29560550449E+03 -0.19533216960E+03  0.36391325075E+03  0.46999998093E+01 0. -1.
       -5    1    3    3    0  502 -0.82906533568E+02  0.29560550449E+03 -0.60651467739E+03  0.67980751061E+03  0.46999998093E+01 0.  1.
</event>
<event>
 5   0  0.3601475E-02  0.6778656E+03  0.7818609E-02  0.9755852E-01
       -1   -1    0    0    0  501  0.00000000000E+00  0.00000000000E+00  0.10603405017E+03  0.10603405029E+03  0.50400001928E-02 0.  1.
        1   -1    0    0  501    0  0.00000000000E+00  0.00000000000E+00 -0.10833827345E+04  0.10833827345E+04  0.50400001928E-02 0. -1.
    10030    2    1    2    0    0  0.00000000000E+00  0.00000000000E+00 -0.97734868434E+03  0.11894167848E+04  0.67786564834E+03 0.  0.
        5    1    3    3  502    0  0.29453772542E+03 -0.16244973470E+03 -0.41609499317E+03  0.53506964158E+03  0.46999998093E+01 0.  1.
       -5    1    3    3    0  502 -0.29453772542E+03  0.16244973470E+03 -0.56125369117E+03  0.65434714323E+03  0.46999998093E+01 0. -1.
</event>
<event>
 5   0  0.3717372E-02  0.7031706E+03  0.7818609E-02  0.9711825E-01
        1   -1    0    0  501    0  0.00000000000E+00  0.00000000000E+00  0.94391137473E+03  0.94391137474E+03  0.50400001928E-02 0.  1.
       -1   -1    0    0    0  501  0.00000000000E+00  0.00000000000E+00 -0.13095744362E+03  0.13095744372E+03  0.50400001928E-02 0. -1.
    10030    2    1    2    0    0  0.00000000000E+00  0.00000000000E+00  0.81295393111E+03  0.10748688185E+04  0.70317059296E+03 0.  0.
        3    1    3    3  502    0  0.29529037250E+03 -0.17977780236E+03  0.30864936800E+03  0.46344460821E+03  0.10100000352E+00 0. -1.
       -3    1    3    3    0  502 -0.29529037250E+03  0.17977780236E+03  0.50430456311E+03  0.61142421025E+03  0.10100000352E+00 0.  1.
</event>
<event>
 5   0  0.3601475E-02  0.5899296E+03  0.7818609E-02  0.9926522E-01
        1   -1    0    0  501    0  0.00000000000E+00  0.00000000000E+00  0.33347196850E+03  0.33347196853E+03  0.50400001928E-02 0. -1.
       -1   -1    0    0    0  501  0.00000000000E+00  0.00000000000E+00 -0.26090417921E+03  0.26090417926E+03  0.50400001928E-02 0.  1.
    10030    2    1    2    0    0  0.00000000000E+00  0.00000000000E+00  0.72567789282E+02  0.59437614780E+03  0.58992958989E+03 0.  0.
        5    1    3    3  502    0  0.67483071050E+02 -0.18482220944E+03  0.25764178741E+03  0.32421381001E+03  0.46999998093E+01 0. -1.
       -5    1    3    3    0  502 -0.67483071050E+02  0.18482220944E+03 -0.18507399813E+03  0.27016233779E+03  0.46999998093E+01 0.  1.
</event>
<event>
 5   0  0.3749730E-02  0.7047177E+03  0.7818609E-02  0.9709198E-01
        1   -1    0    0  501    0  0.00000000000E+00  0.00000000000E+00  0.54773944707E+03  0.54773944709E+03  0.50400001928E-02 0. -1.
       -1   -1    0    0    0  501  0.00000000000E+00  0.00000000000E+00 -0.22667122900E+03  0.22667122906E+03  0.50400001928E-02 0.  1.
    10030    2    1    2    0    0  0.00000000000E+00  0.00000000000E+00  0.32106821806E+03  0.77441067615E+03  0.70471774115E+03 0.  0.
        4    1    3    3  502    0  0.63688983680E+02 -0.34651531954E+03  0.16613819794E+03  0.38952877562E+03  0.12699999809E+01 0. -1.
       -4    1    3    3    0  502 -0.63688983680E+02  0.34651531954E+03  0.15493002013E+03  0.38488190053E+03  0.12699999809E+01 0.  1.
</event>
<event>
 5   0  0.6248886E-02  0.6688653E+03  0.7818609E-02  0.9772010E-01
       -2   -1    0    0    0  501  0.00000000000E+00  0.00000000000E+00  0.62915661851E+03  0.62915661851E+03  0.25500000920E-02 0.  1.
        2   -1    0    0  501    0  0.00000000000E+00  0.00000000000E+00 -0.17777004968E+03  0.17777004969E+03  0.25500000920E-02 0. -1.
    10030    2    1    2    0    0  0.00000000000E+00  0.00000000000E+00  0.45138656883E+03  0.80692666821E+03  0.66886531779E+03 0.  0.
        3    1    3    3  502    0 -0.28109319877E+03 -0.18039405832E+03  0.20515626392E+03  0.39197513378E+03  0.10100000352E+00 0.  1.
       -3    1    3    3    0  502  0.28109319877E+03  0.18039405832E+03  0.24623030491E+03  0.41495153443E+03  0.10100000352E+00 0. -1.
</event>
<event>
 5   0  0.5987810E-02  0.6519844E+03  0.7818609E-02  0.9803063E-01
       -2   -1    0    0    0  501  0.00000000000E+00  0.00000000000E+00  0.34955824955E+02  0.34955825048E+02  0.25500000920E-02 0.  1.
        2   -1    0    0  501    0  0.00000000000E+00  0.00000000000E+00 -0.30401492080E+04  0.30401492080E+04  0.25500000920E-02 0. -1.
    10030    2    1    2    0    0  0.00000000000E+00  0.00000000000E+00 -0.30051933831E+04  0.30751050331E+04  0.65198442833E+03 0.  0.
        5    1    3    3  502    0  0.17218206810E+03 -0.48759774521E+02 -0.27875780290E+04  0.27933201638E+04  0.46999998093E+01 0. -1.
       -5    1    3    3    0  502 -0.17218206810E+03  0.48759774521E+02 -0.21761535411E+03  0.28178486923E+03  0.46999998093E+01 0.  1.
</event>
<event>
 5   0  0.3749730E-02  0.6984024E+03  0.7818609E-02  0.9719968E-01
        1   -1    0    0  501    0  0.00000000000E+00  0.00000000000E+00  0.11141096075E+04  0.11141096075E+04  0.50400001928E-02 0. -1.
       -1   -1    0    0    0  501  0.00000000000E+00  0.00000000000E+00 -0.10945195880E+03  0.10945195891E+03  0.50400001928E-02 0.  1.
    10030    2    1    2    0    0  0.00000000000E+00  0.00000000000E+00  0.10046576487E+04  0.12235615664E+04  0.69840240245E+03 0.  0.
        4    1    3    3  502    0  0.27351588641E+03 -0.21583365127E+03  0.46143826354E+03  0.57820583627E+03  0.12699999809E+01 0.  1.
       -4    1    3    3    0  502 -0.27351588641E+03  0.21583365127E+03  0.54321938517E+03  0.64535573017E+03  0.12699999809E+01 0. -1.
</event>
<event>
 5   0  0.5899787E-02  0.7155212E+03  0.7818609E-02  0.9691051E-01
        2   -1    0    0  501    0  0.00000000000E+00  0.00000000000E+00  0.24373879118E+04  0.24373879118E+04  0.25500000920E-02 0. -1.
       -2   -1    0    0    0  501  0.00000000000E+00  0.00000000000E+00 -0.52512224509E+02  0.52512224570E+02  0.25500000920E-02 0.  1.
    10030    2    1    2    0    0  0.00000000000E+00  0.00000000000E+00  0.23848756873E+04  0.24899001364E+04  0.71552124026E+03 0.  0.
        2    1    3    3  502    0  0.25746290294E+03  0.17510387871E+03  0.57931250957E+03  0.65768647430E+03  0.25500000920E-02 0.  1.
       -2    1    3    3    0  502 -0.25746290294E+03 -0.17510387871E+03  0.18055631777E+04  0.18322136621E+04  0.25500000920E-02 0. -1.
</event>
<event>
 5   0  0.5899787E-02  0.6620910E+03  0.7818609E-02  0.9784352E-01
       -2   -1    0    0    0  501  0.00000000000E+00  0.00000000000E+00  0.58875239843E+02  0.58875239899E+02  0.25500000920E-02 0.  1.
        2   -1    0    0  501    0  0.00000000000E+00  0.00000000000E+00 -0.18614129658E+04  0.18614129658E+04  0.25500000920E-02 0. -1.
    10030    2    1    2    0    0  0.00000000000E+00  0.00000000000E+00 -0.18025377259E+04  0.19202882057E+04  0.66209103562E+03 0.  0.
        2    1    3    3  502    0 -0.24381185924E+03 -0.81134666645E+02 -0.15066278166E+04  0.15283829476E+04  0.25500000920E-02 0. -1.
       -2    1    3    3    0  502  0.24381185924E+03  0.81134666645E+02 -0.29590990933E+03  0.39190525805E+03  0.25500000920E-02 0.  1.
</event>
<event>
 5   0  0.3749730E-02  0.7232252E+03  0.7818609E-02  0.9678318E-01
        1   -1    0    0  501    0  0.00000000000E+00  0.00000000000E+00  0.11206298815E+04  0.11206298815E+04  0.50400001928E-02 0. -1.
       -1   -1    0    0    0  501  0.00000000000E+00  0.00000000000E+00 -0.11668765318E+03  0.11668765328E+03  0.50400001928E-02 0.  1.
    10030    2    1    2    0    0  0.00000000000E+00  0.00000000000E+00  0.10039422283E+04  0.12373175348E+04  0.72322519598E+03 0.  0.
        4    1    3    3  502    0 -0.11770463522E+02 -0.80377310318E+02  0.11048134202E+04  0.11077966250E+04  0.12699999809E+01 0. -1.
       -4    1    3    3    0  502  0.11770463522E+02  0.80377310318E+02 -0.10087119192E+03  0.12952090983E+03  0.12699999809E+01 0.  1.
</event>
<event>
 5   0  0.5987810E-02  0.7061438E+03  0.7818609E-02  0.9706783E-01
        2   -1    0    0  501    0  0.00000000000E+00  0.00000000000E+00  0.28459519033E+03  0.28459519034E+03  0.25500000920E-02 0. -1.
       -2   -1    0    0    0  501  0.00000000000E+00  0.00000000000E+00 -0.43802484297E+03  0.43802484298E+03  0.25500000920E-02 0.  1.
    10030    2    1    2    0    0  0.00000000000E+00  0.00000000000E+00 -0.15342965265E+03  0.72262003332E+03  0.70614379148E+03 0.  0.
        5    1    3    3  502    0 -0.26806772116E+03 -0.22973325237E+03 -0.76656999884E+02  0.36129773871E+03  0.46999998093E+01 0.  1.
       -5    1    3    3    0  502  0.26806772116E+03  0.22973325237E+03 -0.76772652762E+02  0.36132229461E+03  0.46999998093E+01 0. -1.
</event>
<event>
 5   0  0.2439375E-02  0.7050061E+03  0.7818609E-02  0.9708709E-01
       -3   -1    0    0    0  501  0.00000000000E+00  0.00000000000E+00  0.32351424730E+03  0.32351426307E+03  0.10100000352E+00 0. -1.
        3   -1    0    0  501    0  0.00000000000E+00  0.00000000000E+00 -0.38408939081E+03  0.38408940409E+03  0.10100000352E+00 0.  1.
    10030    2    1    2    0    0  0.00000000000E+00  0.00000000000E+00 -0.60575143504E+02  0.70760366716E+03  0.70500610052E+03 0.  0.
        3    1    3    3  502    0  0.30525308589E+03 -0.10541154939E+03  0.11153893460E+03  0.34166062887E+03  0.10100000352E+00 0. -1.
       -3    1    3    3    0  502 -0.30525308589E+03  0.10541154939E+03 -0.17211407810E+03  0.36594303829E+03  0.10100000352E+00 0.  1.
</event>
<event>
 5   0  0.3717372E-02  0.7094043E+03  0.7818609E-02  0.9701283E-01
        1   -1    0    0  501    0  0.00000000000E+00  0.00000000000E+00  0.15780848792E+04  0.15780848793E+04  0.50400001928E-02 0. -1.
       -1   -1    0    0    0  501  0.00000000000E+00  0.00000000000E+00 -0.79725512763E+02  0.79725512922E+02  0.50400001928E-02 0.  1.
    10030    2    1    2    0    0  0.00000000000E+00  0.00000000000E+00  0.14983593665E+04  0.16578103922E+04  0.70940433131E+03 0.  0.
        3    1    3    3  502    0 -0.31024125162E+03 -0.16977193248E+03  0.81281359910E+03  0.88641869359E+03  0.10100000352E+00 0.  1.
       -3    1    3    3    0  502  0.31024125162E+03  0.16977193248E+03  0.68554576738E+03  0.77139169858E+03  0.10100000352E+00 0. -1.
</event>
<event>
 5   0  0.6167756E-02  0.6884044E+03  0.7818609E-02  0.9737270E-01
        2   -1    0    0  501    0  0.00000000000E+00  0.00000000000E+00  0.11169322060E+04  0.11169322060E+04  0.25500000920E-02 0.  1.
       -2   -1    0    0    0  501  0.00000000000E+00  0.00000000000E+00 -0.10607192649E+03  0.10607192652E+03  0.25500000920E-02 0. -1.
    10030    2    1    2    0    0  0.00000000000E+00  0.00000000000E+00  0.10108602795E+04  0.12230041325E+04  0.68840438951E+03 0.  0.
        4    1    3    3  502    0 -0.18353216014E+03  0.29117608108E+03  0.50108787636E+03  0.60791301741E+03  0.12699999809E+01 0. -1.
       -4    1    3    3    0  502  0.18353216014E+03 -0.29117608108E+03  0.50977240316E+03  0.61509111514E+03  0.12699999809E+01 0.  1.
</event>
<event>
 5   0  0.3601475E-02  0.6944854E+03  0.7818609E-02  0.9726710E-01
       -1   -1    0    0    0  501  0.00000000000E+00  0.00000000000E+00  0.36452942528E+03  0.36452942531E+03  0.50400001928E-02 0.  1.
        1   -1    0    0  501    0  0.00000000000E+00  0.00000000000E+00 -0.33077574145E+03  0.33077574149E+03  0.50400001928E-02 0. -1.
    10030    2    1    2    0    0  0.00000000000E+00  0.00000000000E+00  0.33753683823E+02  0.69530516681E+03  0.69448539496E+03 0.  0.
        5    1    3    3  502    0  0.15223792232E+03  0.35118321934E+02  0.32731658576E+03  0.36272292296E+03  0.46999998093E+01 0.  1.
       -5    1    3    3    0  502 -0.15223792232E+03 -0.35118321934E+02 -0.29356290194E+03  0.33258224385E+03  0.46999998093E+01 0. -1.
</event>
<event>
 5   0  0.5987810E-02  0.6946096E+03  0.7818609E-02  0.9726495E-01
       -2   -1    0    0    0  501  0.00000000000E+00  0.00000000000E+00  0.13713553056E+03  0.13713553058E+03  0.25500000920E-02 0. -1.
        2   -1    0    0  501    0  0.00000000000E+00  0.00000000000E+00 -0.87957239413E+03  0.87957239413E+03  0.25500000920E-02 0.  1.
    10030    2    1    2    0    0  0.00000000000E+00  0.00000000000E+00 -0.74243686357E+03  0.10167079247E+04  0.69460960820E+03 0.  0.
        5    1    3    3  502    0  0.39727738643E+02  0.23185844701E+03  0.27072492015E+01  0.23529991896E+03  0.46999998093E+01 0. -1.
       -5    1    3    3    0  502 -0.39727738643E+02 -0.23185844701E+03 -0.74514411277E+03  0.78140800576E+03  0.46999998093E+01 0.  1.
</event>
<event>
 5   0  0.3439015E-02  0.6681366E+03  0.7818609E-02  0.9773330E-01
        1   -1    0    0  501    0  0.00000000000E+00  0.00000000000E+00  0.29948247253E+03  0.29948247257E+03  0.50400001928E-02 0.  1.
       -1   -1    0    0    0  501  0.00000000000E+00  0.00000000000E+00 -0.37264824159E+03  0.37264824163E+03  0.50400001928E-02 0. -1.
    10030    2    1    2    0    0  0.00000000000E+00  0.00000000000E+00 -0.73165769065E+02  0.67213071420E+03  0.66813656329E+03 0.  0.
        1    1    3    3  502    0  0.17367105090E+03 -0.11985411945E+03 -0.29711949323E+03  0.36442644958E+03  0.50400001928E-02 0. -1.
       -1    1    3    3    0  502 -0.17367105090E+03  0.11985411945E+03  0.22395372416E+03  0.30770426462E+03  0.50400001928E-02 0.  1.
</event>
<event>
 5   0  0.3439015E-02  0.6059747E+03  0.7818609E-02  0.9893087E-01
        1   -1    0    0  501    0  0.00000000000E+00  0.00000000000E+00  0.10431684737E+04  0.10431684737E+04  0.50400001928E-02 0.  1.
       -1   -1    0    0    0  501  0.00000000000E+00  0.00000000000E+00 -0.88002392296E+02  0.88002392440E+02  0.50400001928E-02 0. -1.
    10030    2    1    2    0    0  0.00000000000E+00  0.00000000000E+00  0.95516608139E+03  0.11311708661E+04  0.60597465736E+03 0.  0.
        1    1    3    3  502    0  0.68621112750E+02  0.15483610589E+03  0.94655967452E+03  0.96159154232E+03  0.50400001928E-02 0.  1.
       -1    1    3    3    0  502 -0.68621112750E+02 -0.15483610589E+03  0.86064068700E+01  0.16957932382E+03  0.50400001928E-02 0. -1.
</event>
<event>
 5   0  0.3717372E-02  0.6942306E+03  0.7818609E-02  0.9727150E-01
       -1   -1    0    0    0  501  0.00000000000E+00  0.00000000000E+00  0.17555332042E+03  0.17555332049E+03  0.50400001928E-02 0. -1.
        1   -1    0    0  501    0  0.00000000000E+00  0.00000000000E+00 -0.68633861706E+03  0.68633861708E+03  0.50400001928E-02 0.  1.
    10030    2    1    2    0    0  0.00000000000E+00  0.00000000000E+00 -0.51078529664E+03  0.86189193757E+03  0.69423057610E+03 0.  0.
        3    1    3    3  502    0 -0.28852348129E+01  0.28772282544E+03 -0.14347587637E+02  0.28809479748E+03  0.10100000352E+00 0.  1.
       -3    1    3    3    0  502  0.28852348129E+01 -0.28772282544E+03 -0.49643770900E+03  0.57379714009E+03  0.10100000352E+00 0. -1.
</event>
<event>
 5   0  0.6167756E-02  0.7180949E+03  0.7818609E-02  0.9686778E-01
       -2   -1    0    0    0  501  0.00000000000E+00  0.00000000000E+00  0.80534230573E+02  0.80534230614E+02  0.25500000920E-02 0.  1.
        2   -1    0    0  501    0  0.00000000000E+00  0.00000000000E+00 -0.16007487958E+04  0.16007487958E+04  0.25500000920E-02 0. -1.
    10030    2    1    2    0    0  0.00000000000E+00  0.00000000000E+00 -0.15202145652E+04  0.16812830264E+04  0.71809490360E+03 0.  0.
        4    1    3    3  502    0  0.31105133151E+03  0.83663850052E+02 -0.38872432045E+03  0.50483738060E+03  0.12699999809E+01 0.  1.
       -4    1    3    3    0  502 -0.31105133151E+03 -0.83663850052E+02 -0.11314902448E+04  0.11764456458E+04  0.12699999809E+01 0. -1.
</event>
<event>
 5   0  0.6131198E-02  0.7057584E+03  0.7818609E-02  0.9707435E-01
       -2   -1    0    0    0  501  0.00000000000E+00  0.00000000000E+00  0.31684937140E+03  0.31684937141E+03  0.25500000920E-02 0. -1.
        2   -1    0    0  501    0  0.00000000000E+00  0.00000000000E+00 -0.39300609348E+03  0.39300609348E+03  0.25500000920E-02 0.  1.
    10030    2    1    2    0    0  0.00000000000E+00  0.00000000000E+00 -0.76156722077E+02  0.70985546489E+03  0.70575841102E+03 0.  0.
        1    1    3    3  502    0 -0.90854181855E+01  0.26863231542E+03 -0.26804921673E+03  0.37960011635E+03  0.50400001928E-02 0.  1.
       -1    1    3    3    0  502  0.90854181855E+01 -0.26863231542E+03  0.19189249466E+03  0.33025534855E+03  0.50400001928E-02 0. -1.
</event>
<event>
 5   0  0.2439375E-02  0.7282585E+03  0.7818609E-02  0.9670091E-01
        4   -1    0    0  501    0  0.00000000000E+00  0.00000000000E+00  0.56992115053E+03  0.56992256555E+03  0.12699999809E+01 0.  1.
       -4   -1    0    0    0  501  0.00000000000E+00  0.00000000000E+00 -0.23264297135E+03  0.23264643779E+03  0.12699999809E+01 0. -1.
    10030    2    1    2    0    0  0.00000000000E+00  0.00000000000E+00  0.33727817918E+03  0.80256900335E+03  0.72825849461E+03 0.  0.
        2    1    3    3  502    0 -0.10195768716E+03 -0.20440892165E+03  0.48114377302E+03  0.53261403243E+03  0.25500000920E-02 0.  1.
       -2    1    3    3    0  502  0.10195768716E+03  0.20440892165E+03 -0.14386559384E+03  0.26995497091E+03  0.25500000920E-02 0. -1.
</event>
<event>
 5   0  0.2439375E-02  0.7072795E+03  0.7818609E-02  0.9704864E-01
        4   -1    0    0  501    0  0.00000000000E+00  0.00000000000E+00  0.38301681560E+03  0.38301892112E+03  0.12699999809E+01 0.  1.
       -4   -1    0    0    0  501  0.00000000000E+00  0.00000000000E+00 -0.32651162987E+03  0.32651409976E+03  0.12699999809E+01 0. -1.
    10030    2    1    2    0    0  0.00000000000E+00  0.00000000000E+00  0.56505185735E+02  0.70953302087E+03  0.70727948627E+03 0.  0.
        5    1    3    3  502    0 -0.99631018204E+02 -0.18194191916E+03 -0.25903334136E+03  0.33188787816E+03  0.46999998093E+01 0. -1.
       -5    1    3    3    0  502  0.99631018204E+02  0.18194191916E+03  0.31553852709E+03  0.37764514271E+03  0.46999998093E+01 0.  1.
</event>
<event>
 5   0  0.2439375E-02  0.6913315E+03  0.7818609E-02  0.9732172E-01
        3   -1    0    0  501    0  0.00000000000E+00  0.00000000000E+00  0.71118793470E+03  0.71118794187E+03  0.10100000352E+00 0.  1.
       -3   -1    0    0    0  501  0.00000000000E+00  0.00000000000E+00 -0.16800732341E+03  0.16800735377E+03  0.10100000352E+00 0. -1.
    10030    2    1    2    0    0  0.00000000000E+00  0.00000000000E+00  0.54318061129E+03  0.87919529564E+03  0.69133146276E+03 0.  0.
        1    1    3    3  502    0 -0.19089072185E+03  0.39922135343E+02  0.63454235409E+03  0.66383510282E+03  0.50400001928E-02 0.  1.
       -1    1    3    3    0  502  0.19089072185E+03 -0.39922135343E+02 -0.91361742798E+02  0.21536019282E+03  0.50400001928E-02 0. -1.
</event>
<event>
 5   0  0.3601475E-02  0.7002417E+03  0.7818609E-02  0.9716819E-01
        1   -1    0    0  501    0  0.00000000000E+00  0.00000000000E+00  0.15554688122E+03  0.15554688130E+03  0.50400001928E-02 0. -1.
       -1   -1    0    0    0  501  0.00000000000E+00  0.00000000000E+00 -0.78808783264E+03  0.78808783266E+03  0.50400001928E-02 0.  1.
    10030    2    1    2    0    0  0.00000000000E+00  0.00000000000E+00 -0.63254095142E+03  0.94363471396E+03  0.70024168553E+03 0.  0.
        5    1    3    3  502    0 -0.34152921959E+03 -0.65743534906E+02 -0.26239921333E+03  0.43570615944E+03  0.46999998093E+01 0. -1.
       -5    1    3    3    0  502  0.34152921959E+03  0.65743534906E+02 -0.37014173809E+03  0.50792855452E+03  0.46999998093E+01 0.  1.
</event>
<event>
 5   0  0.6167756E-02  0.6982829E+03  0.7818609E-02  0.9720173E-01
        2   -1    0    0  501    0  0.00000000000E+00  0.00000000000E+00  0.10621216798E+04  0.10621216798E+04  0.25500000920E-02 0. -1.
       -2   -1    0    0    0  501  0.00000000000E+00  0.00000000000E+00 -0.11477006008E+03  0.11477006011E+03  0.25500000920E-02 0.  1.
    10030    2    1    2    0    0  0.00000000000E+00  0.00000000000E+00  0.94735161973E+03  0.11768917399E+04  0.69828294845E+03 0.  0.
        4    1    3    3  502    0  0.33516838740E+03  0.82547594000E+02  0.56199831754E+03  0.65954201914E+03  0.12699999809E+01 0.  1.
       -4    1    3    3    0  502 -0.33516838740E+03 -0.82547594000E+02  0.38535330219E+03  0.51734972079E+03  0.12699999809E+01 0. -1.
</event>
<event>
 5   0  0.3717372E-02  0.6969280E+03  0.7818609E-02  0.9722500E-01
       -1   -1    0    0    0  501  0.00000000000E+00  0.00000000000E+00  0.13591365895E+03  0.13591365904E+03  0.50400001928E-02 0. -1.
        1   -1    0    0  501    0  0.00000000000E+00  0.00000000000E+00 -0.89341382875E+03  0.89341382876E+03  0.50400001928E-02 0.  1.
    10030    2    1    2    0    0  0.00000000000E+00  0.00000000000E+00 -0.75750016980E+03  0.10293274878E+04  0.69692795172E+03 0.  0.
        3    1    3    3  502    0 -0.22044285463E+03 -0.24105161514E+03 -0.19951995514E+03  0.38276514473E+03  0.10100000352E+00 0. -1.
       -3    1    3    3    0  502  0.22044285463E+03  0.24105161514E+03 -0.55798021466E+03  0.64656234306E+03  0.10100000352E+00 0.  1.
</event>
<event>
 5   0  0.6167756E-02  0.7001254E+03  0.7818609E-02  0.9717018E-01
       -2   -1    0    0    0  501  0.00000000000E+00  0.00000000000E+00  0.49326166810E+03  0.49326166811E+03  0.25500000920E-02 0.  1.
        2   -1    0    0  501    0  0.00000000000E+00  0.00000000000E+00 -0.24843585071E+03  0.24843585072E+03  0.25500000920E-02 0. -1.
    10030    2    1    2    0    0  0.00000000000E+00  0.00000000000E+00  0.24482581739E+03  0.74169751883E+03  0.70012536633E+03 0.  0.
        4    1    3    3  502    0  0.34780735871E+03 -0.31299138816E+02  0.96622448476E+02  0.36233562523E+03  0.12699999809E+01 0. -1.
       -4    1    3    3    0  502 -0.34780735871E+03  0.31299138816E+02  0.14820336891E+03  0.37936189360E+03  0.12699999809E+01 0.  1.
</event>
<event>
 5   0  0.3439015E-02  0.6913000E+03  0.7818609E-02  0.9732227E-01
       -1   -1    0    0    0  501  0.00000000000E+00  0.00000000000E+00  0.14759016872E+03  0.14759016881E+03  0.50400001928E-02 0. -1.
        1   -1    0    0  501    0  0.00000000000E+00  0.00000000000E+00 -0.80949772867E+03  0.80949772869E+03  0.50400001928E-02 0.  1.
    10030    2    1    2    0    0  0.00000000000E+00  0.00000000000E+00 -0.66190755995E+03  0.95708789750E+03  0.69129995343E+03 0.  0.
        1    1    3    3  502    0 -0.10224767978E+03  0.32923052073E+03 -0.36560946237E+03  0.50251129619E+03  0.50400001928E-02 0. -1.
       -1    1    3    3    0  502  0.10224767978E+03 -0.32923052073E+03 -0.29629809758E+03  0.45457660131E+03  0.50400001928E-02 0.  1.
</event>
<event>
 5   0  0.3439015E-02  0.6919083E+03  0.7818609E-02  0.9731171E-01
        1   -1    0    0  501    0  0.00000000000E+00  0.00000000000E+00  0.46595656774E+03  0.46595656777E+03  0.50400001928E-02 0. -1.
       -1   -1    0    0    0  501  0.00000000000E+00  0.00000000000E+00 -0.25685717177E+03  0.25685717181E+03  0.50400001928E-02 0.  1.
    10030    2    1    2    0    0  0.00000000000E+00  0.00000000000E+00  0.20909939597E+03  0.72281373958E+03  0.69190833550E+03 0.  0.
        1    1    3    3  502    0 -0.30923078221E+03 -0.35266764320E+02  0.26234927015E+03  0.40705596778E+03  0.50400001928E-02 0. -1.
       -1    1    3    3    0  502  0.30923078221E+03  0.35266764320E+02 -0.53249874173E+02  0.31575777180E+03  0.50400001928E-02 0.  1.
</event>
<event>
 5   0  0.6167756E-02  0.7165500E+03  0.7818609E-02  0.9689341E-01
       -2   -1    0    0    0  501  0.00000000000E+00  0.00000000000E+00  0.12947617412E+03  0.12947617415E+03  0.25500000920E-02 0. -1.
        2   -1    0    0  501    0  0.00000000000E+00  0.00000000000E+00 -0.99138680175E+03  0.99138680175E+03  0.25500000920E-02 0.  1.
    10030    2    1    2    0    0  0.00000000000E+00  0.00000000000E+00 -0.86191062762E+03  0.11208629759E+04  0.71654998481E+03 0.  0.
        4    1    3    3  502    0 -0.20417407211E+03 -0.26585955572E+03 -0.62876332397E+03  0.71254002383E+03  0.12699999809E+01 0.  1.
       -4    1    3    3    0  502  0.20417407211E+03  0.26585955572E+03 -0.23314730365E+03  0.40832295207E+03  0.12699999809E+01 0. -1.
</event>
<event>
 5   0  0.6131198E-02  0.7828907E+03  0.7818609E-02  0.9585118E-01
        2   -1    0    0  501    0  0.00000000000E+00  0.00000000000E+00  0.10850618078E+04  0.10850618078E+04  0.25500000920E-02 0.  1.
       -2   -1    0    0    0  501  0.00000000000E+00  0.00000000000E+00 -0.14121726787E+03  0.14121726789E+03  0.25500000920E-02 0. -1.
    10030    2    1    2    0    0  0.00000000000E+00  0.00000000000E+00  0.94384453995E+03  0.12262790757E+04  0.78289070497E+03 0.  0.
        1    1    3    3  502    0 -0.32792875603E+03  0.20483758441E+03  0.37621138787E+03  0.53947262526E+03  0.50400001928E-02 0.  1.
       -1    1    3    3    0  502  0.32792875603E+03 -0.20483758441E+03  0.56763315207E+03  0.68680645045E+03  0.50400001928E-02 0. -1.
</event>
<event>
 5   0  0.5899787E-02  0.6936345E+03  0.7818609E-02  0.9728180E-01
        2   -1    0    0  501    0  0.00000000000E+00  0.00000000000E+00  0.33920192417E+03  0.33920192418E+03  0.25500000920E-02 0.  1.
       -2   -1    0    0    0  501  0.00000000000E+00  0.00000000000E+00 -0.35460354558E+03  0.35460354559E+03  0.25500000920E-02 0. -1.
    10030    2    1    2    0    0  0.00000000000E+00  0.00000000000E+00 -0.15401621414E+02  0.69380546977E+03  0.69363450025E+03 0.  0.
        2    1    3    3  502    0 -0.22081955899E+02 -0.10753650301E+03 -0.33676593098E+03  0.35420757266E+03  0.25500000920E-02 0. -1.
       -2    1    3    3    0  502  0.22081955899E+02  0.10753650301E+03  0.32136430956E+03  0.33959789711E+03  0.25500000920E-02 0.  1.
</event>
<event>
 5   0  0.6167756E-02  0.7383076E+03  0.7818609E-02  0.9653874E-01
        2   -1    0    0  501    0  0.00000000000E+00  0.00000000000E+00  0.31912552556E+03  0.31912552557E+03  0.25500000920E-02 0. -1.
       -2   -1    0    0    0  501  0.00000000000E+00  0.00000000000E+00 -0.42702489472E+03  0.42702489473E+03  0.25500000920E-02 0.  1.
    10030    2    1    2    0    0  0.00000000000E+00  0.00000000000E+00 -0.10789936916E+03  0.74615042030E+03  0.73830764309E+03 0.  0.
        4    1    3    3  502    0  0.89945047574E+02 -0.27373221307E+03 -0.28716822951E+03  0.40680049287E+03  0.12699999809E+01 0.  1.
       -4    1    3    3    0  502 -0.89945047574E+02  0.27373221307E+03  0.17926886036E+03  0.33934992743E+03  0.12699999809E+01 0. -1.
</event>
<event>
 5   0  0.3439015E-02  0.6885057E+03  0.7818609E-02  0.9737093E-01
       -1   -1    0    0    0  501  0.00000000000E+00  0.00000000000E+00  0.20023856859E+03  0.20023856865E+03  0.50400001928E-02 0.  1.
        1   -1    0    0  501    0  0.00000000000E+00  0.00000000000E+00 -0.59184420419E+03  0.59184420421E+03  0.50400001928E-02 0. -1.
    10030    2    1    2    0    0  0.00000000000E+00  0.00000000000E+00 -0.39160563560E+03  0.79208277286E+03  0.68850573362E+03 0.  0.
        1    1    3    3  502    0 -0.34247872881E+03  0.21838598022E+02 -0.16447726544E+03  0.38055403680E+03  0.50400001928E-02 0. -1.
       -1    1    3    3    0  502  0.34247872881E+03 -0.21838598022E+02 -0.22712837016E+03  0.41152873607E+03  0.50400001928E-02 0.  1.
</event>
<event>
 5   0  0.3717372E-02  0.7049356E+03  0.7818609E-02  0.9708829E-01
       -1   -1    0    0    0  501  0.00000000000E+00  0.00000000000E+00  0.65701813558E+02  0.65701813751E+02  0.50400001928E-02 0. -1.
        1   -1    0    0  501    0  0.00000000000E+00  0.00000000000E+00 -0.18908694357E+04  0.18908694357E+04  0.50400001928E-02 0.  1.
    10030    2    1    2    0    0  0.00000000000E+00  0.00000000000E+00 -0.18251676221E+04  0.19565712494E+04  0.70493560364E+03 0.  0.
        3    1    3    3  502    0  0.16787498212E+03 -0.29413969287E+03 -0.64158367747E+03  0.72548590196E+03  0.10100000352E+00 0. -1.
       -3    1    3    3    0  502 -0.16787498212E+03  0.29413969287E+03 -0.11835839446E+04  0.12310853475E+04  0.10100000352E+00 0.  1.
</event>
<event>
 5   0  0.5899787E-02  0.7146244E+03  0.7818609E-02  0.9692544E-01
       -2   -1    0    0    0  501  0.00000000000E+00  0.00000000000E+00  0.31277182334E+03  0.31277182335E+03  0.25500000920E-02 0.  1.
        2   -1    0    0  501    0  0.00000000000E+00  0.00000000000E+00 -0.40819540266E+03  0.40819540267E+03  0.25500000920E-02 0. -1.
    10030    2    1    2    0    0  0.00000000000E+00  0.00000000000E+00 -0.95423579322E+02  0.72096722602E+03  0.71462443389E+03 0.  0.
        2    1    3    3  502    0  0.17504390092E+03  0.10422858557E+03  0.24843757611E+03  0.32128677926E+03  0.25500000920E-02 0.  1.
       -2    1    3    3    0  502 -0.17504390092E+03 -0.10422858557E+03 -0.34386115543E+03  0.39968044676E+03  0.25500000920E-02 0. -1.
</event>
<event>
 5   0  0.2439375E-02  0.7099899E+03  0.7818609E-02  0.9700299E-01
       -3   -1    0    0    0  501  0.00000000000E+00  0.00000000000E+00  0.80930397203E+03  0.80930397833E+03  0.10100000352E+00 0. -1.
        3   -1    0    0  501    0  0.00000000000E+00  0.00000000000E+00 -0.15571578586E+03  0.15571581861E+03  0.10100000352E+00 0.  1.
    10030    2    1    2    0    0  0.00000000000E+00  0.00000000000E+00  0.65358818618E+03  0.96501979694E+03  0.70998992344E+03 0.  0.
        4    1    3    3  502    0 -0.12872276181E+03  0.11989524182E+03  0.74589451597E+03  0.76635804965E+03  0.12699999809E+01 0. -1.
       -4    1    3    3    0  502  0.12872276181E+03 -0.11989524182E+03 -0.92306329790E+02  0.19866174729E+03  0.12699999809E+01 0.  1.
</event>
<event>
 5   0  0.3755872E-02  0.7199936E+03  0.7818609E-02  0.9683638E-01
       -1   -1    0    0    0  501  0.00000000000E+00  0.00000000000E+00  0.25151705239E+03  0.25151705244E+03  0.50400001928E-02 0.  1.
        1   -1    0    0  501    0  0.00000000000E+00  0.00000000000E+00 -0.51526402758E+03  0.51526402761E+03  0.50400001928E-02 0. -1.
    10030    2    1    2    0    0  0.00000000000E+00  0.00000000000E+00 -0.26374697519E+03  0.76678108005E+03  0.71999358178E+03 0.  0.
        2    1    3    3  502    0  0.10269785117E+02  0.63434834056E+02  0.24535950694E+03  0.25363504157E+03  0.25500000920E-02 0.  1.
       -2    1    3    3    0  502 -0.10269785117E+02 -0.63434834056E+02 -0.50910648213E+03  0.51314603848E+03  0.25500000920E-02 0. -1.
</event>
<event>
 5   0  0.3755872E-02  0.6993301E+03  0.7818609E-02  0.9718378E-01
       -1   -1    0    0    0  501  0.00000000000E+00  0.00000000000E+00  0.65550112671E+03  0.65550112673E+03  0.50400001928E-02 0. -1.
        1   -1    0    0  501    0  0.00000000000E+00  0.00000000000E+00 -0.18652240590E+03  0.18652240597E+03  0.50400001928E-02 0.  1.
    10030    2    1    2    0    0  0.00000000000E+00  0.00000000000E+00  0.46897872081E+03  0.84202353269E+03  0.69933010020E+03 0.  0.
        2    1    3    3  502    0  0.28916821611E+03 -0.55678261867E+01  0.47109649726E+03  0.55279396491E+03  0.25500000920E-02 0. -1.
       -2    1    3    3    0  502 -0.28916821611E+03  0.55678261867E+01 -0.21177764561E+01  0.28922956779E+03  0.25500000920E-02 0.  1.
</event>
<event>
 5   0  0.3749730E-02  0.6687097E+03  0.7818609E-02  0.9772292E-01
        1   -1    0    0  501    0  0.00000000000E+00  0.00000000000E+00  0.11677029048E+04  0.11677029048E+04  0.50400001928E-02 0.  1.
       -1   -1    0    0    0  501  0.00000000000E+00  0.00000000000E+00 -0.95737682408E+02  0.95737682541E+02  0.50400001928E-02 0. -1.
    10030    2    1    2    0    0  0.00000000000E+00  0.00000000000E+00  0.10719652224E+04  0.12634405873E+04  0.66870971261E+03 0.  0.
        4    1    3    3  502    0 -0.32730566735E+03  0.54461670804E+02  0.45816246858E+03  0.56569385181E+03  0.12699999809E+01 0.  1.
       -4    1    3    3    0  502  0.32730566735E+03 -0.54461670804E+02  0.61380275379E+03  0.69774673552E+03  0.12699999809E+01 0. -1.
</event>
<event>
 5   0  0.5899787E-02  0.7414731E+03  0.7818609E-02  0.9648824E-01
       -2   -1    0    0    0  501  0.00000000000E+00  0.00000000000E+00  0.17871783865E+03  0.17871783867E+03  0.25500000920E-02 0.  1.
        2   -1    0    0  501    0  0.00000000000E+00  0.00000000000E+00 -0.76906470705E+03  0.76906470705E+03  0.25500000920E-02 0. -1.
    10030    2    1    2    0    0  0.00000000000E+00  0.00000000000E+00 -0.59034686839E+03  0.94778254572E+03  0.74147308039E+03 0.  0.
        2    1    3    3  502    0  0.14974496056E+03 -0.24101166510E+02 -0.72759211656E+03  0.74323260661E+03  0.25500000920E-02 0. -1.
       -2    1    3    3    0  502 -0.14974496056E+03  0.24101166510E+02  0.13724524816E+03  0.20454993911E+03  0.25500000920E-02 0.  1.
</event>
<event>
 5   0  0.3439015E-02  0.7098644E+03  0.7818609E-02  0.9700510E-01
        1   -1    0    0  501    0  0.00000000000E+00  0.00000000000E+00  0.79431872960E+03  0.79431872962E+03  0.50400001928E-02 0. -1.
       -1   -1    0    0    0  501  0.00000000000E+00  0.00000000000E+00 -0.15859736794E+03  0.15859736802E+03  0.50400001928E-02 0.  1.
    10030    2    1    2    0    0  0.00000000000E+00  0.00000000000E+00  0.63572136166E+03  0.95291609764E+03  0.70986438104E+03 0.  0.
        1    1    3    3  502    0 -0.34660132888E+03 -0.22978165662E+02  0.21998216146E+03  0.41116010101E+03  0.50400001928E-02 0.  1.
       -1    1    3    3    0  502  0.34660132888E+03  0.22978165662E+02  0.41573920020E+03  0.54175599663E+03  0.50400001928E-02 0. -1.
</event>
<event>
 5   0  0.5899787E-02  0.7073799E+03  0.7818609E-02  0.9704694E-01
       -2   -1    0    0    0  501  0.00000000000E+00  0.00000000000E+00  0.33216306640E+03  0.33216306641E+03  0.25500000920E-02 0.  1.
        2   -1    0    0  501    0  0.00000000000E+00  0.00000000000E+00 -0.37661199485E+03  0.37661199486E+03  0.25500000920E-02 0. -1.
    10030    2    1    2    0    0  0.00000000000E+00  0.00000000000E+00 -0.44448928457E+02  0.70877506127E+03  0.70737994051E+03 0.  0.
        2    1    3    3  502    0 -0.16093353815E+03 -0.27743240737E+03  0.12716099659E+03  0.34501922181E+03  0.25500000920E-02 0.  1.
       -2    1    3    3    0  502  0.16093353815E+03  0.27743240737E+03 -0.17160992504E+03  0.36375583946E+03  0.25500000920E-02 0. -1.
</event>
<event>
 5   0  0.5899787E-02  0.6807360E+03  0.7818609E-02  0.9750755E-01
       -2   -1    0    0    0  501  0.00000000000E+00  0.00000000000E+00  0.90003053302E+02  0.90003053338E+02  0.25500000920E-02 0. -1.
        2   -1    0    0  501    0  0.00000000000E+00  0.00000000000E+00 -0.12871828658E+04  0.12871828658E+04  0.25500000920E-02 0.  1.
    10030    2    1    2    0    0  0.00000000000E+00  0.00000000000E+00 -0.11971798125E+04  0.13771859191E+04  0.68073603725E+03 0.  0.
        2    1    3    3  502    0  0.22019564765E+02  0.10708421519E+03  0.53516498239E+02  0.12172060617E+03  0.25500000920E-02 0. -1.
       -2    1    3    3    0  502 -0.22019564765E+02 -0.10708421519E+03 -0.12506963107E+04  0.12554653129E+04  0.25500000920E-02 0.  1.
</event>
<event>
 5   0  0.5899787E-02  0.7007684E+03  0.7818609E-02  0.9715919E-01
        2   -1    0    0  501    0  0.00000000000E+00  0.00000000000E+00  0.14767465601E+03  0.14767465603E+03  0.25500000920E-02 0.  1.
       -2   -1    0    0    0  501  0.00000000000E+00  0.00000000000E+00 -0.83134829941E+03  0.83134829942E+03  0.25500000920E-02 0. -1.
    10030    2    1    2    0    0  0.00000000000E+00  0.00000000000E+00 -0.68367364340E+03  0.97902295545E+03  0.70076836159E+03 0.  0.
        2    1    3    3  502    0 -0.13689792235E+02  0.58810153877E+02 -0.82402466160E+03  0.82623403921E+03  0.25500000920E-02 0. -1.
       -2    1    3    3    0  502  0.13689792235E+02 -0.58810153877E+02  0.14035101820E+03  0.15278891624E+03  0.25500000920E-02 0.  1.
</event>
<event>
 5   0  0.6131198E-02  0.4574054E+03  0.7818609E-02  0.1025536E+00
       -2   -1    0    0    0  501  0.00000000000E+00  0.00000000000E+00  0.11637497495E+03  0.11637497498E+03  0.25500000920E-02 0. -1.
        2   -1    0    0  501    0  0.00000000000E+00  0.00000000000E+00 -0.44945166709E+03  0.44945166710E+03  0.25500000920E-02 0.  1.
    10030    2    1    2    0    0  0.00000000000E+00  0.00000000000E+00 -0.33307669214E+03  0.56582664208E+03  0.45740540666E+03 0.  0.
        1    1    3    3  502    0  0.20797914736E+03  0.90347701851E+02 -0.20337819483E+03  0.30459928287E+03  0.50400001928E-02 0. -1.
       -1    1    3    3    0  502 -0.20797914736E+03 -0.90347701851E+02 -0.12969849731E+03  0.26122735921E+03  0.50400001928E-02 0.  1.
</event>
<event>
 5   0  0.3755872E-02  0.6947572E+03  0.7818609E-02  0.9726240E-01
        1   -1    0    0  501    0  0.00000000000E+00  0.00000000000E+00  0.21706979580E+04  0.21706979580E+04  0.50400001928E-02 0.  1.
       -1   -1    0    0    0  501  0.00000000000E+00  0.00000000000E+00 -0.55591282477E+02  0.55591282705E+02  0.50400001928E-02 0. -1.
    10030    2    1    2    0    0  0.00000000000E+00  0.00000000000E+00  0.21151066756E+04  0.22262892407E+04  0.69475717662E+03 0.  0.
        2    1    3    3  502    0 -0.19156202703E+03 -0.15729166878E+03  0.18374525674E+04  0.18540950937E+04  0.25500000920E-02 0.  1.
       -2    1    3    3    0  502  0.19156202703E+03  0.15729166878E+03  0.27765410818E+03  0.37219414700E+03  0.25500000920E-02 0. -1.
</event>
<event>
 5   0  0.6167756E-02  0.5606362E+03  0.7818609E-02  0.9990616E-01
       -2   -1    0    0    0  501  0.00000000000E+00  0.00000000000E+00  0.40368690924E+03  0.40368690925E+03  0.25500000920E-02 0.  1.
        2   -1    0    0  501    0  0.00000000000E+00  0.00000000000E+00 -0.19465144086E+03  0.19465144088E+03  0.25500000920E-02 0. -1.
    10030    2    1    2    0    0  0.00000000000E+00  0.00000000000E+00  0.20903546838E+03  0.59833835012E+03  0.56063620485E+03 0.  0.
        4    1    3    3  502    0 -0.16405115058E+03 -0.19650936659E+03  0.22642686929E+03  0.34175934691E+03  0.12699999809E+01 0.  1.
       -4    1    3    3    0  502  0.16405115058E+03  0.19650936659E+03 -0.17391400909E+02  0.25657900321E+03  0.12699999809E+01 0. -1.
</event>
<event>
 5   0  0.5987810E-02  0.7326257E+03  0.7818609E-02  0.9663009E-01
        2   -1    0    0  501    0  0.00000000000E+00  0.00000000000E+00  0.21932304022E+03  0.21932304024E+03  0.25500000920E-02 0.  1.
       -2   -1    0    0    0  501  0.00000000000E+00  0.00000000000E+00 -0.61181484007E+03  0.61181484007E+03  0.25500000920E-02 0. -1.
    10030    2    1    2    0    0  0.00000000000E+00  0.00000000000E+00 -0.39249179984E+03  0.83113788031E+03  0.73262566372E+03 0.  0.
        5    1    3    3  502    0 -0.10263072177E+03 -0.33413958855E+03 -0.72071656836E+02  0.35692960568E+03  0.46999998093E+01 0.  1.
       -5    1    3    3    0  502  0.10263072177E+03  0.33413958855E+03 -0.32042014301E+03  0.47420827463E+03  0.46999998093E+01 0. -1.
</event>
<event>
 5   0  0.3717372E-02  0.6995532E+03  0.7818609E-02  0.9717997E-01
       -1   -1    0    0    0  501  0.00000000000E+00  0.00000000000E+00  0.16847429262E+03  0.16847429270E+03  0.50400001928E-02 0. -1.
        1   -1    0    0  501    0  0.00000000000E+00  0.00000000000E+00 -0.72618602321E+03  0.72618602323E+03  0.50400001928E-02 0.  1.
    10030    2    1    2    0    0  0.00000000000E+00  0.00000000000E+00 -0.55771173059E+03  0.89466031592E+03  0.69955321917E+03 0.  0.
        3    1    3    3  502    0  0.27380950915E+03  0.10360622847E+03 -0.34061215435E+02  0.29473051161E+03  0.10100000352E+00 0.  1.
       -3    1    3    3    0  502 -0.27380950915E+03 -0.10360622847E+03 -0.52365051515E+03  0.59992980431E+03  0.10100000352E+00 0. -1.
</event>
<event>
 5   0  0.5987810E-02  0.6942297E+03  0.7818609E-02  0.9727151E-01
        2   -1    0    0  501    0  0.00000000000E+00  0.00000000000E+00  0.77714538447E+03  0.77714538448E+03  0.25500000920E-02 0.  1.
       -2   -1    0    0    0  501  0.00000000000E+00  0.00000000000E+00 -0.15504013944E+03  0.15504013947E+03  0.25500000920E-02 0. -1.
    10030    2    1    2    0    0  0.00000000000E+00  0.00000000000E+00  0.62210524503E+03  0.93218552394E+03  0.69422972794E+03 0.  0.
        5    1    3    3  502    0  0.23211913405E+03 -0.78376566791E+02  0.64117685096E+03  0.68640514481E+03  0.46999998093E+01 0.  1.
       -5    1    3    3    0  502 -0.23211913405E+03  0.78376566791E+02 -0.19071605932E+02  0.24578037913E+03  0.46999998093E+01 0. -1.
</event>
<event>
 5   0  0.3717372E-02  0.7059316E+03  0.7818609E-02  0.9707142E-01
       -1   -1    0    0    0  501  0.00000000000E+00  0.00000000000E+00  0.31037289488E+03  0.31037289492E+03  0.50400001928E-02 0. -1.
        1   -1    0    0  501    0  0.00000000000E+00  0.00000000000E+00 -0.40140375134E+03  0.40140375137E+03  0.50400001928E-02 0.  1.
    10030    2    1    2    0    0  0.00000000000E+00  0.00000000000E+00 -0.91030856458E+02  0.71177664629E+03  0.70593156706E+03 0.  0.
        3    1    3    3  502    0 -0.24146586363E+03 -0.25429811866E+03 -0.50390761135E+01  0.35071170346E+03  0.10100000352E+00 0.  1.
       -3    1    3    3    0  502  0.24146586363E+03  0.25429811866E+03 -0.85991780345E+02  0.36106494283E+03  0.10100000352E+00 0. -1.
</event>
<event>
 5   0  0.5987810E-02  0.7388243E+03  0.7818609E-02  0.9653048E-01
       -2   -1    0    0    0  501  0.00000000000E+00  0.00000000000E+00  0.62969083379E+03  0.62969083380E+03  0.25500000920E-02 0. -1.
        2   -1    0    0  501    0  0.00000000000E+00  0.00000000000E+00 -0.21671798224E+03  0.21671798226E+03  0.25500000920E-02 0.  1.
    10030    2    1    2    0    0  0.00000000000E+00  0.00000000000E+00  0.41297285155E+03  0.84640881605E+03  0.73882427395E+03 0.  0.
        5    1    3    3  502    0  0.34382368669E+03 -0.11246715698E+03  0.29206054230E+03  0.46495702951E+03  0.46999998093E+01 0. -1.
       -5    1    3    3    0  502 -0.34382368669E+03  0.11246715698E+03  0.12091230925E+03  0.38145178654E+03  0.46999998093E+01 0.  1.
</event>
<event>
 5   0  0.5899787E-02  0.5600434E+03  0.7818609E-02  0.9991956E-01
       -2   -1    0    0    0  501  0.00000000000E+00  0.00000000000E+00  0.20241804855E+03  0.20241804856E+03  0.25500000920E-02 0. -1.
        2   -1    0    0  501    0  0.00000000000E+00  0.00000000000E+00 -0.38737730908E+03  0.38737730909E+03  0.25500000920E-02 0.  1.
    10030    2    1    2    0    0  0.00000000000E+00  0.00000000000E+00 -0.18495926053E+03  0.58979535765E+03  0.56004342318E+03 0.  0.
        2    1    3    3  502    0  0.24690955819E+03  0.61343038755E+02 -0.21567654669E+03  0.33353211409E+03  0.25500000920E-02 0.  1.
       -2    1    3    3    0  502 -0.24690955819E+03 -0.61343038755E+02  0.30717286161E+02  0.25626324357E+03  0.25500000920E-02 0. -1.
</event>
<event>
 5   0  0.3439015E-02  0.7039506E+03  0.7818609E-02  0.9710500E-01
       -1   -1    0    0    0  501  0.00000000000E+00  0.00000000000E+00  0.23597749785E+03  0.23597749790E+03  0.50400001928E-02 0.  1.
        1   -1    0    0  501    0  0.00000000000E+00  0.00000000000E+00 -0.52499333971E+03  0.52499333973E+03  0.50400001928E-02 0. -1.
    10030    2    1    2    0    0  0.00000000000E+00  0.00000000000E+00 -0.28901584187E+03  0.76097083763E+03  0.70395060827E+03 0.  0.
        1    1    3    3  502    0  0.76470541209E+02 -0.16591250218E+03 -0.46972900744E+03  0.50400401041E+03  0.50400001928E-02 0. -1.
       -1    1    3    3    0  502 -0.76470541209E+02  0.16591250218E+03  0.18071316558E+03  0.25696682722E+03  0.50400001928E-02 0.  1.
</event>
<event>
 5   0  0.3439015E-02  0.7208562E+03  0.7818609E-02  0.9682215E-01
       -1   -1    0    0    0  501  0.00000000000E+00  0.00000000000E+00  0.67856239581E+03  0.67856239583E+03  0.50400001928E-02 0.  1.
        1   -1    0    0  501    0  0.00000000000E+00  0.00000000000E+00 -0.19144650861E+03  0.19144650868E+03  0.50400001928E-02 0. -1.
    10030    2    1    2    0    0  0.00000000000E+00  0.00000000000E+00  0.48711588719E+03  0.87000890450E+03  0.72085616205E+03 0.  0.
        1    1    3    3  502    0  0.31446011744E+03 -0.12457624283E+03  0.93279425525E+02  0.35086387245E+03  0.50400001928E-02 0. -1.
       -1    1    3    3    0  502 -0.31446011744E+03  0.12457624283E+03  0.39383646167E+03  0.51914503205E+03  0.50400001928E-02 0.  1.
</event>
<event>
 5   0  0.6167756E-02  0.7094656E+03  0.7818609E-02  0.9701180E-01
        2   -1    0    0  501    0  0.00000000000E+00  0.00000000000E+00  0.24060246046E+03  0.24060246047E+03  0.25500000920E-02 0. -1.
       -2   -1    0    0    0  501  0.00000000000E+00  0.00000000000E+00 -0.52300111101E+03  0.52300111102E+03  0.25500000920E-02 0.  1.
    10030    2    1    2    0    0  0.00000000000E+00  0.00000000000E+00 -0.28239865056E+03  0.76360357149E+03  0.70946558518E+03 0.  0.
        4    1    3    3  502    0  0.30857734105E+03  0.16349207765E+03 -0.74121005550E+02  0.35699463753E+03  0.12699999809E+01 0.  1.
       -4    1    3    3    0  502 -0.30857734105E+03 -0.16349207765E+03 -0.20827764501E+03  0.40660893396E+03  0.12699999809E+01 0. -1.
</event>
<event>
 5   0  0.6167756E-02  0.7082287E+03  0.7818609E-02  0.9703263E-01
        2   -1    0    0  501    0  0.00000000000E+00  0.00000000000E+00  0.13893755492E+04  0.13893755492E+04  0.25500000920E-02 0.  1.
       -2   -1    0    0    0  501  0.00000000000E+00  0.00000000000E+00 -0.90254186072E+02  0.90254186108E+02  0.25500000920E-02 0. -1.
    10030    2    1    2    0    0  0.00000000000E+00  0.00000000000E+00  0.12991213632E+04  0.14796297353E+04  0.70822866187E+03 0.  0.
        4    1    3    3  502    0  0.12765726012E+03  0.16840523475E+03  0.55924604520E+02  0.21859980202E+03  0.12699999809E+01 0. -1.
       -4    1    3    3    0  502 -0.12765726012E+03 -0.16840523475E+03  0.12431967586E+04  0.12610299333E+04  0.12699999809E+01 0.  1.
</event>
<event>
 5   0  0.6131198E-02  0.6805411E+03  0.7818609E-02  0.9751101E-01
        2   -1    0    0  501    0  0.00000000000E+00  0.00000000000E+00  0.98410874211E+03  0.98410874211E+03  0.25500000920E-02 0. -1.
       -2   -1    0    0    0  501  0.00000000000E+00  0.00000000000E+00 -0.11765372673E+03  0.11765372676E+03  0.25500000920E-02 0.  1.
    10030    2    1    2    0    0  0.00000000000E+00  0.00000000000E+00  0.86645501538E+03  0.11017624689E+04  0.68054114066E+03 0.  0.
        1    1    3    3  502    0  0.14358354495E+03 -0.42439670309E+02 -0.61458465878E+02  0.16184715954E+03  0.50400001928E-02 0.  1.
       -1    1    3    3    0  502 -0.14358354495E+03  0.42439670309E+02  0.92791348126E+03  0.93991530933E+03  0.50400001928E-02 0. -1.
</event>
<event>
 5   0  0.5987810E-02  0.6965282E+03  0.7818609E-02  0.9723188E-01
       -2   -1    0    0    0  501  0.00000000000E+00  0.00000000000E+00  0.15026263174E+03  0.15026263176E+03  0.25500000920E-02 0. -1.
        2   -1    0    0  501    0  0.00000000000E+00  0.00000000000E+00 -0.80717267274E+03  0.80717267274E+03  0.25500000920E-02 0.  1.
    10030    2    1    2    0    0  0.00000000000E+00  0.00000000000E+00 -0.65691004100E+03  0.95743530450E+03  0.69652821934E+03 0.  0.
        5    1    3    3  502    0 -0.37889705086E+02  0.75598577728E+02 -0.79280147834E+03  0.79731239095E+03  0.46999998093E+01 0.  1.
       -5    1    3    3    0  502  0.37889705086E+02 -0.75598577728E+02  0.13589143734E+03  0.16012291355E+03  0.46999998093E+01 0. -1.
</event>
<event>
 5   0  0.3717372E-02  0.6541848E+03  0.7818609E-02  0.9798958E-01
       -1   -1    0    0    0  501  0.00000000000E+00  0.00000000000E+00  0.28955340681E+03  0.28955340685E+03  0.50400001928E-02 0.  1.
        1   -1    0    0  501    0  0.00000000000E+00  0.00000000000E+00 -0.36949811574E+03  0.36949811577E+03  0.50400001928E-02 0. -1.
    10030    2    1    2    0    0  0.00000000000E+00  0.00000000000E+00 -0.79944708931E+02  0.65905152262E+03  0.65418480033E+03 0.  0.
        3    1    3    3  502    0  0.12882328256E+03  0.40139704409E+02 -0.34015343921E+03  0.36593852818E+03  0.10100000352E+00 0. -1.
       -3    1    3    3    0  502 -0.12882328256E+03 -0.40139704409E+02  0.26020873027E+03  0.29311299444E+03  0.10100000352E+00 0.  1.
</event>
<event>
 5   0  0.3439015E-02  0.8481591E+03  0.7818609E-02  0.9492811E-01
       -1   -1    0    0    0  501  0.00000000000E+00  0.00000000000E+00  0.98439429191E+03  0.98439429192E+03  0.50400001928E-02 0.  1.
        1   -1    0    0  501    0  0.00000000000E+00  0.00000000000E+00 -0.18269452355E+03  0.18269452362E+03  0.50400001928E-02 0. -1.
    10030    2    1    2    0    0  0.00000000000E+00  0.00000000000E+00  0.80169976836E+03  0.11670888155E+04  0.84815905629E+03 0.  0.
        1    1    3    3  502    0 -0.20336806798E+03 -0.24216720345E+03  0.78965919089E+03  0.85062633588E+03  0.50400001928E-02 0.  1.
       -1    1    3    3    0  502  0.20336806798E+03  0.24216720345E+03  0.12040577468E+02  0.31646247966E+03  0.50400001928E-02 0. -1.
</event>
<event>
 5   0  0.5899787E-02  0.7120960E+03  0.7818609E-02  0.9696767E-01
       -2   -1    0    0    0  501  0.00000000000E+00  0.00000000000E+00  0.53911390048E+03  0.53911390049E+03  0.25500000920E-02 0.  1.
        2   -1    0    0  501    0  0.00000000000E+00  0.00000000000E+00 -0.23514541830E+03  0.23514541831E+03  0.25500000920E-02 0. -1.
    10030    2    1    2    0    0  0.00000000000E+00  0.00000000000E+00  0.30396848219E+03  0.77425931880E+03  0.71209595883E+03 0.  0.
        2    1    3    3  502    0 -0.13094561693E+03  0.24216388783E+03  0.39748231727E+03  0.48351038842E+03  0.25500000920E-02 0.  1.
       -2    1    3    3    0  502  0.13094561693E+03 -0.24216388783E+03 -0.93513835079E+02  0.29074893038E+03  0.25500000920E-02 0. -1.
</event>
<event>
 5   0  0.3601475E-02  0.6947858E+03  0.7818609E-02  0.9726191E-01
       -1   -1    0    0    0  501  0.00000000000E+00  0.00000000000E+00  0.71298771299E+03  0.71298771300E+03  0.50400001928E-02 0. -1.
        1   -1    0    0  501    0  0.00000000000E+00  0.00000000000E+00 -0.16926215391E+03  0.16926215399E+03  0.50400001928E-02 0.  1.
    10030    2    1    2    0    0  0.00000000000E+00  0.00000000000E+00  0.54372555908E+03  0.88224986699E+03  0.69478582614E+03 0.  0.
        5    1    3    3  502    0 -0.17952043389E+03  0.27513342059E+03  0.41515380617E+03  0.52943437561E+03  0.46999998093E+01 0. -1.
       -5    1    3    3    0  502  0.17952043389E+03 -0.27513342059E+03  0.12857175291E+03  0.35281549138E+03  0.46999998093E+01 0.  1.
</event>
<event>
 5   0  0.3439015E-02  0.6990207E+03  0.7818609E-02  0.9718908E-01
        1   -1    0    0  501    0  0.00000000000E+00  0.00000000000E+00  0.22423359703E+03  0.22423359709E+03  0.50400001928E-02 0.  1.
       -1   -1    0    0    0  501  0.00000000000E+00  0.00000000000E+00 -0.54477785901E+03  0.54477785904E+03  0.50400001928E-02 0. -1.
    10030    2    1    2    0    0  0.00000000000E+00  0.00000000000E+00 -0.32054426198E+03  0.76901145612E+03  0.69902074058E+03 0.  0.
        1    1    3    3  502    0 -0.34353083437E+03  0.34501780429E+02 -0.10048257287E+03  0.35958386295E+03  0.50400001928E-02 0.  1.
       -1    1    3    3    0  502  0.34353083437E+03 -0.34501780429E+02 -0.22006168911E+03  0.40942759318E+03  0.50400001928E-02 0. -1.
</event>
<event>
 5   0  0.3755872E-02  0.6915990E+03  0.7818609E-02  0.9731708E-01
       -1   -1    0    0    0  501  0.00000000000E+00  0.00000000000E+00  0.63138272493E+03  0.63138272495E+03  0.50400001928E-02 0.  1.
        1   -1    0    0  501    0  0.00000000000E+00  0.00000000000E+00 -0.18938956799E+03  0.18938956806E+03  0.50400001928E-02 0. -1.
    10030    2    1    2    0    0  0.00000000000E+00  0.00000000000E+00  0.44199315694E+03  0.82077229301E+03  0.69159902125E+03 0.  0.
        2    1    3    3  502    0  0.25412339827E+03  0.21872811558E+03  0.12059927767E+03  0.35632130988E+03  0.25500000920E-02 0. -1.
       -2    1    3    3    0  502 -0.25412339827E+03 -0.21872811558E+03  0.32139387927E+03  0.46445098313E+03  0.25500000920E-02 0.  1.
</event>
<event>
 5   0  0.5899787E-02  0.6988978E+03  0.7818609E-02  0.9719119E-01
        2   -1    0    0  501    0  0.00000000000E+00  0.00000000000E+00  0.65705171845E+03  0.65705171846E+03  0.25500000920E-02 0. -1.
       -2   -1    0    0    0  501  0.00000000000E+00  0.00000000000E+00 -0.18585221390E+03  0.18585221391E+03  0.25500000920E-02 0.  1.
    10030    2    1    2    0    0  0.00000000000E+00  0.00000000000E+00  0.47119950456E+03  0.84290393237E+03  0.69889775083E+03 0.  0.
        2    1    3    3  502    0  0.23235220581E+02  0.21638294691E+03  0.56534529103E+03  0.60578606230E+03  0.25500000920E-02 0. -1.
       -2    1    3    3    0  502 -0.23235220581E+02 -0.21638294691E+03 -0.94145786467E+02  0.23711787007E+03  0.25500000920E-02 0.  1.
</event>
<event>
 5   0  0.6248886E-02  0.6979883E+03  0.7818609E-02  0.9720679E-01
       -2   -1    0    0    0  501  0.00000000000E+00  0.00000000000E+00  0.14101300411E+03  0.14101300413E+03  0.25500000920E-02 0.  1.
        2   -1    0    0  501    0  0.00000000000E+00  0.00000000000E+00 -0.86372818345E+03  0.86372818345E+03  0.25500000920E-02 0. -1.
    10030    2    1    2    0    0  0.00000000000E+00  0.00000000000E+00 -0.72271517934E+03  0.10047411876E+04  0.69798826895E+03 0.  0.
        3    1    3    3  502    0  0.31851496263E+03 -0.12040695533E+03 -0.47143114765E+03  0.58154703463E+03  0.10100000352E+00 0. -1.
       -3    1    3    3    0  502 -0.31851496263E+03  0.12040695533E+03 -0.25128403169E+03  0.42319415296E+03  0.10100000352E+00 0.  1.
</event>
<event>
 5   0  0.3601475E-02  0.7286522E+03  0.7818609E-02  0.9669450E-01
       -1   -1    0    0    0  501  0.00000000000E+00  0.00000000000E+00  0.17931277281E+04  0.17931277281E+04  0.50400001928E-02 0.  1.
        1   -1    0    0  501    0  0.00000000000E+00  0.00000000000E+00 -0.74023444560E+02  0.74023444731E+02  0.50400001928E-02 0. -1.
    10030    2    1    2    0    0  0.00000000000E+00  0.00000000000E+00  0.17191042835E+04  0.18671511728E+04  0.72865215606E+03 0.  0.
        5    1    3    3  502    0 -0.26599693520E+03 -0.23268957216E+03  0.10860462307E+04  0.11421109016E+04  0.46999998093E+01 0. -1.
       -5    1    3    3    0  502  0.26599693520E+03  0.23268957216E+03  0.63305805283E+03  0.72504027114E+03  0.46999998093E+01 0.  1.
</event>
<event>
 5   0  0.3439015E-02  0.7010012E+03  0.7818609E-02  0.9715522E-01
       -1   -1    0    0    0  501  0.00000000000E+00  0.00000000000E+00  0.54862151449E+03  0.54862151451E+03  0.50400001928E-02 0.  1.
        1   -1    0    0  501    0  0.00000000000E+00  0.00000000000E+00 -0.22392606964E+03  0.22392606969E+03  0.50400001928E-02 0. -1.
    10030    2    1    2    0    0  0.00000000000E+00  0.00000000000E+00  0.32469544485E+03  0.77254758420E+03  0.70100116830E+03 0.  0.
        1    1    3    3  502    0 -0.31303792707E+03 -0.13579393857E+03  0.74059309134E+02  0.34916689252E+03  0.50400001928E-02 0. -1.
       -1    1    3    3    0  502  0.31303792707E+03  0.13579393857E+03  0.25063613572E+03  0.42338069168E+03  0.50400001928E-02 0.  1.
</event>
<event>
 5   0  0.3717372E-02  0.7017256E+03  0.7818609E-02  0.9714286E-01
        1   -1    0    0  501    0  0.00000000000E+00  0.00000000000E+00  0.51587768851E+03  0.51587768854E+03  0.50400001928E-02 0.  1.
       -1   -1    0    0    0  501  0.00000000000E+00  0.00000000000E+00 -0.23863155358E+03  0.23863155364E+03  0.50400001928E-02 0. -1.
    10030    2    1    2    0    0  0.00000000000E+00  0.00000000000E+00  0.27724613493E+03  0.75450924218E+03  0.70172557114E+03 0.  0.
        3    1    3    3  502    0 -0.21073116354E+03  0.19816041856E+03 -0.74881882144E+02  0.29880174237E+03  0.10100000352E+00 0. -1.
       -3    1    3    3    0  502  0.21073116354E+03 -0.19816041856E+03  0.35212801708E+03  0.45570749981E+03  0.10100000352E+00 0.  1.
</event>
<event>
 5   0  0.5987810E-02  0.6937127E+03  0.7818609E-02  0.9728045E-01
       -2   -1    0    0    0  501  0.00000000000E+00  0.00000000000E+00  0.64559300142E+02  0.64559300193E+02  0.25500000920E-02 0.  1.
        2   -1    0    0  501    0  0.00000000000E+00  0.00000000000E+00 -0.18635475782E+04  0.18635475782E+04  0.25500000920E-02 0. -1.
    10030    2    1    2    0    0  0.00000000000E+00  0.00000000000E+00 -0.17989882781E+04  0.19281068784E+04  0.69371269985E+03 0.  0.
        5    1    3    3  502    0 -0.61298345050E+02  0.25305249905E+03 -0.26268828139E+03  0.36989225128E+03  0.46999998093E+01 0.  1.
       -5    1    3    3    0  502  0.61298345050E+02 -0.25305249905E+03 -0.15362999967E+04  0.15582146271E+04  0.46999998093E+01 0. -1.
</event>
<event>
 5   0  0.3601475E-02  0.6723321E+03  0.7818609E-02  0.9765754E-01
        1   -1    0    0  501    0  0.00000000000E+00  0.00000000000E+00  0.54951684823E+03  0.54951684825E+03  0.50400001928E-02 0.  1.
       -1   -1    0    0    0  501  0.00000000000E+00  0.00000000000E+00 -0.20564905223E+03  0.20564905229E+03  0.50400001928E-02 0. -1.
    10030    2    1    2    0    0  0.00000000000E+00  0.00000000000E+00  0.34386779600E+03  0.75516590054E+03  0.67233211749E+03 0.  0.
        5    1    3    3  502    0  0.77592703755E+02 -0.21648053700E+03 -0.10342533653E+03  0.25219702776E+03  0.46999998093E+01 0. -1.
       -5    1    3    3    0  502 -0.77592703755E+02  0.21648053700E+03  0.44729313253E+03  0.50296887278E+03  0.46999998093E+01 0.  1.
</event>
<event>
 5   0  0.5899787E-02  0.7111719E+03  0.7818609E-02  0.9698315E-01
        2   -1    0    0  501    0  0.00000000000E+00  0.00000000000E+00  0.15158166225E+04  0.15158166225E+04  0.25500000920E-02 0.  1.
       -2   -1    0    0    0  501  0.00000000000E+00  0.00000000000E+00 -0.83414685892E+02  0.83414685931E+02  0.25500000920E-02 0. -1.
    10030    2    1    2    0    0  0.00000000000E+00  0.00000000000E+00  0.14324019366E+04  0.15992313085E+04  0.71117189897E+03 0.  0.
        2    1    3    3  502    0 -0.15013863345E+03 -0.94479014078E+02  0.14092083460E+04  0.14203295589E+04  0.25500000920E-02 0.  1.
       -2    1    3    3    0  502  0.15013863345E+03  0.94479014078E+02  0.23193590636E+02  0.17890174959E+03  0.25500000920E-02 0. -1.
</event>
<event>
 5   0  0.5899787E-02  0.6565637E+03  0.7818609E-02  0.9794540E-01
       -2   -1    0    0    0  501  0.00000000000E+00  0.00000000000E+00  0.52258575596E+03  0.52258575596E+03  0.25500000920E-02 0.  1.
        2   -1    0    0  501    0  0.00000000000E+00  0.00000000000E+00 -0.20622258979E+03  0.20622258980E+03  0.25500000920E-02 0. -1.
    10030    2    1    2    0    0  0.00000000000E+00  0.00000000000E+00  0.31636316617E+03  0.72880834577E+03  0.65656374554E+03 0.  0.
        2    1    3    3  502    0  0.62718883258E+02  0.32212288372E+03  0.14875102904E+03  0.36031053160E+03  0.25500000920E-02 0.  1.
       -2    1    3    3    0  502 -0.62718883258E+02 -0.32212288372E+03  0.16761213713E+03  0.36849781417E+03  0.25500000920E-02 0. -1.
</event>
<event>
 5   0  0.5987810E-02  0.6942280E+03  0.7818609E-02  0.9727154E-01
        2   -1    0    0  501    0  0.00000000000E+00  0.00000000000E+00  0.68407271030E+03  0.68407271031E+03  0.25500000920E-02 0. -1.
       -2   -1    0    0    0  501  0.00000000000E+00  0.00000000000E+00 -0.17613352703E+03  0.17613352705E+03  0.25500000920E-02 0.  1.
    10030    2    1    2    0    0  0.00000000000E+00  0.00000000000E+00  0.50793918327E+03  0.86020623736E+03  0.69422802946E+03 0.  0.
        5    1    3    3  502    0 -0.13211060931E+03  0.31947004854E+03  0.29219534056E+03  0.45267486351E+03  0.46999998093E+01 0. -1.
       -5    1    3    3    0  502  0.13211060931E+03 -0.31947004854E+03  0.21574384271E+03  0.40753137385E+03  0.46999998093E+01 0.  1.
</event>
<event>
 5   0  0.6131198E-02  0.7047840E+03  0.7818609E-02  0.9709086E-01
        2   -1    0    0  501    0  0.00000000000E+00  0.00000000000E+00  0.99220022213E+03  0.99220022213E+03  0.25500000920E-02 0. -1.
       -2   -1    0    0    0  501  0.00000000000E+00  0.00000000000E+00 -0.12515630902E+03  0.12515630905E+03  0.25500000920E-02 0.  1.
    10030    2    1    2    0    0  0.00000000000E+00  0.00000000000E+00  0.86704391310E+03  0.11173565312E+04  0.70478398855E+03 0.  0.
        1    1    3    3  502    0 -0.22097405420E+03 -0.10949099511E+03  0.83259393430E+03  0.86834927886E+03  0.50400001928E-02 0. -1.
       -1    1    3    3    0  502  0.22097405420E+03  0.10949099511E+03  0.34449978799E+02  0.24900725232E+03  0.50400001928E-02 0.  1.
</event>
<event>
 5   0  0.5899787E-02  0.6836909E+03  0.7818609E-02  0.9745537E-01
        2   -1    0    0  501    0  0.00000000000E+00  0.00000000000E+00  0.57489588278E+03  0.57489588278E+03  0.25500000920E-02 0.  1.
       -2   -1    0    0    0  501  0.00000000000E+00  0.00000000000E+00 -0.20326865891E+03  0.20326865893E+03  0.25500000920E-02 0. -1.
    10030    2    1    2    0    0  0.00000000000E+00  0.00000000000E+00  0.37162722387E+03  0.77816454171E+03  0.68369091003E+03 0.  0.
        2    1    3    3  502    0  0.24536273582E+03 -0.14230538475E+03  0.40297863859E+03  0.49279354482E+03  0.25500000920E-02 0.  1.
       -2    1    3    3    0  502 -0.24536273582E+03  0.14230538475E+03 -0.31351414718E+02  0.28537099689E+03  0.25500000920E-02 0. -1.
</event>
<event>
 5   0  0.6131198E-02  0.6707573E+03  0.7818609E-02  0.9768591E-01
        2   -1    0    0  501    0  0.00000000000E+00  0.00000000000E+00  0.10735060058E+04  0.10735060058E+04  0.25500000920E-02 0.  1.
       -2   -1    0    0    0  501  0.00000000000E+00  0.00000000000E+00 -0.10477708347E+03  0.10477708350E+03  0.25500000920E-02 0. -1.
    10030    2    1    2    0    0  0.00000000000E+00  0.00000000000E+00  0.96872892235E+03  0.11782830893E+04  0.67075726875E+03 0.  0.
        1    1    3    3  502    0 -0.12095572011E+03 -0.30082740213E+02 -0.62580673543E+02  0.13946898656E+03  0.50400001928E-02 0. -1.
       -1    1    3    3    0  502  0.12095572011E+03  0.30082740213E+02  0.10313095959E+04  0.10388141028E+04  0.50400001928E-02 0.  1.
</event>
<event>
 5   0  0.3755872E-02  0.6850151E+03  0.7818609E-02  0.9743207E-01
       -1   -1    0    0    0  501  0.00000000000E+00  0.00000000000E+00  0.30193330085E+03  0.30193330089E+03  0.50400001928E-02 0.  1.
        1   -1    0    0  501    0  0.00000000000E+00  0.00000000000E+00 -0.38853424251E+03  0.38853424254E+03  0.50400001928E-02 0. -1.
    10030    2    1    2    0    0  0.00000000000E+00  0.00000000000E+00 -0.86600941656E+02  0.69046754344E+03  0.68501511330E+03 0.  0.
        2    1    3    3  502    0  0.26040717710E+03  0.13267320962E+03 -0.22332032398E+03  0.36781251412E+03  0.25500000920E-02 0. -1.
       -2    1    3    3    0  502 -0.26040717710E+03 -0.13267320962E+03  0.13671938232E+03  0.32265502932E+03  0.25500000920E-02 0.  1.
</event>
<event>
 5   0  0.3749730E-02  0.6906364E+03  0.7818609E-02  0.9733381E-01
        1   -1    0    0  501    0  0.00000000000E+00  0.00000000000E+00  0.11576919814E+03  0.11576919825E+03  0.50400001928E-02 0. -1.
       -1   -1    0    0    0  501  0.00000000000E+00  0.00000000000E+00 -0.10300205408E+04  0.10300205408E+04  0.50400001928E-02 0.  1.
    10030    2    1    2    0    0  0.00000000000E+00  0.00000000000E+00 -0.91425134265E+03  0.11457897390E+04  0.69063637941E+03 0.  0.
        4    1    3    3  502    0 -0.13790043137E+03  0.25412981775E+03 -0.14390384229E+03  0.32296814389E+03  0.12699999809E+01 0. -1.
       -4    1    3    3    0  502  0.13790043137E+03 -0.25412981775E+03 -0.77034750036E+03  0.82282159515E+03  0.12699999809E+01 0.  1.
</event>
<event>
 5   0  0.3749730E-02  0.7994993E+03  0.7818609E-02  0.9560742E-01
       -1   -1    0    0    0  501  0.00000000000E+00  0.00000000000E+00  0.21693089206E+03  0.21693089212E+03  0.50400001928E-02 0.  1.
        1   -1    0    0  501    0  0.00000000000E+00  0.00000000000E+00 -0.73663914457E+03  0.73663914459E+03  0.50400001928E-02 0. -1.
    10030    2    1    2    0    0  0.00000000000E+00  0.00000000000E+00 -0.51970825251E+03  0.95357003671E+03  0.79949931031E+03 0.  0.
        4    1    3    3  502    0 -0.11872356610E+02 -0.36168706239E+03 -0.57305269544E+02  0.36639321878E+03  0.12699999809E+01 0.  1.
       -4    1    3    3    0  502  0.11872356610E+02  0.36168706239E+03 -0.46240298296E+03  0.58717681792E+03  0.12699999809E+01 0. -1.
</event>
<event>
 5   0  0.6167756E-02  0.7080657E+03  0.7818609E-02  0.9703537E-01
       -2   -1    0    0    0  501  0.00000000000E+00  0.00000000000E+00  0.77870464116E+02  0.77870464158E+02  0.25500000920E-02 0. -1.
        2   -1    0    0  501    0  0.00000000000E+00  0.00000000000E+00 -0.16095868510E+04  0.16095868510E+04  0.25500000920E-02 0.  1.
    10030    2    1    2    0    0  0.00000000000E+00  0.00000000000E+00 -0.15317163869E+04  0.16874573151E+04  0.70806574598E+03 0.  0.
        4    1    3    3  502    0  0.37774801130E+02 -0.18334200850E+03 -0.49723832722E+02  0.19368866802E+03  0.12699999809E+01 0. -1.
       -4    1    3    3    0  502 -0.37774801130E+02  0.18334200850E+03 -0.14819925541E+04  0.14937686471E+04  0.12699999809E+01 0.  1.
</event>
<event>
 5   0  0.3601475E-02  0.7067913E+03  0.7818609E-02  0.9705688E-01
       -1   -1    0    0    0  501  0.00000000000E+00  0.00000000000E+00  0.15183537413E+03  0.15183537421E+03  0.50400001928E-02 0. -1.
        1   -1    0    0  501    0  0.00000000000E+00  0.00000000000E+00 -0.82252567726E+03  0.82252567728E+03  0.50400001928E-02 0.  1.
    10030    2    1    2    0    0  0.00000000000E+00  0.00000000000E+00 -0.67069030313E+03  0.97436105149E+03  0.70679132419E+03 0.  0.
        5    1    3    3  502    0 -0.11528789973E+03 -0.28130287657E+03 -0.58365533751E+03  0.65810200668E+03  0.46999998093E+01 0.  1.
       -5    1    3    3    0  502  0.11528789973E+03  0.28130287657E+03 -0.87034965625E+02  0.31625904482E+03  0.46999998093E+01 0. -1.
</event>
<event>
 5   0  0.3755872E-02  0.6609630E+03  0.7818609E-02  0.9786423E-01
        1   -1    0    0  501    0  0.00000000000E+00  0.00000000000E+00  0.99378010827E+03  0.99378010828E+03  0.50400001928E-02 0.  1.
       -1   -1    0    0    0  501  0.00000000000E+00  0.00000000000E+00 -0.10990159939E+03  0.10990159951E+03  0.50400001928E-02 0. -1.
    10030    2    1    2    0    0  0.00000000000E+00  0.00000000000E+00  0.88387850888E+03  0.11036817078E+04  0.66096300475E+03 0.  0.
        2    1    3    3  502    0  0.30287839809E+03 -0.12006721710E+03  0.34947100814E+03  0.47778807665E+03  0.25500000920E-02 0.  1.
       -2    1    3    3    0  502 -0.30287839809E+03  0.12006721710E+03  0.53440750074E+03  0.62589363114E+03  0.25500000920E-02 0. -1.
</event>
<event>
 5   0  0.3749730E-02  0.6827543E+03  0.7818609E-02  0.9747188E-01
        1   -1    0    0  501    0  0.00000000000E+00  0.00000000000E+00  0.68781866814E+03  0.68781866816E+03  0.50400001928E-02 0. -1.
       -1   -1    0    0    0  501  0.00000000000E+00  0.00000000000E+00 -0.16943181911E+03  0.16943181918E+03  0.50400001928E-02 0.  1.
    10030    2    1    2    0    0  0.00000000000E+00  0.00000000000E+00  0.51838684904E+03  0.85725048735E+03  0.68275432829E+03 0.  0.
        4    1    3    3  502    0 -0.23541727818E+03 -0.13138077281E+03 -0.37429212330E+01  0.26962534133E+03  0.12699999809E+01 0.  1.
       -4    1    3    3    0  502  0.23541727818E+03  0.13138077281E+03  0.52212977027E+03  0.58762514601E+03  0.12699999809E+01 0. -1.
</event>
<event>
 5   0  0.3749730E-02  0.6760460E+03  0.7818609E-02  0.9759097E-01
        1   -1    0    0  501    0  0.00000000000E+00  0.00000000000E+00  0.31697268348E+03  0.31697268352E+03  0.50400001928E-02 0. -1.
       -1   -1    0    0    0  501  0.00000000000E+00  0.00000000000E+00 -0.36047131556E+03  0.36047131560E+03  0.50400001928E-02 0.  1.
    10030    2    1    2    0    0  0.00000000000E+00  0.00000000000E+00 -0.43498632077E+02  0.67744399912E+03  0.67604603464E+03 0.  0.
        4    1    3    3  502    0 -0.14285941424E+02  0.31061778755E+03  0.11107835672E+03  0.33019314393E+03  0.12699999809E+01 0. -1.
       -4    1    3    3    0  502  0.14285941424E+02 -0.31061778755E+03 -0.15457698880E+03  0.34725085519E+03  0.12699999809E+01 0.  1.
</event>
<event>
 5   0  0.6248886E-02  0.6979086E+03  0.7818609E-02  0.9720816E-01
       -2   -1    0    0    0  501  0.00000000000E+00  0.00000000000E+00  0.12684898920E+03  0.12684898923E+03  0.25500000920E-02 0. -1.
        2   -1    0    0  501    0  0.00000000000E+00  0.00000000000E+00 -0.95995317765E+03  0.95995317766E+03  0.25500000920E-02 0.  1.
    10030    2    1    2    0    0  0.00000000000E+00  0.00000000000E+00 -0.83310418845E+03  0.10868021669E+04  0.69790856215E+03 0.  0.
        3    1    3    3  502    0  0.12374599615E+03 -0.31639390220E+03 -0.54065154271E+03  0.63853134124E+03  0.10100000352E+00 0.  1.
       -3    1    3    3    0  502 -0.12374599615E+03  0.31639390220E+03 -0.29245264574E+03  0.44827082564E+03  0.10100000352E+00 0. -1.
</event>
<event>
 5   0  0.3755872E-02  0.6958752E+03  0.7818609E-02  0.9724312E-01
        1   -1    0    0  501    0  0.00000000000E+00  0.00000000000E+00  0.11291197275E+04  0.11291197275E+04  0.50400001928E-02 0. -1.
       -1   -1    0    0    0  501  0.00000000000E+00  0.00000000000E+00 -0.10721678311E+03  0.10721678323E+03  0.50400001928E-02 0.  1.
    10030    2    1    2    0    0  0.00000000000E+00  0.00000000000E+00  0.10219029444E+04  0.12363365107E+04  0.69587523310E+03 0.  0.
        2    1    3    3  502    0 -0.51529227416E+02  0.34394441716E+03  0.52937759664E+03  0.63339850268E+03  0.25500000920E-02 0. -1.
       -2    1    3    3    0  502  0.51529227416E+02 -0.34394441716E+03  0.49252534774E+03  0.60293800805E+03  0.25500000920E-02 0.  1.
</event>
<event>
 5   0  0.6248886E-02  0.7019333E+03  0.7818609E-02  0.9713932E-01
        2   -1    0    0  501    0  0.00000000000E+00  0.00000000000E+00  0.12994637986E+04  0.12994637986E+04  0.25500000920E-02 0.  1.
       -2   -1    0    0    0  501  0.00000000000E+00  0.00000000000E+00 -0.94791097296E+02  0.94791097331E+02  0.25500000920E-02 0. -1.
    10030    2    1    2    0    0  0.00000000000E+00  0.00000000000E+00  0.12046727013E+04  0.13942548960E+04  0.70193332844E+03 0.  0.
        3    1    3    3  502    0  0.25675988786E+03 -0.44293156362E+02  0.13527937078E+03  0.29357799998E+03  0.10100000352E+00 0. -1.
       -3    1    3    3    0  502 -0.25675988786E+03  0.44293156362E+02  0.10693933306E+04  0.11006768960E+04  0.10100000352E+00 0.  1.
</event>
<event>
 5   0  0.3601475E-02  0.7058346E+03  0.7818609E-02  0.9707306E-01
        1   -1    0    0  501    0  0.00000000000E+00  0.00000000000E+00  0.41406911808E+03  0.41406911811E+03  0.50400001928E-02 0. -1.
       -1   -1    0    0    0  501  0.00000000000E+00  0.00000000000E+00 -0.30079668621E+03  0.30079668625E+03  0.50400001928E-02 0.  1.
    10030    2    1    2    0    0  0.00000000000E+00  0.00000000000E+00  0.11327243186E+03  0.71486580436E+03  0.70583459424E+03 0.  0.
        5    1    3    3  502    0  0.12340731321E+03 -0.13267154360E+02 -0.27792841167E+03  0.30442022658E+03  0.46999998093E+01 0.  1.
       -5    1    3    3    0  502 -0.12340731321E+03  0.13267154360E+02  0.39120084354E+03  0.41044557778E+03  0.46999998093E+01 0. -1.
</event>
<event>
 5   0  0.6248886E-02  0.7134769E+03  0.7818609E-02  0.9694458E-01
        2   -1    0    0  501    0  0.00000000000E+00  0.00000000000E+00  0.15696489746E+04  0.15696489746E+04  0.25500000920E-02 0.  1.
       -2   -1    0    0    0  501  0.00000000000E+00  0.00000000000E+00 -0.81076937067E+02  0.81076937107E+02  0.25500000920E-02 0. -1.
    10030    2    1    2    0    0  0.00000000000E+00  0.00000000000E+00  0.14885720375E+04  0.16507259117E+04  0.71347692651E+03 0.  0.
        3    1    3    3  502    0 -0.13589780527E+03 -0.20801522566E+03  0.15205045188E+03  0.29130378937E+03  0.10100000352E+00 0. -1.
       -3    1    3    3    0  502  0.13589780527E+03  0.20801522566E+03  0.13365215856E+04  0.13594221223E+04  0.10100000352E+00 0.  1.
</event>
<event>
 5   0  0.3439015E-02  0.6973679E+03  0.7818609E-02  0.9721744E-01
       -1   -1    0    0    0  501  0.00000000000E+00  0.00000000000E+00  0.97048848453E+02  0.97048848584E+02  0.50400001928E-02 0.  1.
        1   -1    0    0  501    0  0.00000000000E+00  0.00000000000E+00 -0.12527764589E+04  0.12527764589E+04  0.50400001928E-02 0. -1.
    10030    2    1    2    0    0  0.00000000000E+00  0.00000000000E+00 -0.11557276104E+04  0.13498253075E+04  0.69736794535E+03 0.  0.
        1    1    3    3  502    0 -0.31956324945E+03  0.13937206206E+03 -0.58935916571E+03  0.68475504256E+03  0.50400001928E-02 0. -1.
       -1    1    3    3    0  502  0.31956324945E+03 -0.13937206206E+03 -0.56636844473E+03  0.66507026493E+03  0.50400001928E-02 0.  1.
</event>
<event>
 5   0  0.3601475E-02  0.7288808E+03  0.7818609E-02  0.9669078E-01
       -1   -1    0    0    0  501  0.00000000000E+00  0.00000000000E+00  0.81254463492E+02  0.81254463648E+02  0.50400001928E-02 0.  1.
        1   -1    0    0  501    0  0.00000000000E+00  0.00000000000E+00 -0.16345786362E+04  0.16345786362E+04  0.50400001928E-02 0. -1.
    10030    2    1    2    0    0  0.00000000000E+00  0.00000000000E+00 -0.15533241727E+04  0.17158330998E+04  0.72888081401E+03 0.  0.
        5    1    3    3  502    0  0.13686988194E+03 -0.33655369637E+03 -0.84295171249E+03  0.91792779385E+03  0.46999998093E+01 0.  1.
       -5    1    3    3    0  502 -0.13686988194E+03  0.33655369637E+03 -0.71037246019E+03  0.79790530598E+03  0.46999998093E+01 0. -1.
</event>
<event>
 5   0  0.5987810E-02  0.7335699E+03  0.7818609E-02  0.9661485E-01
       -2   -1    0    0    0  501  0.00000000000E+00  0.00000000000E+00  0.28170455297E+03  0.28170455298E+03  0.25500000920E-02 0.  1.
        2   -1    0    0  501    0  0.00000000000E+00  0.00000000000E+00 -0.47756135636E+03  0.47756135637E+03  0.25500000920E-02 0. -1.
    10030    2    1    2    0    0  0.00000000000E+00  0.00000000000E+00 -0.19585680340E+03  0.75926590935E+03  0.73356992418E+03 0.  0.
        5    1    3    3  502    0 -0.43553965868E+02  0.22826479052E+03  0.19574875383E+03  0.30387732255E+03  0.46999998093E+01 0.  1.
       -5    1    3    3    0  502  0.43553965868E+02 -0.22826479052E+03 -0.39160555723E+03  0.45538858680E+03  0.46999998093E+01 0. -1.
</event>
<event>
 5   0  0.3439015E-02  0.7100471E+03  0.7818609E-02  0.9700203E-01
        1   -1    0    0  501    0  0.00000000000E+00  0.00000000000E+00  0.24128638577E+03  0.24128638582E+03  0.50400001928E-02 0. -1.
       -1   -1    0    0    0  501  0.00000000000E+00  0.00000000000E+00 -0.52237400910E+03  0.52237400913E+03  0.50400001928E-02 0.  1.
    10030    2    1    2    0    0  0.00000000000E+00  0.00000000000E+00 -0.28108762334E+03  0.76366039495E+03  0.71004714408E+03 0.  0.
        1    1    3    3  502    0  0.47507799251E+01 -0.21928073790E+03 -0.44079151928E+03  0.49234517914E+03  0.50400001928E-02 0.  1.
       -1    1    3    3    0  502 -0.47507799251E+01  0.21928073790E+03  0.15970389594E+03  0.27131521581E+03  0.50400001928E-02 0. -1.
</event>
<event>
 5   0  0.3755872E-02  0.7021626E+03  0.7818609E-02  0.9713541E-01
       -1   -1    0    0    0  501  0.00000000000E+00  0.00000000000E+00  0.66352763428E+03  0.66352763430E+03  0.50400001928E-02 0. -1.
        1   -1    0    0  501    0  0.00000000000E+00  0.00000000000E+00 -0.18576179547E+03  0.18576179553E+03  0.50400001928E-02 0.  1.
    10030    2    1    2    0    0  0.00000000000E+00  0.00000000000E+00  0.47776583882E+03  0.84928942984E+03  0.70216261570E+03 0.  0.
        2    1    3    3  502    0  0.19946183003E+03 -0.28501705702E+03  0.29610729611E+03  0.45683615800E+03  0.25500000920E-02 0.  1.
       -2    1    3    3    0  502 -0.19946183003E+03  0.28501705702E+03  0.18165854270E+03  0.39245327184E+03  0.25500000920E-02 0. -1.
</event>
<event>
 5   0  0.5899787E-02  0.6995381E+03  0.7818609E-02  0.9718022E-01
       -2   -1    0    0    0  501  0.00000000000E+00  0.00000000000E+00  0.65225385130E+03  0.65225385131E+03  0.25500000920E-02 0.  1.
        2   -1    0    0  501    0  0.00000000000E+00  0.00000000000E+00 -0.18756254260E+03  0.18756254261E+03  0.25500000920E-02 0. -1.
    10030    2    1    2    0    0  0.00000000000E+00  0.00000000000E+00  0.46469130870E+03  0.83981639392E+03  0.69953810698E+03 0.  0.
        2    1    3    3  502    0  0.58864777187E+02 -0.10424819334E+03 -0.16219902772E+03  0.20159680654E+03  0.25500000920E-02 0. -1.
       -2    1    3    3    0  502 -0.58864777187E+02  0.10424819334E+03  0.62689033642E+03  0.63821958738E+03  0.25500000920E-02 0.  1.
</event>
<event>
 5   0  0.5899787E-02  0.7111738E+03  0.7818609E-02  0.9698312E-01
        2   -1    0    0  501    0  0.00000000000E+00  0.00000000000E+00  0.15495980051E+04  0.15495980051E+04  0.25500000920E-02 0.  1.
       -2   -1    0    0    0  501  0.00000000000E+00  0.00000000000E+00 -0.81596681118E+02  0.81596681158E+02  0.25500000920E-02 0. -1.
    10030    2    1    2    0    0  0.00000000000E+00  0.00000000000E+00  0.14680013240E+04  0.16311946862E+04  0.71117383055E+03 0.  0.
        2    1    3    3  502    0 -0.25854927445E+03 -0.23238604933E+03  0.90550565185E+03  0.96994406477E+03  0.25500000920E-02 0.  1.
       -2    1    3    3    0  502  0.25854927445E+03  0.23238604933E+03  0.56249567211E+03  0.66125062147E+03  0.25500000920E-02 0. -1.
</event>
<event>
 5   0  0.6167756E-02  0.7004488E+03  0.7818609E-02  0.9716465E-01
       -2   -1    0    0    0  501  0.00000000000E+00  0.00000000000E+00  0.10991065416E+03  0.10991065419E+03  0.25500000920E-02 0.  1.
        2   -1    0    0  501    0  0.00000000000E+00  0.00000000000E+00 -0.11159713674E+04  0.11159713674E+04  0.25500000920E-02 0. -1.
    10030    2    1    2    0    0  0.00000000000E+00  0.00000000000E+00 -0.10060607132E+04  0.12258820216E+04  0.70044883621E+03 0.  0.
        4    1    3    3  502    0 -0.25750581882E+02  0.31114648503E+03 -0.78074752568E+03  0.84085881061E+03  0.12699999809E+01 0.  1.
       -4    1    3    3    0  502  0.25750581882E+02 -0.31114648503E+03 -0.22531318756E+03  0.38502321099E+03  0.12699999809E+01 0. -1.
</event>
<event>
 5   0  0.6131198E-02  0.7256228E+03  0.7818609E-02  0.9674390E-01
        2   -1    0    0  501    0  0.00000000000E+00  0.00000000000E+00  0.15427372704E+03  0.15427372706E+03  0.25500000920E-02 0.  1.
       -2   -1    0    0    0  501  0.00000000000E+00  0.00000000000E+00 -0.85323744644E+03  0.85323744644E+03  0.25500000920E-02 0. -1.
    10030    2    1    2    0    0  0.00000000000E+00  0.00000000000E+00 -0.69896371940E+03  0.10075111735E+04  0.72562282469E+03 0.  0.
        1    1    3    3  502    0  0.34881586036E+03 -0.39475502109E+02 -0.22221591265E+03  0.41546447690E+03  0.50400001928E-02 0.  1.
       -1    1    3    3    0  502 -0.34881586036E+03  0.39475502109E+02 -0.47674780675E+03  0.59204669661E+03  0.50400001928E-02 0. -1.
</event>
<event>
 5   0  0.2439375E-02  0.7156008E+03  0.7818609E-02  0.9690919E-01
        4   -1    0    0  501    0  0.00000000000E+00  0.00000000000E+00  0.50637971038E+03  0.50638130296E+03  0.12699999809E+01 0. -1.
       -4   -1    0    0    0  501  0.00000000000E+00  0.00000000000E+00 -0.25281284447E+03  0.25281603436E+03  0.12699999809E+01 0.  1.
    10030    2    1    2    0    0  0.00000000000E+00  0.00000000000E+00  0.25356686592E+03  0.75919733732E+03  0.71560075566E+03 0.  0.
        2    1    3    3  502    0  0.24579871947E+03 -0.25903253535E+03  0.15065409566E+03  0.38757131139E+03  0.25500000920E-02 0.  1.
       -2    1    3    3    0  502 -0.24579871947E+03  0.25903253535E+03  0.10291277025E+03  0.37162602593E+03  0.25500000920E-02 0. -1.
</event>
<event>
 5   0  0.5899787E-02  0.6947697E+03  0.7818609E-02  0.9726219E-01
        2   -1    0    0  501    0  0.00000000000E+00  0.00000000000E+00  0.11000624290E+04  0.11000624290E+04  0.25500000920E-02 0.  1.
       -2   -1    0    0    0  501  0.00000000000E+00  0.00000000000E+00 -0.10969945287E+03  0.10969945290E+03  0.25500000920E-02 0. -1.
    10030    2    1    2    0    0  0.00000000000E+00  0.00000000000E+00  0.99036297608E+03  0.12097618819E+04  0.69476973623E+03 0.  0.
        2    1    3    3  502    0 -0.22937737968E+03 -0.12188635718E+03  0.93539389067E+02  0.27607948799E+03  0.25500000920E-02 0. -1.
       -2    1    3    3    0  502  0.22937737968E+03  0.12188635718E+03  0.89682358702E+03  0.93368239386E+03  0.25500000920E-02 0.  1.
</event>
<event>
 5   0  0.6248886E-02  0.7025867E+03  0.7818609E-02  0.9712819E-01
        2   -1    0    0  501    0  0.00000000000E+00  0.00000000000E+00  0.23199211763E+04  0.23199211763E+04  0.25500000920E-02 0.  1.
       -2   -1    0    0    0  501  0.00000000000E+00  0.00000000000E+00 -0.53194494622E+02  0.53194494683E+02  0.25500000920E-02 0. -1.
    10030    2    1    2    0    0  0.00000000000E+00  0.00000000000E+00  0.22667266816E+04  0.23731156709E+04  0.70258674798E+03 0.  0.
        3    1    3    3  502    0  0.10281474534E+03 -0.33427926221E+03  0.10216683264E+04  0.10798702128E+04  0.10100000352E+00 0. -1.
       -3    1    3    3    0  502 -0.10281474534E+03  0.33427926221E+03  0.12450583552E+04  0.12932454582E+04  0.10100000352E+00 0.  1.
</event>
<event>
 5   0  0.3601475E-02  0.6335627E+03  0.7818609E-02  0.9838121E-01
       -1   -1    0    0    0  501  0.00000000000E+00  0.00000000000E+00  0.76477329067E+02  0.76477329233E+02  0.50400001928E-02 0. -1.
        1   -1    0    0  501    0  0.00000000000E+00  0.00000000000E+00 -0.13121591515E+04  0.13121591515E+04  0.50400001928E-02 0.  1.
    10030    2    1    2    0    0  0.00000000000E+00  0.00000000000E+00 -0.12356818224E+04  0.13886364807E+04  0.63356271147E+03 0.  0.
        5    1    3    3  502    0  0.17133119102E+03  0.67012696103E+02 -0.11829796934E+04  0.11972084711E+04  0.46999998093E+01 0.  1.
       -5    1    3    3    0  502 -0.17133119102E+03 -0.67012696103E+02 -0.52702129068E+02  0.19142800960E+03  0.46999998093E+01 0. -1.
</event>
<event>
 5   0  0.3601475E-02  0.5270257E+03  0.7818609E-02  0.1006956E+00
       -1   -1    0    0    0  501  0.00000000000E+00  0.00000000000E+00  0.87209353275E+02  0.87209353420E+02  0.50400001928E-02 0. -1.
        1   -1    0    0  501    0  0.00000000000E+00  0.00000000000E+00 -0.79623380089E+03  0.79623380091E+03  0.50400001928E-02 0.  1.
    10030    2    1    2    0    0  0.00000000000E+00  0.00000000000E+00 -0.70902444762E+03  0.88344315433E+03  0.52702574853E+03 0.  0.
        5    1    3    3  502    0  0.12711918419E+03 -0.11124576475E+03 -0.15579857695E+02  0.16970482941E+03  0.46999998093E+01 0. -1.
       -5    1    3    3    0  502 -0.12711918419E+03  0.11124576475E+03 -0.69344458992E+03  0.71373832492E+03  0.46999998093E+01 0.  1.
</event>
<event>
 5   0  0.3439015E-02  0.6955801E+03  0.7818609E-02  0.9724821E-01
        1   -1    0    0  501    0  0.00000000000E+00  0.00000000000E+00  0.49985405527E+03  0.49985405530E+03  0.50400001928E-02 0. -1.
       -1   -1    0    0    0  501  0.00000000000E+00  0.00000000000E+00 -0.24198644522E+03  0.24198644527E+03  0.50400001928E-02 0.  1.
    10030    2    1    2    0    0  0.00000000000E+00  0.00000000000E+00  0.25786761005E+03  0.74184050057E+03  0.69558006294E+03 0.  0.
        1    1    3    3  502    0 -0.68697480601E+01  0.29012557427E+03  0.33335238330E+03  0.44197720955E+03  0.50400001928E-02 0. -1.
       -1    1    3    3    0  502  0.68697480601E+01 -0.29012557427E+03 -0.75484773249E+02  0.29986329102E+03  0.50400001928E-02 0.  1.
</event>
<event>
 5   0  0.2439375E-02  0.6823401E+03  0.7818609E-02  0.9747919E-01
        3   -1    0    0  501    0  0.00000000000E+00  0.00000000000E+00  0.17368048974E+03  0.17368051911E+03  0.10100000352E+00 0.  1.
       -3   -1    0    0    0  501  0.00000000000E+00  0.00000000000E+00 -0.67017890484E+03  0.67017891245E+03  0.10100000352E+00 0. -1.
    10030    2    1    2    0    0  0.00000000000E+00  0.00000000000E+00 -0.49649841510E+03  0.84385943156E+03  0.68234013808E+03 0.  0.
        3    1    3    3  502    0 -0.19939308950E+03 -0.27677202251E+03 -0.24076231508E+03  0.41752468088E+03  0.10100000352E+00 0.  1.
       -3    1    3    3    0  502  0.19939308950E+03  0.27677202251E+03 -0.25573610003E+03  0.42633475068E+03  0.10100000352E+00 0. -1.
</event>
<event>
 5   0  0.5987810E-02  0.7012707E+03  0.7818609E-02  0.9715062E-01
        2   -1    0    0  501    0  0.00000000000E+00  0.00000000000E+00  0.36194347144E+03  0.36194347145E+03  0.25500000920E-02 0.  1.
       -2   -1    0    0    0  501  0.00000000000E+00  0.00000000000E+00 -0.33968048402E+03  0.33968048403E+03  0.25500000920E-02 0. -1.
    10030    2    1    2    0    0  0.00000000000E+00  0.00000000000E+00  0.22262987421E+02  0.70162395548E+03  0.70127065694E+03 0.  0.
        5    1    3    3  502    0  0.13697439111E+03  0.31583265381E+03 -0.55315778286E+02  0.34870356230E+03  0.46999998093E+01 0. -1.
       -5    1    3    3    0  502 -0.13697439111E+03 -0.31583265381E+03  0.77578765707E+02  0.35292039318E+03  0.46999998093E+01 0.  1.
</event>
<event>
 5   0  0.3749730E-02  0.6876652E+03  0.7818609E-02  0.9738562E-01
       -1   -1    0    0    0  501  0.00000000000E+00  0.00000000000E+00  0.83848540784E+02  0.83848540935E+02  0.50400001928E-02 0. -1.
        1   -1    0    0  501    0  0.00000000000E+00  0.00000000000E+00 -0.14099334524E+04  0.14099334524E+04  0.50400001928E-02 0.  1.
    10030    2    1    2    0    0  0.00000000000E+00  0.00000000000E+00 -0.13260849116E+04  0.14937819933E+04  0.68766521710E+03 0.  0.
        4    1    3    3  502    0  0.44198617403E+02 -0.24867508233E+03 -0.11698173693E+04  0.11967736230E+04  0.12699999809E+01 0.  1.
       -4    1    3    3    0  502 -0.44198617403E+02  0.24867508233E+03 -0.15626754230E+03  0.29700837030E+03  0.12699999809E+01 0. -1.
</event>
<event>
 5   0  0.6131198E-02  0.7504897E+03  0.7818609E-02  0.9634582E-01
       -2   -1    0    0    0  501  0.00000000000E+00  0.00000000000E+00  0.23374529692E+03  0.23374529693E+03  0.25500000920E-02 0. -1.
        2   -1    0    0  501    0  0.00000000000E+00  0.00000000000E+00 -0.60240220072E+03  0.60240220072E+03  0.25500000920E-02 0.  1.
    10030    2    1    2    0    0  0.00000000000E+00  0.00000000000E+00 -0.36865690380E+03  0.83614749766E+03  0.75048965691E+03 0.  0.
        1    1    3    3  502    0  0.54521101445E+02 -0.78203047030E+01  0.22921709756E+03  0.23574177718E+03  0.50400001928E-02 0. -1.
       -1    1    3    3    0  502 -0.54521101445E+02  0.78203047030E+01 -0.59787400135E+03  0.60040572048E+03  0.50400001928E-02 0.  1.
</event>
<event>
 5   0  0.2439375E-02  0.7021812E+03  0.7818609E-02  0.9713509E-01
       -3   -1    0    0    0  501  0.00000000000E+00  0.00000000000E+00  0.10456633567E+03  0.10456638445E+03  0.10100000352E+00 0.  1.
        3   -1    0    0  501    0  0.00000000000E+00  0.00000000000E+00 -0.11788169096E+04  0.11788169140E+04  0.10100000352E+00 0. -1.
    10030    2    1    2    0    0  0.00000000000E+00  0.00000000000E+00 -0.10742505740E+04  0.12833832984E+04  0.70218116963E+03 0.  0.
        2    1    3    3  502    0 -0.11160994235E+03  0.20094669227E+03 -0.52081839750E+02  0.23568807862E+03  0.25500000920E-02 0.  1.
       -2    1    3    3    0  502  0.11160994235E+03 -0.20094669227E+03 -0.10221687342E+04  0.10476952198E+04  0.25500000920E-02 0. -1.
</event>
<event>
 5   0  0.5899787E-02  0.7208678E+03  0.7818609E-02  0.9682196E-01
       -2   -1    0    0    0  501  0.00000000000E+00  0.00000000000E+00  0.59733692360E+03  0.59733692361E+03  0.25500000920E-02 0.  1.
        2   -1    0    0  501    0  0.00000000000E+00  0.00000000000E+00 -0.21748631991E+03  0.21748631993E+03  0.25500000920E-02 0. -1.
    10030    2    1    2    0    0  0.00000000000E+00  0.00000000000E+00  0.37985060369E+03  0.81482324353E+03  0.72086783607E+03 0.  0.
        2    1    3    3  502    0 -0.54286111746E+02 -0.28964177222E+03  0.42451648630E+03  0.51677227605E+03  0.25500000920E-02 0. -1.
       -2    1    3    3    0  502  0.54286111746E+02  0.28964177222E+03 -0.44665882615E+02  0.29805096749E+03  0.25500000920E-02 0.  1.
</event>
<event>
 5   0  0.3601475E-02  0.6933488E+03  0.7818609E-02  0.9728675E-01
        1   -1    0    0  501    0  0.00000000000E+00  0.00000000000E+00  0.33686337829E+03  0.33686337832E+03  0.50400001928E-02 0.  1.
       -1   -1    0    0    0  501  0.00000000000E+00  0.00000000000E+00 -0.35677117511E+03  0.35677117515E+03  0.50400001928E-02 0. -1.
    10030    2    1    2    0    0  0.00000000000E+00  0.00000000000E+00 -0.19907796823E+02  0.69363455347E+03  0.69334881077E+03 0.  0.
        5    1    3    3  502    0 -0.53206742100E+02  0.72040623651E+02  0.32505758489E+03  0.33720221285E+03  0.46999998093E+01 0.  1.
       -5    1    3    3    0  502  0.53206742100E+02 -0.72040623651E+02 -0.34496538171E+03  0.35643234062E+03  0.46999998093E+01 0. -1.
</event>
<event>
 5   0  0.6167756E-02  0.7017819E+03  0.7818609E-02  0.9714190E-01
        2   -1    0    0  501    0  0.00000000000E+00  0.00000000000E+00  0.39541802782E+03  0.39541802783E+03  0.25500000920E-02 0.  1.
       -2   -1    0    0    0  501  0.00000000000E+00  0.00000000000E+00 -0.31137795248E+03  0.31137795250E+03  0.25500000920E-02 0. -1.
    10030    2    1    2    0    0  0.00000000000E+00  0.00000000000E+00  0.84040075334E+02  0.70679598032E+03  0.70178189171E+03 0.  0.
        4    1    3    3  502    0  0.32121457111E+03  0.13141993924E+03  0.94088954780E+02  0.35958913419E+03  0.12699999809E+01 0.  1.
       -4    1    3    3    0  502 -0.32121457111E+03 -0.13141993924E+03 -0.10048879446E+02  0.34720684613E+03  0.12699999809E+01 0. -1.
</event>
<event>
 5   0  0.5987810E-02  0.6970325E+03  0.7818609E-02  0.9722321E-01
       -2   -1    0    0    0  501  0.00000000000E+00  0.00000000000E+00  0.33317330089E+03  0.33317330090E+03  0.25500000920E-02 0.  1.
        2   -1    0    0  501    0  0.00000000000E+00  0.00000000000E+00 -0.36456574638E+03  0.36456574639E+03  0.25500000920E-02 0. -1.
    10030    2    1    2    0    0  0.00000000000E+00  0.00000000000E+00 -0.31392445490E+02  0.69773904729E+03  0.69703249026E+03 0.  0.
        5    1    3    3  502    0 -0.10448367696E+03 -0.30227287822E+03  0.12284837711E+03  0.34263617062E+03  0.46999998093E+01 0.  1.
       -5    1    3    3    0  502  0.10448367696E+03  0.30227287822E+03 -0.15424082260E+03  0.35510287666E+03  0.46999998093E+01 0. -1.
</event>
<event>
 5   0  0.3749730E-02  0.7028630E+03  0.7818609E-02  0.9712349E-01
       -1   -1    0    0    0  501  0.00000000000E+00  0.00000000000E+00  0.12487570104E+03  0.12487570114E+03  0.50400001928E-02 0.  1.
        1   -1    0    0  501    0  0.00000000000E+00  0.00000000000E+00 -0.98901612802E+03  0.98901612803E+03  0.50400001928E-02 0. -1.
    10030    2    1    2    0    0  0.00000000000E+00  0.00000000000E+00 -0.86414042698E+03  0.11138918292E+04  0.70286295219E+03 0.  0.
        4    1    3    3  502    0 -0.58688095746E+02 -0.17883290629E+03 -0.90240114927E+03  0.92182153807E+03  0.12699999809E+01 0. -1.
       -4    1    3    3    0  502  0.58688095746E+02  0.17883290629E+03  0.38260722292E+02  0.19207029110E+03  0.12699999809E+01 0.  1.
</event>
<event>
 5   0  0.6131198E-02  0.6968086E+03  0.7818609E-02  0.9722706E-01
       -2   -1    0    0    0  501  0.00000000000E+00  0.00000000000E+00  0.29681482775E+03  0.29681482776E+03  0.25500000920E-02 0. -1.
        2   -1    0    0  501    0  0.00000000000E+00  0.00000000000E+00 -0.40896051786E+03  0.40896051787E+03  0.25500000920E-02 0.  1.
    10030    2    1    2    0    0  0.00000000000E+00  0.00000000000E+00 -0.11214569011E+03  0.70577534563E+03  0.69680856962E+03 0.  0.
        1    1    3    3  502    0  0.21426689310E+01  0.34802317065E+03 -0.72430819559E+02  0.35548690832E+03  0.50400001928E-02 0.  1.
       -1    1    3    3    0  502 -0.21426689310E+01 -0.34802317065E+03 -0.39714870553E+02  0.35028843731E+03  0.50400001928E-02 0. -1.
</event>
<event>
 5   0  0.3601475E-02  0.7359182E+03  0.7818609E-02  0.9657705E-01
        1   -1    0    0  501    0  0.00000000000E+00  0.00000000000E+00  0.85042790060E+03  0.85042790061E+03  0.50400001928E-02 0. -1.
       -1   -1    0    0    0  501  0.00000000000E+00  0.00000000000E+00 -0.15920678534E+03  0.15920678542E+03  0.50400001928E-02 0.  1.
    10030    2    1    2    0    0  0.00000000000E+00  0.00000000000E+00  0.69122111526E+03  0.10096346860E+04  0.73591818095E+03 0.  0.
        5    1    3    3  502    0  0.14691871089E+03 -0.23744706234E+03  0.67431972176E+03  0.72985984420E+03  0.46999998093E+01 0. -1.
       -5    1    3    3    0  502 -0.14691871089E+03  0.23744706234E+03  0.16901393504E+02  0.27977484183E+03  0.46999998093E+01 0.  1.
</event>
<event>
 5   0  0.3439015E-02  0.6890456E+03  0.7818609E-02  0.9736151E-01
        1   -1    0    0  501    0  0.00000000000E+00  0.00000000000E+00  0.12188070650E+04  0.12188070650E+04  0.50400001928E-02 0.  1.
       -1   -1    0    0    0  501  0.00000000000E+00  0.00000000000E+00 -0.97386986163E+02  0.97386986293E+02  0.50400001928E-02 0. -1.
    10030    2    1    2    0    0  0.00000000000E+00  0.00000000000E+00  0.11214200788E+04  0.13161940513E+04  0.68904556269E+03 0.  0.
        1    1    3    3  502    0 -0.16570386589E+03  0.17520279855E+03  0.90706724170E+02  0.25764607823E+03  0.50400001928E-02 0. -1.
       -1    1    3    3    0  502  0.16570386589E+03 -0.17520279855E+03  0.10307133547E+04  0.10585479731E+04  0.50400001928E-02 0.  1.
</event>
<event>
 5   0  0.3717372E-02  0.7152933E+03  0.7818609E-02  0.9691430E-01
       -1   -1    0    0    0  501  0.00000000000E+00  0.00000000000E+00  0.13436609537E+03  0.13436609547E+03  0.50400001928E-02 0. -1.
        1   -1    0    0  501    0  0.00000000000E+00  0.00000000000E+00 -0.95195994844E+03  0.95195994846E+03  0.50400001928E-02 0.  1.
    10030    2    1    2    0    0  0.00000000000E+00  0.00000000000E+00 -0.81759385307E+03  0.10863260439E+04  0.71529334201E+03 0.  0.
        3    1    3    3  502    0  0.35276875026E+02 -0.12556001145E+03 -0.91455687993E+03  0.92380954271E+03  0.10100000352E+00 0.  1.
       -3    1    3    3    0  502 -0.35276875026E+02  0.12556001145E+03  0.96963026858E+02  0.16251650121E+03  0.10100000352E+00 0. -1.
</event>
<event>
 5   0  0.3749730E-02  0.6970032E+03  0.7818609E-02  0.9722371E-01
       -1   -1    0    0    0  501  0.00000000000E+00  0.00000000000E+00  0.33065199150E+03  0.33065199154E+03  0.50400001928E-02 0.  1.
        1   -1    0    0  501    0  0.00000000000E+00  0.00000000000E+00 -0.36731482848E+03  0.36731482851E+03  0.50400001928E-02 0. -1.
    10030    2    1    2    0    0  0.00000000000E+00  0.00000000000E+00 -0.36662836975E+02  0.69796682005E+03  0.69700324122E+03 0.  0.
        4    1    3    3  502    0  0.14199653978E+03  0.26747881095E+03 -0.19103385390E+03  0.35805513242E+03  0.12699999809E+01 0.  1.
       -4    1    3    3    0  502 -0.14199653978E+03 -0.26747881095E+03  0.15437101693E+03  0.33991168763E+03  0.12699999809E+01 0. -1.
</event>
<event>
 5   0  0.6248886E-02  0.6693679E+03  0.7818609E-02  0.9771100E-01
       -2   -1    0    0    0  501  0.00000000000E+00  0.00000000000E+00  0.12233189788E+03  0.12233189790E+03  0.25500000920E-02 0. -1.
        2   -1    0    0  501    0  0.00000000000E+00  0.00000000000E+00 -0.91565104211E+03  0.91565104211E+03  0.25500000920E-02 0.  1.
    10030    2    1    2    0    0  0.00000000000E+00  0.00000000000E+00 -0.79331914423E+03  0.10379829400E+04  0.66936785041E+03 0.  0.
        3    1    3    3  502    0  0.40877120272E+02 -0.33212711518E+03 -0.38762288711E+03  0.51208482931E+03  0.10100000352E+00 0.  1.
       -3    1    3    3    0  502 -0.40877120272E+02  0.33212711518E+03 -0.40569625713E+03  0.52589811071E+03  0.10100000352E+00 0. -1.
</event>
<event>
 5   0  0.3601475E-02  0.7045737E+03  0.7818609E-02  0.9709442E-01
        1   -1    0    0  501    0  0.00000000000E+00  0.00000000000E+00  0.73671654430E+03  0.73671654432E+03  0.50400001928E-02 0. -1.
       -1   -1    0    0    0  501  0.00000000000E+00  0.00000000000E+00 -0.16845831899E+03  0.16845831906E+03  0.50400001928E-02 0.  1.
    10030    2    1    2    0    0  0.00000000000E+00  0.00000000000E+00  0.56825822532E+03  0.90517486338E+03  0.70457371698E+03 0.  0.
        5    1    3    3  502    0 -0.26658522852E+03  0.19287532850E+03  0.44569350301E+03  0.55401567219E+03  0.46999998093E+01 0. -1.
       -5    1    3    3    0  502  0.26658522852E+03 -0.19287532850E+03  0.12256472231E+03  0.35115919120E+03  0.46999998093E+01 0.  1.
</event>
<event>
 5   0  0.6248886E-02  0.7032931E+03  0.7818609E-02  0.9711617E-01
        2   -1    0    0  501    0  0.00000000000E+00  0.00000000000E+00  0.71982897102E+03  0.71982897102E+03  0.25500000920E-02 0. -1.
       -2   -1    0    0    0  501  0.00000000000E+00  0.00000000000E+00 -0.17178427681E+03  0.17178427683E+03  0.25500000920E-02 0.  1.
    10030    2    1    2    0    0  0.00000000000E+00  0.00000000000E+00  0.54804469421E+03  0.89161324785E+03  0.70329310880E+03 0.  0.
        3    1    3    3  502    0 -0.28025459584E+03  0.14163465067E+03  0.47468370498E+03  0.56914641590E+03  0.10100000352E+00 0. -1.
       -3    1    3    3    0  502  0.28025459584E+03 -0.14163465067E+03  0.73360989234E+02  0.32246683195E+03  0.10100000352E+00 0.  1.
</event>
<event>
 5   0  0.5987810E-02  0.6989133E+03  0.7818609E-02  0.9719092E-01
        2   -1    0    0  501    0  0.00000000000E+00  0.00000000000E+00  0.12794797335E+04  0.12794797335E+04  0.25500000920E-02 0.  1.
       -2   -1    0    0    0  501  0.00000000000E+00  0.00000000000E+00 -0.95445011214E+02  0.95445011248E+02  0.25500000920E-02 0. -1.
    10030    2    1    2    0    0  0.00000000000E+00  0.00000000000E+00  0.11840347223E+04  0.13749247448E+04  0.69891332092E+03 0.  0.
        5    1    3    3  502    0  0.80668092253E+02  0.17278291035E+03  0.11680388949E+04  0.11835109738E+04  0.46999998093E+01 0.  1.
       -5    1    3    3    0  502 -0.80668092253E+02 -0.17278291035E+03  0.15995827438E+02  0.19141377096E+03  0.46999998093E+01 0. -1.
</event>
<event>
 5   0  0.3755872E-02  0.6764648E+03  0.7818609E-02  0.9758349E-01
       -1   -1    0    0    0  501  0.00000000000E+00  0.00000000000E+00  0.19909422034E+03  0.19909422040E+03  0.50400001928E-02 0. -1.
        1   -1    0    0  501    0  0.00000000000E+00  0.00000000000E+00 -0.57460819818E+03  0.57460819820E+03  0.50400001928E-02 0.  1.
    10030    2    1    2    0    0  0.00000000000E+00  0.00000000000E+00 -0.37551397784E+03  0.77370241860E+03  0.67646484387E+03 0.  0.
        2    1    3    3  502    0  0.87645826599E+02  0.93487316603E+02  0.17025398345E+03  0.21309173652E+03  0.25500000920E-02 0. -1.
       -2    1    3    3    0  502 -0.87645826599E+02 -0.93487316603E+02 -0.54576796129E+03  0.56061068208E+03  0.25500000920E-02 0.  1.
</event>
<event>
 5   0  0.3749730E-02  0.7238948E+03  0.7818609E-02  0.9677220E-01
        1   -1    0    0  501    0  0.00000000000E+00  0.00000000000E+00  0.10921443725E+03  0.10921443736E+03  0.50400001928E-02 0. -1.
       -1   -1    0    0    0  501  0.00000000000E+00  0.00000000000E+00 -0.11995291650E+04  0.11995291650E+04  0.50400001928E-02 0.  1.
    10030    2    1    2    0    0  0.00000000000E+00  0.00000000000E+00 -0.10903147278E+04  0.13087436024E+04  0.72389475146E+03 0.  0.
        4    1    3    3  502    0  0.55756441228E+02 -0.14268468807E+03 -0.11380243567E+04  0.11482894889E+04  0.12699999809E+01 0.  1.
       -4    1    3    3    0  502 -0.55756441228E+02  0.14268468807E+03  0.47709628924E+02  0.16045411351E+03  0.12699999809E+01 0. -1.
</event>
<event>
 5   0  0.5899787E-02  0.7400672E+03  0.7818609E-02  0.9651063E-01
       -2   -1    0    0    0  501  0.00000000000E+00  0.00000000000E+00  0.11503188250E+04  0.11503188250E+04  0.25500000920E-02 0.  1.
        2   -1    0    0  501    0  0.00000000000E+00  0.00000000000E+00 -0.11903210650E+03  0.11903210653E+03  0.25500000920E-02 0. -1.
    10030    2    1    2    0    0  0.00000000000E+00  0.00000000000E+00  0.10312867185E+04  0.12693509315E+04  0.74006722102E+03 0.  0.
        2    1    3    3  502    0  0.15324827461E+03 -0.25092139918E+03  0.13028670989E+03  0.32159168058E+03  0.25500000920E-02 0. -1.
       -2    1    3    3    0  502 -0.15324827461E+03  0.25092139918E+03  0.90100000861E+03  0.94775925095E+03  0.25500000920E-02 0.  1.
</event>
<event>
 5   0  0.6248886E-02  0.6580519E+03  0.7818609E-02  0.9791787E-01
        2   -1    0    0  501    0  0.00000000000E+00  0.00000000000E+00  0.91138991897E+03  0.91138991897E+03  0.25500000920E-02 0.  1.
       -2   -1    0    0    0  501  0.00000000000E+00  0.00000000000E+00 -0.11878349351E+03  0.11878349354E+03  0.25500000920E-02 0. -1.
    10030    2    1    2    0    0  0.00000000000E+00  0.00000000000E+00  0.79260642546E+03  0.10301734125E+04  0.65805190841E+03 0.  0.
        3    1    3    3  502    0 -0.14619495050E+03  0.18836906061E+03  0.75123185296E+03  0.78816570189E+03  0.10100000352E+00 0.  1.
       -3    1    3    3    0  502  0.14619495050E+03 -0.18836906061E+03  0.41374572500E+02  0.24200771061E+03  0.10100000352E+00 0. -1.
</event>
<event>
 5   0  0.3439015E-02  0.6922434E+03  0.7818609E-02  0.9730590E-01
        1   -1    0    0  501    0  0.00000000000E+00  0.00000000000E+00  0.57327027754E+03  0.57327027756E+03  0.50400001928E-02 0. -1.
       -1   -1    0    0    0  501  0.00000000000E+00  0.00000000000E+00 -0.20897685174E+03  0.20897685180E+03  0.50400001928E-02 0.  1.
    10030    2    1    2    0    0  0.00000000000E+00  0.00000000000E+00  0.36429342580E+03  0.78224712936E+03  0.69224336133E+03 0.  0.
        1    1    3    3  502    0  0.30419610584E+03 -0.14301746919E+03  0.88888080929E+02  0.34769290798E+03  0.50400001928E-02 0.  1.
       -1    1    3    3    0  502 -0.30419610584E+03  0.14301746919E+03  0.27540534487E+03  0.43455422137E+03  0.50400001928E-02 0. -1.
</event>
<event>
 5   0  0.5987810E-02  0.6899303E+03  0.7818609E-02  0.9734609E-01
       -2   -1    0    0    0  501  0.00000000000E+00  0.00000000000E+00  0.92247418065E+02  0.92247418100E+02  0.25500000920E-02 0.  1.
        2   -1    0    0  501    0  0.00000000000E+00  0.00000000000E+00 -0.12900194297E+04  0.12900194297E+04  0.25500000920E-02 0. -1.
    10030    2    1    2    0    0  0.00000000000E+00  0.00000000000E+00 -0.11977720117E+04  0.13822668478E+04  0.68993032017E+03 0.  0.
        5    1    3    3  502    0 -0.24753933601E+03  0.13854276169E+03 -0.99204487255E+03  0.10318163300E+04  0.46999998093E+01 0. -1.
       -5    1    3    3    0  502  0.24753933601E+03 -0.13854276169E+03 -0.20572713912E+03  0.35045051784E+03  0.46999998093E+01 0.  1.
</event>
<event>
 5   0  0.3749730E-02  0.9229824E+03  0.7818609E-02  0.9397300E-01
        1   -1    0    0  501    0  0.00000000000E+00  0.00000000000E+00  0.47900172502E+03  0.47900172505E+03  0.50400001928E-02 0.  1.
       -1   -1    0    0    0  501  0.00000000000E+00  0.00000000000E+00 -0.44462079449E+03  0.44462079452E+03  0.50400001928E-02 0. -1.
    10030    2    1    2    0    0  0.00000000000E+00  0.00000000000E+00  0.34380930531E+02  0.92362251956E+03  0.92298239975E+03 0.  0.
        4    1    3    3  502    0 -0.38610115248E+03 -0.55245350101E+02 -0.22965117089E+03  0.45262282515E+03  0.12699999809E+01 0. -1.
       -4    1    3    3    0  502  0.38610115248E+03  0.55245350101E+02  0.26403210142E+03  0.47099969441E+03  0.12699999809E+01 0.  1.
</event>
<event>
 5   0  0.3601475E-02  0.6936988E+03  0.7818609E-02  0.9728069E-01
       -1   -1    0    0    0  501  0.00000000000E+00  0.00000000000E+00  0.25061381492E+03  0.25061381497E+03  0.50400001928E-02 0.  1.
        1   -1    0    0  501    0  0.00000000000E+00  0.00000000000E+00 -0.48003943455E+03  0.48003943458E+03  0.50400001928E-02 0. -1.
    10030    2    1    2    0    0  0.00000000000E+00  0.00000000000E+00 -0.22942561963E+03  0.73065324955E+03  0.69369882236E+03 0.  0.
        5    1    3    3  502    0 -0.11802303242E+03  0.18257775921E+03 -0.39932688224E+03  0.45469563800E+03  0.46999998093E+01 0. -1.
       -5    1    3    3    0  502  0.11802303242E+03 -0.18257775921E+03  0.16990126260E+03  0.27595761155E+03  0.46999998093E+01 0.  1.
</event>
<event>
 5   0  0.5899787E-02  0.6995158E+03  0.7818609E-02  0.9718061E-01
        2   -1    0    0  501    0  0.00000000000E+00  0.00000000000E+00  0.86434191357E+03  0.86434191357E+03  0.25500000920E-02 0. -1.
       -2   -1    0    0    0  501  0.00000000000E+00  0.00000000000E+00 -0.14153033107E+03  0.14153033109E+03  0.25500000920E-02 0.  1.
    10030    2    1    2    0    0  0.00000000000E+00  0.00000000000E+00  0.72281158250E+03  0.10058722447E+04  0.69951582455E+03 0.  0.
        2    1    3    3  502    0  0.34151876271E+03 -0.52543243355E+02  0.43930446412E+03  0.55891347265E+03  0.25500000920E-02 0. -1.
       -2    1    3    3    0  502 -0.34151876271E+03  0.52543243355E+02  0.28350711838E+03  0.44695877202E+03  0.25500000920E-02 0.  1.
</event>
<event>
 5   0  0.3439015E-02  0.7024469E+03  0.7818609E-02  0.9713057E-01
        1   -1    0    0  501    0  0.00000000000E+00  0.00000000000E+00  0.34583387404E+03  0.34583387408E+03  0.50400001928E-02 0. -1.
       -1   -1    0    0    0  501  0.00000000000E+00  0.00000000000E+00 -0.35669700405E+03  0.35669700409E+03  0.50400001928E-02 0.  1.
    10030    2    1    2    0    0  0.00000000000E+00  0.00000000000E+00 -0.10863130010E+02  0.70253087817E+03  0.70244688567E+03 0.  0.
        1    1    3    3  502    0 -0.13593514409E+03  0.30431165715E+03 -0.11623271165E+03  0.35297874066E+03  0.50400001928E-02 0.  1.
       -1    1    3    3    0  502  0.13593514409E+03 -0.30431165715E+03  0.10536958164E+03  0.34955213751E+03  0.50400001928E-02 0. -1.
</event>
<event>
 5   0  0.3755872E-02  0.7257551E+03  0.7818609E-02  0.9674174E-01
       -1   -1    0    0    0  501  0.00000000000E+00  0.00000000000E+00  0.20153322135E+03  0.20153322141E+03  0.50400001928E-02 0.  1.
        1   -1    0    0  501    0  0.00000000000E+00  0.00000000000E+00 -0.65339154006E+03  0.65339154008E+03  0.50400001928E-02 0. -1.
    10030    2    1    2    0    0  0.00000000000E+00  0.00000000000E+00 -0.45185831871E+03  0.85492476149E+03  0.72575506034E+03 0.  0.
        2    1    3    3  502    0 -0.13422725518E+03  0.26246994265E+03 -0.47518442680E+03  0.55920270592E+03  0.25500000920E-02 0. -1.
       -2    1    3    3    0  502  0.13422725518E+03 -0.26246994265E+03  0.23326108084E+02  0.29572205557E+03  0.25500000920E-02 0.  1.
</event>
<event>
 5   0  0.5987810E-02  0.6767193E+03  0.7818609E-02  0.9757895E-01
       -2   -1    0    0    0  501  0.00000000000E+00  0.00000000000E+00  0.18621194404E+03  0.18621194406E+03  0.25500000920E-02 0.  1.
        2   -1    0    0  501    0  0.00000000000E+00  0.00000000000E+00 -0.61482221687E+03  0.61482221687E+03  0.25500000920E-02 0. -1.
    10030    2    1    2    0    0  0.00000000000E+00  0.00000000000E+00 -0.42861027283E+03  0.80103416093E+03  0.67671926306E+03 0.  0.
        5    1    3    3  502    0  0.14914202076E+03 -0.69695296143E+02  0.13556726193E+03  0.21331045255E+03  0.46999998093E+01 0.  1.
       -5    1    3    3    0  502 -0.14914202076E+03  0.69695296143E+02 -0.56417753476E+03  0.58772370838E+03  0.46999998093E+01 0. -1.
</event>
<event>
 5   0  0.6167756E-02  0.7085403E+03  0.7818609E-02  0.9702738E-01
        2   -1    0    0  501    0  0.00000000000E+00  0.00000000000E+00  0.12055746420E+04  0.12055746420E+04  0.25500000920E-02 0.  1.
       -2   -1    0    0    0  501  0.00000000000E+00  0.00000000000E+00 -0.10410581558E+03  0.10410581561E+03  0.25500000920E-02 0. -1.
    10030    2    1    2    0    0  0.00000000000E+00  0.00000000000E+00  0.11014688264E+04  0.13096804576E+04  0.70854027796E+03 0.  0.
        4    1    3    3  502    0  0.17988577502E+03  0.30519274491E+03  0.55452924730E+03  0.65803176414E+03  0.12699999809E+01 0. -1.
       -4    1    3    3    0  502 -0.17988577502E+03 -0.30519274491E+03  0.54693957910E+03  0.65164869346E+03  0.12699999809E+01 0.  1.
</event>
<event>
 5   0  0.3755872E-02  0.6962998E+03  0.7818609E-02  0.9723581E-01
        1   -1    0    0  501    0  0.00000000000E+00  0.00000000000E+00  0.53146203892E+03  0.53146203895E+03  0.50400001928E-02 0.  1.
       -1   -1    0    0    0  501  0.00000000000E+00  0.00000000000E+00 -0.22806587383E+03  0.22806587389E+03  0.50400001928E-02 0. -1.
    10030    2    1    2    0    0  0.00000000000E+00  0.00000000000E+00  0.30339616509E+03  0.75952791283E+03  0.69629980424E+03 0.  0.
        2    1    3    3  502    0  0.83253712577E+02 -0.10932002470E+03 -0.19723416974E+03  0.24038170932E+03  0.25500000920E-02 0. -1.
       -2    1    3    3    0  502 -0.83253712577E+02  0.10932002470E+03  0.50063033483E+03  0.51914620351E+03  0.25500000920E-02 0.  1.
</event>
<event>
 5   0  0.3717372E-02  0.7223528E+03  0.7818609E-02  0.9679752E-01
        1   -1    0    0  501    0  0.00000000000E+00  0.00000000000E+00  0.21453305784E+03  0.21453305790E+03  0.50400001928E-02 0.  1.
       -1   -1    0    0    0  501  0.00000000000E+00  0.00000000000E+00 -0.60805722651E+03  0.60805722653E+03  0.50400001928E-02 0. -1.
    10030    2    1    2    0    0  0.00000000000E+00  0.00000000000E+00 -0.39352416867E+03  0.82259028443E+03  0.72235275643E+03 0.  0.
        3    1    3    3  502    0 -0.36074156284E+03 -0.13232469696E+02 -0.21017790784E+03  0.41771322287E+03  0.10100000352E+00 0.  1.
       -3    1    3    3    0  502  0.36074156284E+03  0.13232469696E+02 -0.18334626084E+03  0.40487706156E+03  0.10100000352E+00 0. -1.
</event>
<event>
 5   0  0.3755872E-02  0.6956393E+03  0.7818609E-02  0.9724719E-01
        1   -1    0    0  501    0  0.00000000000E+00  0.00000000000E+00  0.55369089858E+03  0.55369089861E+03  0.50400001928E-02 0. -1.
       -1   -1    0    0    0  501  0.00000000000E+00  0.00000000000E+00 -0.21849468560E+03  0.21849468566E+03  0.50400001928E-02 0.  1.
    10030    2    1    2    0    0  0.00000000000E+00  0.00000000000E+00  0.33519621299E+03  0.77218558426E+03  0.69563932849E+03 0.  0.
        2    1    3    3  502    0 -0.12542522796E+03  0.11145820404E+03 -0.17059747983E+03  0.23928627037E+03  0.25500000920E-02 0.  1.
       -2    1    3    3    0  502  0.12542522796E+03 -0.11145820404E+03  0.50579369281E+03  0.53289931390E+03  0.25500000920E-02 0. -1.
</event>
<event>
 5   0  0.6248886E-02  0.7129431E+03  0.7818609E-02  0.9695350E-01
        2   -1    0    0  501    0  0.00000000000E+00  0.00000000000E+00  0.32582111287E+03  0.32582111288E+03  0.25500000920E-02 0. -1.
       -2   -1    0    0    0  501  0.00000000000E+00  0.00000000000E+00 -0.39000533835E+03  0.39000533836E+03  0.25500000920E-02 0.  1.
    10030    2    1    2    0    0  0.00000000000E+00  0.00000000000E+00 -0.64184225483E+02  0.71582645124E+03  0.71294312080E+03 0.  0.
        3    1    3    3  502    0 -0.34638637571E+03 -0.79397852194E+02 -0.39712909378E+01  0.35539178601E+03  0.10100000352E+00 0.  1.
       -3    1    3    3    0  502  0.34638637571E+03  0.79397852194E+02 -0.60212934545E+02  0.36043466523E+03  0.10100000352E+00 0. -1.
</event>
<event>
 5   0  0.3601475E-02  0.6912997E+03  0.7818609E-02  0.9732228E-01
       -1   -1    0    0    0  501  0.00000000000E+00  0.00000000000E+00  0.30195417878E+03  0.30195417882E+03  0.50400001928E-02 0.  1.
        1   -1    0    0  501    0  0.00000000000E+00  0.00000000000E+00 -0.39566873649E+03  0.39566873653E+03  0.50400001928E-02 0. -1.
    10030    2    1    2    0    0  0.00000000000E+00  0.00000000000E+00 -0.93714557714E+02  0.69762291535E+03  0.69129972783E+03 0.  0.
        5    1    3    3  502    0 -0.10997806503E+03 -0.14437977043E+03  0.24996065129E+03  0.30893868338E+03  0.46999998093E+01 0.  1.
       -5    1    3    3    0  502  0.10997806503E+03  0.14437977043E+03 -0.34367520900E+03  0.38868423197E+03  0.46999998093E+01 0. -1.
</event>
<event>
 5   0  0.3749730E-02  0.7128310E+03  0.7818609E-02  0.9695538E-01
        1   -1    0    0  501    0  0.00000000000E+00  0.00000000000E+00  0.27000736949E+03  0.27000736954E+03  0.50400001928E-02 0.  1.
       -1   -1    0    0    0  501  0.00000000000E+00  0.00000000000E+00 -0.47047607875E+03  0.47047607878E+03  0.50400001928E-02 0. -1.
    10030    2    1    2    0    0  0.00000000000E+00  0.00000000000E+00 -0.20046870926E+03  0.74048344832E+03  0.71283099950E+03 0.  0.
        4    1    3    3  502    0 -0.34716931771E+02 -0.13467803966E+03 -0.44112126684E+03  0.46252894469E+03  0.12699999809E+01 0. -1.
       -4    1    3    3    0  502  0.34716931771E+02  0.13467803966E+03  0.24065255758E+03  0.27795450363E+03  0.12699999809E+01 0.  1.
</event>
<event>
 5   0  0.3439015E-02  0.6819124E+03  0.7818609E-02  0.9748674E-01
       -1   -1    0    0    0  501  0.00000000000E+00  0.00000000000E+00  0.60998273892E+03  0.60998273894E+03  0.50400001928E-02 0.  1.
        1   -1    0    0  501    0  0.00000000000E+00  0.00000000000E+00 -0.19058099763E+03  0.19058099770E+03  0.50400001928E-02 0. -1.
    10030    2    1    2    0    0  0.00000000000E+00  0.00000000000E+00  0.41940174129E+03  0.80056373664E+03  0.68191236668E+03 0.  0.
        1    1    3    3  502    0  0.75399836411E+02 -0.65502578894E+02 -0.17302138074E+03  0.19978018268E+03  0.50400001928E-02 0. -1.
       -1    1    3    3    0  502 -0.75399836411E+02  0.65502578894E+02  0.59242312203E+03  0.60078355396E+03  0.50400001928E-02 0.  1.
</event>
<event>
 5   0  0.6131198E-02  0.7083208E+03  0.7818609E-02  0.9703107E-01
        2   -1    0    0  501    0  0.00000000000E+00  0.00000000000E+00  0.60837534972E+03  0.60837534973E+03  0.25500000920E-02 0.  1.
       -2   -1    0    0    0  501  0.00000000000E+00  0.00000000000E+00 -0.20617138994E+03  0.20617138996E+03  0.25500000920E-02 0. -1.
    10030    2    1    2    0    0  0.00000000000E+00  0.00000000000E+00  0.40220395978E+03  0.81454673969E+03  0.70832080717E+03 0.  0.
        1    1    3    3  502    0 -0.52092948081E+02 -0.33945240355E+03  0.30061236429E+03  0.45640924958E+03  0.50400001928E-02 0. -1.
       -1    1    3    3    0  502  0.52092948081E+02  0.33945240355E+03  0.10159159549E+03  0.35813749010E+03  0.50400001928E-02 0.  1.
</event>
<event>
 5   0  0.3439015E-02  0.7037569E+03  0.7818609E-02  0.9710829E-01
       -1   -1    0    0    0  501  0.00000000000E+00  0.00000000000E+00  0.17660832508E+03  0.17660832515E+03  0.50400001928E-02 0. -1.
        1   -1    0    0  501    0  0.00000000000E+00  0.00000000000E+00 -0.70109066623E+03  0.70109066625E+03  0.50400001928E-02 0.  1.
    10030    2    1    2    0    0  0.00000000000E+00  0.00000000000E+00 -0.52448234115E+03  0.87769899140E+03  0.70375691352E+03 0.  0.
        1    1    3    3  502    0  0.21362252285E+03  0.16061313385E+03  0.23212663218E+02  0.26827222889E+03  0.50400001928E-02 0. -1.
       -1    1    3    3    0  502 -0.21362252285E+03 -0.16061313385E+03 -0.54769500437E+03  0.60942676251E+03  0.50400001928E-02 0.  1.
</event>
<event>
 5   0  0.6248886E-02  0.7034364E+03  0.7818609E-02  0.9711373E-01
        2   -1    0    0  501    0  0.00000000000E+00  0.00000000000E+00  0.83196390401E+03  0.83196390401E+03  0.25500000920E-02 0. -1.
       -2   -1    0    0    0  501  0.00000000000E+00  0.00000000000E+00 -0.14869119109E+03  0.14869119111E+03  0.25500000920E-02 0.  1.
    10030    2    1    2    0    0  0.00000000000E+00  0.00000000000E+00  0.68327271292E+03  0.98065509512E+03  0.70343643307E+03 0.  0.
        3    1    3    3  502    0  0.24977788121E+03  0.22144689033E+03  0.18716254415E+03  0.38269771794E+03  0.10100000352E+00 0.  1.
       -3    1    3    3    0  502 -0.24977788121E+03 -0.22144689033E+03  0.49611016877E+03  0.59795737719E+03  0.10100000352E+00 0. -1.
</event>
<event>
 5   0  0.6248886E-02  0.7029346E+03  0.7818609E-02  0.9712227E-01
        2   -1    0    0  501    0  0.00000000000E+00  0.00000000000E+00  0.13241002722E+04  0.13241002722E+04  0.25500000920E-02 0.  1.
       -2   -1    0    0    0  501  0.00000000000E+00  0.00000000000E+00 -0.93292982825E+02  0.93292982860E+02  0.25500000920E-02 0. -1.
    10030    2    1    2    0    0  0.00000000000E+00  0.00000000000E+00  0.12308072894E+04  0.14173932551E+04  0.70293460288E+03 0.  0.
        3    1    3    3  502    0  0.83993885196E+02 -0.21825738244E+03  0.11444449104E+04  0.11680947825E+04  0.10100000352E+00 0.  1.
       -3    1    3    3    0  502 -0.83993885196E+02  0.21825738244E+03  0.86362379020E+02  0.24929847262E+03  0.10100000352E+00 0. -1.
</event>
<event>
 5   0  0.6167756E-02  0.7126052E+03  0.7818609E-02  0.9695915E-01
        2   -1    0    0  501    0  0.00000000000E+00  0.00000000000E+00  0.37390614699E+03  0.37390614699E+03  0.25500000920E-02 0. -1.
       -2   -1    0    0    0  501  0.00000000000E+00  0.00000000000E+00 -0.33952781427E+03  0.33952781428E+03  0.25500000920E-02 0.  1.
    10030    2    1    2    0    0  0.00000000000E+00  0.00000000000E+00  0.34378332713E+02  0.71343396128E+03  0.71260518335E+03 0.  0.
        4    1    3    3  502    0 -0.26119243653E+03  0.24075069834E+03 -0.10547499804E+02  0.35538043039E+03  0.12699999809E+01 0.  1.
       -4    1    3    3    0  502  0.26119243653E+03 -0.24075069834E+03  0.44925832518E+02  0.35805353089E+03  0.12699999809E+01 0. -1.
</event>
<event>
 5   0  0.3717372E-02  0.5956982E+03  0.7818609E-02  0.9914371E-01
        1   -1    0    0  501    0  0.00000000000E+00  0.00000000000E+00  0.34562112980E+03  0.34562112984E+03  0.50400001928E-02 0.  1.
       -1   -1    0    0    0  501  0.00000000000E+00  0.00000000000E+00 -0.25668017950E+03  0.25668017955E+03  0.50400001928E-02 0. -1.
    10030    2    1    2    0    0  0.00000000000E+00  0.00000000000E+00  0.88940950298E+02  0.60230130939E+03  0.59569822448E+03 0.  0.
        3    1    3    3  502    0 -0.25231173198E+02 -0.15382117957E+03  0.30108788548E+03  0.33904497101E+03  0.10100000352E+00 0.  1.
       -3    1    3    3    0  502  0.25231173198E+02  0.15382117957E+03 -0.21214693519E+03  0.26325633837E+03  0.10100000352E+00 0. -1.
</event>
<event>
 5   0  0.6167756E-02  0.7096959E+03  0.7818609E-02  0.9700793E-01
        2   -1    0    0  501    0  0.00000000000E+00  0.00000000000E+00  0.36628171955E+03  0.36628171955E+03  0.25500000920E-02 0. -1.
       -2   -1    0    0    0  501  0.00000000000E+00  0.00000000000E+00 -0.34377107987E+03  0.34377107988E+03  0.25500000920E-02 0.  1.
    10030    2    1    2    0    0  0.00000000000E+00  0.00000000000E+00  0.22510639675E+02  0.71005279944E+03  0.70969588493E+03 0.  0.
        4    1    3    3  502    0 -0.34985260087E+03  0.46295394301E+02  0.48359594605E+02  0.35620270796E+03  0.12699999809E+01 0.  1.
       -4    1    3    3    0  502  0.34985260087E+03 -0.46295394301E+02 -0.25848954930E+02  0.35385009148E+03  0.12699999809E+01 0. -1.
</event>
<event>
 5   0  0.3601475E-02  0.7482825E+03  0.7818609E-02  0.9638049E-01
        1   -1    0    0  501    0  0.00000000000E+00  0.00000000000E+00  0.10748516775E+03  0.10748516787E+03  0.50400001928E-02 0.  1.
       -1   -1    0    0    0  501  0.00000000000E+00  0.00000000000E+00 -0.13023349232E+04  0.13023349232E+04  0.50400001928E-02 0. -1.
    10030    2    1    2    0    0  0.00000000000E+00  0.00000000000E+00 -0.11948497555E+04  0.14098200911E+04  0.74828253430E+03 0.  0.
        5    1    3    3  502    0 -0.11964964329E+03 -0.74557015039E+02  0.55468296761E+02  0.15157047065E+03  0.46999998093E+01 0.  1.
       -5    1    3    3    0  502  0.11964964329E+03  0.74557015039E+02 -0.12503180522E+04  0.12582496205E+04  0.46999998093E+01 0. -1.
</event>
<event>
 5   0  0.6131198E-02  0.6947549E+03  0.7818609E-02  0.9726244E-01
        2   -1    0    0  501    0  0.00000000000E+00  0.00000000000E+00  0.16365990636E+03  0.16365990638E+03  0.25500000920E-02 0.  1.
       -2   -1    0    0    0  501  0.00000000000E+00  0.00000000000E+00 -0.73732828368E+03  0.73732828369E+03  0.25500000920E-02 0. -1.
    10030    2    1    2    0    0  0.00000000000E+00  0.00000000000E+00 -0.57366837733E+03  0.90098819007E+03  0.69475485712E+03 0.  0.
        1    1    3    3  502    0 -0.18979801543E+03 -0.64000517637E+02  0.81231156777E+02  0.21614313261E+03  0.50400001928E-02 0.  1.
       -1    1    3    3    0  502  0.18979801543E+03  0.64000517637E+02 -0.65489953410E+03  0.68484505745E+03  0.50400001928E-02 0. -1.
</event>
<event>
 5   0  0.3755872E-02  0.6953811E+03  0.7818609E-02  0.9725164E-01
        1   -1    0    0  501    0  0.00000000000E+00  0.00000000000E+00  0.31348560459E+03  0.31348560463E+03  0.50400001928E-02 0.  1.
       -1   -1    0    0    0  501  0.00000000000E+00  0.00000000000E+00 -0.38562767849E+03  0.38562767852E+03  0.50400001928E-02 0. -1.
    10030    2    1    2    0    0  0.00000000000E+00  0.00000000000E+00 -0.72142073901E+02  0.69911328315E+03  0.69538112129E+03 0.  0.
        2    1    3    3  502    0  0.24515670504E+02 -0.26708746483E+03  0.18636740849E+03  0.32660303569E+03  0.25500000920E-02 0.  1.
       -2    1    3    3    0  502 -0.24515670504E+02  0.26708746483E+03 -0.25850948240E+03  0.37251024746E+03  0.25500000920E-02 0. -1.
</event>
<event>
 5   0  0.5987810E-02  0.7026050E+03  0.7818609E-02  0.9712788E-01
        2   -1    0    0  501    0  0.00000000000E+00  0.00000000000E+00  0.51318742905E+03  0.51318742905E+03  0.25500000920E-02 0. -1.
       -2   -1    0    0    0  501  0.00000000000E+00  0.00000000000E+00 -0.24048418525E+03  0.24048418526E+03  0.25500000920E-02 0.  1.
    10030    2    1    2    0    0  0.00000000000E+00  0.00000000000E+00  0.27270324380E+03  0.75367161432E+03  0.70260504058E+03 0.  0.
        5    1    3    3  502    0  0.27673645765E+03  0.21144785526E+03  0.18548593016E+03  0.39461422018E+03  0.46999998093E+01 0. -1.
       -5    1    3    3    0  502 -0.27673645765E+03 -0.21144785526E+03  0.87217313634E+02  0.35905739413E+03  0.46999998093E+01 0.  1.
</event>
<event>
 5   0  0.3717372E-02  0.7270604E+03  0.7818609E-02  0.9672043E-01
        1   -1    0    0  501    0  0.00000000000E+00  0.00000000000E+00  0.10865247072E+04  0.10865247073E+04  0.50400001928E-02 0.  1.
       -1   -1    0    0    0  501  0.00000000000E+00  0.00000000000E+00 -0.12163017368E+03  0.12163017379E+03  0.50400001928E-02 0. -1.
    10030    2    1    2    0    0  0.00000000000E+00  0.00000000000E+00  0.96489453357E+03  0.12081548810E+04  0.72706035216E+03 0.  0.
        3    1    3    3  502    0 -0.46580226563E+02 -0.28081694694E+03  0.85817594730E+03  0.90415366057E+03  0.10100000352E+00 0.  1.
       -3    1    3    3    0  502  0.46580226563E+02  0.28081694694E+03  0.10671858627E+03  0.30400122048E+03  0.10100000352E+00 0. -1.
</event>
<event>
 5   0  0.3439015E-02  0.7310025E+03  0.7818609E-02  0.9665635E-01
       -1   -1    0    0    0  501  0.00000000000E+00  0.00000000000E+00  0.11557979247E+03  0.11557979258E+03  0.50400001928E-02 0. -1.
        1   -1    0    0  501    0  0.00000000000E+00  0.00000000000E+00 -0.11558350157E+04  0.11558350157E+04  0.50400001928E-02 0.  1.
    10030    2    1    2    0    0  0.00000000000E+00  0.00000000000E+00 -0.10402552233E+04  0.12714148083E+04  0.73100252074E+03 0.  0.
        1    1    3    3  502    0  0.17318339007E+03  0.28012824348E+03 -0.24442718957E+03  0.41013286922E+03  0.50400001928E-02 0. -1.
       -1    1    3    3    0  502 -0.17318339007E+03 -0.28012824348E+03 -0.79582803370E+03  0.86128193911E+03  0.50400001928E-02 0.  1.
</event>
<event>
 5   0  0.2439375E-02  0.6976725E+03  0.7818609E-02  0.9721221E-01
       -3   -1    0    0    0  501  0.00000000000E+00  0.00000000000E+00  0.30532563767E+03  0.30532565438E+03  0.10100000352E+00 0. -1.
        3   -1    0    0  501    0  0.00000000000E+00  0.00000000000E+00 -0.39854737541E+03  0.39854738820E+03  0.10100000352E+00 0.  1.
    10030    2    1    2    0    0  0.00000000000E+00  0.00000000000E+00 -0.93221737731E+02  0.70387304258E+03  0.69767253614E+03 0.  0.
        3    1    3    3  502    0 -0.22742267305E+03  0.99225987187E+02 -0.29398352730E+03  0.38469883451E+03  0.10100000352E+00 0.  1.
       -3    1    3    3    0  502  0.22742267305E+03 -0.99225987187E+02  0.20076178957E+03  0.31917420807E+03  0.10100000352E+00 0. -1.
</event>
<event>
 5   0  0.3601475E-02  0.7010682E+03  0.7818609E-02  0.9715407E-01
       -1   -1    0    0    0  501  0.00000000000E+00  0.00000000000E+00  0.36111191228E+03  0.36111191232E+03  0.50400001928E-02 0. -1.
        1   -1    0    0  501    0  0.00000000000E+00  0.00000000000E+00 -0.34026613567E+03  0.34026613571E+03  0.50400001928E-02 0.  1.
    10030    2    1    2    0    0  0.00000000000E+00  0.00000000000E+00  0.20845776609E+02  0.70137804803E+03  0.70106819915E+03 0.  0.
        5    1    3    3  502    0  0.10897091481E+03 -0.33022378821E+03  0.54370134561E+02  0.35199518762E+03  0.46999998093E+01 0. -1.
       -5    1    3    3    0  502 -0.10897091481E+03  0.33022378821E+03 -0.33524357951E+02  0.34938286041E+03  0.46999998093E+01 0.  1.
</event>
<event>
 5   0  0.3439015E-02  0.7175123E+03  0.7818609E-02  0.9687744E-01
       -1   -1    0    0    0  501  0.00000000000E+00  0.00000000000E+00  0.20227949117E+03  0.20227949123E+03  0.50400001928E-02 0. -1.
        1   -1    0    0  501    0  0.00000000000E+00  0.00000000000E+00 -0.63627799794E+03  0.63627799796E+03  0.50400001928E-02 0.  1.
    10030    2    1    2    0    0  0.00000000000E+00  0.00000000000E+00 -0.43399850677E+03  0.83855748920E+03  0.71751234053E+03 0.  0.
        1    1    3    3  502    0  0.26541560551E+03 -0.23001139960E+03 -0.30252472032E+03  0.46354276396E+03  0.50400001928E-02 0. -1.
       -1    1    3    3    0  502 -0.26541560551E+03  0.23001139960E+03 -0.13147378646E+03  0.37501472524E+03  0.50400001928E-02 0.  1.
</event>
<event>
 5   0  0.3755872E-02  0.7333918E+03  0.7818609E-02  0.9661772E-01
       -1   -1    0    0    0  501  0.00000000000E+00  0.00000000000E+00  0.60787588390E+03  0.60787588393E+03  0.50400001928E-02 0. -1.
        1   -1    0    0  501    0  0.00000000000E+00  0.00000000000E+00 -0.22120613805E+03  0.22120613811E+03  0.50400001928E-02 0.  1.
    10030    2    1    2    0    0  0.00000000000E+00  0.00000000000E+00  0.38666974585E+03  0.82908202204E+03  0.73339178268E+03 0.  0.
        2    1    3    3  502    0  0.93096950318E+02 -0.21667224971E+03  0.51077931995E+03  0.56259169887E+03  0.25500000920E-02 0. -1.
       -2    1    3    3    0  502 -0.93096950318E+02  0.21667224971E+03 -0.12410957409E+03  0.26649032316E+03  0.25500000920E-02 0.  1.
</event>
<event>
 5   0  0.3717372E-02  0.7006467E+03  0.7818609E-02  0.9716127E-01
       -1   -1    0    0    0  501  0.00000000000E+00  0.00000000000E+00  0.33641489259E+03  0.33641489263E+03  0.50400001928E-02 0. -1.
        1   -1    0    0  501    0  0.00000000000E+00  0.00000000000E+00 -0.36480685362E+03  0.36480685365E+03  0.50400001928E-02 0.  1.
    10030    2    1    2    0    0  0.00000000000E+00  0.00000000000E+00 -0.28391961028E+02  0.70122174628E+03  0.70064672554E+03 0.  0.
        3    1    3    3  502    0  0.26421147733E+02  0.11124733734E+03 -0.34560578497E+03  0.36402941628E+03  0.10100000352E+00 0.  1.
       -3    1    3    3    0  502 -0.26421147733E+02 -0.11124733734E+03  0.31721382394E+03  0.33719233000E+03  0.10100000352E+00 0. -1.
</event>
<event>
 5   0  0.5987810E-02  0.6966000E+03  0.7818609E-02  0.9723064E-01
        2   -1    0    0  501    0  0.00000000000E+00  0.00000000000E+00  0.22644646107E+04  0.22644646107E+04  0.25500000920E-02 0.  1.
       -2   -1    0    0    0  501  0.00000000000E+00  0.00000000000E+00 -0.53572430996E+02  0.53572431057E+02  0.25500000920E-02 0. -1.
    10030    2    1    2    0    0  0.00000000000E+00  0.00000000000E+00  0.22108921797E+04  0.23180370418E+04  0.69659995456E+03 0.  0.
        5    1    3    3  502    0  0.12722673110E+03 -0.76434710984E+02  0.21538488936E+04  0.21589617997E+04  0.46999998093E+01 0.  1.
       -5    1    3    3    0  502 -0.12722673110E+03  0.76434710984E+02  0.57043286121E+02  0.15907524207E+03  0.46999998093E+01 0. -1.
</event>
<event>
 5   0  0.3601475E-02  0.6942664E+03  0.7818609E-02  0.9727088E-01
       -1   -1    0    0    0  501  0.00000000000E+00  0.00000000000E+00  0.82556719959E+03  0.82556719961E+03  0.50400001928E-02 0.  1.
        1   -1    0    0  501    0  0.00000000000E+00  0.00000000000E+00 -0.14596200806E+03  0.14596200815E+03  0.50400001928E-02 0. -1.
    10030    2    1    2    0    0  0.00000000000E+00  0.00000000000E+00  0.67960519153E+03  0.97152920775E+03  0.69426636471E+03 0.  0.
        5    1    3    3  502    0 -0.15627068695E+03  0.15663660978E+03 -0.34441562370E+02  0.22397291430E+03  0.46999998093E+01 0. -1.
       -5    1    3    3    0  502  0.15627068695E+03 -0.15663660978E+03  0.71404675390E+03  0.74755629345E+03  0.46999998093E+01 0.  1.
</event>
<event>
 5   0  0.6131198E-02  0.6655264E+03  0.7818609E-02  0.9778073E-01
       -2   -1    0    0    0  501  0.00000000000E+00  0.00000000000E+00  0.29260695663E+03  0.29260695664E+03  0.25500000920E-02 0.  1.
        2   -1    0    0  501    0  0.00000000000E+00  0.00000000000E+00 -0.37843037288E+03  0.37843037289E+03  0.25500000920E-02 0. -1.
    10030    2    1    2    0    0  0.00000000000E+00  0.00000000000E+00 -0.85823416259E+02  0.67103732953E+03  0.66552643737E+03 0.  0.
        1    1    3    3  502    0 -0.14133596483E+02  0.23122270675E+03 -0.28377820970E+03  0.36632467975E+03  0.50400001928E-02 0. -1.
       -1    1    3    3    0  502  0.14133596483E+02 -0.23122270675E+03  0.19795479344E+03  0.30471264978E+03  0.50400001928E-02 0.  1.
</event>
<event>
 5   0  0.3439015E-02  0.6464540E+03  0.7818609E-02  0.9813456E-01
       -1   -1    0    0    0  501  0.00000000000E+00  0.00000000000E+00  0.10799939292E+03  0.10799939304E+03  0.50400001928E-02 0. -1.
        1   -1    0    0  501    0  0.00000000000E+00  0.00000000000E+00 -0.96737307304E+03  0.96737307306E+03  0.50400001928E-02 0.  1.
    10030    2    1    2    0    0  0.00000000000E+00  0.00000000000E+00 -0.85937368012E+03  0.10753724661E+04  0.64645403452E+03 0.  0.
        1    1    3    3  502    0  0.12121254502E+03 -0.21795538864E+02 -0.92681329745E+03  0.93496011409E+03  0.50400001928E-02 0.  1.
       -1    1    3    3    0  502 -0.12121254502E+03  0.21795538864E+02  0.67439617331E+02  0.14041235200E+03  0.50400001928E-02 0. -1.
</event>
<event>
 5   0  0.6167756E-02  0.6927978E+03  0.7818609E-02  0.9729629E-01
        2   -1    0    0  501    0  0.00000000000E+00  0.00000000000E+00  0.15087218046E+04  0.15087218046E+04  0.25500000920E-02 0. -1.
       -2   -1    0    0    0  501  0.00000000000E+00  0.00000000000E+00 -0.79532359625E+02  0.79532359666E+02  0.25500000920E-02 0.  1.
    10030    2    1    2    0    0  0.00000000000E+00  0.00000000000E+00  0.14291894449E+04  0.15882541642E+04  0.69279782092E+03 0.  0.
        4    1    3    3  502    0 -0.11633556967E+03 -0.22648588552E+03  0.17616546076E+03  0.30962187192E+03  0.12699999809E+01 0.  1.
       -4    1    3    3    0  502  0.11633556967E+03  0.22648588552E+03  0.12530239842E+04  0.12786322923E+04  0.12699999809E+01 0. -1.
</event>
<event>
 5   0  0.6248886E-02  0.7178389E+03  0.7818609E-02  0.9687202E-01
       -2   -1    0    0    0  501  0.00000000000E+00  0.00000000000E+00  0.10966455964E+03  0.10966455967E+03  0.25500000920E-02 0. -1.
        2   -1    0    0  501    0  0.00000000000E+00  0.00000000000E+00 -0.11747019900E+04  0.11747019900E+04  0.25500000920E-02 0.  1.
    10030    2    1    2    0    0  0.00000000000E+00  0.00000000000E+00 -0.10650374304E+04  0.12843665497E+04  0.71783891361E+03 0.  0.
        3    1    3    3  502    0  0.13497747020E+03 -0.24975981133E+03 -0.92543035015E+03  0.96799804959E+03  0.10100000352E+00 0.  1.
       -3    1    3    3    0  502 -0.13497747020E+03  0.24975981133E+03 -0.13960708023E+03  0.31636850012E+03  0.10100000352E+00 0. -1.
</event>
<event>
 5   0  0.3439015E-02  0.7079257E+03  0.7818609E-02  0.9703773E-01
        1   -1    0    0  501    0  0.00000000000E+00  0.00000000000E+00  0.75610516733E+03  0.75610516734E+03  0.50400001928E-02 0.  1.
       -1   -1    0    0    0  501  0.00000000000E+00  0.00000000000E+00 -0.16570405565E+03  0.16570405573E+03  0.50400001928E-02 0. -1.
    10030    2    1    2    0    0  0.00000000000E+00  0.00000000000E+00  0.59040111168E+03  0.92180922307E+03  0.70792568188E+03 0.  0.
        1    1    3    3  502    0 -0.39964982983E+02  0.17984122763E+03 -0.98355652209E+02  0.20883941526E+03  0.50400001928E-02 0. -1.
       -1    1    3    3    0  502  0.39964982983E+02 -0.17984122763E+03  0.68875676389E+03  0.71296980781E+03  0.50400001928E-02 0.  1.
</event>
<event>
 5   0  0.3601475E-02  0.6545210E+03  0.7818609E-02  0.9798333E-01
        1   -1    0    0  501    0  0.00000000000E+00  0.00000000000E+00  0.45464179408E+03  0.45464179411E+03  0.50400001928E-02 0.  1.
       -1   -1    0    0    0  501  0.00000000000E+00  0.00000000000E+00 -0.23556883283E+03  0.23556883289E+03  0.50400001928E-02 0. -1.
    10030    2    1    2    0    0  0.00000000000E+00  0.00000000000E+00  0.21907296125E+03  0.69021062699E+03  0.65452100598E+03 0.  0.
        5    1    3    3  502    0 -0.39698563274E+02 -0.26293856608E+03  0.31062994022E+03  0.40893240911E+03  0.46999998093E+01 0.  1.
       -5    1    3    3    0  502  0.39698563274E+02  0.26293856608E+03 -0.91556978977E+02  0.28127821788E+03  0.46999998093E+01 0. -1.
</event>
<event>
 5   0  0.3601475E-02  0.7254199E+03  0.7818609E-02  0.9674722E-01
        1   -1    0    0  501    0  0.00000000000E+00  0.00000000000E+00  0.13659501252E+04  0.13659501252E+04  0.50400001928E-02 0.  1.
       -1   -1    0    0    0  501  0.00000000000E+00  0.00000000000E+00 -0.96312823176E+02  0.96312823308E+02  0.50400001928E-02 0. -1.
    10030    2    1    2    0    0  0.00000000000E+00  0.00000000000E+00  0.12696373020E+04  0.14622629485E+04  0.72541991420E+03 0.  0.
        5    1    3    3  502    0  0.22707874630E+03 -0.17157047718E+03  0.10879594404E+04  0.11245794857E+04  0.46999998093E+01 0.  1.
       -5    1    3    3    0  502 -0.22707874630E+03  0.17157047718E+03  0.18167786159E+03  0.33768346281E+03  0.46999998093E+01 0. -1.
</event>
<event>
 5   0  0.3755872E-02  0.6899121E+03  0.7818609E-02  0.9734641E-01
       -1   -1    0    0    0  501  0.00000000000E+00  0.00000000000E+00  0.21644432720E+03  0.21644432726E+03  0.50400001928E-02 0.  1.
        1   -1    0    0  501    0  0.00000000000E+00  0.00000000000E+00 -0.54977041029E+03  0.54977041032E+03  0.50400001928E-02 0. -1.
    10030    2    1    2    0    0  0.00000000000E+00  0.00000000000E+00 -0.33332608309E+03  0.76621473758E+03  0.68991212949E+03 0.  0.
        2    1    3    3  502    0  0.12729409528E+03  0.31375946118E+03 -0.23987745817E+03  0.41495780643E+03  0.25500000920E-02 0. -1.
       -2    1    3    3    0  502 -0.12729409528E+03 -0.31375946118E+03 -0.93448624916E+02  0.35125693115E+03  0.25500000920E-02 0.  1.
</event>
<event>
 5   0  0.6248886E-02  0.6986929E+03  0.7818609E-02  0.9719470E-01
        2   -1    0    0  501    0  0.00000000000E+00  0.00000000000E+00  0.12022394480E+04  0.12022394480E+04  0.25500000920E-02 0.  1.
       -2   -1    0    0    0  501  0.00000000000E+00  0.00000000000E+00 -0.10151301887E+03  0.10151301890E+03  0.25500000920E-02 0. -1.
    10030    2    1    2    0    0  0.00000000000E+00  0.00000000000E+00  0.11007264291E+04  0.13037524669E+04  0.69869293910E+03 0.  0.
        3    1    3    3  502    0 -0.26585685688E+03  0.19652694927E+03  0.76098219969E+03  0.82969670880E+03  0.10100000352E+00 0.  1.
       -3    1    3    3    0  502  0.26585685688E+03 -0.19652694927E+03  0.33974422940E+03  0.47405575806E+03  0.10100000352E+00 0. -1.
</event>
<event>
 5   0  0.5899787E-02  0.7247898E+03  0.7818609E-02  0.9675753E-01
       -2   -1    0    0    0  501  0.00000000000E+00  0.00000000000E+00  0.21712125925E+04  0.21712125925E+04  0.25500000920E-02 0. -1.
        2   -1    0    0  501    0  0.00000000000E+00  0.00000000000E+00 -0.60486967040E+02  0.60486967093E+02  0.25500000920E-02 0.  1.
    10030    2    1    2    0    0  0.00000000000E+00  0.00000000000E+00  0.21107256255E+04  0.22316995596E+04  0.72478980285E+03 0.  0.
        2    1    3    3  502    0 -0.20719563383E+02 -0.31550401761E+03  0.16006153392E+04  0.16315457546E+04  0.25500000920E-02 0. -1.
       -2    1    3    3    0  502  0.20719563383E+02  0.31550401761E+03  0.51011028630E+03  0.60015380498E+03  0.25500000920E-02 0.  1.
</event>
<event>
 5   0  0.6248886E-02  0.7057821E+03  0.7818609E-02  0.9707395E-01
       -2   -1    0    0    0  501  0.00000000000E+00  0.00000000000E+00  0.43761932138E+03  0.43761932139E+03  0.25500000920E-02 0. -1.
        2   -1    0    0  501    0  0.00000000000E+00  0.00000000000E+00 -0.28456713807E+03  0.28456713808E+03  0.25500000920E-02 0.  1.
    10030    2    1    2    0    0  0.00000000000E+00  0.00000000000E+00  0.15305218331E+03  0.72218645946E+03  0.70578205660E+03 0.  0.
        3    1    3    3  502    0 -0.58045791711E+02  0.32939130586E+03  0.19167670618E+03  0.38549697302E+03  0.10100000352E+00 0. -1.
       -3    1    3    3    0  502  0.58045791711E+02 -0.32939130586E+03 -0.38624522867E+02  0.33668948644E+03  0.10100000352E+00 0.  1.
</event>
<event>
 5   0  0.5899787E-02  0.6983815E+03  0.7818609E-02  0.9720004E-01
        2   -1    0    0  501    0  0.00000000000E+00  0.00000000000E+00  0.12775907515E+04  0.12775907515E+04  0.25500000920E-02 0. -1.
       -2   -1    0    0    0  501  0.00000000000E+00  0.00000000000E+00 -0.95440726198E+02  0.95440726232E+02  0.25500000920E-02 0.  1.
    10030    2    1    2    0    0  0.00000000000E+00  0.00000000000E+00  0.11821500253E+04  0.13730314777E+04  0.69838152647E+03 0.  0.
        2    1    3    3  502    0 -0.64777548605E+01 -0.26318891609E+03  0.10420775088E+04  0.10748190086E+04  0.25500000920E-02 0. -1.
       -2    1    3    3    0  502  0.64777548605E+01  0.26318891609E+03  0.14007251647E+03  0.29821246911E+03  0.25500000920E-02 0.  1.
</event>
<event>
 5   0  0.6248886E-02  0.5956578E+03  0.7818609E-02  0.9914456E-01
        2   -1    0    0  501    0  0.00000000000E+00  0.00000000000E+00  0.15616415527E+04  0.15616415527E+04  0.25500000920E-02 0.  1.
       -2   -1    0    0    0  501  0.00000000000E+00  0.00000000000E+00 -0.56800521694E+02  0.56800521751E+02  0.25500000920E-02 0. -1.
    10030    2    1    2    0    0  0.00000000000E+00  0.00000000000E+00  0.15048410310E+04  0.16184420745E+04  0.59565780425E+03 0.  0.
        3    1    3    3  502    0 -0.51139520241E+02 -0.36897498076E+02 -0.38453046948E+02  0.73860157835E+02  0.10100000352E+00 0. -1.
       -3    1    3    3    0  502  0.51139520241E+02  0.36897498076E+02  0.15432940780E+04  0.15445819166E+04  0.10100000352E+00 0.  1.
</event>
<event>
 5   0  0.5987810E-02  0.7088941E+03  0.7818609E-02  0.9702142E-01
       -2   -1    0    0    0  501  0.00000000000E+00  0.00000000000E+00  0.83324688844E+02  0.83324688883E+02  0.25500000920E-02 0.  1.
        2   -1    0    0  501    0  0.00000000000E+00  0.00000000000E+00 -0.15077491045E+04  0.15077491045E+04  0.25500000920E-02 0. -1.
    10030    2    1    2    0    0  0.00000000000E+00  0.00000000000E+00 -0.14244244157E+04  0.15910737934E+04  0.70889413884E+03 0.  0.
        5    1    3    3  502    0 -0.33871340682E+03  0.80109759721E+02 -0.86220913770E+03  0.92982311903E+03  0.46999998093E+01 0. -1.
       -5    1    3    3    0  502  0.33871340682E+03 -0.80109759721E+02 -0.56221527797E+03  0.66125067436E+03  0.46999998093E+01 0.  1.
</event>
<event>
 5   0  0.6167756E-02  0.6965249E+03  0.7818609E-02  0.9723194E-01
       -2   -1    0    0    0  501  0.00000000000E+00  0.00000000000E+00  0.51302167150E+03  0.51302167150E+03  0.25500000920E-02 0. -1.
        2   -1    0    0  501    0  0.00000000000E+00  0.00000000000E+00 -0.23641640206E+03  0.23641640207E+03  0.25500000920E-02 0.  1.
    10030    2    1    2    0    0  0.00000000000E+00  0.00000000000E+00  0.27660526944E+03  0.74943807357E+03  0.69652491057E+03 0.  0.
        4    1    3    3  502    0 -0.23433757496E+03 -0.21427688296E+03 -0.15588698546E+02  0.31792027622E+03  0.12699999809E+01 0. -1.
       -4    1    3    3    0  502  0.23433757496E+03  0.21427688296E+03  0.29219396798E+03  0.43151779736E+03  0.12699999809E+01 0.  1.
</event>
<event>
 5   0  0.6167756E-02  0.7677797E+03  0.7818609E-02  0.9607862E-01
       -2   -1    0    0    0  501  0.00000000000E+00  0.00000000000E+00  0.85728464089E+02  0.85728464126E+02  0.25500000920E-02 0. -1.
        2   -1    0    0  501    0  0.00000000000E+00  0.00000000000E+00 -0.17190487869E+04  0.17190487869E+04  0.25500000920E-02 0.  1.
    10030    2    1    2    0    0  0.00000000000E+00  0.00000000000E+00 -0.16333203228E+04  0.18047772511E+04  0.76777968776E+03 0.  0.
        4    1    3    3  502    0 -0.41763943944E+02  0.25439319925E+03 -0.14852922443E+04  0.15074995160E+04  0.12699999809E+01 0.  1.
       -4    1    3    3    0  502  0.41763943944E+02 -0.25439319925E+03 -0.14802807858E+03  0.29727773510E+03  0.12699999809E+01 0. -1.
</event>
<event>
 5   0  0.3439015E-02  0.6880365E+03  0.7818609E-02  0.9737913E-01
        1   -1    0    0  501    0  0.00000000000E+00  0.00000000000E+00  0.46312032481E+03  0.46312032484E+03  0.50400001928E-02 0.  1.
       -1   -1    0    0    0  501  0.00000000000E+00  0.00000000000E+00 -0.25554598601E+03  0.25554598606E+03  0.50400001928E-02 0. -1.
    10030    2    1    2    0    0  0.00000000000E+00  0.00000000000E+00  0.20757433880E+03  0.71866631090E+03  0.68803645273E+03 0.  0.
        1    1    3    3  502    0 -0.14778726531E+02 -0.46711467360E+02  0.45945761942E+03  0.46206241571E+03  0.50400001928E-02 0.  1.
       -1    1    3    3    0  502  0.14778726531E+02  0.46711467360E+02 -0.25188328062E+03  0.25660389518E+03  0.50400001928E-02 0. -1.
</event>
<event>
 5   0  0.5899787E-02  0.7008191E+03  0.7818609E-02  0.9715832E-01
       -2   -1    0    0    0  501  0.00000000000E+00  0.00000000000E+00  0.38554159248E+03  0.38554159249E+03  0.25500000920E-02 0.  1.
        2   -1    0    0  501    0  0.00000000000E+00  0.00000000000E+00 -0.31847891517E+03  0.31847891518E+03  0.25500000920E-02 0. -1.
    10030    2    1    2    0    0  0.00000000000E+00  0.00000000000E+00  0.67062677305E+02  0.70402050767E+03  0.70081914395E+03 0.  0.
        2    1    3    3  502    0 -0.36071399941E+02  0.77916027025E+02 -0.30774810736E+03  0.31950109663E+03  0.25500000920E-02 0. -1.
       -2    1    3    3    0  502  0.36071399941E+02 -0.77916027025E+02  0.37481078466E+03  0.38451941104E+03  0.25500000920E-02 0.  1.
</event>
<event>
 5   0  0.3601475E-02  0.6972007E+03  0.7818609E-02  0.9722031E-01
        1   -1    0    0  501    0  0.00000000000E+00  0.00000000000E+00  0.26907445534E+03  0.26907445539E+03  0.50400001928E-02 0.  1.
       -1   -1    0    0    0  501  0.00000000000E+00  0.00000000000E+00 -0.45163040364E+03  0.45163040367E+03  0.50400001928E-02 0. -1.
    10030    2    1    2    0    0  0.00000000000E+00  0.00000000000E+00 -0.18255594830E+03  0.72070485906E+03  0.69720070253E+03 0.  0.
        5    1    3    3  502    0 -0.26874483640E+02 -0.29587926144E+03  0.97167897372E+02  0.31261872225E+03  0.46999998093E+01 0.  1.
       -5    1    3    3    0  502  0.26874483640E+02  0.29587926144E+03 -0.27972384567E+03  0.40808613681E+03  0.46999998093E+01 0. -1.
</event>
<event>
 5   0  0.3749730E-02  0.7083086E+03  0.7818609E-02  0.9703128E-01
       -1   -1    0    0    0  501  0.00000000000E+00  0.00000000000E+00  0.17712632993E+03  0.17712633000E+03  0.50400001928E-02 0.  1.
        1   -1    0    0  501    0  0.00000000000E+00  0.00000000000E+00 -0.70811202526E+03  0.70811202528E+03  0.50400001928E-02 0. -1.
    10030    2    1    2    0    0  0.00000000000E+00  0.00000000000E+00 -0.53098569533E+03  0.88523835529E+03  0.70830864531E+03 0.  0.
        4    1    3    3  502    0 -0.79396637170E+01  0.11948261138E+03  0.15105460971E+03  0.19276472887E+03  0.12699999809E+01 0.  1.
       -4    1    3    3    0  502  0.79396637170E+01 -0.11948261138E+03 -0.68204030504E+03  0.69247362642E+03  0.12699999809E+01 0. -1.
</event>
<event>
 5   0  0.3601475E-02  0.6978555E+03  0.7818609E-02  0.9720907E-01
       -1   -1    0    0    0  501  0.00000000000E+00  0.00000000000E+00  0.18642471482E+03  0.18642471489E+03  0.50400001928E-02 0. -1.
        1   -1    0    0  501    0  0.00000000000E+00  0.00000000000E+00 -0.65308164587E+03  0.65308164589E+03  0.50400001928E-02 0.  1.
    10030    2    1    2    0    0  0.00000000000E+00  0.00000000000E+00 -0.46665693105E+03  0.83950636078E+03  0.69785545673E+03 0.  0.
        5    1    3    3  502    0  0.61464650494E+02  0.45682003020E+02 -0.64280804463E+03  0.64737085268E+03  0.46999998093E+01 0.  1.
       -5    1    3    3    0  502 -0.61464650494E+02 -0.45682003020E+02  0.17615111358E+03  0.19213550810E+03  0.46999998093E+01 0. -1.
</event>
<event>
 5   0  0.6131198E-02  0.6774966E+03  0.7818609E-02  0.9756509E-01
        2   -1    0    0  501    0  0.00000000000E+00  0.00000000000E+00  0.68136230939E+03  0.68136230939E+03  0.25500000920E-02 0. -1.
       -2   -1    0    0    0  501  0.00000000000E+00  0.00000000000E+00 -0.16841320199E+03  0.16841320201E+03  0.25500000920E-02 0.  1.
    10030    2    1    2    0    0  0.00000000000E+00  0.00000000000E+00  0.51294910739E+03  0.84977551140E+03  0.67749659262E+03 0.  0.
        1    1    3    3  502    0  0.39205740769E+02 -0.73364968230E+02 -0.15540355548E+03  0.17626620139E+03  0.50400001928E-02 0.  1.
       -1    1    3    3    0  502 -0.39205740769E+02  0.73364968230E+02  0.66835266288E+03  0.67350931001E+03  0.50400001928E-02 0. -1.
</event>
<event>
 5   0  0.6248886E-02  0.7009028E+03  0.7818609E-02  0.9715690E-01
       -2   -1    0    0    0  501  0.00000000000E+00  0.00000000000E+00  0.10975446526E+03  0.10975446529E+03  0.25500000920E-02 0. -1.
        2   -1    0    0  501    0  0.00000000000E+00  0.00000000000E+00 -0.11190084435E+04  0.11190084435E+04  0.25500000920E-02 0.  1.
    10030    2    1    2    0    0  0.00000000000E+00  0.00000000000E+00 -0.10092539782E+04  0.12287629088E+04  0.70090277031E+03 0.  0.
        3    1    3    3  502    0 -0.31093786515E+03  0.16158504080E+03 -0.51323007879E+03  0.62144766905E+03  0.10100000352E+00 0.  1.
       -3    1    3    3    0  502  0.31093786515E+03 -0.16158504080E+03 -0.49602389945E+03  0.60731523974E+03  0.10100000352E+00 0. -1.
</event>
<event>
 5   0  0.5987810E-02  0.6988732E+03  0.7818609E-02  0.9719161E-01
        2   -1    0    0  501    0  0.00000000000E+00  0.00000000000E+00  0.78580439032E+03  0.78580439033E+03  0.25500000920E-02 0.  1.
       -2   -1    0    0    0  501  0.00000000000E+00  0.00000000000E+00 -0.15538973494E+03  0.15538973496E+03  0.25500000920E-02 0. -1.
    10030    2    1    2    0    0  0.00000000000E+00  0.00000000000E+00  0.63041465538E+03  0.94119412529E+03  0.69887319576E+03 0.  0.
        5    1    3    3  502    0  0.55607641342E+02 -0.20780332330E+02 -0.14850600000E+03  0.16000048132E+03  0.46999998093E+01 0. -1.
       -5    1    3    3    0  502 -0.55607641342E+02  0.20780332330E+02  0.77892065539E+03  0.78119364397E+03  0.46999998093E+01 0.  1.
</event>
<event>
 5   0  0.3601475E-02  0.7015227E+03  0.7818609E-02  0.9714632E-01
       -1   -1    0    0    0  501  0.00000000000E+00  0.00000000000E+00  0.99371026827E+02  0.99371026954E+02  0.50400001928E-02 0.  1.
        1   -1    0    0  501    0  0.00000000000E+00  0.00000000000E+00 -0.12381228569E+04  0.12381228569E+04  0.50400001928E-02 0. -1.
    10030    2    1    2    0    0  0.00000000000E+00  0.00000000000E+00 -0.11387518301E+04  0.13374938839E+04  0.70152274296E+03 0.  0.
        5    1    3    3  502    0  0.29820927816E+03  0.15682614868E+03 -0.75508911415E+03  0.82686448394E+03  0.46999998093E+01 0. -1.
       -5    1    3    3    0  502 -0.29820927816E+03 -0.15682614868E+03 -0.38366271595E+03  0.51062939996E+03  0.46999998093E+01 0.  1.
</event>
<event>
 5   0  0.6248886E-02  0.7099322E+03  0.7818609E-02  0.9700396E-01
       -2   -1    0    0    0  501  0.00000000000E+00  0.00000000000E+00  0.32304643674E+03  0.32304643675E+03  0.25500000920E-02 0.  1.
        2   -1    0    0  501    0  0.00000000000E+00  0.00000000000E+00 -0.39003965034E+03  0.39003965035E+03  0.25500000920E-02 0. -1.
    10030    2    1    2    0    0  0.00000000000E+00  0.00000000000E+00 -0.66993213596E+02  0.71308608710E+03  0.70993216363E+03 0.  0.
        3    1    3    3  502    0  0.14206349606E+02 -0.31993592763E+03  0.12028512813E+03  0.34209551358E+03  0.10100000352E+00 0.  1.
       -3    1    3    3    0  502 -0.14206349606E+02  0.31993592763E+03 -0.18727834173E+03  0.37099057352E+03  0.10100000352E+00 0. -1.
</event>
<event>
 5   0  0.6167756E-02  0.6961349E+03  0.7818609E-02  0.9723865E-01
        2   -1    0    0  501    0  0.00000000000E+00  0.00000000000E+00  0.56212548159E+03  0.56212548160E+03  0.25500000920E-02 0. -1.
       -2   -1    0    0    0  501  0.00000000000E+00  0.00000000000E+00 -0.21552296046E+03  0.21552296048E+03  0.25500000920E-02 0.  1.
    10030    2    1    2    0    0  0.00000000000E+00  0.00000000000E+00  0.34660252113E+03  0.77764844207E+03  0.69613489484E+03 0.  0.
        4    1    3    3  502    0 -0.16115905236E+03 -0.15153713873E+03 -0.12689091735E+03  0.25502678757E+03  0.12699999809E+01 0.  1.
       -4    1    3    3    0  502  0.16115905236E+03  0.15153713873E+03  0.47349343848E+03  0.52262165450E+03  0.12699999809E+01 0. -1.
</event>
<event>
 5   0  0.5987810E-02  0.7020574E+03  0.7818609E-02  0.9713720E-01
        2   -1    0    0  501    0  0.00000000000E+00  0.00000000000E+00  0.12646450508E+04  0.12646450508E+04  0.25500000920E-02 0. -1.
       -2   -1    0    0    0  501  0.00000000000E+00  0.00000000000E+00 -0.97435366458E+02  0.97435366491E+02  0.25500000920E-02 0.  1.
    10030    2    1    2    0    0  0.00000000000E+00  0.00000000000E+00  0.11672096844E+04  0.13620804173E+04  0.70205741643E+03 0.  0.
        5    1    3    3  502    0 -0.26480598257E+03 -0.71855712609E+02  0.10082826571E+04  0.10449600272E+04  0.46999998093E+01 0. -1.
       -5    1    3    3    0  502  0.26480598257E+03  0.71855712609E+02  0.15892702729E+03  0.31712039014E+03  0.46999998093E+01 0.  1.
</event>
<event>
 5   0  0.3601475E-02  0.6938887E+03  0.7818609E-02  0.9727741E-01
       -1   -1    0    0    0  501  0.00000000000E+00  0.00000000000E+00  0.24606930627E+03  0.24606930633E+03  0.50400001928E-02 0.  1.
        1   -1    0    0  501    0  0.00000000000E+00  0.00000000000E+00 -0.48917273488E+03  0.48917273491E+03  0.50400001928E-02 0. -1.
    10030    2    1    2    0    0  0.00000000000E+00  0.00000000000E+00 -0.24310342861E+03  0.73524204123E+03  0.69388873906E+03 0.  0.
        5    1    3    3  502    0 -0.23360681155E+03  0.23480721645E+03 -0.12245035880E+02  0.33147941445E+03  0.46999998093E+01 0.  1.
       -5    1    3    3    0  502  0.23360681155E+03 -0.23480721645E+03 -0.23085839273E+03  0.40376262679E+03  0.46999998093E+01 0. -1.
</event>
<event>
 5   0  0.6248886E-02  0.6893447E+03  0.7818609E-02  0.9735630E-01
        2   -1    0    0  501    0  0.00000000000E+00  0.00000000000E+00  0.84727851798E+03  0.84727851798E+03  0.25500000920E-02 0.  1.
       -2   -1    0    0    0  501  0.00000000000E+00  0.00000000000E+00 -0.14021249116E+03  0.14021249119E+03  0.25500000920E-02 0. -1.
    10030    2    1    2    0    0  0.00000000000E+00  0.00000000000E+00  0.70706602681E+03  0.98749100917E+03  0.68934470834E+03 0.  0.
        3    1    3    3  502    0 -0.24872757452E+03 -0.23809931494E+03  0.33123318244E+03  0.47777831832E+03  0.10100000352E+00 0. -1.
       -3    1    3    3    0  502  0.24872757452E+03  0.23809931494E+03  0.37583284437E+03  0.50971269085E+03  0.10100000352E+00 0.  1.
</event>
<event>
 5   0  0.6131198E-02  0.7060372E+03  0.7818609E-02  0.9706963E-01
       -2   -1    0    0    0  501  0.00000000000E+00  0.00000000000E+00  0.79710585926E+02  0.79710585967E+02  0.25500000920E-02 0. -1.
        2   -1    0    0  501    0  0.00000000000E+00  0.00000000000E+00 -0.15634328321E+04  0.15634328321E+04  0.25500000920E-02 0.  1.
    10030    2    1    2    0    0  0.00000000000E+00  0.00000000000E+00 -0.14837222462E+04  0.16431434181E+04  0.70603724303E+03 0.  0.
        1    1    3    3  502    0 -0.30268675094E+03  0.44554044637E+02 -0.11517380411E+04  0.11916815209E+04  0.50400001928E-02 0.  1.
       -1    1    3    3    0  502  0.30268675094E+03 -0.44554044637E+02 -0.33198420509E+03  0.45146189711E+03  0.50400001928E-02 0. -1.
</event>
<event>
 5   0  0.6167756E-02  0.7415395E+03  0.7818609E-02  0.9648718E-01
        2   -1    0    0  501    0  0.00000000000E+00  0.00000000000E+00  0.62233473814E+03  0.62233473814E+03  0.25500000920E-02 0.  1.
       -2   -1    0    0    0  501  0.00000000000E+00  0.00000000000E+00 -0.22089432726E+03  0.22089432727E+03  0.25500000920E-02 0. -1.
    10030    2    1    2    0    0  0.00000000000E+00  0.00000000000E+00  0.40144041088E+03  0.84322906541E+03  0.74153951565E+03 0.  0.
        4    1    3    3  502    0  0.36566385857E+03  0.16539041424E+02  0.13359079223E+03  0.38965588668E+03  0.12699999809E+01 0.  1.
       -4    1    3    3    0  502 -0.36566385857E+03 -0.16539041424E+02  0.26784961864E+03  0.45357317873E+03  0.12699999809E+01 0. -1.
</event>
<event>
 5   0  0.6131198E-02  0.7092840E+03  0.7818609E-02  0.9701486E-01
       -2   -1    0    0    0  501  0.00000000000E+00  0.00000000000E+00  0.21966626018E+03  0.21966626019E+03  0.25500000920E-02 0. -1.
        2   -1    0    0  501    0  0.00000000000E+00  0.00000000000E+00 -0.57255471181E+03  0.57255471182E+03  0.25500000920E-02 0.  1.
    10030    2    1    2    0    0  0.00000000000E+00  0.00000000000E+00 -0.35288845164E+03  0.79222097201E+03  0.70928401166E+03 0.  0.
        1    1    3    3  502    0  0.81928147699E+02  0.18571158517E+03  0.14836934873E+03  0.25142489519E+03  0.50400001928E-02 0. -1.
       -1    1    3    3    0  502 -0.81928147699E+02 -0.18571158517E+03 -0.50125780037E+03  0.54079607682E+03  0.50400001928E-02 0.  1.
</event>
<event>
 5   0  0.6248886E-02  0.7003089E+03  0.7818609E-02  0.9716704E-01
       -2   -1    0    0    0  501  0.00000000000E+00  0.00000000000E+00  0.21076864854E+03  0.21076864856E+03  0.25500000920E-02 0. -1.
        2   -1    0    0  501    0  0.00000000000E+00  0.00000000000E+00 -0.58171897867E+03  0.58171897868E+03  0.25500000920E-02 0.  1.
    10030    2    1    2    0    0  0.00000000000E+00  0.00000000000E+00 -0.37095033013E+03  0.79248762723E+03  0.70030885465E+03 0.  0.
        3    1    3    3  502    0 -0.30798710122E+03  0.12409731304E+03 -0.59707203260E+02  0.33737391414E+03  0.10100000352E+00 0. -1.
       -3    1    3    3    0  502  0.30798710122E+03 -0.12409731304E+03 -0.31124312687E+03  0.45511371309E+03  0.10100000352E+00 0.  1.
</event>
<event>
 5   0  0.5899787E-02  0.7028035E+03  0.7818609E-02  0.9712450E-01
       -2   -1    0    0    0  501  0.00000000000E+00  0.00000000000E+00  0.52785897299E+02  0.52785897361E+02  0.25500000920E-02 0. -1.
        2   -1    0    0  501    0  0.00000000000E+00  0.00000000000E+00 -0.23393218764E+04  0.23393218764E+04  0.25500000920E-02 0.  1.
    10030    2    1    2    0    0  0.00000000000E+00  0.00000000000E+00 -0.22865359791E+04  0.23921077738E+04  0.70280354124E+03 0.  0.
        2    1    3    3  502    0 -0.28354080820E+03 -0.13283321083E+03 -0.16861835166E+04  0.17150087182E+04  0.25500000920E-02 0.  1.
       -2    1    3    3    0  502  0.28354080820E+03  0.13283321083E+03 -0.60035246245E+03  0.67709905552E+03  0.25500000920E-02 0. -1.
</event>
<event>
 5   0  0.6131198E-02  0.7262136E+03  0.7818609E-02  0.9673425E-01
        2   -1    0    0  501    0  0.00000000000E+00  0.00000000000E+00  0.38252854159E+03  0.38252854160E+03  0.25500000920E-02 0.  1.
       -2   -1    0    0    0  501  0.00000000000E+00  0.00000000000E+00 -0.34467116385E+03  0.34467116386E+03  0.25500000920E-02 0. -1.
    10030    2    1    2    0    0  0.00000000000E+00  0.00000000000E+00  0.37857377745E+02  0.72719970546E+03  0.72621362599E+03 0.  0.
        1    1    3    3  502    0  0.20175257862E+03 -0.20119823036E+03  0.24431591310E+03  0.37533331360E+03  0.50400001928E-02 0.  1.
       -1    1    3    3    0  502 -0.20175257862E+03  0.20119823036E+03 -0.20645853535E+03  0.35186639186E+03  0.50400001928E-02 0. -1.
</event>
<event>
 5   0  0.5899787E-02  0.7084141E+03  0.7818609E-02  0.9702950E-01
       -2   -1    0    0    0  501  0.00000000000E+00  0.00000000000E+00  0.70774916163E+02  0.70774916209E+02  0.25500000920E-02 0. -1.
        2   -1    0    0  501    0  0.00000000000E+00  0.00000000000E+00 -0.17726990817E+04  0.17726990817E+04  0.25500000920E-02 0.  1.
    10030    2    1    2    0    0  0.00000000000E+00  0.00000000000E+00 -0.17019241655E+04  0.18434739979E+04  0.70841408493E+03 0.  0.
        2    1    3    3  502    0  0.81144579065E+02 -0.33832585689E+03 -0.67807752942E+03  0.76212726238E+03  0.25500000920E-02 0. -1.
       -2    1    3    3    0  502 -0.81144579065E+02  0.33832585689E+03 -0.10238466361E+04  0.10813467355E+04  0.25500000920E-02 0.  1.
</event>
<event>
 5   0  0.3439015E-02  0.6963676E+03  0.7818609E-02  0.9723464E-01
        1   -1    0    0  501    0  0.00000000000E+00  0.00000000000E+00  0.58560793776E+03  0.58560793778E+03  0.50400001928E-02 0. -1.
       -1   -1    0    0    0  501  0.00000000000E+00  0.00000000000E+00 -0.20701900409E+03  0.20701900415E+03  0.50400001928E-02 0.  1.
    10030    2    1    2    0    0  0.00000000000E+00  0.00000000000E+00  0.37858893367E+03  0.79262694192E+03  0.69636763880E+03 0.  0.
        1    1    3    3  502    0 -0.24626204908E+02  0.11939546992E+03 -0.18193319248E+03  0.21900094693E+03  0.50400001928E-02 0.  1.
       -1    1    3    3    0  502  0.24626204908E+02 -0.11939546992E+03  0.56052212615E+03  0.57362599499E+03  0.50400001928E-02 0. -1.
</event>
<event>
 5   0  0.3755872E-02  0.7059598E+03  0.7818609E-02  0.9707094E-01
       -1   -1    0    0    0  501  0.00000000000E+00  0.00000000000E+00  0.96075304759E+02  0.96075304892E+02  0.50400001928E-02 0.  1.
        1   -1    0    0  501    0  0.00000000000E+00  0.00000000000E+00 -0.12968452541E+04  0.12968452541E+04  0.50400001928E-02 0. -1.
    10030    2    1    2    0    0  0.00000000000E+00  0.00000000000E+00 -0.12007699494E+04  0.13929205590E+04  0.70595978105E+03 0.  0.
        2    1    3    3  502    0  0.13778074181E+03  0.24128966578E+03 -0.10299138287E+04  0.10667364858E+04  0.25500000920E-02 0.  1.
       -2    1    3    3    0  502 -0.13778074181E+03 -0.24128966578E+03 -0.17085612063E+03  0.32618407317E+03  0.25500000920E-02 0. -1.
</event>
<event>
 5   0  0.3749730E-02  0.6955652E+03  0.7818609E-02  0.9724847E-01
        1   -1    0    0  501    0  0.00000000000E+00  0.00000000000E+00  0.11942671917E+04  0.11942671917E+04  0.50400001928E-02 0. -1.
       -1   -1    0    0    0  501  0.00000000000E+00  0.00000000000E+00 -0.10127777238E+03  0.10127777250E+03  0.50400001928E-02 0.  1.
    10030    2    1    2    0    0  0.00000000000E+00  0.00000000000E+00  0.10929894193E+04  0.12955449642E+04  0.69556515405E+03 0.  0.
        4    1    3    3  502    0 -0.71500419364E+02  0.31723546543E+03  0.77613231172E+03  0.84150676093E+03  0.12699999809E+01 0. -1.
       -4    1    3    3    0  502  0.71500419364E+02 -0.31723546543E+03  0.31685710757E+03  0.45403820325E+03  0.12699999809E+01 0.  1.
</event>
<event>
 5   0  0.2439375E-02  0.7017728E+03  0.7818609E-02  0.9714205E-01
        3   -1    0    0  501    0  0.00000000000E+00  0.00000000000E+00  0.67353699930E+03  0.67353700688E+03  0.10100000352E+00 0.  1.
       -3   -1    0    0    0  501  0.00000000000E+00  0.00000000000E+00 -0.18279806493E+03  0.18279809283E+03  0.10100000352E+00 0. -1.
    10030    2    1    2    0    0  0.00000000000E+00  0.00000000000E+00  0.49073893438E+03  0.85633509971E+03  0.70177282740E+03 0.  0.
        5    1    3    3  502    0  0.12147978125E+03 -0.32685345442E+03  0.19797322065E+03  0.40100623937E+03  0.46999998093E+01 0. -1.
       -5    1    3    3    0  502 -0.12147978125E+03  0.32685345442E+03  0.29276571373E+03  0.45532886034E+03  0.46999998093E+01 0.  1.
</event>
<event>
 5   0  0.3601475E-02  0.6691432E+03  0.7818609E-02  0.9771507E-01
        1   -1    0    0  501    0  0.00000000000E+00  0.00000000000E+00  0.85448602552E+03  0.85448602554E+03  0.50400001928E-02 0. -1.
       -1   -1    0    0    0  501  0.00000000000E+00  0.00000000000E+00 -0.13100056777E+03  0.13100056787E+03  0.50400001928E-02 0.  1.
    10030    2    1    2    0    0  0.00000000000E+00  0.00000000000E+00  0.72348545775E+03  0.98548659341E+03  0.66914319709E+03 0.  0.
        5    1    3    3  502    0  0.81687954937E+02 -0.22354948718E+02 -0.11490220856E+03  0.14281902270E+03  0.46999998093E+01 0.  1.
       -5    1    3    3    0  502 -0.81687954937E+02  0.22354948718E+02  0.83838766631E+03  0.84266757071E+03  0.46999998093E+01 0. -1.
</event>
<event>
 5   0  0.6248886E-02  0.6970099E+03  0.7818609E-02  0.9722359E-01
        2   -1    0    0  501    0  0.00000000000E+00  0.00000000000E+00  0.33575668653E+03  0.33575668654E+03  0.25500000920E-02 0.  1.
       -2   -1    0    0    0  501  0.00000000000E+00  0.00000000000E+00 -0.36173727636E+03  0.36173727637E+03  0.25500000920E-02 0. -1.
    10030    2    1    2    0    0  0.00000000000E+00  0.00000000000E+00 -0.25980589831E+02  0.69749396291E+03  0.69700992622E+03 0.  0.
        3    1    3    3  502    0  0.23217335328E+03  0.92543940759E+02 -0.25603104693E+03  0.35779988001E+03  0.10100000352E+00 0. -1.
       -3    1    3    3    0  502 -0.23217335328E+03 -0.92543940759E+02  0.23005045710E+03  0.33969408290E+03  0.10100000352E+00 0.  1.
</event>
<event>
 5   0  0.3601475E-02  0.7017345E+03  0.7818609E-02  0.9714271E-01
        1   -1    0    0  501    0  0.00000000000E+00  0.00000000000E+00  0.61219373543E+03  0.61219373545E+03  0.50400001928E-02 0. -1.
       -1   -1    0    0    0  501  0.00000000000E+00  0.00000000000E+00 -0.20109291264E+03  0.20109291270E+03  0.50400001928E-02 0.  1.
    10030    2    1    2    0    0  0.00000000000E+00  0.00000000000E+00  0.41110082279E+03  0.81328664815E+03  0.70173448366E+03 0.  0.
        5    1    3    3  502    0 -0.11345862103E+03  0.25894215147E+03 -0.35229790079E+02  0.28493354418E+03  0.46999998093E+01 0.  1.
       -5    1    3    3    0  502  0.11345862103E+03 -0.25894215147E+03  0.44633061287E+03  0.52835310397E+03  0.46999998093E+01 0. -1.
</event>
<event>
 5   0  0.6248886E-02  0.6909286E+03  0.7818609E-02  0.9732873E-01
        2   -1    0    0  501    0  0.00000000000E+00  0.00000000000E+00  0.17844056482E+04  0.17844056482E+04  0.25500000920E-02 0.  1.
       -2   -1    0    0    0  501  0.00000000000E+00  0.00000000000E+00 -0.66882532737E+02  0.66882532786E+02  0.25500000920E-02 0. -1.
    10030    2    1    2    0    0  0.00000000000E+00  0.00000000000E+00  0.17175231154E+04  0.18512881810E+04  0.69092856137E+03 0.  0.
        3    1    3    3  502    0  0.28455871243E+03 -0.13176504986E+03  0.47038539745E+03  0.56533009961E+03  0.10100000352E+00 0. -1.
       -3    1    3    3    0  502 -0.28455871243E+03  0.13176504986E+03  0.12471377180E+04  0.12859580814E+04  0.10100000352E+00 0.  1.
</event>
<event>
 5   0  0.3717372E-02  0.7038721E+03  0.7818609E-02  0.9710633E-01
       -1   -1    0    0    0  501  0.00000000000E+00  0.00000000000E+00  0.22215522485E+03  0.22215522490E+03  0.50400001928E-02 0. -1.
        1   -1    0    0  501    0  0.00000000000E+00  0.00000000000E+00 -0.55753344399E+03  0.55753344401E+03  0.50400001928E-02 0.  1.
    10030    2    1    2    0    0  0.00000000000E+00  0.00000000000E+00 -0.33537821914E+03  0.77968866892E+03  0.70387205554E+03 0.  0.
        3    1    3    3  502    0 -0.22060502674E+03  0.19479572991E+03 -0.38147210968E+03  0.48180175890E+03  0.10100000352E+00 0.  1.
       -3    1    3    3    0  502  0.22060502674E+03 -0.19479572991E+03  0.46093890540E+02  0.29788691002E+03  0.10100000352E+00 0. -1.
</event>
<event>
 5   0  0.3755872E-02  0.7232452E+03  0.7818609E-02  0.9678285E-01
        1   -1    0    0  501    0  0.00000000000E+00  0.00000000000E+00  0.33582711960E+03  0.33582711964E+03  0.50400001928E-02 0.  1.
       -1   -1    0    0    0  501  0.00000000000E+00  0.00000000000E+00 -0.38939943435E+03  0.38939943438E+03  0.50400001928E-02 0. -1.
    10030    2    1    2    0    0  0.00000000000E+00  0.00000000000E+00 -0.53572314745E+02  0.72522655403E+03  0.72324516020E+03 0.  0.
        2    1    3    3  502    0  0.16407253046E+03  0.40211422452E+02 -0.34740284882E+03  0.38629715650E+03  0.25500000920E-02 0. -1.
       -2    1    3    3    0  502 -0.16407253046E+03 -0.40211422452E+02  0.29383053407E+03  0.33892939753E+03  0.25500000920E-02 0.  1.
</event>
<event>
 5   0  0.3601475E-02  0.6473561E+03  0.7818609E-02  0.9811753E-01
        1   -1    0    0  501    0  0.00000000000E+00  0.00000000000E+00  0.15341273076E+04  0.15341273076E+04  0.50400001928E-02 0.  1.
       -1   -1    0    0    0  501  0.00000000000E+00  0.00000000000E+00 -0.68291254415E+02  0.68291254601E+02  0.50400001928E-02 0. -1.
    10030    2    1    2    0    0  0.00000000000E+00  0.00000000000E+00  0.14658360532E+04  0.16024185622E+04  0.64735609497E+03 0.  0.
        5    1    3    3  502    0  0.26566718091E+03  0.15746183904E+03  0.97255362671E+03  0.10204194866E+04  0.46999998093E+01 0. -1.
       -5    1    3    3    0  502 -0.26566718091E+03 -0.15746183904E+03  0.49328242648E+03  0.58199907564E+03  0.46999998093E+01 0.  1.
</event>
<event>
 5   0  0.6167756E-02  0.6171211E+03  0.7818609E-02  0.9870508E-01
        2   -1    0    0  501    0  0.00000000000E+00  0.00000000000E+00  0.13797399686E+04  0.13797399686E+04  0.25500000920E-02 0.  1.
       -2   -1    0    0    0  501  0.00000000000E+00  0.00000000000E+00 -0.69005476338E+02  0.69005476385E+02  0.25500000920E-02 0. -1.
    10030    2    1    2    0    0  0.00000000000E+00  0.00000000000E+00  0.13107344922E+04  0.14487454449E+04  0.61712110250E+03 0.  0.
        4    1    3    3  502    0 -0.11130471855E+02 -0.18436041091E+03  0.12356314407E+04  0.12493595634E+04  0.12699999809E+01 0.  1.
       -4    1    3    3    0  502  0.11130471855E+02  0.18436041091E+03  0.75103051530E+02  0.19938588155E+03  0.12699999809E+01 0. -1.
</event>
<event>
 5   0  0.6167756E-02  0.6632510E+03  0.7818609E-02  0.9782228E-01
        2   -1    0    0  501    0  0.00000000000E+00  0.00000000000E+00  0.38191415143E+03  0.38191415143E+03  0.25500000920E-02 0. -1.
       -2   -1    0    0    0  501  0.00000000000E+00  0.00000000000E+00 -0.28795859881E+03  0.28795859882E+03  0.25500000920E-02 0.  1.
    10030    2    1    2    0    0  0.00000000000E+00  0.00000000000E+00  0.93955552621E+02  0.66987275025E+03  0.66325097487E+03 0.  0.
        4    1    3    3  502    0 -0.20624458977E+03 -0.16115962924E+03  0.25263933538E+03  0.36378221999E+03  0.12699999809E+01 0. -1.
       -4    1    3    3    0  502  0.20624458977E+03  0.16115962924E+03 -0.15868378276E+03  0.30609053026E+03  0.12699999809E+01 0.  1.
</event>
<event>
 5   0  0.6248886E-02  0.7123879E+03  0.7818609E-02  0.9696279E-01
        2   -1    0    0  501    0  0.00000000000E+00  0.00000000000E+00  0.14497713421E+04  0.14497713421E+04  0.25500000920E-02 0.  1.
       -2   -1    0    0    0  501  0.00000000000E+00  0.00000000000E+00 -0.87513191084E+02  0.87513191121E+02  0.25500000920E-02 0. -1.
    10030    2    1    2    0    0  0.00000000000E+00  0.00000000000E+00  0.13622581510E+04  0.15372845332E+04  0.71238786211E+03 0.  0.
        3    1    3    3  502    0 -0.10110249707E+03 -0.13456012173E+03  0.13585477581E+04  0.13689339511E+04  0.10100000352E+00 0.  1.
       -3    1    3    3    0  502  0.10110249707E+03  0.13456012173E+03  0.37103928984E+01  0.16835058209E+03  0.10100000352E+00 0. -1.
</event>
<event>
 5   0  0.3749730E-02  0.7012451E+03  0.7818609E-02  0.9715105E-01
       -1   -1    0    0    0  501  0.00000000000E+00  0.00000000000E+00  0.12572665782E+03  0.12572665792E+03  0.50400001928E-02 0.  1.
        1   -1    0    0  501    0  0.00000000000E+00  0.00000000000E+00 -0.97780515944E+03  0.97780515945E+03  0.50400001928E-02 0. -1.
    10030    2    1    2    0    0  0.00000000000E+00  0.00000000000E+00 -0.85207850162E+03  0.11035318174E+04  0.70124510625E+03 0.  0.
        4    1    3    3  502    0  0.33382350240E+03  0.44089920580E+02 -0.57984542398E+03  0.67052545101E+03  0.12699999809E+01 0.  1.
       -4    1    3    3    0  502 -0.33382350240E+03 -0.44089920580E+02 -0.27223307764E+03  0.43300636636E+03  0.12699999809E+01 0. -1.
</event>
<event>
 5   0  0.6167756E-02  0.7128956E+03  0.7818609E-02  0.9695430E-01
        2   -1    0    0  501    0  0.00000000000E+00  0.00000000000E+00  0.60280856796E+03  0.60280856797E+03  0.25500000920E-02 0. -1.
       -2   -1    0    0    0  501  0.00000000000E+00  0.00000000000E+00 -0.21077179523E+03  0.21077179525E+03  0.25500000920E-02 0.  1.
    10030    2    1    2    0    0  0.00000000000E+00  0.00000000000E+00  0.39203677273E+03  0.81358036322E+03  0.71289562787E+03 0.  0.
        4    1    3    3  502    0 -0.19109652184E+03 -0.13028736541E+03  0.50554470998E+03  0.55594041491E+03  0.12699999809E+01 0. -1.
       -4    1    3    3    0  502  0.19109652184E+03  0.13028736541E+03 -0.11350793725E+03  0.25763994831E+03  0.12699999809E+01 0.  1.
</event>
<event>
 5   0  0.3749730E-02  0.6880663E+03  0.7818609E-02  0.9737861E-01
       -1   -1    0    0    0  501  0.00000000000E+00  0.00000000000E+00  0.10344605134E+03  0.10344605146E+03  0.50400001928E-02 0. -1.
        1   -1    0    0  501    0  0.00000000000E+00  0.00000000000E+00 -0.11441598649E+04  0.11441598649E+04  0.50400001928E-02 0.  1.
    10030    2    1    2    0    0  0.00000000000E+00  0.00000000000E+00 -0.10407138135E+04  0.12476059163E+04  0.68806633461E+03 0.  0.
        4    1    3    3  502    0  0.15835632242E+03  0.13440107699E+03 -0.23072733080E+02  0.20898406222E+03  0.12699999809E+01 0. -1.
       -4    1    3    3    0  502 -0.15835632242E+03 -0.13440107699E+03 -0.10176410804E+04  0.10386218541E+04  0.12699999809E+01 0.  1.
</event>
<event>
 5   0  0.6131198E-02  0.7044592E+03  0.7818609E-02  0.9709637E-01
        2   -1    0    0  501    0  0.00000000000E+00  0.00000000000E+00  0.54882614430E+03  0.54882614431E+03  0.25500000920E-02 0. -1.
       -2   -1    0    0    0  501  0.00000000000E+00  0.00000000000E+00 -0.22605642359E+03  0.22605642361E+03  0.25500000920E-02 0.  1.
    10030    2    1    2    0    0  0.00000000000E+00  0.00000000000E+00  0.32276972070E+03  0.77488256791E+03  0.70445915528E+03 0.  0.
        1    1    3    3  502    0 -0.33144975701E+03  0.14527074479E+02  0.29151483795E+03  0.44164564764E+03  0.50400001928E-02 0.  1.
       -1    1    3    3    0  502  0.33144975701E+03 -0.14527074479E+02  0.31254882757E+02  0.33323692027E+03  0.50400001928E-02 0. -1.
</event>
<event>
 5   0  0.5987810E-02  0.6935462E+03  0.7818609E-02  0.9728333E-01
       -2   -1    0    0    0  501  0.00000000000E+00  0.00000000000E+00  0.21247054578E+03  0.21247054580E+03  0.25500000920E-02 0. -1.
        2   -1    0    0  501    0  0.00000000000E+00  0.00000000000E+00 -0.56596823823E+03  0.56596823823E+03  0.25500000920E-02 0.  1.
    10030    2    1    2    0    0  0.00000000000E+00  0.00000000000E+00 -0.35349769245E+03  0.77843878403E+03  0.69354619307E+03 0.  0.
        5    1    3    3  502    0 -0.23506278866E+03 -0.25485899894E+03 -0.17150030029E+03  0.38683596905E+03  0.46999998093E+01 0. -1.
       -5    1    3    3    0  502  0.23506278866E+03  0.25485899894E+03 -0.18199739215E+03  0.39160281498E+03  0.46999998093E+01 0.  1.
</event>
<event>
 5   0  0.3749730E-02  0.7293557E+03  0.7818609E-02  0.9668306E-01
       -1   -1    0    0    0  501  0.00000000000E+00  0.00000000000E+00  0.19536184819E+03  0.19536184826E+03  0.50400001928E-02 0.  1.
        1   -1    0    0  501    0  0.00000000000E+00  0.00000000000E+00 -0.68073651752E+03  0.68073651754E+03  0.50400001928E-02 0. -1.
    10030    2    1    2    0    0  0.00000000000E+00  0.00000000000E+00 -0.48537466933E+03  0.87609836579E+03  0.72935572728E+03 0.  0.
        4    1    3    3  502    0 -0.14192498412E+03  0.51048921092E+00 -0.64619830298E+03  0.66160170903E+03  0.12699999809E+01 0. -1.
       -4    1    3    3    0  502  0.14192498412E+03 -0.51048921092E+00  0.16082363366E+03  0.21449665676E+03  0.12699999809E+01 0.  1.
</event>
<event>
 5   0  0.3439015E-02  0.7100072E+03  0.7818609E-02  0.9700270E-01
       -1   -1    0    0    0  501  0.00000000000E+00  0.00000000000E+00  0.11584045605E+03  0.11584045616E+03  0.50400001928E-02 0.  1.
        1   -1    0    0  501    0  0.00000000000E+00  0.00000000000E+00 -0.10879407259E+04  0.10879407259E+04  0.50400001928E-02 0. -1.
    10030    2    1    2    0    0  0.00000000000E+00  0.00000000000E+00 -0.97210026989E+03  0.12037811821E+04  0.71000718283E+03 0.  0.
        1    1    3    3  502    0 -0.32813503240E+03 -0.91697491743E+02 -0.65514109768E+03  0.73843814052E+03  0.50400001928E-02 0. -1.
       -1    1    3    3    0  502  0.32813503240E+03  0.91697491743E+02 -0.31695917221E+03  0.46534304159E+03  0.50400001928E-02 0.  1.
</event>
<event>
 5   0  0.3749730E-02  0.6994197E+03  0.7818609E-02  0.9718225E-01
       -1   -1    0    0    0  501  0.00000000000E+00  0.00000000000E+00  0.19580010254E+04  0.19580010254E+04  0.50400001928E-02 0. -1.
        1   -1    0    0  501    0  0.00000000000E+00  0.00000000000E+00 -0.62460117654E+02  0.62460117858E+02  0.50400001928E-02 0.  1.
    10030    2    1    2    0    0  0.00000000000E+00  0.00000000000E+00  0.18955409077E+04  0.20204611433E+04  0.69941968696E+03 0.  0.
        4    1    3    3  502    0  0.21744446016E+03 -0.18825606400E+03  0.15224314407E+04  0.15493616568E+04  0.12699999809E+01 0. -1.
       -4    1    3    3    0  502 -0.21744446016E+03  0.18825606400E+03  0.37310946703E+03  0.47109948649E+03  0.12699999809E+01 0.  1.
</event>
<event>
 5   0  0.6167756E-02  0.7048000E+03  0.7818609E-02  0.9709059E-01
       -2   -1    0    0    0  501  0.00000000000E+00  0.00000000000E+00  0.50509068342E+03  0.50509068343E+03  0.25500000920E-02 0.  1.
        2   -1    0    0  501    0  0.00000000000E+00  0.00000000000E+00 -0.24586826543E+03  0.24586826545E+03  0.25500000920E-02 0. -1.
    10030    2    1    2    0    0  0.00000000000E+00  0.00000000000E+00  0.25922241799E+03  0.75095894887E+03  0.70480002902E+03 0.  0.
        4    1    3    3  502    0 -0.15121420604E+03  0.13691113679E+02 -0.20922700196E+03  0.25851640944E+03  0.12699999809E+01 0. -1.
       -4    1    3    3    0  502  0.15121420604E+03 -0.13691113679E+02  0.46844941994E+03  0.49244253944E+03  0.12699999809E+01 0.  1.
</event>
<event>
 5   0  0.3439015E-02  0.6877036E+03  0.7818609E-02  0.9738495E-01
       -1   -1    0    0    0  501  0.00000000000E+00  0.00000000000E+00  0.20515146133E+03  0.20515146139E+03  0.50400001928E-02 0.  1.
        1   -1    0    0  501    0  0.00000000000E+00  0.00000000000E+00 -0.57632562478E+03  0.57632562480E+03  0.50400001928E-02 0. -1.
    10030    2    1    2    0    0  0.00000000000E+00  0.00000000000E+00 -0.37117416346E+03  0.78147708619E+03  0.68770355287E+03 0.  0.
        1    1    3    3  502    0  0.35308436176E+02  0.67022479799E+02  0.19555092445E+03  0.20971137915E+03  0.50400001928E-02 0.  1.
       -1    1    3    3    0  502 -0.35308436176E+02 -0.67022479799E+02 -0.56672508791E+03  0.57176570705E+03  0.50400001928E-02 0. -1.
</event>
<event>
 5   0  0.6131198E-02  0.6805716E+03  0.7818609E-02  0.9751046E-01
        2   -1    0    0  501    0  0.00000000000E+00  0.00000000000E+00  0.16118944266E+04  0.16118944266E+04  0.25500000920E-02 0.  1.
       -2   -1    0    0    0  501  0.00000000000E+00  0.00000000000E+00 -0.71837485462E+02  0.71837485507E+02  0.25500000920E-02 0. -1.
    10030    2    1    2    0    0  0.00000000000E+00  0.00000000000E+00  0.15400569412E+04  0.16837319121E+04  0.68057164936E+03 0.  0.
        1    1    3    3  502    0 -0.33173531158E+03  0.73130344937E+02  0.72066754879E+03  0.79671706408E+03  0.50400001928E-02 0. -1.
       -1    1    3    3    0  502  0.33173531158E+03 -0.73130344937E+02  0.81938939237E+03  0.88701484805E+03  0.50400001928E-02 0.  1.
</event>
<event>
 5   0  0.3601475E-02  0.6629842E+03  0.7818609E-02  0.9782716E-01
        1   -1    0    0  501    0  0.00000000000E+00  0.00000000000E+00  0.15452081396E+04  0.15452081396E+04  0.50400001928E-02 0.  1.
       -1   -1    0    0    0  501  0.00000000000E+00  0.00000000000E+00 -0.71114696925E+02  0.71114697104E+02  0.50400001928E-02 0. -1.
    10030    2    1    2    0    0  0.00000000000E+00  0.00000000000E+00  0.14740934427E+04  0.16163228367E+04  0.66298418891E+03 0.  0.
        5    1    3    3  502    0 -0.43598242966E+02 -0.18581110657E+03  0.13977194450E+04  0.14106978099E+04  0.46999998093E+01 0.  1.
       -5    1    3    3    0  502  0.43598242966E+02  0.18581110657E+03  0.76373997715E+02  0.20562502679E+03  0.46999998093E+01 0. -1.
</event>
<event>
 5   0  0.3601475E-02  0.7036377E+03  0.7818609E-02  0.9711031E-01
       -1   -1    0    0    0  501  0.00000000000E+00  0.00000000000E+00  0.16178806354E+03  0.16178806362E+03  0.50400001928E-02 0. -1.
        1   -1    0    0  501    0  0.00000000000E+00  0.00000000000E+00 -0.76505337916E+03  0.76505337917E+03  0.50400001928E-02 0.  1.
    10030    2    1    2    0    0  0.00000000000E+00  0.00000000000E+00 -0.60326531562E+03  0.92684144279E+03  0.70363770439E+03 0.  0.
        5    1    3    3  502    0 -0.59615743376E+02  0.25055470667E+03 -0.61727714587E+03  0.66886834482E+03  0.46999998093E+01 0.  1.
       -5    1    3    3    0  502  0.59615743376E+02 -0.25055470667E+03  0.14011830251E+02  0.25797309797E+03  0.46999998093E+01 0. -1.
</event>
<event>
 5   0  0.6248886E-02  0.6527954E+03  0.7818609E-02  0.9801548E-01
        2   -1    0    0  501    0  0.00000000000E+00  0.00000000000E+00  0.15379216366E+03  0.15379216368E+03  0.25500000920E-02 0. -1.
       -2   -1    0    0    0  501  0.00000000000E+00  0.00000000000E+00 -0.69272349680E+03  0.69272349680E+03  0.25500000920E-02 0.  1.
    10030    2    1    2    0    0  0.00000000000E+00  0.00000000000E+00 -0.53893133313E+03  0.84651566049E+03  0.65279535968E+03 0.  0.
        3    1    3    3  502    0  0.24340292948E+03 -0.13505123834E+03 -0.48439822864E+02  0.28254247415E+03  0.10100000352E+00 0. -1.
       -3    1    3    3    0  502 -0.24340292948E+03  0.13505123834E+03 -0.49049151027E+03  0.56397318634E+03  0.10100000352E+00 0.  1.
</event>
<event>
 5   0  0.3439015E-02  0.7007084E+03  0.7818609E-02  0.9716021E-01
       -1   -1    0    0    0  501  0.00000000000E+00  0.00000000000E+00  0.27975940781E+03  0.27975940786E+03  0.50400001928E-02 0.  1.
        1   -1    0    0  501    0  0.00000000000E+00  0.00000000000E+00 -0.43876299078E+03  0.43876299081E+03  0.50400001928E-02 0. -1.
    10030    2    1    2    0    0  0.00000000000E+00  0.00000000000E+00 -0.15900358297E+03  0.71852239867E+03  0.70070842581E+03 0.  0.
        1    1    3    3  502    0  0.33106675682E+03 -0.10402187964E+03 -0.12891744257E+03  0.37019650990E+03  0.50400001928E-02 0. -1.
       -1    1    3    3    0  502 -0.33106675682E+03  0.10402187964E+03 -0.30086140394E+02  0.34832588877E+03  0.50400001928E-02 0.  1.
</event>
<event>
 5   0  0.3601475E-02  0.7038940E+03  0.7818609E-02  0.9710596E-01
        1   -1    0    0  501    0  0.00000000000E+00  0.00000000000E+00  0.71629699488E+03  0.71629699490E+03  0.50400001928E-02 0. -1.
       -1   -1    0    0    0  501  0.00000000000E+00  0.00000000000E+00 -0.17292644300E+03  0.17292644307E+03  0.50400001928E-02 0.  1.
    10030    2    1    2    0    0  0.00000000000E+00  0.00000000000E+00  0.54337055189E+03  0.88922343797E+03  0.70389400195E+03 0.  0.
        5    1    3    3  502    0  0.39853941938E+02 -0.32933765698E+03  0.42005065549E+03  0.53527214777E+03  0.46999998093E+01 0. -1.
       -5    1    3    3    0  502 -0.39853941938E+02  0.32933765698E+03  0.12331989639E+03  0.35395129021E+03  0.46999998093E+01 0.  1.
</event>
<event>
 5   0  0.2439375E-02  0.7042577E+03  0.7818609E-02  0.9709979E-01
       -3   -1    0    0    0  501  0.00000000000E+00  0.00000000000E+00  0.98578137758E+02  0.98578189498E+02  0.10100000352E+00 0.  1.
        3   -1    0    0  501    0  0.00000000000E+00  0.00000000000E+00 -0.12578314392E+04  0.12578314433E+04  0.10100000352E+00 0. -1.
    10030    2    1    2    0    0  0.00000000000E+00  0.00000000000E+00 -0.11592533014E+04  0.13564096328E+04  0.70425767651E+03 0.  0.
        2    1    3    3  502    0  0.13220975152E+02  0.28720562359E+03 -0.18805884764E+03  0.34355202603E+03  0.25500000920E-02 0.  1.
       -2    1    3    3    0  502 -0.13220975152E+02 -0.28720562359E+03 -0.97119445380E+03  0.10128576067E+04  0.25500000920E-02 0. -1.
</event>
<event>
 5   0  0.2439375E-02  0.6971151E+03  0.7818609E-02  0.9722178E-01
       -3   -1    0    0    0  501  0.00000000000E+00  0.00000000000E+00  0.49763006549E+03  0.49763007574E+03  0.10100000352E+00 0. -1.
        3   -1    0    0  501    0  0.00000000000E+00  0.00000000000E+00 -0.24414193332E+03  0.24414195422E+03  0.10100000352E+00 0.  1.
    10030    2    1    2    0    0  0.00000000000E+00  0.00000000000E+00  0.25348813216E+03  0.74177202996E+03  0.69711513488E+03 0.  0.
        5    1    3    3  502    0 -0.39838667338E+02 -0.26161538142E+03 -0.11459008781E+03  0.28841412142E+03  0.46999998093E+01 0.  1.
       -5    1    3    3    0  502  0.39838667338E+02  0.26161538142E+03  0.36807821998E+03  0.45335790853E+03  0.46999998093E+01 0. -1.
</event>
<event>
 5   0  0.5987810E-02  0.5813368E+03  0.7818609E-02  0.9944901E-01
       -2   -1    0    0    0  501  0.00000000000E+00  0.00000000000E+00  0.11066889171E+03  0.11066889173E+03  0.25500000920E-02 0. -1.
        2   -1    0    0  501    0  0.00000000000E+00  0.00000000000E+00 -0.76343140621E+03  0.76343140621E+03  0.25500000920E-02 0.  1.
    10030    2    1    2    0    0  0.00000000000E+00  0.00000000000E+00 -0.65276251450E+03  0.87410029794E+03  0.58133676172E+03 0.  0.
        5    1    3    3  502    0 -0.10140314332E+03  0.17869589010E+03 -0.17313998524E+02  0.20624423181E+03  0.46999998093E+01 0. -1.
       -5    1    3    3    0  502  0.10140314332E+03 -0.17869589010E+03 -0.63544851598E+03  0.66785606613E+03  0.46999998093E+01 0.  1.
</event>
<event>
 5   0  0.3439015E-02  0.6461078E+03  0.7818609E-02  0.9814110E-01
       -1   -1    0    0    0  501  0.00000000000E+00  0.00000000000E+00  0.91131189414E+02  0.91131189554E+02  0.50400001928E-02 0. -1.
        1   -1    0    0  501    0  0.00000000000E+00  0.00000000000E+00 -0.11452042080E+04  0.11452042080E+04  0.50400001928E-02 0.  1.
    10030    2    1    2    0    0  0.00000000000E+00  0.00000000000E+00 -0.10540730186E+04  0.12363353976E+04  0.64610779810E+03 0.  0.
        1    1    3    3  502    0 -0.18157187038E+03  0.13252623507E+02 -0.16376516611E+02  0.18278995176E+03  0.50400001928E-02 0. -1.
       -1    1    3    3    0  502  0.18157187038E+03 -0.13252623507E+02 -0.10376965020E+04  0.10535454458E+04  0.50400001928E-02 0.  1.
</event>
<event>
 5   0  0.3601475E-02  0.6983265E+03  0.7818609E-02  0.9720098E-01
        1   -1    0    0  501    0  0.00000000000E+00  0.00000000000E+00  0.28108576937E+03  0.28108576942E+03  0.50400001928E-02 0.  1.
       -1   -1    0    0    0  501  0.00000000000E+00  0.00000000000E+00 -0.43372867629E+03  0.43372867632E+03  0.50400001928E-02 0. -1.
    10030    2    1    2    0    0  0.00000000000E+00  0.00000000000E+00 -0.15264290692E+03  0.71481444574E+03  0.69832645289E+03 0.  0.
        5    1    3    3  502    0 -0.12312816172E+03  0.77349330164E+02  0.24858330604E+03  0.28802641047E+03  0.46999998093E+01 0.  1.
       -5    1    3    3    0  502  0.12312816172E+03 -0.77349330164E+02 -0.40122621296E+03  0.42678803527E+03  0.46999998093E+01 0. -1.
</event>
<event>
 5   0  0.3439015E-02  0.6364403E+03  0.7818609E-02  0.9832561E-01
        1   -1    0    0  501    0  0.00000000000E+00  0.00000000000E+00  0.41310016347E+03  0.41310016350E+03  0.50400001928E-02 0. -1.
       -1   -1    0    0    0  501  0.00000000000E+00  0.00000000000E+00 -0.24513195453E+03  0.24513195458E+03  0.50400001928E-02 0.  1.
    10030    2    1    2    0    0  0.00000000000E+00  0.00000000000E+00  0.16796820894E+03  0.65823211808E+03  0.63644025804E+03 0.  0.
        1    1    3    3  502    0  0.83734275172E+02 -0.30634514900E+03  0.63163450401E+02  0.32380302755E+03  0.50400001928E-02 0.  1.
       -1    1    3    3    0  502 -0.83734275172E+02  0.30634514900E+03  0.10480475854E+03  0.33442909053E+03  0.50400001928E-02 0. -1.
</event>
<event>
 5   0  0.6167756E-02  0.7082218E+03  0.7818609E-02  0.9703274E-01
        2   -1    0    0  501    0  0.00000000000E+00  0.00000000000E+00  0.34826178759E+03  0.34826178760E+03  0.25500000920E-02 0.  1.
       -2   -1    0    0    0  501  0.00000000000E+00  0.00000000000E+00 -0.36005827476E+03  0.36005827477E+03  0.25500000920E-02 0. -1.
    10030    2    1    2    0    0  0.00000000000E+00  0.00000000000E+00 -0.11796487179E+02  0.70832006237E+03  0.70822182517E+03 0.  0.
        4    1    3    3  502    0 -0.22732919783E+03 -0.17554102906E+03 -0.21304942141E+03  0.35760996342E+03  0.12699999809E+01 0. -1.
       -4    1    3    3    0  502  0.22732919783E+03  0.17554102906E+03  0.20125293423E+03  0.35071009895E+03  0.12699999809E+01 0.  1.
</event>
<event>
 5   0  0.3755872E-02  0.6712670E+03  0.7818609E-02  0.9767672E-01
        1   -1    0    0  501    0  0.00000000000E+00  0.00000000000E+00  0.10915196197E+04  0.10915196197E+04  0.50400001928E-02 0.  1.
       -1   -1    0    0    0  501  0.00000000000E+00  0.00000000000E+00 -0.10320460186E+03  0.10320460198E+03  0.50400001928E-02 0. -1.
    10030    2    1    2    0    0  0.00000000000E+00  0.00000000000E+00  0.98831501780E+03  0.11947242216E+04  0.67126700454E+03 0.  0.
        2    1    3    3  502    0  0.29783027223E+03  0.96522220277E+02  0.70943619237E+03  0.77544769077E+03  0.25500000920E-02 0.  1.
       -2    1    3    3    0  502 -0.29783027223E+03 -0.96522220277E+02  0.27887882542E+03  0.41927653087E+03  0.25500000920E-02 0. -1.
</event>
<event>
 5   0  0.3601475E-02  0.7024359E+03  0.7818609E-02  0.9713075E-01
        1   -1    0    0  501    0  0.00000000000E+00  0.00000000000E+00  0.19578025268E+03  0.19578025275E+03  0.50400001928E-02 0. -1.
       -1   -1    0    0    0  501  0.00000000000E+00  0.00000000000E+00 -0.63006385484E+03  0.63006385486E+03  0.50400001928E-02 0.  1.
    10030    2    1    2    0    0  0.00000000000E+00  0.00000000000E+00 -0.43428360216E+03  0.82584410761E+03  0.70243593513E+03 0.  0.
        5    1    3    3  502    0 -0.32469678752E+03 -0.10195285091E+03 -0.31902422466E+03  0.46649858901E+03  0.46999998093E+01 0.  1.
       -5    1    3    3    0  502  0.32469678752E+03  0.10195285091E+03 -0.11525937750E+03  0.35934551860E+03  0.46999998093E+01 0. -1.
</event>
<event>
 5   0  0.6131198E-02  0.6274971E+03  0.7818609E-02  0.9849945E-01
       -2   -1    0    0    0  501  0.00000000000E+00  0.00000000000E+00  0.54197483665E+03  0.54197483665E+03  0.25500000920E-02 0.  1.
        2   -1    0    0  501    0  0.00000000000E+00  0.00000000000E+00 -0.18162864890E+03  0.18162864892E+03  0.25500000920E-02 0. -1.
    10030    2    1    2    0    0  0.00000000000E+00  0.00000000000E+00  0.36034618774E+03  0.72360348557E+03  0.62749711498E+03 0.  0.
        1    1    3    3  502    0  0.12390251169E+03  0.16679148617E+03 -0.90921943591E+02  0.22679954170E+03  0.50400001928E-02 0. -1.
       -1    1    3    3    0  502 -0.12390251169E+03 -0.16679148617E+03  0.45126813133E+03  0.49680394387E+03  0.50400001928E-02 0.  1.
</event>
<event>
 5   0  0.6167756E-02  0.7259541E+03  0.7818609E-02  0.9673848E-01
       -2   -1    0    0    0  501  0.00000000000E+00  0.00000000000E+00  0.10152802450E+03  0.10152802454E+03  0.25500000920E-02 0. -1.
        2   -1    0    0  501    0  0.00000000000E+00  0.00000000000E+00 -0.12976944369E+04  0.12976944369E+04  0.25500000920E-02 0.  1.
    10030    2    1    2    0    0  0.00000000000E+00  0.00000000000E+00 -0.11961664124E+04  0.13992224615E+04  0.72595413799E+03 0.  0.
        4    1    3    3  502    0 -0.29929797448E+03 -0.85417388012E+02 -0.95802871454E+03  0.10073212191E+04  0.12699999809E+01 0.  1.
       -4    1    3    3    0  502  0.29929797448E+03  0.85417388012E+02 -0.23813769790E+03  0.39190124236E+03  0.12699999809E+01 0. -1.
</event>
<event>
 5   0  0.6167756E-02  0.7334105E+03  0.7818609E-02  0.9661742E-01
       -2   -1    0    0    0  501  0.00000000000E+00  0.00000000000E+00  0.15065312777E+03  0.15065312779E+03  0.25500000920E-02 0. -1.
        2   -1    0    0  501    0  0.00000000000E+00  0.00000000000E+00 -0.89259846554E+03  0.89259846554E+03  0.25500000920E-02 0.  1.
    10030    2    1    2    0    0  0.00000000000E+00  0.00000000000E+00 -0.74194533776E+03  0.10432515933E+04  0.73341052812E+03 0.  0.
        4    1    3    3  502    0 -0.11331912748E+03 -0.14678448334E+03 -0.82098533718E+03  0.84166825173E+03  0.12699999809E+01 0.  1.
       -4    1    3    3    0  502  0.11331912748E+03  0.14678448334E+03  0.79039999419E+02  0.20158334160E+03  0.12699999809E+01 0. -1.
</event>
<event>
 5   0  0.5899787E-02  0.6373741E+03  0.7818609E-02  0.9830764E-01
       -2   -1    0    0    0  501  0.00000000000E+00  0.00000000000E+00  0.24471956515E+03  0.24471956516E+03  0.25500000920E-02 0.  1.
        2   -1    0    0  501    0  0.00000000000E+00  0.00000000000E+00 -0.41501146353E+03  0.41501146354E+03  0.25500000920E-02 0. -1.
    10030    2    1    2    0    0  0.00000000000E+00  0.00000000000E+00 -0.17029189839E+03  0.65973102870E+03  0.63737406566E+03 0.  0.
        2    1    3    3  502    0  0.16297320812E+03 -0.11550647818E+03  0.17187718249E+03  0.26352187563E+03  0.25500000920E-02 0.  1.
       -2    1    3    3    0  502 -0.16297320812E+03  0.11550647818E+03 -0.34216908087E+03  0.39620915308E+03  0.25500000920E-02 0. -1.
</event>
<event>
 5   0  0.6248886E-02  0.6826581E+03  0.7818609E-02  0.9747357E-01
        2   -1    0    0  501    0  0.00000000000E+00  0.00000000000E+00  0.20533126554E+03  0.20533126556E+03  0.25500000920E-02 0.  1.
       -2   -1    0    0    0  501  0.00000000000E+00  0.00000000000E+00 -0.56740276541E+03  0.56740276541E+03  0.25500000920E-02 0. -1.
    10030    2    1    2    0    0  0.00000000000E+00  0.00000000000E+00 -0.36207149986E+03  0.77273403097E+03  0.68265812206E+03 0.  0.
        3    1    3    3  502    0  0.15994281680E+03  0.29716284382E+03 -0.12311737720E+03  0.35922883955E+03  0.10100000352E+00 0.  1.
       -3    1    3    3    0  502 -0.15994281680E+03 -0.29716284382E+03 -0.23895412267E+03  0.41350519142E+03  0.10100000352E+00 0. -1.
</event>
<event>
 5   0  0.3717372E-02  0.7150218E+03  0.7818609E-02  0.9691882E-01
       -1   -1    0    0    0  501  0.00000000000E+00  0.00000000000E+00  0.19163208945E+03  0.19163208951E+03  0.50400001928E-02 0.  1.
        1   -1    0    0  501    0  0.00000000000E+00  0.00000000000E+00 -0.66697623895E+03  0.66697623897E+03  0.50400001928E-02 0. -1.
    10030    2    1    2    0    0  0.00000000000E+00  0.00000000000E+00 -0.47534414951E+03  0.85860832848E+03  0.71502181874E+03 0.  0.
        3    1    3    3  502    0 -0.24183117883E+03 -0.24083555540E+03 -0.10985469212E+03  0.35854169546E+03  0.10100000352E+00 0.  1.
       -3    1    3    3    0  502  0.24183117883E+03  0.24083555540E+03 -0.36548945739E+03  0.50006663302E+03  0.10100000352E+00 0. -1.
</event>
<event>
 5   0  0.3749730E-02  0.7606106E+03  0.7818609E-02  0.9618850E-01
       -1   -1    0    0    0  501  0.00000000000E+00  0.00000000000E+00  0.55728691922E+02  0.55728692149E+02  0.50400001928E-02 0. -1.
        1   -1    0    0  501    0  0.00000000000E+00  0.00000000000E+00 -0.25952897946E+04  0.25952897946E+04  0.50400001928E-02 0.  1.
    10030    2    1    2    0    0  0.00000000000E+00  0.00000000000E+00 -0.25395611026E+04  0.26510184867E+04  0.76061055927E+03 0.  0.
        4    1    3    3  502    0 -0.15271603019E+03 -0.29842096472E+03 -0.64383429720E+03  0.72587979254E+03  0.12699999809E+01 0.  1.
       -4    1    3    3    0  502  0.15271603019E+03  0.29842096472E+03 -0.18957268054E+04  0.19251386942E+04  0.12699999809E+01 0. -1.
</event>
<event>
 5   0  0.6248886E-02  0.6882122E+03  0.7818609E-02  0.9737606E-01
       -2   -1    0    0    0  501  0.00000000000E+00  0.00000000000E+00  0.78207107692E+02  0.78207107734E+02  0.25500000920E-02 0.  1.
        2   -1    0    0  501    0  0.00000000000E+00  0.00000000000E+00 -0.15140439309E+04  0.15140439309E+04  0.25500000920E-02 0. -1.
    10030    2    1    2    0    0  0.00000000000E+00  0.00000000000E+00 -0.14358368232E+04  0.15922510386E+04  0.68821216725E+03 0.  0.
        3    1    3    3  502    0  0.63147858704E+02 -0.20857631162E+03 -0.10179862225E+03  0.24053003871E+03  0.10100000352E+00 0.  1.
       -3    1    3    3    0  502 -0.63147858704E+02  0.20857631162E+03 -0.13340382010E+04  0.13517209999E+04  0.10100000352E+00 0. -1.
</event>
<event>
 5   0  0.5899787E-02  0.7076982E+03  0.7818609E-02  0.9704157E-01
        2   -1    0    0  501    0  0.00000000000E+00  0.00000000000E+00  0.29060276174E+03  0.29060276175E+03  0.25500000920E-02 0. -1.
       -2   -1    0    0    0  501  0.00000000000E+00  0.00000000000E+00 -0.43086022309E+03  0.43086022310E+03  0.25500000920E-02 0.  1.
    10030    2    1    2    0    0  0.00000000000E+00  0.00000000000E+00 -0.14025746136E+03  0.72146298485E+03  0.70769815814E+03 0.  0.
        2    1    3    3  502    0  0.45920012861E+02 -0.13398027180E+03  0.26044644312E+03  0.29646536147E+03  0.25500000920E-02 0. -1.
       -2    1    3    3    0  502 -0.45920012861E+02  0.13398027180E+03 -0.40070390447E+03  0.42499762338E+03  0.25500000920E-02 0.  1.
</event>
<event>
 5   0  0.3439015E-02  0.7000500E+03  0.7818609E-02  0.9717147E-01
        1   -1    0    0  501    0  0.00000000000E+00  0.00000000000E+00  0.72306556372E+03  0.72306556374E+03  0.50400001928E-02 0.  1.
       -1   -1    0    0    0  501  0.00000000000E+00  0.00000000000E+00 -0.16944178020E+03  0.16944178028E+03  0.50400001928E-02 0. -1.
    10030    2    1    2    0    0  0.00000000000E+00  0.00000000000E+00  0.55362378352E+03  0.89250734402E+03  0.70005004496E+03 0.  0.
        1    1    3    3  502    0 -0.72115942911E+02 -0.29367131113E+03  0.50155224989E+03  0.58566048833E+03  0.50400001928E-02 0.  1.
       -1    1    3    3    0  502  0.72115942911E+02  0.29367131113E+03  0.52071533636E+02  0.30684685569E+03  0.50400001928E-02 0. -1.
</event>
<event>
 5   0  0.6131198E-02  0.7735586E+03  0.7818609E-02  0.9599099E-01
        2   -1    0    0  501    0  0.00000000000E+00  0.00000000000E+00  0.72573208215E+03  0.72573208215E+03  0.25500000920E-02 0.  1.
       -2   -1    0    0    0  501  0.00000000000E+00  0.00000000000E+00 -0.20613422184E+03  0.20613422186E+03  0.25500000920E-02 0. -1.
    10030    2    1    2    0    0  0.00000000000E+00  0.00000000000E+00  0.51959786030E+03  0.93186630401E+03  0.77355857704E+03 0.  0.
        1    1    3    3  502    0 -0.16475407293E+03 -0.28274887790E+03  0.11432669309E+02  0.32744700099E+03  0.50400001928E-02 0. -1.
       -1    1    3    3    0  502  0.16475407293E+03  0.28274887790E+03  0.50816519099E+03  0.60441930302E+03  0.50400001928E-02 0.  1.
</event>
<event>
 5   0  0.3755872E-02  0.6909534E+03  0.7818609E-02  0.9732829E-01
        1   -1    0    0  501    0  0.00000000000E+00  0.00000000000E+00  0.15762822410E+04  0.15762822410E+04  0.50400001928E-02 0. -1.
       -1   -1    0    0    0  501  0.00000000000E+00  0.00000000000E+00 -0.75718776195E+02  0.75718776362E+02  0.50400001928E-02 0.  1.
    10030    2    1    2    0    0  0.00000000000E+00  0.00000000000E+00  0.15005634648E+04  0.16520010173E+04  0.69095343510E+03 0.  0.
        2    1    3    3  502    0  0.44040195870E+00  0.14947213525E+03  0.14949697558E+04  0.15024236034E+04  0.25500000920E-02 0. -1.
       -2    1    3    3    0  502 -0.44040195870E+00 -0.14947213525E+03  0.55937089226E+01  0.14957741393E+03  0.25500000920E-02 0.  1.
</event>
<event>
 5   0  0.5987810E-02  0.7077464E+03  0.7818609E-02  0.9704076E-01
       -2   -1    0    0    0  501  0.00000000000E+00  0.00000000000E+00  0.25898621364E+03  0.25898621365E+03  0.25500000920E-02 0. -1.
        2   -1    0    0  501    0  0.00000000000E+00  0.00000000000E+00 -0.48352469402E+03  0.48352469402E+03  0.25500000920E-02 0.  1.
    10030    2    1    2    0    0  0.00000000000E+00  0.00000000000E+00 -0.22453848038E+03  0.74251090767E+03  0.70774636618E+03 0.  0.
        5    1    3    3  502    0  0.10240163077E+03 -0.30109436840E+03  0.50463542324E+02  0.32204436304E+03  0.46999998093E+01 0. -1.
       -5    1    3    3    0  502 -0.10240163077E+03  0.30109436840E+03 -0.27500202270E+03  0.42046654463E+03  0.46999998093E+01 0.  1.
</event>
<event>
 5   0  0.2439375E-02  0.6998464E+03  0.7818609E-02  0.9717495E-01
       -4   -1    0    0    0  501  0.00000000000E+00  0.00000000000E+00  0.25685983522E+03  0.25686297485E+03  0.12699999809E+01 0.  1.
        4   -1    0    0  501    0  0.00000000000E+00  0.00000000000E+00 -0.47669766094E+03  0.47669935268E+03  0.12699999809E+01 0. -1.
    10030    2    1    2    0    0  0.00000000000E+00  0.00000000000E+00 -0.21983782572E+03  0.73356232753E+03  0.69984642512E+03 0.  0.
        5    1    3    3  502    0  0.12033446968E+03 -0.30846559646E+03 -0.22847294458E+03  0.40231006102E+03  0.46999998093E+01 0. -1.
       -5    1    3    3    0  502 -0.12033446968E+03  0.30846559646E+03  0.86351188583E+01  0.33125226651E+03  0.46999998093E+01 0.  1.
</event>
<event>
 5   0  0.3439015E-02  0.7058984E+03  0.7818609E-02  0.9707198E-01
       -1   -1    0    0    0  501  0.00000000000E+00  0.00000000000E+00  0.38157446892E+03  0.38157446895E+03  0.50400001928E-02 0.  1.
        1   -1    0    0  501    0  0.00000000000E+00  0.00000000000E+00 -0.32647137080E+03  0.32647137084E+03  0.50400001928E-02 0. -1.
    10030    2    1    2    0    0  0.00000000000E+00  0.00000000000E+00  0.55103098120E+02  0.70804583979E+03  0.70589840616E+03 0.  0.
        1    1    3    3  502    0  0.27345940734E+03 -0.21746071555E+03  0.77743056136E+02  0.35792903357E+03  0.50400001928E-02 0. -1.
       -1    1    3    3    0  502 -0.27345940734E+03  0.21746071555E+03 -0.22639958017E+02  0.35011680622E+03  0.50400001928E-02 0.  1.
</event>
<event>
 5   0  0.3601475E-02  0.6815230E+03  0.7818609E-02  0.9749363E-01
       -1   -1    0    0    0  501  0.00000000000E+00  0.00000000000E+00  0.93447528593E+02  0.93447528729E+02  0.50400001928E-02 0.  1.
        1   -1    0    0  501    0  0.00000000000E+00  0.00000000000E+00 -0.12426052440E+04  0.12426052440E+04  0.50400001928E-02 0. -1.
    10030    2    1    2    0    0  0.00000000000E+00  0.00000000000E+00 -0.11491577154E+04  0.13360527727E+04  0.68152296854E+03 0.  0.
        5    1    3    3  502    0  0.30760732047E+03 -0.13572451268E+03 -0.46626130193E+03  0.57486093851E+03  0.46999998093E+01 0.  1.
       -5    1    3    3    0  502 -0.30760732047E+03  0.13572451268E+03 -0.68289641342E+03  0.76119183418E+03  0.46999998093E+01 0. -1.
</event>
<event>
 5   0  0.6131198E-02  0.7008531E+03  0.7818609E-02  0.9715774E-01
       -2   -1    0    0    0  501  0.00000000000E+00  0.00000000000E+00  0.21853447499E+03  0.21853447500E+03  0.25500000920E-02 0. -1.
        2   -1    0    0  501    0  0.00000000000E+00  0.00000000000E+00 -0.56191943720E+03  0.56191943721E+03  0.25500000920E-02 0.  1.
    10030    2    1    2    0    0  0.00000000000E+00  0.00000000000E+00 -0.34338496222E+03  0.78045391221E+03  0.70085310644E+03 0.  0.
        1    1    3    3  502    0  0.17044045690E+03 -0.14459524832E+03 -0.47223665282E+03  0.52246070807E+03  0.50400001928E-02 0.  1.
       -1    1    3    3    0  502 -0.17044045690E+03  0.14459524832E+03  0.12885169061E+03  0.25799320414E+03  0.50400001928E-02 0. -1.
</event>
<event>
 5   0  0.3717372E-02  0.6974703E+03  0.7818609E-02  0.9721568E-01
        1   -1    0    0  501    0  0.00000000000E+00  0.00000000000E+00  0.10527978342E+04  0.10527978342E+04  0.50400001928E-02 0. -1.
       -1   -1    0    0    0  501  0.00000000000E+00  0.00000000000E+00 -0.11551713504E+03  0.11551713515E+03  0.50400001928E-02 0.  1.
    10030    2    1    2    0    0  0.00000000000E+00  0.00000000000E+00  0.93728069913E+03  0.11683149693E+04  0.69747025644E+03 0.  0.
        3    1    3    3  502    0  0.12827391793E+03 -0.18555202033E+03  0.91413606963E+03  0.94155643180E+03  0.10100000352E+00 0. -1.
       -3    1    3    3    0  502 -0.12827391793E+03  0.18555202033E+03  0.23144629495E+02  0.22675853753E+03  0.10100000352E+00 0.  1.
</event>
<event>
 5   0  0.5899787E-02  0.7087748E+03  0.7818609E-02  0.9702343E-01
        2   -1    0    0  501    0  0.00000000000E+00  0.00000000000E+00  0.12545080758E+04  0.12545080758E+04  0.25500000920E-02 0.  1.
       -2   -1    0    0    0  501  0.00000000000E+00  0.00000000000E+00 -0.10011129389E+03  0.10011129392E+03  0.25500000920E-02 0. -1.
    10030    2    1    2    0    0  0.00000000000E+00  0.00000000000E+00  0.11543967820E+04  0.13546193698E+04  0.70877479269E+03 0.  0.
        2    1    3    3  502    0  0.16301478898E+02  0.34499991770E+03  0.72889312737E+03  0.80658283677E+03  0.25500000920E-02 0.  1.
       -2    1    3    3    0  502 -0.16301478898E+02 -0.34499991770E+03  0.42550365458E+03  0.54803653300E+03  0.25500000920E-02 0. -1.
</event>
<event>
 5   0  0.3749730E-02  0.6835190E+03  0.7818609E-02  0.9745840E-01
        1   -1    0    0  501    0  0.00000000000E+00  0.00000000000E+00  0.36635456026E+03  0.36635456029E+03  0.50400001928E-02 0.  1.
       -1   -1    0    0    0  501  0.00000000000E+00  0.00000000000E+00 -0.31881558313E+03  0.31881558317E+03  0.50400001928E-02 0. -1.
    10030    2    1    2    0    0  0.00000000000E+00  0.00000000000E+00  0.47538977128E+02  0.68517014346E+03  0.68351896180E+03 0.  0.
        4    1    3    3  502    0 -0.27430030791E+03 -0.20288903522E+03  0.38895263563E+01  0.34120574562E+03  0.12699999809E+01 0.  1.
       -4    1    3    3    0  502  0.27430030791E+03  0.20288903522E+03  0.43649450772E+02  0.34396439784E+03  0.12699999809E+01 0. -1.
</event>
<event>
 5   0  0.3601475E-02  0.6989823E+03  0.7818609E-02  0.9718974E-01
       -1   -1    0    0    0  501  0.00000000000E+00  0.00000000000E+00  0.14765878282E+04  0.14765878282E+04  0.50400001928E-02 0. -1.
        1   -1    0    0  501    0  0.00000000000E+00  0.00000000000E+00 -0.82720484776E+02  0.82720484930E+02  0.50400001928E-02 0.  1.
    10030    2    1    2    0    0  0.00000000000E+00  0.00000000000E+00  0.13938673434E+04  0.15593083132E+04  0.69898229188E+03 0.  0.
        5    1    3    3  502    0  0.90300731471E+02  0.22097208300E+03  0.12757406063E+03  0.27070300056E+03  0.46999998093E+01 0.  1.
       -5    1    3    3    0  502 -0.90300731471E+02 -0.22097208300E+03  0.12662932828E+04  0.12886053126E+04  0.46999998093E+01 0. -1.
</event>
<event>
 5   0  0.5987810E-02  0.7014890E+03  0.7818609E-02  0.9714689E-01
        2   -1    0    0  501    0  0.00000000000E+00  0.00000000000E+00  0.12413940415E+04  0.12413940415E+04  0.25500000920E-02 0. -1.
       -2   -1    0    0    0  501  0.00000000000E+00  0.00000000000E+00 -0.99099639571E+02  0.99099639604E+02  0.25500000920E-02 0.  1.
    10030    2    1    2    0    0  0.00000000000E+00  0.00000000000E+00  0.11422944019E+04  0.13404936811E+04  0.70148899379E+03 0.  0.
        5    1    3    3  502    0 -0.17505612021E+02 -0.26462174092E+03  0.13259692955E+03  0.29653861122E+03  0.46999998093E+01 0.  1.
       -5    1    3    3    0  502  0.17505612021E+02  0.26462174092E+03  0.10096974724E+04  0.10439550699E+04  0.46999998093E+01 0. -1.
</event>
<event>
 5   0  0.3601475E-02  0.7450697E+03  0.7818609E-02  0.9643117E-01
        1   -1    0    0  501    0  0.00000000000E+00  0.00000000000E+00  0.90992385921E+03  0.90992385923E+03  0.50400001928E-02 0.  1.
       -1   -1    0    0    0  501  0.00000000000E+00  0.00000000000E+00 -0.15252068773E+03  0.15252068782E+03  0.50400001928E-02 0. -1.
    10030    2    1    2    0    0  0.00000000000E+00  0.00000000000E+00  0.75740317148E+03  0.10624445470E+04  0.74506969565E+03 0.  0.
        5    1    3    3  502    0  0.21724988197E+02 -0.17864463788E+03 -0.86378356212E+02  0.19967271265E+03  0.46999998093E+01 0. -1.
       -5    1    3    3    0  502 -0.21724988197E+02  0.17864463788E+03  0.84378152769E+03  0.86277183440E+03  0.46999998093E+01 0.  1.
</event>
<event>
 5   0  0.2439375E-02  0.6961233E+03  0.7818609E-02  0.9723885E-01
        4   -1    0    0  501    0  0.00000000000E+00  0.00000000000E+00  0.64466084794E+02  0.64478593258E+02  0.12699999809E+01 0. -1.
       -4   -1    0    0    0  501  0.00000000000E+00  0.00000000000E+00 -0.18790398551E+04  0.18790402843E+04  0.12699999809E+01 0.  1.
    10030    2    1    2    0    0  0.00000000000E+00  0.00000000000E+00 -0.18145737703E+04  0.19435188776E+04  0.69612330767E+03 0.  0.
        3    1    3    3  502    0 -0.22911726312E+03  0.26067409035E+03 -0.83335624273E+03  0.90273381411E+03  0.10100000352E+00 0. -1.
       -3    1    3    3    0  502  0.22911726312E+03 -0.26067409035E+03 -0.98121752759E+03  0.10407850634E+04  0.10100000352E+00 0.  1.
</event>
<event>
 5   0  0.6131198E-02  0.7130260E+03  0.7818609E-02  0.9695212E-01
       -2   -1    0    0    0  501  0.00000000000E+00  0.00000000000E+00  0.15357242586E+03  0.15357242588E+03  0.25500000920E-02 0.  1.
        2   -1    0    0  501    0  0.00000000000E+00  0.00000000000E+00 -0.82763250521E+03  0.82763250521E+03  0.25500000920E-02 0. -1.
    10030    2    1    2    0    0  0.00000000000E+00  0.00000000000E+00 -0.67406007935E+03  0.98120493109E+03  0.71302603475E+03 0.  0.
        1    1    3    3  502    0  0.25327324050E+03 -0.24198067980E+03 -0.24575367097E+03  0.42789817780E+03  0.50400001928E-02 0.  1.
       -1    1    3    3    0  502 -0.25327324050E+03  0.24198067980E+03 -0.42830640838E+03  0.55330675329E+03  0.50400001928E-02 0. -1.
</event>
<event>
 5   0  0.3749730E-02  0.7118678E+03  0.7818609E-02  0.9697149E-01
       -1   -1    0    0    0  501  0.00000000000E+00  0.00000000000E+00  0.17237013229E+03  0.17237013237E+03  0.50400001928E-02 0. -1.
        1   -1    0    0  501    0  0.00000000000E+00  0.00000000000E+00 -0.73498189274E+03  0.73498189276E+03  0.50400001928E-02 0.  1.
    10030    2    1    2    0    0  0.00000000000E+00  0.00000000000E+00 -0.56261176045E+03  0.90735202512E+03  0.71186775773E+03 0.  0.
        4    1    3    3  502    0  0.30235272645E+01 -0.18182039320E+03 -0.67130146098E+03  0.69549626995E+03  0.12699999809E+01 0.  1.
       -4    1    3    3    0  502 -0.30235272645E+01  0.18182039320E+03  0.10868970053E+03  0.21185575518E+03  0.12699999809E+01 0. -1.
</event>
<event>
 5   0  0.6131198E-02  0.7679284E+03  0.7818609E-02  0.9607636E-01
       -2   -1    0    0    0  501  0.00000000000E+00  0.00000000000E+00  0.23448245539E+03  0.23448245541E+03  0.25500000920E-02 0. -1.
        2   -1    0    0  501    0  0.00000000000E+00  0.00000000000E+00 -0.62874003892E+03  0.62874003893E+03  0.25500000920E-02 0.  1.
    10030    2    1    2    0    0  0.00000000000E+00  0.00000000000E+00 -0.39425758353E+03  0.86322249434E+03  0.76792840327E+03 0.  0.
        1    1    3    3  502    0 -0.32767214151E+03 -0.14966163363E+03 -0.34651416607E+03  0.49983967851E+03  0.50400001928E-02 0.  1.
       -1    1    3    3    0  502  0.32767214151E+03  0.14966163363E+03 -0.47743417459E+02  0.36338281582E+03  0.50400001928E-02 0. -1.
</event>
<event>
 5   0  0.6131198E-02  0.6931498E+03  0.7818609E-02  0.9729019E-01
        2   -1    0    0  501    0  0.00000000000E+00  0.00000000000E+00  0.77253327447E+03  0.77253327447E+03  0.25500000920E-02 0.  1.
       -2   -1    0    0    0  501  0.00000000000E+00  0.00000000000E+00 -0.15548088722E+03  0.15548088724E+03  0.25500000920E-02 0. -1.
    10030    2    1    2    0    0  0.00000000000E+00  0.00000000000E+00  0.61705238725E+03  0.92801416172E+03  0.69314979315E+03 0.  0.
        1    1    3    3  502    0 -0.20266640601E+03 -0.10399664333E+03 -0.41177215906E+02  0.23148334083E+03  0.50400001928E-02 0. -1.
       -1    1    3    3    0  502  0.20266640601E+03  0.10399664333E+03  0.65822960315E+03  0.69653082088E+03  0.50400001928E-02 0.  1.
</event>
<event>
 5   0  0.3749730E-02  0.7125542E+03  0.7818609E-02  0.9696000E-01
       -1   -1    0    0    0  501  0.00000000000E+00  0.00000000000E+00  0.14268220477E+04  0.14268220477E+04  0.50400001928E-02 0.  1.
        1   -1    0    0  501    0  0.00000000000E+00  0.00000000000E+00 -0.88962308532E+02  0.88962308675E+02  0.50400001928E-02 0. -1.
    10030    2    1    2    0    0  0.00000000000E+00  0.00000000000E+00  0.13378597391E+04  0.15157843564E+04  0.71255423187E+03 0.  0.
        4    1    3    3  502    0  0.12530240310E+03  0.12499018646E+03  0.13266904168E+04  0.13384439898E+04  0.12699999809E+01 0.  1.
       -4    1    3    3    0  502 -0.12530240310E+03 -0.12499018646E+03  0.11169322308E+02  0.17734036651E+03  0.12699999809E+01 0. -1.
</event>
<event>
 5   0  0.3717372E-02  0.7032511E+03  0.7818609E-02  0.9711688E-01
        1   -1    0    0  501    0  0.00000000000E+00  0.00000000000E+00  0.95942758337E+03  0.95942758338E+03  0.50400001928E-02 0. -1.
       -1   -1    0    0    0  501  0.00000000000E+00  0.00000000000E+00 -0.12886906356E+03  0.12886906366E+03  0.50400001928E-02 0.  1.
    10030    2    1    2    0    0  0.00000000000E+00  0.00000000000E+00  0.83055851981E+03  0.10882966470E+04  0.70325111954E+03 0.  0.
        3    1    3    3  502    0  0.12487842319E+03  0.20246337485E+03  0.81600826276E+03  0.84997384302E+03  0.10100000352E+00 0. -1.
       -3    1    3    3    0  502 -0.12487842319E+03 -0.20246337485E+03  0.14550257050E+02  0.23832280402E+03  0.10100000352E+00 0.  1.
</event>
<event>
 5   0  0.2439375E-02  0.7147118E+03  0.7818609E-02  0.9692399E-01
       -3   -1    0    0    0  501  0.00000000000E+00  0.00000000000E+00  0.79775851185E+03  0.79775851825E+03  0.10100000352E+00 0.  1.
        3   -1    0    0  501    0  0.00000000000E+00  0.00000000000E+00 -0.16007756291E+03  0.16007759477E+03  0.10100000352E+00 0. -1.
    10030    2    1    2    0    0  0.00000000000E+00  0.00000000000E+00  0.63768094894E+03  0.95783611302E+03  0.71471184876E+03 0.  0.
        4    1    3    3  502    0 -0.10537280250E+03 -0.13838347056E+03 -0.99516685081E+02  0.20039609761E+03  0.12699999809E+01 0. -1.
       -4    1    3    3    0  502  0.10537280250E+03  0.13838347056E+03  0.73719763402E+03  0.75744001541E+03  0.12699999809E+01 0.  1.
</event>
<event>
 5   0  0.6167756E-02  0.7276988E+03  0.7818609E-02  0.9671002E-01
        2   -1    0    0  501    0  0.00000000000E+00  0.00000000000E+00  0.29365763943E+03  0.29365763944E+03  0.25500000920E-02 0. -1.
       -2   -1    0    0    0  501  0.00000000000E+00  0.00000000000E+00 -0.45081884113E+03  0.45081884113E+03  0.25500000920E-02 0.  1.
    10030    2    1    2    0    0  0.00000000000E+00  0.00000000000E+00 -0.15716120169E+03  0.74447648058E+03  0.72769882975E+03 0.  0.
        4    1    3    3  502    0  0.20569661593E+03  0.26451679284E+03  0.66479010273E+02  0.34161572447E+03  0.12699999809E+01 0. -1.
       -4    1    3    3    0  502 -0.20569661593E+03 -0.26451679284E+03 -0.22364021197E+03  0.40286075610E+03  0.12699999809E+01 0.  1.
</event>
<event>
 5   0  0.3749730E-02  0.7029436E+03  0.7818609E-02  0.9712211E-01
        1   -1    0    0  501    0  0.00000000000E+00  0.00000000000E+00  0.11428632545E+04  0.11428632545E+04  0.50400001928E-02 0. -1.
       -1   -1    0    0    0  501  0.00000000000E+00  0.00000000000E+00 -0.10809030797E+03  0.10809030809E+03  0.50400001928E-02 0.  1.
    10030    2    1    2    0    0  0.00000000000E+00  0.00000000000E+00  0.10347729465E+04  0.12509535626E+04  0.70294364277E+03 0.  0.
        4    1    3    3  502    0 -0.28149614123E+02 -0.41632770640E+02 -0.10165905362E+03  0.11341016025E+03  0.12699999809E+01 0.  1.
       -4    1    3    3    0  502  0.28149614123E+02  0.41632770640E+02  0.11364320001E+04  0.11375434023E+04  0.12699999809E+01 0. -1.
</event>
<event>
 5   0  0.3439015E-02  0.7017323E+03  0.7818609E-02  0.9714274E-01
       -1   -1    0    0    0  501  0.00000000000E+00  0.00000000000E+00  0.82954717906E+02  0.82954718059E+02  0.50400001928E-02 0. -1.
        1   -1    0    0  501    0  0.00000000000E+00  0.00000000000E+00 -0.14840273371E+04  0.14840273371E+04  0.50400001928E-02 0.  1.
    10030    2    1    2    0    0  0.00000000000E+00  0.00000000000E+00 -0.14010726192E+04  0.15669820551E+04  0.70173233996E+03 0.  0.
        1    1    3    3  502    0  0.13285265382E+03 -0.30173925350E+03 -0.43247475334E+03  0.54381138001E+03  0.50400001928E-02 0. -1.
       -1    1    3    3    0  502 -0.13285265382E+03  0.30173925350E+03 -0.96859786583E+03  0.10231706751E+04  0.50400001928E-02 0.  1.
</event>
<event>
 5   0  0.3601475E-02  0.6192716E+03  0.7818609E-02  0.9866211E-01
        1   -1    0    0  501    0  0.00000000000E+00  0.00000000000E+00  0.14526125333E+03  0.14526125342E+03  0.50400001928E-02 0.  1.
       -1   -1    0    0    0  501  0.00000000000E+00  0.00000000000E+00 -0.66001302828E+03  0.66001302830E+03  0.50400001928E-02 0. -1.
    10030    2    1    2    0    0  0.00000000000E+00  0.00000000000E+00 -0.51475177494E+03  0.80527428171E+03  0.61927157127E+03 0.  0.
        5    1    3    3  502    0  0.50782035558E+02  0.14992709444E+03 -0.60336691820E+03  0.62380339591E+03  0.46999998093E+01 0. -1.
       -5    1    3    3    0  502 -0.50782035558E+02 -0.14992709444E+03  0.88615143252E+02  0.18147088580E+03  0.46999998093E+01 0.  1.
</event>
<event>
 5   0  0.6167756E-02  0.6879023E+03  0.7818609E-02  0.9738147E-01
       -2   -1    0    0    0  501  0.00000000000E+00  0.00000000000E+00  0.33788536888E+03  0.33788536889E+03  0.25500000920E-02 0.  1.
        2   -1    0    0  501    0  0.00000000000E+00  0.00000000000E+00 -0.35012587555E+03  0.35012587556E+03  0.25500000920E-02 0. -1.
    10030    2    1    2    0    0  0.00000000000E+00  0.00000000000E+00 -0.12240506667E+02  0.68801124445E+03  0.68790234953E+03 0.  0.
        4    1    3    3  502    0 -0.10971093841E+03 -0.13654104153E+03 -0.30217530674E+03  0.34927278012E+03  0.12699999809E+01 0. -1.
       -4    1    3    3    0  502  0.10971093841E+03  0.13654104153E+03  0.28993480007E+03  0.33873846434E+03  0.12699999809E+01 0.  1.
</event>
<event>
 5   0  0.5899787E-02  0.6936554E+03  0.7818609E-02  0.9728144E-01
       -2   -1    0    0    0  501  0.00000000000E+00  0.00000000000E+00  0.11237422874E+03  0.11237422877E+03  0.25500000920E-02 0.  1.
        2   -1    0    0  501    0  0.00000000000E+00  0.00000000000E+00 -0.10704364367E+04  0.10704364367E+04  0.25500000920E-02 0. -1.
    10030    2    1    2    0    0  0.00000000000E+00  0.00000000000E+00 -0.95806220795E+03  0.11828106655E+04  0.69365544475E+03 0.  0.
        2    1    3    3  502    0 -0.18399539638E+03  0.21257458238E+03 -0.13271816223E+03  0.31089607517E+03  0.25500000920E-02 0. -1.
       -2    1    3    3    0  502  0.18399539638E+03 -0.21257458238E+03 -0.82534404572E+03  0.87191459030E+03  0.25500000920E-02 0.  1.
</event>
<event>
 5   0  0.3601475E-02  0.6879410E+03  0.7818609E-02  0.9738080E-01
       -1   -1    0    0    0  501  0.00000000000E+00  0.00000000000E+00  0.42717199990E+03  0.42717199993E+03  0.50400001928E-02 0.  1.
        1   -1    0    0  501    0  0.00000000000E+00  0.00000000000E+00 -0.27697439574E+03  0.27697439579E+03  0.50400001928E-02 0. -1.
    10030    2    1    2    0    0  0.00000000000E+00  0.00000000000E+00  0.15019760415E+03  0.70414639572E+03  0.68794100496E+03 0.  0.
        5    1    3    3  502    0  0.10894179812E+03  0.23052362099E+03 -0.16117242213E+03  0.30167547940E+03  0.46999998093E+01 0. -1.
       -5    1    3    3    0  502 -0.10894179812E+03 -0.23052362099E+03  0.31137002629E+03  0.40247091632E+03  0.46999998093E+01 0.  1.
</event>
<event>
 5   0  0.3439015E-02  0.7072828E+03  0.7818609E-02  0.9704858E-01
       -1   -1    0    0    0  501  0.00000000000E+00  0.00000000000E+00  0.12701748788E+03  0.12701748798E+03  0.50400001928E-02 0.  1.
        1   -1    0    0  501    0  0.00000000000E+00  0.00000000000E+00 -0.98460658046E+03  0.98460658047E+03  0.50400001928E-02 0. -1.
    10030    2    1    2    0    0  0.00000000000E+00  0.00000000000E+00 -0.85758909258E+03  0.11116240685E+04  0.70728284147E+03 0.  0.
        1    1    3    3  502    0  0.21113325733E+03  0.21204830327E+03 -0.13258130294E+03  0.32729121160E+03  0.50400001928E-02 0.  1.
       -1    1    3    3    0  502 -0.21113325733E+03 -0.21204830327E+03 -0.72500778964E+03  0.78433285685E+03  0.50400001928E-02 0. -1.
</event>
<event>
 5   0  0.6248886E-02  0.7297405E+03  0.7818609E-02  0.9667682E-01
        2   -1    0    0  501    0  0.00000000000E+00  0.00000000000E+00  0.16417722724E+04  0.16417722724E+04  0.25500000920E-02 0.  1.
       -2   -1    0    0    0  501  0.00000000000E+00  0.00000000000E+00 -0.81089388356E+02  0.81089388396E+02  0.25500000920E-02 0. -1.
    10030    2    1    2    0    0  0.00000000000E+00  0.00000000000E+00  0.15606828841E+04  0.17228616608E+04  0.72974052766E+03 0.  0.
        3    1    3    3  502    0  0.34139252615E+03 -0.11906577055E+03  0.89611783933E+03  0.96630880509E+03  0.10100000352E+00 0.  1.
       -3    1    3    3    0  502 -0.34139252615E+03  0.11906577055E+03  0.66456504474E+03  0.75655285573E+03  0.10100000352E+00 0. -1.
</event>
<event>
 5   0  0.6167756E-02  0.7582979E+03  0.7818609E-02  0.9622421E-01
       -2   -1    0    0    0  501  0.00000000000E+00  0.00000000000E+00  0.12887741883E+03  0.12887741886E+03  0.25500000920E-02 0.  1.
        2   -1    0    0  501    0  0.00000000000E+00  0.00000000000E+00 -0.11154313924E+04  0.11154313924E+04  0.25500000920E-02 0. -1.
    10030    2    1    2    0    0  0.00000000000E+00  0.00000000000E+00 -0.98655397352E+03  0.12443088112E+04  0.75829788012E+03 0.  0.
        4    1    3    3  502    0  0.80050228389E+02 -0.33466444492E+03 -0.75450858631E+03  0.82927266292E+03  0.12699999809E+01 0. -1.
       -4    1    3    3    0  502 -0.80050228389E+02  0.33466444492E+03 -0.23204538722E+03  0.41503614829E+03  0.12699999809E+01 0.  1.
</event>
<event>
 5   0  0.6167756E-02  0.6967350E+03  0.7818609E-02  0.9722832E-01
        2   -1    0    0  501    0  0.00000000000E+00  0.00000000000E+00  0.43587308338E+03  0.43587308339E+03  0.25500000920E-02 0. -1.
       -2   -1    0    0    0  501  0.00000000000E+00  0.00000000000E+00 -0.27842945668E+03  0.27842945669E+03  0.25500000920E-02 0.  1.
    10030    2    1    2    0    0  0.00000000000E+00  0.00000000000E+00  0.15744362670E+03  0.71430254008E+03  0.69673497341E+03 0.  0.
        4    1    3    3  502    0  0.29050072898E+03  0.93370340061E+02  0.25103587796E+03  0.39513202713E+03  0.12699999809E+01 0. -1.
       -4    1    3    3    0  502 -0.29050072898E+03 -0.93370340061E+02 -0.93592251256E+02  0.31917051295E+03  0.12699999809E+01 0.  1.
</event>
<event>
 5   0  0.3717372E-02  0.6988874E+03  0.7818609E-02  0.9719137E-01
       -1   -1    0    0    0  501  0.00000000000E+00  0.00000000000E+00  0.90494575864E+02  0.90494576005E+02  0.50400001928E-02 0. -1.
        1   -1    0    0  501    0  0.00000000000E+00  0.00000000000E+00 -0.13493726074E+04  0.13493726074E+04  0.50400001928E-02 0.  1.
    10030    2    1    2    0    0  0.00000000000E+00  0.00000000000E+00 -0.12588780315E+04  0.14398671834E+04  0.69888740694E+03 0.  0.
        3    1    3    3  502    0  0.47178522722E+02  0.28087318739E+03 -0.10465795747E+04  0.10846402061E+04  0.10100000352E+00 0.  1.
       -3    1    3    3    0  502 -0.47178522722E+02 -0.28087318739E+03 -0.21229845683E+03  0.35522697726E+03  0.10100000352E+00 0. -1.
</event>
<event>
 5   0  0.3717372E-02  0.6812206E+03  0.7818609E-02  0.9749898E-01
        1   -1    0    0  501    0  0.00000000000E+00  0.00000000000E+00  0.84126779390E+03  0.84126779392E+03  0.50400001928E-02 0.  1.
       -1   -1    0    0    0  501  0.00000000000E+00  0.00000000000E+00 -0.13790538753E+03  0.13790538762E+03  0.50400001928E-02 0. -1.
    10030    2    1    2    0    0  0.00000000000E+00  0.00000000000E+00  0.70336240637E+03  0.97917318154E+03  0.68122055514E+03 0.  0.
        3    1    3    3  502    0 -0.15953852931E+02  0.90761362256E+02 -0.11964638181E+03  0.15102124746E+03  0.10100000352E+00 0. -1.
       -3    1    3    3    0  502  0.15953852931E+02 -0.90761362256E+02  0.82300878818E+03  0.82815193408E+03  0.10100000352E+00 0.  1.
</event>
<event>
 5   0  0.3439015E-02  0.6857700E+03  0.7818609E-02  0.9741882E-01
        1   -1    0    0  501    0  0.00000000000E+00  0.00000000000E+00  0.21195582552E+03  0.21195582558E+03  0.50400001928E-02 0. -1.
       -1   -1    0    0    0  501  0.00000000000E+00  0.00000000000E+00 -0.55469167914E+03  0.55469167917E+03  0.50400001928E-02 0.  1.
    10030    2    1    2    0    0  0.00000000000E+00  0.00000000000E+00 -0.34273585363E+03  0.76664750475E+03  0.68577002790E+03 0.  0.
        1    1    3    3  502    0  0.23253231681E+03  0.25192478064E+03 -0.17776652081E+03  0.38618429462E+03  0.50400001928E-02 0. -1.
       -1    1    3    3    0  502 -0.23253231681E+03 -0.25192478064E+03 -0.16496933281E+03  0.38046321013E+03  0.50400001928E-02 0.  1.
</event>
<event>
 5   0  0.2439375E-02  0.7041336E+03  0.7818609E-02  0.9710189E-01
        4   -1    0    0  501    0  0.00000000000E+00  0.00000000000E+00  0.19047885487E+03  0.19048308862E+03  0.12699999809E+01 0. -1.
       -4   -1    0    0    0  501  0.00000000000E+00  0.00000000000E+00 -0.65072176543E+03  0.65072300474E+03  0.12699999809E+01 0.  1.
    10030    2    1    2    0    0  0.00000000000E+00  0.00000000000E+00 -0.46024291056E+03  0.84120609336E+03  0.70413361999E+03 0.  0.
        1    1    3    3  502    0  0.15417773242E+03  0.17020084695E+03 -0.54892543124E+03  0.59502792419E+03  0.50400001928E-02 0.  1.
       -1    1    3    3    0  502 -0.15417773242E+03 -0.17020084695E+03  0.88682520686E+02  0.24617816917E+03  0.50400001928E-02 0. -1.
</event>
<event>
 5   0  0.6248886E-02  0.9414319E+03  0.7818609E-02  0.9375222E-01
        2   -1    0    0  501    0  0.00000000000E+00  0.00000000000E+00  0.44073964720E+03  0.44073964721E+03  0.25500000920E-02 0. -1.
       -2   -1    0    0    0  501  0.00000000000E+00  0.00000000000E+00 -0.50273105182E+03  0.50273105183E+03  0.25500000920E-02 0.  1.
    10030    2    1    2    0    0  0.00000000000E+00  0.00000000000E+00 -0.61991404623E+02  0.94347069903E+03  0.94143190178E+03 0.  0.
        3    1    3    3  502    0  0.32844075787E+03  0.15875168828E+03 -0.32912619424E+03  0.49132422279E+03  0.10100000352E+00 0.  1.
       -3    1    3    3    0  502 -0.32844075787E+03 -0.15875168828E+03  0.26713478962E+03  0.45214647625E+03  0.10100000352E+00 0. -1.
</event>
<event>
 5   0  0.6248886E-02  0.6882141E+03  0.7818609E-02  0.9737603E-01
       -2   -1    0    0    0  501  0.00000000000E+00  0.00000000000E+00  0.38971430924E+03  0.38971430925E+03  0.25500000920E-02 0.  1.
        2   -1    0    0  501    0  0.00000000000E+00  0.00000000000E+00 -0.30383712540E+03  0.30383712541E+03  0.25500000920E-02 0. -1.
    10030    2    1    2    0    0  0.00000000000E+00  0.00000000000E+00  0.85877183846E+02  0.69355143466E+03  0.68821413951E+03 0.  0.
        3    1    3    3  502    0  0.22437819702E+03  0.21754852980E+03  0.18805789696E+03  0.36474473392E+03  0.10100000352E+00 0.  1.
       -3    1    3    3    0  502 -0.22437819702E+03 -0.21754852980E+03 -0.10218071311E+03  0.32880670074E+03  0.10100000352E+00 0. -1.
</event>
<event>
 5   0  0.2439375E-02  0.7052399E+03  0.7818609E-02  0.9708313E-01
       -3   -1    0    0    0  501  0.00000000000E+00  0.00000000000E+00  0.65196055506E+03  0.65196056288E+03  0.10100000352E+00 0. -1.
        3   -1    0    0  501    0  0.00000000000E+00  0.00000000000E+00 -0.19071829844E+03  0.19071832519E+03  0.10100000352E+00 0.  1.
    10030    2    1    2    0    0  0.00000000000E+00  0.00000000000E+00  0.46124225661E+03  0.84267888807E+03  0.70523988054E+03 0.  0.
        1    1    3    3  502    0  0.10100119601E+02 -0.22871834354E+03  0.55107860302E+03  0.59674259093E+03  0.50400001928E-02 0. -1.
       -1    1    3    3    0  502 -0.10100119601E+02  0.22871834354E+03 -0.89836346409E+02  0.24593629714E+03  0.50400001928E-02 0.  1.
</event>
<event>
 5   0  0.3717372E-02  0.7047657E+03  0.7818609E-02  0.9709117E-01
       -1   -1    0    0    0  501  0.00000000000E+00  0.00000000000E+00  0.12495120945E+03  0.12495120955E+03  0.50400001928E-02 0.  1.
        1   -1    0    0  501    0  0.00000000000E+00  0.00000000000E+00 -0.99377722323E+03  0.99377722324E+03  0.50400001928E-02 0. -1.
    10030    2    1    2    0    0  0.00000000000E+00  0.00000000000E+00 -0.86882601378E+03  0.11187284328E+04  0.70476568030E+03 0.  0.
        3    1    3    3  502    0  0.12883083079E+03 -0.25304711414E+03 -0.10317416977E+03  0.30211776586E+03  0.10100000352E+00 0.  1.
       -3    1    3    3    0  502 -0.12883083079E+03  0.25304711414E+03 -0.76565184400E+03  0.81661066694E+03  0.10100000352E+00 0. -1.
</event>
<event>
 5   0  0.5899787E-02  0.7051614E+03  0.7818609E-02  0.9708446E-01
       -2   -1    0    0    0  501  0.00000000000E+00  0.00000000000E+00  0.72043502283E+02  0.72043502328E+02  0.25500000920E-02 0. -1.
        2   -1    0    0  501    0  0.00000000000E+00  0.00000000000E+00 -0.17255290978E+04  0.17255290978E+04  0.25500000920E-02 0.  1.
    10030    2    1    2    0    0  0.00000000000E+00  0.00000000000E+00 -0.16534855955E+04  0.17975726001E+04  0.70516142701E+03 0.  0.
        2    1    3    3  502    0  0.32570088880E+03 -0.11063769978E+02 -0.11697895583E+04  0.12143356565E+04  0.25500000920E-02 0.  1.
       -2    1    3    3    0  502 -0.32570088880E+03  0.11063769978E+02 -0.48369603724E+03  0.58323694363E+03  0.25500000920E-02 0. -1.
</event>
<event>
 5   0  0.6131198E-02  0.7044964E+03  0.7818609E-02  0.9709573E-01
        2   -1    0    0  501    0  0.00000000000E+00  0.00000000000E+00  0.50693653251E+03  0.50693653252E+03  0.25500000920E-02 0.  1.
       -2   -1    0    0    0  501  0.00000000000E+00  0.00000000000E+00 -0.24476202150E+03  0.24476202151E+03  0.25500000920E-02 0. -1.
    10030    2    1    2    0    0  0.00000000000E+00  0.00000000000E+00  0.26217451102E+03  0.75169855403E+03  0.70449644563E+03 0.  0.
        1    1    3    3  502    0 -0.17679415038E+03 -0.11482595567E+03 -0.17002199362E+03  0.27082955903E+03  0.50400001928E-02 0. -1.
       -1    1    3    3    0  502  0.17679415038E+03  0.11482595567E+03  0.43219650463E+03  0.48086899500E+03  0.50400001928E-02 0.  1.
</event>
<event>
 5   0  0.6167756E-02  0.7009632E+03  0.7818609E-02  0.9715586E-01
        2   -1    0    0  501    0  0.00000000000E+00  0.00000000000E+00  0.79367283369E+03  0.79367283370E+03  0.25500000920E-02 0. -1.
       -2   -1    0    0    0  501  0.00000000000E+00  0.00000000000E+00 -0.15477074975E+03  0.15477074977E+03  0.25500000920E-02 0.  1.
    10030    2    1    2    0    0  0.00000000000E+00  0.00000000000E+00  0.63890208394E+03  0.94844358347E+03  0.70096316463E+03 0.  0.
        4    1    3    3  502    0  0.89392901275E+02  0.28302327629E+03  0.57165192048E+03  0.64411241007E+03  0.12699999809E+01 0. -1.
       -4    1    3    3    0  502 -0.89392901275E+02 -0.28302327629E+03  0.67250163455E+02  0.30433117340E+03  0.12699999809E+01 0.  1.
</event>
<event>
 5   0  0.2439375E-02  0.6642882E+03  0.7818609E-02  0.9780332E-01
       -3   -1    0    0    0  501  0.00000000000E+00  0.00000000000E+00  0.26586441628E+03  0.26586443546E+03  0.10100000352E+00 0. -1.
        3   -1    0    0  501    0  0.00000000000E+00  0.00000000000E+00 -0.41494720374E+03  0.41494721603E+03  0.10100000352E+00 0.  1.
    10030    2    1    2    0    0  0.00000000000E+00  0.00000000000E+00 -0.14908278746E+03  0.68081165149E+03  0.66428821101E+03 0.  0.
        1    1    3    3  502    0  0.86177843872E+02 -0.54665781414E+02 -0.39848057330E+03  0.41134138590E+03  0.50400001928E-02 0.  1.
       -1    1    3    3    0  502 -0.86177843872E+02  0.54665781414E+02  0.24939778584E+03  0.26947026559E+03  0.50400001928E-02 0. -1.
</event>
<event>
 5   0  0.3601475E-02  0.7111147E+03  0.7818609E-02  0.9698411E-01
        1   -1    0    0  501    0  0.00000000000E+00  0.00000000000E+00  0.22118237256E+03  0.22118237262E+03  0.50400001928E-02 0.  1.
       -1   -1    0    0    0  501  0.00000000000E+00  0.00000000000E+00 -0.57156914937E+03  0.57156914939E+03  0.50400001928E-02 0. -1.
    10030    2    1    2    0    0  0.00000000000E+00  0.00000000000E+00 -0.35038677681E+03  0.79275152201E+03  0.71111467591E+03 0.  0.
        5    1    3    3  502    0 -0.24345023074E+03  0.20895321699E+03 -0.44086443499E+01  0.32089092832E+03  0.46999998093E+01 0. -1.
       -5    1    3    3    0  502  0.24345023074E+03 -0.20895321699E+03 -0.34597813246E+03  0.47186059369E+03  0.46999998093E+01 0.  1.
</event>
<event>
 5   0  0.6131198E-02  0.7073839E+03  0.7818609E-02  0.9704687E-01
        2   -1    0    0  501    0  0.00000000000E+00  0.00000000000E+00  0.59649756106E+03  0.59649756107E+03  0.25500000920E-02 0. -1.
       -2   -1    0    0    0  501  0.00000000000E+00  0.00000000000E+00 -0.20972088134E+03  0.20972088135E+03  0.25500000920E-02 0.  1.
    10030    2    1    2    0    0  0.00000000000E+00  0.00000000000E+00  0.38677667973E+03  0.80621844242E+03  0.70738389642E+03 0.  0.
        1    1    3    3  502    0 -0.10158133438E+03 -0.18065329396E+02 -0.19218846880E+03  0.21813191235E+03  0.50400001928E-02 0.  1.
       -1    1    3    3    0  502  0.10158133438E+03  0.18065329396E+02  0.57896514853E+03  0.58808653007E+03  0.50400001928E-02 0. -1.
</event>
<event>
 5   0  0.6248886E-02  0.7032705E+03  0.7818609E-02  0.9711656E-01
        2   -1    0    0  501    0  0.00000000000E+00  0.00000000000E+00  0.73708402500E+03  0.73708402500E+03  0.25500000920E-02 0.  1.
       -2   -1    0    0    0  501  0.00000000000E+00  0.00000000000E+00 -0.16775202281E+03  0.16775202283E+03  0.25500000920E-02 0. -1.
    10030    2    1    2    0    0  0.00000000000E+00  0.00000000000E+00  0.56933200219E+03  0.90483604783E+03  0.70327046343E+03 0.  0.
        3    1    3    3  502    0  0.24707167453E+03  0.89043430741E+02  0.58550813437E+03  0.64171094001E+03  0.10100000352E+00 0.  1.
       -3    1    3    3    0  502 -0.24707167453E+03 -0.89043430741E+02 -0.16176132176E+02  0.26312510783E+03  0.10100000352E+00 0. -1.
</event>
<event>
 5   0  0.3749730E-02  0.7154878E+03  0.7818609E-02  0.9691107E-01
       -1   -1    0    0    0  501  0.00000000000E+00  0.00000000000E+00  0.10177247788E+03  0.10177247800E+03  0.50400001928E-02 0. -1.
        1   -1    0    0  501    0  0.00000000000E+00  0.00000000000E+00 -0.12575177261E+04  0.12575177261E+04  0.50400001928E-02 0.  1.
    10030    2    1    2    0    0  0.00000000000E+00  0.00000000000E+00 -0.11557452483E+04  0.13592902041E+04  0.71548779180E+03 0.  0.
        4    1    3    3  502    0 -0.28376558705E+03  0.13820011723E+03 -0.89779111720E+03  0.95165786070E+03  0.12699999809E+01 0.  1.
       -4    1    3    3    0  502  0.28376558705E+03 -0.13820011723E+03 -0.25795413106E+03  0.40763234345E+03  0.12699999809E+01 0. -1.
</event>
<event>
 5   0  0.2439375E-02  0.6989160E+03  0.7818609E-02  0.9719088E-01
        3   -1    0    0  501    0  0.00000000000E+00  0.00000000000E+00  0.17357278102E+03  0.17357281040E+03  0.10100000352E+00 0. -1.
       -3   -1    0    0    0  501  0.00000000000E+00  0.00000000000E+00 -0.70357160729E+03  0.70357161454E+03  0.10100000352E+00 0.  1.
    10030    2    1    2    0    0  0.00000000000E+00  0.00000000000E+00 -0.52999882628E+03  0.87714442495E+03  0.69891600809E+03 0.  0.
        5    1    3    3  502    0  0.26896153572E+03  0.13980722998E+03 -0.46857558591E+02  0.30676389952E+03  0.46999998093E+01 0. -1.
       -5    1    3    3    0  502 -0.26896153572E+03 -0.13980722998E+03 -0.48314126769E+03  0.57038052543E+03  0.46999998093E+01 0.  1.
</event>
<event>
 5   0  0.5987810E-02  0.6959271E+03  0.7818609E-02  0.9724223E-01
       -2   -1    0    0    0  501  0.00000000000E+00  0.00000000000E+00  0.73778894511E+03  0.73778894512E+03  0.25500000920E-02 0. -1.
        2   -1    0    0  501    0  0.00000000000E+00  0.00000000000E+00 -0.16411013228E+03  0.16411013230E+03  0.25500000920E-02 0.  1.
    10030    2    1    2    0    0  0.00000000000E+00  0.00000000000E+00  0.57367881283E+03  0.90189907741E+03  0.69592712661E+03 0.  0.
        5    1    3    3  502    0 -0.23295919558E+03  0.21866733400E+03  0.10833820666E+03  0.33740872363E+03  0.46999998093E+01 0.  1.
       -5    1    3    3    0  502  0.23295919558E+03 -0.21866733400E+03  0.46534060617E+03  0.56449035378E+03  0.46999998093E+01 0. -1.
</event>
<event>
 5   0  0.5899787E-02  0.7041402E+03  0.7818609E-02  0.9710178E-01
       -2   -1    0    0    0  501  0.00000000000E+00  0.00000000000E+00  0.89671136870E+02  0.89671136906E+02  0.25500000920E-02 0. -1.
        2   -1    0    0  501    0  0.00000000000E+00  0.00000000000E+00 -0.13823103385E+04  0.13823103385E+04  0.25500000920E-02 0.  1.
    10030    2    1    2    0    0  0.00000000000E+00  0.00000000000E+00 -0.12926392016E+04  0.14719814754E+04  0.70414015533E+03 0.  0.
        2    1    3    3  502    0 -0.29958944343E+02  0.30038030627E+03 -0.26756147566E+03  0.40337948634E+03  0.25500000920E-02 0. -1.
       -2    1    3    3    0  502  0.29958944343E+02 -0.30038030627E+03 -0.10250777260E+04  0.10686019891E+04  0.25500000920E-02 0.  1.
</event>
<event>
 5   0  0.5899787E-02  0.6961838E+03  0.7818609E-02  0.9723781E-01
        2   -1    0    0  501    0  0.00000000000E+00  0.00000000000E+00  0.64981076991E+03  0.64981076992E+03  0.25500000920E-02 0. -1.
       -2   -1    0    0    0  501  0.00000000000E+00  0.00000000000E+00 -0.18646655818E+03  0.18646655819E+03  0.25500000920E-02 0.  1.
    10030    2    1    2    0    0  0.00000000000E+00  0.00000000000E+00  0.46334421174E+03  0.83627732811E+03  0.69618381981E+03 0.  0.
        2    1    3    3  502    0  0.27290267722E+03 -0.10733220766E+03  0.45695298651E+03  0.54295681774E+03  0.25500000920E-02 0. -1.
       -2    1    3    3    0  502 -0.27290267722E+03  0.10733220766E+03  0.63912252217E+01  0.29332051037E+03  0.25500000920E-02 0.  1.
</event>
<event>
 5   0  0.3717372E-02  0.7011309E+03  0.7818609E-02  0.9715300E-01
        1   -1    0    0  501    0  0.00000000000E+00  0.00000000000E+00  0.16310294646E+03  0.16310294653E+03  0.50400001928E-02 0. -1.
       -1   -1    0    0    0  501  0.00000000000E+00  0.00000000000E+00 -0.75348822010E+03  0.75348822012E+03  0.50400001928E-02 0.  1.
    10030    2    1    2    0    0  0.00000000000E+00  0.00000000000E+00 -0.59038527365E+03  0.91659116665E+03  0.70113094030E+03 0.  0.
        3    1    3    3  502    0  0.21130051047E+03 -0.22672547992E+03 -0.50938227086E+03  0.59625720711E+03  0.10100000352E+00 0.  1.
       -3    1    3    3    0  502 -0.21130051047E+03  0.22672547992E+03 -0.81003002789E+02  0.32033395954E+03  0.10100000352E+00 0. -1.
</event>
<event>
 5   0  0.3755872E-02  0.6055270E+03  0.7818609E-02  0.9894005E-01
       -1   -1    0    0    0  501  0.00000000000E+00  0.00000000000E+00  0.65134552036E+03  0.65134552038E+03  0.50400001928E-02 0. -1.
        1   -1    0    0  501    0  0.00000000000E+00  0.00000000000E+00 -0.14073288086E+03  0.14073288095E+03  0.50400001928E-02 0.  1.
    10030    2    1    2    0    0  0.00000000000E+00  0.00000000000E+00  0.51061263950E+03  0.79207840133E+03  0.60552698224E+03 0.  0.
        2    1    3    3  502    0 -0.83019654164E+02  0.28747599455E+03  0.19492139228E+03  0.35711211068E+03  0.25500000920E-02 0.  1.
       -2    1    3    3    0  502  0.83019654164E+02 -0.28747599455E+03  0.31569124723E+03  0.43496629065E+03  0.25500000920E-02 0. -1.
</event>
<event>
 5   0  0.6131198E-02  0.6982243E+03  0.7818609E-02  0.9720274E-01
        2   -1    0    0  501    0  0.00000000000E+00  0.00000000000E+00  0.11490534214E+04  0.11490534214E+04  0.25500000920E-02 0. -1.
       -2   -1    0    0    0  501  0.00000000000E+00  0.00000000000E+00 -0.10606930912E+03  0.10606930915E+03  0.25500000920E-02 0.  1.
    10030    2    1    2    0    0  0.00000000000E+00  0.00000000000E+00  0.10429841123E+04  0.12551227306E+04  0.69822432662E+03 0.  0.
        1    1    3    3  502    0  0.45870056602E+02  0.20423966561E+03  0.19254268414E+02  0.21021091784E+03  0.50400001928E-02 0.  1.
       -1    1    3    3    0  502 -0.45870056602E+02 -0.20423966561E+03  0.10237298439E+04  0.10449118127E+04  0.50400001928E-02 0. -1.
</event>
<event>
 5   0  0.2439375E-02  0.6457358E+03  0.7818609E-02  0.9814814E-01
       -4   -1    0    0    0  501  0.00000000000E+00  0.00000000000E+00  0.81489275528E+03  0.81489374492E+03  0.12699999809E+01 0. -1.
        4   -1    0    0  501    0  0.00000000000E+00  0.00000000000E+00 -0.12791897055E+03  0.12792527478E+03  0.12699999809E+01 0.  1.
    10030    2    1    2    0    0  0.00000000000E+00  0.00000000000E+00  0.68697378472E+03  0.94281901970E+03  0.64573579969E+03 0.  0.
        4    1    3    3  502    0  0.13881105472E+03 -0.29073618169E+03  0.37432276781E+03  0.49387770111E+03  0.12699999809E+01 0.  1.
       -4    1    3    3    0  502 -0.13881105472E+03  0.29073618169E+03  0.31265101691E+03  0.44894131858E+03  0.12699999809E+01 0. -1.
</event>
<event>
 5   0  0.3601475E-02  0.6992097E+03  0.7818609E-02  0.9718585E-01
       -1   -1    0    0    0  501  0.00000000000E+00  0.00000000000E+00  0.43067059660E+03  0.43067059663E+03  0.50400001928E-02 0.  1.
        1   -1    0    0  501    0  0.00000000000E+00  0.00000000000E+00 -0.28379823155E+03  0.28379823159E+03  0.50400001928E-02 0. -1.
    10030    2    1    2    0    0  0.00000000000E+00  0.00000000000E+00  0.14687236505E+03  0.71446882822E+03  0.69920970737E+03 0.  0.
        5    1    3    3  502    0  0.28028511538E+02  0.24548567120E+03 -0.17925115681E+03  0.30528982859E+03  0.46999998093E+01 0. -1.
       -5    1    3    3    0  502 -0.28028511538E+02 -0.24548567120E+03  0.32612352186E+03  0.40917899963E+03  0.46999998093E+01 0.  1.
</event>
<event>
 5   0  0.5987810E-02  0.7175104E+03  0.7818609E-02  0.9687747E-01
       -2   -1    0    0    0  501  0.00000000000E+00  0.00000000000E+00  0.12605861457E+03  0.12605861459E+03  0.25500000920E-02 0. -1.
        2   -1    0    0  501    0  0.00000000000E+00  0.00000000000E+00 -0.10209956648E+04  0.10209956648E+04  0.25500000920E-02 0.  1.
    10030    2    1    2    0    0  0.00000000000E+00  0.00000000000E+00 -0.89493705025E+03  0.11470542794E+04  0.71751041526E+03 0.  0.
        5    1    3    3  502    0 -0.17506377921E+03 -0.94705490528E+02  0.29636035699E+02  0.20128795627E+03  0.46999998093E+01 0. -1.
       -5    1    3    3    0  502  0.17506377921E+03  0.94705490528E+02 -0.92457308594E+03  0.94576632314E+03  0.46999998093E+01 0.  1.
</event>
<event>
 5   0  0.2439375E-02  0.7005475E+03  0.7818609E-02  0.9716296E-01
        4   -1    0    0  501    0  0.00000000000E+00  0.00000000000E+00  0.68981488177E+03  0.68981605085E+03  0.12699999809E+01 0. -1.
       -4   -1    0    0    0  501  0.00000000000E+00  0.00000000000E+00 -0.17785821422E+03  0.17786274840E+03  0.12699999809E+01 0.  1.
    10030    2    1    2    0    0  0.00000000000E+00  0.00000000000E+00  0.51195666755E+03  0.86767879925E+03  0.70054754958E+03 0.  0.
        1    1    3    3  502    0  0.25202837683E+03  0.19084420135E+03  0.44280129609E+03  0.54407058343E+03  0.50400001928E-02 0. -1.
       -1    1    3    3    0  502 -0.25202837683E+03 -0.19084420135E+03  0.69155371464E+02  0.32360821582E+03  0.50400001928E-02 0.  1.
</event>
<event>
 5   0  0.3717372E-02  0.7422307E+03  0.7818609E-02  0.9647619E-01
       -1   -1    0    0    0  501  0.00000000000E+00  0.00000000000E+00  0.13677910303E+03  0.13677910312E+03  0.50400001928E-02 0. -1.
        1   -1    0    0  501    0  0.00000000000E+00  0.00000000000E+00 -0.10069273383E+04  0.10069273383E+04  0.50400001928E-02 0.  1.
    10030    2    1    2    0    0  0.00000000000E+00  0.00000000000E+00 -0.87014823525E+03  0.11437064414E+04  0.74223074095E+03 0.  0.
        3    1    3    3  502    0  0.25263529838E+03 -0.91415932410E+02 -0.82957309487E+03  0.87199369069E+03  0.10100000352E+00 0.  1.
       -3    1    3    3    0  502 -0.25263529838E+03  0.91415932410E+02 -0.40575140385E+02  0.27171275072E+03  0.10100000352E+00 0. -1.
</event>
<event>
 5   0  0.3717372E-02  0.7353582E+03  0.7818609E-02  0.9658605E-01
        1   -1    0    0  501    0  0.00000000000E+00  0.00000000000E+00  0.18231628521E+03  0.18231628528E+03  0.50400001928E-02 0.  1.
       -1   -1    0    0    0  501  0.00000000000E+00  0.00000000000E+00 -0.74150219367E+03  0.74150219368E+03  0.50400001928E-02 0. -1.
    10030    2    1    2    0    0  0.00000000000E+00  0.00000000000E+00 -0.55918590846E+03  0.92381847897E+03  0.73535821330E+03 0.  0.
        3    1    3    3  502    0 -0.27660246515E+03 -0.14596445692E+03 -0.52246012923E+03  0.60891636803E+03  0.10100000352E+00 0. -1.
       -3    1    3    3    0  502  0.27660246515E+03  0.14596445692E+03 -0.36725779222E+02  0.31490211094E+03  0.10100000352E+00 0.  1.
</event>
<event>
 5   0  0.5899787E-02  0.7126152E+03  0.7818609E-02  0.9695899E-01
        2   -1    0    0  501    0  0.00000000000E+00  0.00000000000E+00  0.99022789254E+03  0.99022789255E+03  0.25500000920E-02 0.  1.
       -2   -1    0    0    0  501  0.00000000000E+00  0.00000000000E+00 -0.12820795423E+03  0.12820795425E+03  0.25500000920E-02 0. -1.
    10030    2    1    2    0    0  0.00000000000E+00  0.00000000000E+00  0.86201993832E+03  0.11184358468E+04  0.71261516216E+03 0.  0.
        2    1    3    3  502    0 -0.14051338454E+01 -0.32665480095E+03  0.20767025887E+03  0.38708173531E+03  0.25500000920E-02 0. -1.
       -2    1    3    3    0  502  0.14051338454E+01  0.32665480095E+03  0.65434967945E+03  0.73135411149E+03  0.25500000920E-02 0.  1.
</event>
<event>
 5   0  0.6131198E-02  0.7084193E+03  0.7818609E-02  0.9702942E-01
       -2   -1    0    0    0  501  0.00000000000E+00  0.00000000000E+00  0.12914499439E+03  0.12914499442E+03  0.25500000920E-02 0. -1.
        2   -1    0    0  501    0  0.00000000000E+00  0.00000000000E+00 -0.97150076043E+03  0.97150076043E+03  0.25500000920E-02 0.  1.
    10030    2    1    2    0    0  0.00000000000E+00  0.00000000000E+00 -0.84235576604E+03  0.11006457548E+04  0.70841925517E+03 0.  0.
        1    1    3    3  502    0  0.32340609637E+03  0.11351330558E+03 -0.56003486204E+03  0.65659410631E+03  0.50400001928E-02 0.  1.
       -1    1    3    3    0  502 -0.32340609637E+03 -0.11351330558E+03 -0.28232090399E+03  0.44405164854E+03  0.50400001928E-02 0. -1.
</event>
<event>
 5   0  0.3439015E-02  0.7151415E+03  0.7818609E-02  0.9691683E-01
        1   -1    0    0  501    0  0.00000000000E+00  0.00000000000E+00  0.60847226163E+03  0.60847226165E+03  0.50400001928E-02 0.  1.
       -1   -1    0    0    0  501  0.00000000000E+00  0.00000000000E+00 -0.21012765542E+03  0.21012765548E+03  0.50400001928E-02 0. -1.
    10030    2    1    2    0    0  0.00000000000E+00  0.00000000000E+00  0.39834460621E+03  0.81859991713E+03  0.71514152377E+03 0.  0.
        1    1    3    3  502    0 -0.32669803396E+03 -0.14400955423E+03  0.17666879069E+03  0.39834936768E+03  0.50400001928E-02 0. -1.
       -1    1    3    3    0  502  0.32669803396E+03  0.14400955423E+03  0.22167581552E+03  0.42025054945E+03  0.50400001928E-02 0.  1.
</event>
<event>
 5   0  0.6131198E-02  0.7113144E+03  0.7818609E-02  0.9698076E-01
       -2   -1    0    0    0  501  0.00000000000E+00  0.00000000000E+00  0.27629689201E+03  0.27629689202E+03  0.25500000920E-02 0. -1.
        2   -1    0    0  501    0  0.00000000000E+00  0.00000000000E+00 -0.45781210311E+03  0.45781210311E+03  0.25500000920E-02 0.  1.
    10030    2    1    2    0    0  0.00000000000E+00  0.00000000000E+00 -0.18151521110E+03  0.73410899513E+03  0.71131444866E+03 0.  0.
        1    1    3    3  502    0 -0.33974187949E+03 -0.61524427296E+02 -0.17882842679E+03  0.38883081936E+03  0.50400001928E-02 0. -1.
       -1    1    3    3    0  502  0.33974187949E+03  0.61524427296E+02 -0.26867843119E+01  0.34527817577E+03  0.50400001928E-02 0.  1.
</event>
<event>
 5   0  0.6131198E-02  0.6926098E+03  0.7818609E-02  0.9729955E-01
        2   -1    0    0  501    0  0.00000000000E+00  0.00000000000E+00  0.96436493477E+03  0.96436493477E+03  0.25500000920E-02 0. -1.
       -2   -1    0    0    0  501  0.00000000000E+00  0.00000000000E+00 -0.12435859492E+03  0.12435859494E+03  0.25500000920E-02 0.  1.
    10030    2    1    2    0    0  0.00000000000E+00  0.00000000000E+00  0.84000633985E+03  0.10887235297E+04  0.69260975532E+03 0.  0.
        1    1    3    3  502    0  0.62688037781E+02  0.23822833411E+03  0.80261039519E+03  0.83956296711E+03  0.50400001928E-02 0. -1.
       -1    1    3    3    0  502 -0.62688037781E+02 -0.23822833411E+03  0.37395944659E+02  0.24916056260E+03  0.50400001928E-02 0.  1.
</event>
<event>
 5   0  0.5987810E-02  0.6673569E+03  0.7818609E-02  0.9774745E-01
       -2   -1    0    0    0  501  0.00000000000E+00  0.00000000000E+00  0.14352799101E+03  0.14352799103E+03  0.25500000920E-02 0. -1.
        2   -1    0    0  501    0  0.00000000000E+00  0.00000000000E+00 -0.77574618944E+03  0.77574618945E+03  0.25500000920E-02 0.  1.
    10030    2    1    2    0    0  0.00000000000E+00  0.00000000000E+00 -0.63221819844E+03  0.91927418048E+03  0.66735685241E+03 0.  0.
        5    1    3    3  502    0 -0.22589148577E+03 -0.13344287016E+03 -0.60003562736E+03  0.65490366242E+03  0.46999998093E+01 0.  1.
       -5    1    3    3    0  502  0.22589148577E+03  0.13344287016E+03 -0.32182571074E+02  0.26437051806E+03  0.46999998093E+01 0. -1.
</event>
<event>
 5   0  0.6248886E-02  0.6998194E+03  0.7818609E-02  0.9717541E-01
        2   -1    0    0  501    0  0.00000000000E+00  0.00000000000E+00  0.68535742607E+03  0.68535742608E+03  0.25500000920E-02 0.  1.
       -2   -1    0    0    0  501  0.00000000000E+00  0.00000000000E+00 -0.17864663734E+03  0.17864663736E+03  0.25500000920E-02 0. -1.
    10030    2    1    2    0    0  0.00000000000E+00  0.00000000000E+00  0.50671078873E+03  0.86400406344E+03  0.69981940400E+03 0.  0.
        3    1    3    3  502    0 -0.17575735683E+03 -0.16782194250E+03 -0.57467182681E+02  0.24971451730E+03  0.10100000352E+00 0. -1.
       -3    1    3    3    0  502  0.17575735683E+03  0.16782194250E+03  0.56417797141E+03  0.61428954614E+03  0.10100000352E+00 0.  1.
</event>
<event>
 5   0  0.3749730E-02  0.6960344E+03  0.7818609E-02  0.9724038E-01
        1   -1    0    0  501    0  0.00000000000E+00  0.00000000000E+00  0.53523997533E+03  0.53523997536E+03  0.50400001928E-02 0. -1.
       -1   -1    0    0    0  501  0.00000000000E+00  0.00000000000E+00 -0.22628347255E+03  0.22628347261E+03  0.50400001928E-02 0.  1.
    10030    2    1    2    0    0  0.00000000000E+00  0.00000000000E+00  0.30895650278E+03  0.76152344797E+03  0.69603436782E+03 0.  0.
        4    1    3    3  502    0  0.10486655463E+03  0.24731187136E+03  0.39655191158E+03  0.47897305505E+03  0.12699999809E+01 0. -1.
       -4    1    3    3    0  502 -0.10486655463E+03 -0.24731187136E+03 -0.87595408795E+02  0.28255039291E+03  0.12699999809E+01 0.  1.
</event>
<event>
 5   0  0.3439015E-02  0.6878546E+03  0.7818609E-02  0.9738231E-01
       -1   -1    0    0    0  501  0.00000000000E+00  0.00000000000E+00  0.36533818332E+03  0.36533818335E+03  0.50400001928E-02 0. -1.
        1   -1    0    0  501    0  0.00000000000E+00  0.00000000000E+00 -0.32377126031E+03  0.32377126035E+03  0.50400001928E-02 0.  1.
    10030    2    1    2    0    0  0.00000000000E+00  0.00000000000E+00  0.41566923012E+02  0.68910944370E+03  0.68785464766E+03 0.  0.
        1    1    3    3  502    0  0.51529151026E+02  0.27802093764E+03  0.21693416773E+03  0.35638648730E+03  0.50400001928E-02 0. -1.
       -1    1    3    3    0  502 -0.51529151026E+02 -0.27802093764E+03 -0.17536724471E+03  0.33272295640E+03  0.50400001928E-02 0.  1.
</event>
<event>
 5   0  0.3439015E-02  0.8303532E+03  0.7818609E-02  0.9517092E-01
        1   -1    0    0  501    0  0.00000000000E+00  0.00000000000E+00  0.12654640159E+04  0.12654640159E+04  0.50400001928E-02 0. -1.
       -1   -1    0    0    0  501  0.00000000000E+00  0.00000000000E+00 -0.13621217357E+03  0.13621217366E+03  0.50400001928E-02 0.  1.
    10030    2    1    2    0    0  0.00000000000E+00  0.00000000000E+00  0.11292518424E+04  0.14016761896E+04  0.83035318812E+03 0.  0.
        1    1    3    3  502    0  0.34955813470E+03  0.22397153576E+03  0.55757119973E+03  0.69515450165E+03  0.50400001928E-02 0.  1.
       -1    1    3    3    0  502 -0.34955813470E+03 -0.22397153576E+03  0.57168064264E+03  0.70652168796E+03  0.50400001928E-02 0. -1.
</event>
<event>
 5   0  0.5987810E-02  0.6732875E+03  0.7818609E-02  0.9764037E-01
       -2   -1    0    0    0  501  0.00000000000E+00  0.00000000000E+00  0.16091211788E+03  0.16091211790E+03  0.25500000920E-02 0. -1.
        2   -1    0    0  501    0  0.00000000000E+00  0.00000000000E+00 -0.70429133356E+03  0.70429133356E+03  0.25500000920E-02 0.  1.
    10030    2    1    2    0    0  0.00000000000E+00  0.00000000000E+00 -0.54337921567E+03  0.86520345146E+03  0.67328748718E+03 0.  0.
        5    1    3    3  502    0 -0.13556776467E+03 -0.14670532603E+03  0.76473725561E+02  0.21394249742E+03  0.46999998093E+01 0. -1.
       -5    1    3    3    0  502  0.13556776467E+03  0.14670532603E+03 -0.61985294123E+03  0.65126095404E+03  0.46999998093E+01 0.  1.
</event>
<event>
 5   0  0.6131198E-02  0.7005882E+03  0.7818609E-02  0.9716227E-01
        2   -1    0    0  501    0  0.00000000000E+00  0.00000000000E+00  0.22874857927E+03  0.22874857928E+03  0.25500000920E-02 0. -1.
       -2   -1    0    0    0  501  0.00000000000E+00  0.00000000000E+00 -0.53642276821E+03  0.53642276822E+03  0.25500000920E-02 0.  1.
    10030    2    1    2    0    0  0.00000000000E+00  0.00000000000E+00 -0.30767418894E+03  0.76517134750E+03  0.70058817039E+03 0.  0.
        1    1    3    3  502    0  0.77717343898E+02 -0.19274507739E+03 -0.46181618944E+03  0.50642358086E+03  0.50400001928E-02 0.  1.
       -1    1    3    3    0  502 -0.77717343898E+02  0.19274507739E+03  0.15414200049E+03  0.25874776664E+03  0.50400001928E-02 0. -1.
</event>
<event>
 5   0  0.3717372E-02  0.6977577E+03  0.7818609E-02  0.9721074E-01
        1   -1    0    0  501    0  0.00000000000E+00  0.00000000000E+00  0.46722439512E+03  0.46722439515E+03  0.50400001928E-02 0. -1.
       -1   -1    0    0    0  501  0.00000000000E+00  0.00000000000E+00 -0.26050964677E+03  0.26050964682E+03  0.50400001928E-02 0.  1.
    10030    2    1    2    0    0  0.00000000000E+00  0.00000000000E+00  0.20671474835E+03  0.72773404197E+03  0.69775772920E+03 0.  0.
        3    1    3    3  502    0 -0.13100200444E+03  0.10292104007E+02 -0.23371268463E+03  0.26812139365E+03  0.10100000352E+00 0.  1.
       -3    1    3    3    0  502  0.13100200444E+03 -0.10292104007E+02  0.44042743298E+03  0.45961264832E+03  0.10100000352E+00 0. -1.
</event>
<event>
 5   0  0.3717372E-02  0.7317799E+03  0.7818609E-02  0.9664377E-01
        1   -1    0    0  501    0  0.00000000000E+00  0.00000000000E+00  0.97858361171E+03  0.97858361173E+03  0.50400001928E-02 0. -1.
       -1   -1    0    0    0  501  0.00000000000E+00  0.00000000000E+00 -0.13680531431E+03  0.13680531440E+03  0.50400001928E-02 0.  1.
    10030    2    1    2    0    0  0.00000000000E+00  0.00000000000E+00  0.84177829741E+03  0.11153889261E+04  0.73177985388E+03 0.  0.
        3    1    3    3  502    0 -0.56972550608E+01 -0.29877593478E+03  0.74269652222E+03  0.80056083607E+03  0.10100000352E+00 0. -1.
       -3    1    3    3    0  502  0.56972550608E+01  0.29877593478E+03  0.99081775180E+02  0.31482809006E+03  0.10100000352E+00 0.  1.
</event>
<event>
 5   0  0.6131198E-02  0.6958036E+03  0.7818609E-02  0.9724436E-01
        2   -1    0    0  501    0  0.00000000000E+00  0.00000000000E+00  0.29869855729E+03  0.29869855730E+03  0.25500000920E-02 0. -1.
       -2   -1    0    0    0  501  0.00000000000E+00  0.00000000000E+00 -0.40521004203E+03  0.40521004204E+03  0.25500000920E-02 0.  1.
    10030    2    1    2    0    0  0.00000000000E+00  0.00000000000E+00 -0.10651148475E+03  0.70390859934E+03  0.69580357849E+03 0.  0.
        1    1    3    3  502    0 -0.26047638100E+03  0.74453684281E+02 -0.27407419182E+03  0.38536730376E+03  0.50400001928E-02 0.  1.
       -1    1    3    3    0  502  0.26047638100E+03 -0.74453684281E+02  0.16756270707E+03  0.31854129558E+03  0.50400001928E-02 0. -1.
</event>
<event>
 5   0  0.3439015E-02  0.6958074E+03  0.7818609E-02  0.9724429E-01
        1   -1    0    0  501    0  0.00000000000E+00  0.00000000000E+00  0.81597697221E+03  0.81597697222E+03  0.50400001928E-02 0. -1.
       -1   -1    0    0    0  501  0.00000000000E+00  0.00000000000E+00 -0.14833382425E+03  0.14833382433E+03  0.50400001928E-02 0.  1.
    10030    2    1    2    0    0  0.00000000000E+00  0.00000000000E+00  0.66764314796E+03  0.96431079656E+03  0.69580740104E+03 0.  0.
        1    1    3    3  502    0  0.47791510866E+02 -0.11643879880E+03  0.78331718628E+03  0.79336488247E+03  0.50400001928E-02 0. -1.
       -1    1    3    3    0  502 -0.47791510866E+02  0.11643879880E+03 -0.11567403832E+03  0.17094591409E+03  0.50400001928E-02 0.  1.
</event>
<event>
 5   0  0.3755872E-02  0.6988634E+03  0.7818609E-02  0.9719178E-01
        1   -1    0    0  501    0  0.00000000000E+00  0.00000000000E+00  0.11095595450E+04  0.11095595450E+04  0.50400001928E-02 0. -1.
       -1   -1    0    0    0  501  0.00000000000E+00  0.00000000000E+00 -0.11004593965E+03  0.11004593977E+03  0.50400001928E-02 0.  1.
    10030    2    1    2    0    0  0.00000000000E+00  0.00000000000E+00  0.99951360534E+03  0.12196054848E+04  0.69886342816E+03 0.  0.
        2    1    3    3  502    0 -0.21584998487E+03  0.14227050919E+03  0.89483371090E+02  0.27356788456E+03  0.25500000920E-02 0.  1.
       -2    1    3    3    0  502  0.21584998487E+03 -0.14227050919E+03  0.91003023425E+03  0.94603760021E+03  0.25500000920E-02 0. -1.
</event>
<event>
 5   0  0.3749730E-02  0.6960956E+03  0.7818609E-02  0.9723933E-01
       -1   -1    0    0    0  501  0.00000000000E+00  0.00000000000E+00  0.97625823284E+03  0.97625823285E+03  0.50400001928E-02 0.  1.
        1   -1    0    0  501    0  0.00000000000E+00  0.00000000000E+00 -0.12408323465E+03  0.12408323475E+03  0.50400001928E-02 0. -1.
    10030    2    1    2    0    0  0.00000000000E+00  0.00000000000E+00  0.85217499819E+03  0.11003414676E+04  0.69609562402E+03 0.  0.
        4    1    3    3  502    0  0.27099600517E+03 -0.60888742907E+02  0.94550074312E+02  0.29340689032E+03  0.12699999809E+01 0. -1.
       -4    1    3    3    0  502 -0.27099600517E+03  0.60888742907E+02  0.75762492388E+03  0.80693457729E+03  0.12699999809E+01 0.  1.
</event>
<event>
 5   0  0.3755872E-02  0.7209448E+03  0.7818609E-02  0.9682069E-01
       -1   -1    0    0    0  501  0.00000000000E+00  0.00000000000E+00  0.13778688819E+03  0.13778688828E+03  0.50400001928E-02 0.  1.
        1   -1    0    0  501    0  0.00000000000E+00  0.00000000000E+00 -0.94305317594E+03  0.94305317595E+03  0.50400001928E-02 0. -1.
    10030    2    1    2    0    0  0.00000000000E+00  0.00000000000E+00 -0.80526628775E+03  0.10808400642E+04  0.72094483163E+03 0.  0.
        2    1    3    3  502    0  0.14902231914E+03 -0.31288483662E+03 -0.55131707157E+03  0.65119512129E+03  0.25500000920E-02 0. -1.
       -2    1    3    3    0  502 -0.14902231914E+03  0.31288483662E+03 -0.25394921618E+03  0.42964494294E+03  0.25500000920E-02 0.  1.
</event>
<event>
 5   0  0.3439015E-02  0.4423316E+03  0.7818609E-02  0.1030034E+00
        1   -1    0    0  501    0  0.00000000000E+00  0.00000000000E+00  0.11203435838E+03  0.11203435849E+03  0.50400001928E-02 0.  1.
       -1   -1    0    0    0  501  0.00000000000E+00  0.00000000000E+00 -0.43660106844E+03  0.43660106847E+03  0.50400001928E-02 0. -1.
    10030    2    1    2    0    0  0.00000000000E+00  0.00000000000E+00 -0.32456671006E+03  0.54863542696E+03  0.44233164305E+03 0.  0.
        1    1    3    3  502    0  0.19564463179E+03  0.99369662159E+02 -0.19654799438E+03  0.29458829886E+03  0.50400001928E-02 0. -1.
       -1    1    3    3    0  502 -0.19564463179E+03 -0.99369662159E+02 -0.12801871568E+03  0.25404712810E+03  0.50400001928E-02 0.  1.
</event>
<event>
 5   0  0.3717372E-02  0.7043540E+03  0.7818609E-02  0.9709815E-01
        1   -1    0    0  501    0  0.00000000000E+00  0.00000000000E+00  0.41645043468E+03  0.41645043471E+03  0.50400001928E-02 0.  1.
       -1   -1    0    0    0  501  0.00000000000E+00  0.00000000000E+00 -0.29782327249E+03  0.29782327253E+03  0.50400001928E-02 0. -1.
    10030    2    1    2    0    0  0.00000000000E+00  0.00000000000E+00  0.11862716219E+03  0.71427370724E+03  0.70435397724E+03 0.  0.
        3    1    3    3  502    0 -0.86419450422E+02  0.14616246008E+03  0.37219872819E+03  0.40910107506E+03  0.10100000352E+00 0.  1.
       -3    1    3    3    0  502  0.86419450422E+02 -0.14616246008E+03 -0.25357156600E+03  0.30517263218E+03  0.10100000352E+00 0. -1.
</event>
<event>
 5   0  0.3749730E-02  0.7145187E+03  0.7818609E-02  0.9692720E-01
        1   -1    0    0  501    0  0.00000000000E+00  0.00000000000E+00  0.33792799241E+03  0.33792799244E+03  0.50400001928E-02 0. -1.
       -1   -1    0    0    0  501  0.00000000000E+00  0.00000000000E+00 -0.37769660408E+03  0.37769660412E+03  0.50400001928E-02 0.  1.
    10030    2    1    2    0    0  0.00000000000E+00  0.00000000000E+00 -0.39768611679E+02  0.71562459656E+03  0.71451873365E+03 0.  0.
        4    1    3    3  502    0  0.33026443160E+03  0.53072182599E+02 -0.14554318791E+03  0.36479539991E+03  0.12699999809E+01 0. -1.
       -4    1    3    3    0  502 -0.33026443160E+03 -0.53072182599E+02  0.10577457623E+03  0.35082919665E+03  0.12699999809E+01 0.  1.
</event>
<event>
 5   0  0.6248886E-02  0.6964757E+03  0.7818609E-02  0.9723278E-01
        2   -1    0    0  501    0  0.00000000000E+00  0.00000000000E+00  0.23206183343E+04  0.23206183343E+04  0.25500000920E-02 0. -1.
       -2   -1    0    0    0  501  0.00000000000E+00  0.00000000000E+00 -0.52257456142E+02  0.52257456204E+02  0.25500000920E-02 0.  1.
    10030    2    1    2    0    0  0.00000000000E+00  0.00000000000E+00  0.22683608781E+04  0.23728757905E+04  0.69647573080E+03 0.  0.
        3    1    3    3  502    0 -0.24968257862E+03 -0.10366694745E+02  0.30788706915E+03  0.39653917332E+03  0.10100000352E+00 0.  1.
       -3    1    3    3    0  502  0.24968257862E+03  0.10366694745E+02  0.19604738090E+04  0.19763366171E+04  0.10100000352E+00 0. -1.
</event>
<event>
 5   0  0.3755872E-02  0.7126952E+03  0.7818609E-02  0.9695765E-01
       -1   -1    0    0    0  501  0.00000000000E+00  0.00000000000E+00  0.26581769627E+03  0.26581769632E+03  0.50400001928E-02 0.  1.
        1   -1    0    0  501    0  0.00000000000E+00  0.00000000000E+00 -0.47770945117E+03  0.47770945119E+03  0.50400001928E-02 0. -1.
    10030    2    1    2    0    0  0.00000000000E+00  0.00000000000E+00 -0.21189175489E+03  0.74352714751E+03  0.71269523872E+03 0.  0.
        2    1    3    3  502    0  0.15926395581E+03 -0.31646536238E+03 -0.65969882656E+02  0.36037114011E+03  0.25500000920E-02 0.  1.
       -2    1    3    3    0  502 -0.15926395581E+03  0.31646536238E+03 -0.14592187224E+03  0.38315600740E+03  0.25500000920E-02 0. -1.
</event>
<event>
 5   0  0.3717372E-02  0.6948790E+03  0.7818609E-02  0.9726030E-01
        1   -1    0    0  501    0  0.00000000000E+00  0.00000000000E+00  0.59475212470E+03  0.59475212472E+03  0.50400001928E-02 0. -1.
       -1   -1    0    0    0  501  0.00000000000E+00  0.00000000000E+00 -0.20296559340E+03  0.20296559346E+03  0.50400001928E-02 0.  1.
    10030    2    1    2    0    0  0.00000000000E+00  0.00000000000E+00  0.39178653130E+03  0.79771771818E+03  0.69487903393E+03 0.  0.
        3    1    3    3  502    0 -0.31081381950E+03  0.12163954319E+03  0.85108474795E+02  0.34444864863E+03  0.10100000352E+00 0. -1.
       -3    1    3    3    0  502  0.31081381950E+03 -0.12163954319E+03  0.30667805650E+03  0.45326906954E+03  0.10100000352E+00 0.  1.
</event>
<event>
 5   0  0.2439375E-02  0.6895252E+03  0.7818609E-02  0.9735315E-01
        4   -1    0    0  501    0  0.00000000000E+00  0.00000000000E+00  0.25476354304E+03  0.25476670851E+03  0.12699999809E+01 0. -1.
       -4   -1    0    0    0  501  0.00000000000E+00  0.00000000000E+00 -0.46654827528E+03  0.46655000383E+03  0.12699999809E+01 0.  1.
    10030    2    1    2    0    0  0.00000000000E+00  0.00000000000E+00 -0.21178473224E+03  0.72131671233E+03  0.68952521831E+03 0.  0.
        1    1    3    3  502    0  0.19105005266E+02 -0.28354051627E+03  0.98302211038E+02  0.30070508861E+03  0.50400001928E-02 0. -1.
       -1    1    3    3    0  502 -0.19105005266E+02  0.28354051627E+03 -0.31008694328E+03  0.42061162372E+03  0.50400001928E-02 0.  1.
</event>
<event>
 5   0  0.6131198E-02  0.6958153E+03  0.7818609E-02  0.9724416E-01
        2   -1    0    0  501    0  0.00000000000E+00  0.00000000000E+00  0.40950605110E+03  0.40950605111E+03  0.25500000920E-02 0.  1.
       -2   -1    0    0    0  501  0.00000000000E+00  0.00000000000E+00 -0.29557493371E+03  0.29557493372E+03  0.25500000920E-02 0. -1.
    10030    2    1    2    0    0  0.00000000000E+00  0.00000000000E+00  0.11393111739E+03  0.70508098483E+03  0.69581527409E+03 0.  0.
        1    1    3    3  502    0 -0.20851418513E+03  0.30812382112E+02 -0.22350926622E+03  0.30721972659E+03  0.50400001928E-02 0. -1.
       -1    1    3    3    0  502  0.20851418513E+03 -0.30812382112E+02  0.33744038361E+03  0.39786125824E+03  0.50400001928E-02 0.  1.
</event>
<event>
 5   0  0.2439375E-02  0.6917588E+03  0.7818609E-02  0.9731430E-01
        3   -1    0    0  501    0  0.00000000000E+00  0.00000000000E+00  0.14170953980E+03  0.14170957579E+03  0.10100000352E+00 0.  1.
       -3   -1    0    0    0  501  0.00000000000E+00  0.00000000000E+00 -0.84420951146E+03  0.84420951751E+03  0.10100000352E+00 0. -1.
    10030    2    1    2    0    0  0.00000000000E+00  0.00000000000E+00 -0.70249997166E+03  0.98591909330E+03  0.69175880793E+03 0.  0.
        4    1    3    3  502    0 -0.10822726290E+03  0.31447675842E+03 -0.21587380584E+03  0.39649953968E+03  0.12699999809E+01 0. -1.
       -4    1    3    3    0  502  0.10822726290E+03 -0.31447675842E+03 -0.48662616583E+03  0.58941955362E+03  0.12699999809E+01 0.  1.
</event>
<event>
 5   0  0.3439015E-02  0.7255709E+03  0.7818609E-02  0.9674475E-01
        1   -1    0    0  501    0  0.00000000000E+00  0.00000000000E+00  0.22957366691E+03  0.22957366697E+03  0.50400001928E-02 0. -1.
       -1   -1    0    0    0  501  0.00000000000E+00  0.00000000000E+00 -0.57329438743E+03  0.57329438745E+03  0.50400001928E-02 0.  1.
    10030    2    1    2    0    0  0.00000000000E+00  0.00000000000E+00 -0.34372072052E+03  0.80286805442E+03  0.72557093319E+03 0.  0.
        1    1    3    3  502    0 -0.61213325201E+02 -0.17359590723E+03  0.17406290529E+03  0.25333871638E+03  0.50400001928E-02 0. -1.
       -1    1    3    3    0  502  0.61213325201E+02  0.17359590723E+03 -0.51778362581E+03  0.54952933805E+03  0.50400001928E-02 0.  1.
</event>
<event>
 5   0  0.5899787E-02  0.7346444E+03  0.7818609E-02  0.9659754E-01
       -2   -1    0    0    0  501  0.00000000000E+00  0.00000000000E+00  0.22896999154E+03  0.22896999156E+03  0.25500000920E-02 0.  1.
        2   -1    0    0  501    0  0.00000000000E+00  0.00000000000E+00 -0.58927196022E+03  0.58927196023E+03  0.25500000920E-02 0. -1.
    10030    2    1    2    0    0  0.00000000000E+00  0.00000000000E+00 -0.36030196868E+03  0.81824195178E+03  0.73464439222E+03 0.  0.
        2    1    3    3  502    0  0.51347643389E+02  0.26604050552E+03  0.96086498960E+02  0.28748347144E+03  0.25500000920E-02 0.  1.
       -2    1    3    3    0  502 -0.51347643389E+02 -0.26604050552E+03 -0.45638846764E+03  0.53075848035E+03  0.25500000920E-02 0. -1.
</event>
<event>
 5   0  0.3601475E-02  0.6766670E+03  0.7818609E-02  0.9757988E-01
        1   -1    0    0  501    0  0.00000000000E+00  0.00000000000E+00  0.22499652796E+03  0.22499652801E+03  0.50400001928E-02 0. -1.
       -1   -1    0    0    0  501  0.00000000000E+00  0.00000000000E+00 -0.50876149376E+03  0.50876149378E+03  0.50400001928E-02 0.  1.
    10030    2    1    2    0    0  0.00000000000E+00  0.00000000000E+00 -0.28376496580E+03  0.73375802180E+03  0.67666703683E+03 0.  0.
        5    1    3    3  502    0 -0.13482678978E+03 -0.71080506376E+02 -0.46938542476E+03  0.49353365498E+03  0.46999998093E+01 0.  1.
       -5    1    3    3    0  502  0.13482678978E+03  0.71080506376E+02  0.18562045896E+03  0.24022436681E+03  0.46999998093E+01 0. -1.
</event>
<event>
 5   0  0.3749730E-02  0.7010367E+03  0.7818609E-02  0.9715461E-01
        1   -1    0    0  501    0  0.00000000000E+00  0.00000000000E+00  0.40137695473E+03  0.40137695476E+03  0.50400001928E-02 0.  1.
       -1   -1    0    0    0  501  0.00000000000E+00  0.00000000000E+00 -0.30610402834E+03  0.30610402838E+03  0.50400001928E-02 0. -1.
    10030    2    1    2    0    0  0.00000000000E+00  0.00000000000E+00  0.95272926392E+02  0.70748098314E+03  0.70103666880E+03 0.  0.
        4    1    3    3  502    0  0.12298061851E+03  0.32077266791E+03 -0.22588784967E+02  0.34428360855E+03  0.12699999809E+01 0. -1.
       -4    1    3    3    0  502 -0.12298061851E+03 -0.32077266791E+03  0.11786171136E+03  0.36319737459E+03  0.12699999809E+01 0.  1.
</event>
<event>
 5   0  0.3439015E-02  0.7430578E+03  0.7818609E-02  0.9646305E-01
       -1   -1    0    0    0  501  0.00000000000E+00  0.00000000000E+00  0.19440600202E+03  0.19440600209E+03  0.50400001928E-02 0.  1.
        1   -1    0    0  501    0  0.00000000000E+00  0.00000000000E+00 -0.71002810658E+03  0.71002810659E+03  0.50400001928E-02 0. -1.
    10030    2    1    2    0    0  0.00000000000E+00  0.00000000000E+00 -0.51562210456E+03  0.90443410868E+03  0.74305780545E+03 0.  0.
        1    1    3    3  502    0  0.30146182070E+03  0.11887597813E+03 -0.36622533119E+02  0.32611644772E+03  0.50400001928E-02 0.  1.
       -1    1    3    3    0  502 -0.30146182070E+03 -0.11887597813E+03 -0.47899957144E+03  0.57831766096E+03  0.50400001928E-02 0. -1.
</event>
<event>
 5   0  0.2439375E-02  0.6676146E+03  0.7818609E-02  0.9774277E-01
       -3   -1    0    0    0  501  0.00000000000E+00  0.00000000000E+00  0.78531422314E+03  0.78531422963E+03  0.10100000352E+00 0. -1.
        3   -1    0    0  501    0  0.00000000000E+00  0.00000000000E+00 -0.14188880383E+03  0.14188883978E+03  0.10100000352E+00 0.  1.
    10030    2    1    2    0    0  0.00000000000E+00  0.00000000000E+00  0.64342541931E+03  0.92720306941E+03  0.66761460567E+03 0.  0.
        2    1    3    3  502    0  0.17613288365E+03  0.71774239772E+02 -0.59274929984E+02  0.19921810040E+03  0.25500000920E-02 0.  1.
       -2    1    3    3    0  502 -0.17613288365E+03 -0.71774239772E+02  0.70270034929E+03  0.72798496900E+03  0.25500000920E-02 0. -1.
</event>
<event>
 5   0  0.6248886E-02  0.6114090E+03  0.7818609E-02  0.9882015E-01
       -2   -1    0    0    0  501  0.00000000000E+00  0.00000000000E+00  0.15333862445E+03  0.15333862447E+03  0.25500000920E-02 0.  1.
        2   -1    0    0  501    0  0.00000000000E+00  0.00000000000E+00 -0.60946970706E+03  0.60946970706E+03  0.25500000920E-02 0. -1.
    10030    2    1    2    0    0  0.00000000000E+00  0.00000000000E+00 -0.45613108261E+03  0.76280833154E+03  0.61140901706E+03 0.  0.
        3    1    3    3  502    0  0.60290937658E+02 -0.29526043085E+03 -0.16394306210E+03  0.34306130210E+03  0.10100000352E+00 0.  1.
       -3    1    3    3    0  502 -0.60290937658E+02  0.29526043085E+03 -0.29218802051E+03  0.41974702943E+03  0.10100000352E+00 0. -1.
</event>
<event>
 5   0  0.6167756E-02  0.6909568E+03  0.7818609E-02  0.9732823E-01
        2   -1    0    0  501    0  0.00000000000E+00  0.00000000000E+00  0.79715944304E+03  0.79715944305E+03  0.25500000920E-02 0. -1.
       -2   -1    0    0    0  501  0.00000000000E+00  0.00000000000E+00 -0.14972578896E+03  0.14972578898E+03  0.25500000920E-02 0.  1.
    10030    2    1    2    0    0  0.00000000000E+00  0.00000000000E+00  0.64743365409E+03  0.94688523203E+03  0.69095680486E+03 0.  0.
        4    1    3    3  502    0 -0.84259926743E+02 -0.22350013787E+02  0.78183642179E+03  0.78668231308E+03  0.12699999809E+01 0. -1.
       -4    1    3    3    0  502  0.84259926743E+02  0.22350013787E+02 -0.13440276771E+03  0.16020291895E+03  0.12699999809E+01 0.  1.
</event>
<event>
 5   0  0.3749730E-02  0.7009995E+03  0.7818609E-02  0.9715524E-01
       -1   -1    0    0    0  501  0.00000000000E+00  0.00000000000E+00  0.16793941444E+03  0.16793941452E+03  0.50400001928E-02 0. -1.
        1   -1    0    0  501    0  0.00000000000E+00  0.00000000000E+00 -0.73151420555E+03  0.73151420557E+03  0.50400001928E-02 0.  1.
    10030    2    1    2    0    0  0.00000000000E+00  0.00000000000E+00 -0.56357479111E+03  0.89945362009E+03  0.70099947897E+03 0.  0.
        4    1    3    3  502    0  0.34820414334E+03 -0.36954897265E+02 -0.26204827780E+03  0.43735878025E+03  0.12699999809E+01 0. -1.
       -4    1    3    3    0  502 -0.34820414334E+03  0.36954897265E+02 -0.30152651331E+03  0.46209483983E+03  0.12699999809E+01 0.  1.
</event>
<event>
 5   0  0.3717372E-02  0.6646298E+03  0.7818609E-02  0.9779708E-01
        1   -1    0    0  501    0  0.00000000000E+00  0.00000000000E+00  0.87572500686E+03  0.87572500687E+03  0.50400001928E-02 0. -1.
       -1   -1    0    0    0  501  0.00000000000E+00  0.00000000000E+00 -0.12610489244E+03  0.12610489254E+03  0.50400001928E-02 0.  1.
    10030    2    1    2    0    0  0.00000000000E+00  0.00000000000E+00  0.74962011442E+03  0.10018298994E+04  0.66462984541E+03 0.  0.
        3    1    3    3  502    0  0.19019748401E+03 -0.23148209299E+03  0.59154455170E+03  0.66308672822E+03  0.10100000352E+00 0.  1.
       -3    1    3    3    0  502 -0.19019748401E+03  0.23148209299E+03  0.15807556272E+03  0.33874317119E+03  0.10100000352E+00 0. -1.
</event>
<event>
 5   0  0.6248886E-02  0.7161094E+03  0.7818609E-02  0.9690073E-01
       -2   -1    0    0    0  501  0.00000000000E+00  0.00000000000E+00  0.24448456404E+03  0.24448456405E+03  0.25500000920E-02 0.  1.
        2   -1    0    0  501    0  0.00000000000E+00  0.00000000000E+00 -0.52438149260E+03  0.52438149261E+03  0.25500000920E-02 0. -1.
    10030    2    1    2    0    0  0.00000000000E+00  0.00000000000E+00 -0.27989692856E+03  0.76886605666E+03  0.71610943470E+03 0.  0.
        3    1    3    3  502    0  0.14838424513E+03  0.15648565962E+03  0.16693659239E+03  0.27271501966E+03  0.10100000352E+00 0.  1.
       -3    1    3    3    0  502 -0.14838424513E+03 -0.15648565962E+03 -0.44683352095E+03  0.49615103700E+03  0.10100000352E+00 0. -1.
</event>
<event>
 5   0  0.3755872E-02  0.6815788E+03  0.7818609E-02  0.9749264E-01
       -1   -1    0    0    0  501  0.00000000000E+00  0.00000000000E+00  0.34708814597E+03  0.34708814601E+03  0.50400001928E-02 0. -1.
        1   -1    0    0  501    0  0.00000000000E+00  0.00000000000E+00 -0.33460496000E+03  0.33460496004E+03  0.50400001928E-02 0.  1.
    10030    2    1    2    0    0  0.00000000000E+00  0.00000000000E+00  0.12483185976E+02  0.68169310605E+03  0.68157880021E+03 0.  0.
        2    1    3    3  502    0  0.15531437753E+03  0.17070164602E+03  0.25703413404E+03  0.34543907406E+03  0.25500000920E-02 0. -1.
       -2    1    3    3    0  502 -0.15531437753E+03 -0.17070164602E+03 -0.24455094806E+03  0.33625403198E+03  0.25500000920E-02 0.  1.
</event>
<event>
 5   0  0.6248886E-02  0.6941353E+03  0.7818609E-02  0.9727315E-01
       -2   -1    0    0    0  501  0.00000000000E+00  0.00000000000E+00  0.26162436595E+03  0.26162436596E+03  0.25500000920E-02 0. -1.
        2   -1    0    0  501    0  0.00000000000E+00  0.00000000000E+00 -0.46041560326E+03  0.46041560326E+03  0.25500000920E-02 0.  1.
    10030    2    1    2    0    0  0.00000000000E+00  0.00000000000E+00 -0.19879123731E+03  0.72203996923E+03  0.69413526141E+03 0.  0.
        3    1    3    3  502    0 -0.18926692578E+03  0.79581584511E+02 -0.39046736008E+03  0.44115753113E+03  0.10100000352E+00 0.  1.
       -3    1    3    3    0  502  0.18926692578E+03 -0.79581584511E+02  0.19167612277E+03  0.28088243809E+03  0.10100000352E+00 0. -1.
</event>
<event>
 5   0  0.3601475E-02  0.6996176E+03  0.7818609E-02  0.9717886E-01
        1   -1    0    0  501    0  0.00000000000E+00  0.00000000000E+00  0.23741266414E+03  0.23741266419E+03  0.50400001928E-02 0. -1.
       -1   -1    0    0    0  501  0.00000000000E+00  0.00000000000E+00 -0.51541559996E+03  0.51541559998E+03  0.50400001928E-02 0.  1.
    10030    2    1    2    0    0  0.00000000000E+00  0.00000000000E+00 -0.27800293582E+03  0.75282826418E+03  0.69961758341E+03 0.  0.
        5    1    3    3  502    0  0.33426199260E+03 -0.96499313825E+02 -0.10019020817E+03  0.36208198668E+03  0.46999998093E+01 0. -1.
       -5    1    3    3    0  502 -0.33426199260E+03  0.96499313825E+02 -0.17781272764E+03  0.39074627750E+03  0.46999998093E+01 0.  1.
</event>
<event>
 5   0  0.3755872E-02  0.6991534E+03  0.7818609E-02  0.9718681E-01
       -1   -1    0    0    0  501  0.00000000000E+00  0.00000000000E+00  0.49187957554E+03  0.49187957556E+03  0.50400001928E-02 0.  1.
        1   -1    0    0  501    0  0.00000000000E+00  0.00000000000E+00 -0.24844263286E+03  0.24844263292E+03  0.50400001928E-02 0. -1.
    10030    2    1    2    0    0  0.00000000000E+00  0.00000000000E+00  0.24343694267E+03  0.74032220848E+03  0.69915336465E+03 0.  0.
        2    1    3    3  502    0 -0.23701734684E+03 -0.21585479963E+03  0.26933060088E+03  0.41869976093E+03  0.25500000920E-02 0.  1.
       -2    1    3    3    0  502  0.23701734684E+03  0.21585479963E+03 -0.25893658208E+02  0.32162244755E+03  0.25500000920E-02 0. -1.
</event>
<event>
 5   0  0.5987810E-02  0.6487221E+03  0.7818609E-02  0.9809180E-01
       -2   -1    0    0    0  501  0.00000000000E+00  0.00000000000E+00  0.15640647234E+03  0.15640647236E+03  0.25500000920E-02 0.  1.
        2   -1    0    0  501    0  0.00000000000E+00  0.00000000000E+00 -0.67267086235E+03  0.67267086236E+03  0.25500000920E-02 0. -1.
    10030    2    1    2    0    0  0.00000000000E+00  0.00000000000E+00 -0.51626439001E+03  0.82907733472E+03  0.64872205647E+03 0.  0.
        5    1    3    3  502    0 -0.31944190915E+03 -0.33824835476E+02 -0.31529730392E+03  0.45013523821E+03  0.46999998093E+01 0. -1.
       -5    1    3    3    0  502  0.31944190915E+03  0.33824835476E+02 -0.20096708609E+03  0.37894209651E+03  0.46999998093E+01 0.  1.
</event>
<event>
 5   0  0.3439015E-02  0.6885172E+03  0.7818609E-02  0.9737073E-01
       -1   -1    0    0    0  501  0.00000000000E+00  0.00000000000E+00  0.45033427193E+03  0.45033427196E+03  0.50400001928E-02 0. -1.
        1   -1    0    0  501    0  0.00000000000E+00  0.00000000000E+00 -0.26316889188E+03  0.26316889193E+03  0.50400001928E-02 0.  1.
    10030    2    1    2    0    0  0.00000000000E+00  0.00000000000E+00  0.18716538005E+03  0.71350316389E+03  0.68851716420E+03 0.  0.
        1    1    3    3  502    0 -0.11446139463E+03  0.99301157044E+02  0.41391493742E+03  0.44078079143E+03  0.50400001928E-02 0. -1.
       -1    1    3    3    0  502  0.11446139463E+03 -0.99301157044E+02 -0.22674955737E+03  0.27272237246E+03  0.50400001928E-02 0.  1.
</event>
<event>
 5   0  0.3439015E-02  0.7018200E+03  0.7818609E-02  0.9714125E-01
       -1   -1    0    0    0  501  0.00000000000E+00  0.00000000000E+00  0.14142680231E+03  0.14142680240E+03  0.50400001928E-02 0. -1.
        1   -1    0    0  501    0  0.00000000000E+00  0.00000000000E+00 -0.87068248641E+03  0.87068248642E+03  0.50400001928E-02 0.  1.
    10030    2    1    2    0    0  0.00000000000E+00  0.00000000000E+00 -0.72925568410E+03  0.10121092888E+04  0.70182003373E+03 0.  0.
        1    1    3    3  502    0 -0.16781144234E+03  0.26184368199E+03 -0.13024418045E+03  0.33717405082E+03  0.50400001928E-02 0. -1.
       -1    1    3    3    0  502  0.16781144234E+03 -0.26184368199E+03 -0.59901150364E+03  0.67493523801E+03  0.50400001928E-02 0.  1.
</event>
<event>
 5   0  0.6248886E-02  0.7014552E+03  0.7818609E-02  0.9714747E-01
       -2   -1    0    0    0  501  0.00000000000E+00  0.00000000000E+00  0.83136191948E+02  0.83136191987E+02  0.25500000920E-02 0.  1.
        2   -1    0    0  501    0  0.00000000000E+00  0.00000000000E+00 -0.14796184721E+04  0.14796184721E+04  0.25500000920E-02 0. -1.
    10030    2    1    2    0    0  0.00000000000E+00  0.00000000000E+00 -0.13964822802E+04  0.15627546641E+04  0.70145518842E+03 0.  0.
        3    1    3    3  502    0  0.27930578799E+03 -0.11196799900E+03 -0.10996377372E+04  0.11400665416E+04  0.10100000352E+00 0. -1.
       -3    1    3    3    0  502 -0.27930578799E+03  0.11196799900E+03 -0.29684454293E+03  0.42268812246E+03  0.10100000352E+00 0.  1.
</event>
<event>
 5   0  0.3755872E-02  0.7089140E+03  0.7818609E-02  0.9702108E-01
       -1   -1    0    0    0  501  0.00000000000E+00  0.00000000000E+00  0.15814358635E+03  0.15814358643E+03  0.50400001928E-02 0.  1.
        1   -1    0    0  501    0  0.00000000000E+00  0.00000000000E+00 -0.79446643011E+03  0.79446643013E+03  0.50400001928E-02 0. -1.
    10030    2    1    2    0    0  0.00000000000E+00  0.00000000000E+00 -0.63632284376E+03  0.95261001656E+03  0.70891401605E+03 0.  0.
        2    1    3    3  502    0  0.17040868727E+03 -0.17318402650E+03 -0.66496581568E+03  0.70796282655E+03  0.25500000920E-02 0. -1.
       -2    1    3    3    0  502 -0.17040868727E+03  0.17318402650E+03  0.28642971924E+02  0.24464719001E+03  0.25500000920E-02 0.  1.
</event>
<event>
 5   0  0.3439015E-02  0.6858374E+03  0.7818609E-02  0.9741763E-01
       -1   -1    0    0    0  501  0.00000000000E+00  0.00000000000E+00  0.20827888289E+03  0.20827888295E+03  0.50400001928E-02 0.  1.
        1   -1    0    0  501    0  0.00000000000E+00  0.00000000000E+00 -0.56459507411E+03  0.56459507413E+03  0.50400001928E-02 0. -1.
    10030    2    1    2    0    0  0.00000000000E+00  0.00000000000E+00 -0.35631619122E+03  0.77287395709E+03  0.68583738992E+03 0.  0.
        1    1    3    3  502    0 -0.29565747915E+03 -0.17165864541E+03 -0.14806326468E+03  0.37256243221E+03  0.50400001928E-02 0.  1.
       -1    1    3    3    0  502  0.29565747915E+03  0.17165864541E+03 -0.20825292654E+03  0.40031152488E+03  0.50400001928E-02 0. -1.
</event>
<event>
 5   0  0.5987810E-02  0.5740143E+03  0.7818609E-02  0.9960835E-01
        2   -1    0    0  501    0  0.00000000000E+00  0.00000000000E+00  0.95494931624E+03  0.95494931624E+03  0.25500000920E-02 0. -1.
       -2   -1    0    0    0  501  0.00000000000E+00  0.00000000000E+00 -0.86259150902E+02  0.86259150940E+02  0.25500000920E-02 0.  1.
    10030    2    1    2    0    0  0.00000000000E+00  0.00000000000E+00  0.86869016533E+03  0.10412084672E+04  0.57401434545E+03 0.  0.
        5    1    3    3  502    0 -0.13688237942E+02 -0.17799978516E+03  0.26802041706E+02  0.18058718341E+03  0.46999998093E+01 0.  1.
       -5    1    3    3    0  502  0.13688237942E+02  0.17799978516E+03  0.84188812363E+03  0.86062128377E+03  0.46999998093E+01 0. -1.
</event>
<event>
 5   0  0.3601475E-02  0.5596480E+03  0.7818609E-02  0.9992851E-01
       -1   -1    0    0    0  501  0.00000000000E+00  0.00000000000E+00  0.12731108032E+03  0.12731108042E+03  0.50400001928E-02 0. -1.
        1   -1    0    0  501    0  0.00000000000E+00  0.00000000000E+00 -0.61504051667E+03  0.61504051669E+03  0.50400001928E-02 0.  1.
    10030    2    1    2    0    0  0.00000000000E+00  0.00000000000E+00 -0.48772943635E+03  0.74235159711E+03  0.55964800602E+03 0.  0.
        5    1    3    3  502    0 -0.97688998029E+01  0.13548945049E+03  0.80580742731E+02  0.15801319152E+03  0.46999998093E+01 0. -1.
       -5    1    3    3    0  502  0.97688998029E+01 -0.13548945049E+03 -0.56831017908E+03  0.58433840559E+03  0.46999998093E+01 0.  1.
</event>
<event>
 5   0  0.6248886E-02  0.7310192E+03  0.7818609E-02  0.9665608E-01
        2   -1    0    0  501    0  0.00000000000E+00  0.00000000000E+00  0.50870900290E+03  0.50870900290E+03  0.25500000920E-02 0. -1.
       -2   -1    0    0    0  501  0.00000000000E+00  0.00000000000E+00 -0.26262019443E+03  0.26262019444E+03  0.25500000920E-02 0.  1.
    10030    2    1    2    0    0  0.00000000000E+00  0.00000000000E+00  0.24608880847E+03  0.77132919735E+03  0.73101917145E+03 0.  0.
        3    1    3    3  502    0 -0.15720316921E+03 -0.25042822194E+03  0.34976526861E+03  0.45799878175E+03  0.10100000352E+00 0. -1.
       -3    1    3    3    0  502  0.15720316921E+03  0.25042822194E+03 -0.10367646014E+03  0.31333041560E+03  0.10100000352E+00 0.  1.
</event>
<event>
 5   0  0.3755872E-02  0.6829986E+03  0.7818609E-02  0.9746757E-01
        1   -1    0    0  501    0  0.00000000000E+00  0.00000000000E+00  0.12145598491E+04  0.12145598491E+04  0.50400001928E-02 0. -1.
       -1   -1    0    0    0  501  0.00000000000E+00  0.00000000000E+00 -0.96019776882E+02  0.96019777014E+02  0.50400001928E-02 0.  1.
    10030    2    1    2    0    0  0.00000000000E+00  0.00000000000E+00  0.11185400722E+04  0.13105796261E+04  0.68299858216E+03 0.  0.
        2    1    3    3  502    0 -0.48901512969E+02  0.54174543481E+01  0.12077232928E+04  0.12087250551E+04  0.25500000920E-02 0. -1.
       -2    1    3    3    0  502  0.48901512969E+02 -0.54174543481E+01 -0.89183220640E+02  0.10185457099E+03  0.25500000920E-02 0.  1.
</event>
<event>
 5   0  0.3755872E-02  0.6925837E+03  0.7818609E-02  0.9730000E-01
        1   -1    0    0  501    0  0.00000000000E+00  0.00000000000E+00  0.47946771953E+03  0.47946771956E+03  0.50400001928E-02 0. -1.
       -1   -1    0    0    0  501  0.00000000000E+00  0.00000000000E+00 -0.25010660408E+03  0.25010660413E+03  0.50400001928E-02 0.  1.
    10030    2    1    2    0    0  0.00000000000E+00  0.00000000000E+00  0.22936111546E+03  0.72957432368E+03  0.69258369350E+03 0.  0.
        2    1    3    3  502    0  0.85703897198E+02 -0.11345485456E+02  0.46791719453E+03  0.47583650446E+03  0.25500000920E-02 0. -1.
       -2    1    3    3    0  502 -0.85703897198E+02  0.11345485456E+02 -0.23855607907E+03  0.25373781922E+03  0.25500000920E-02 0.  1.
</event>
<event>
 5   0  0.3439015E-02  0.7005151E+03  0.7818609E-02  0.9716352E-01
       -1   -1    0    0    0  501  0.00000000000E+00  0.00000000000E+00  0.55390443496E+03  0.55390443498E+03  0.50400001928E-02 0.  1.
        1   -1    0    0  501    0  0.00000000000E+00  0.00000000000E+00 -0.22148286267E+03  0.22148286273E+03  0.50400001928E-02 0. -1.
    10030    2    1    2    0    0  0.00000000000E+00  0.00000000000E+00  0.33242157228E+03  0.77538729771E+03  0.70051506746E+03 0.  0.
        1    1    3    3  502    0  0.12361127903E+03  0.18909229562E+03  0.46248456807E+03  0.51471120087E+03  0.50400001928E-02 0.  1.
       -1    1    3    3    0  502 -0.12361127903E+03 -0.18909229562E+03 -0.13006299579E+03  0.26067609685E+03  0.50400001928E-02 0. -1.
</event>
<event>
 5   0  0.3749730E-02  0.6946459E+03  0.7818609E-02  0.9726433E-01
       -1   -1    0    0    0  501  0.00000000000E+00  0.00000000000E+00  0.21404909179E+03  0.21404909185E+03  0.50400001928E-02 0.  1.
        1   -1    0    0  501    0  0.00000000000E+00  0.00000000000E+00 -0.56357736173E+03  0.56357736175E+03  0.50400001928E-02 0. -1.
    10030    2    1    2    0    0  0.00000000000E+00  0.00000000000E+00 -0.34952826994E+03  0.77762645360E+03  0.69464587371E+03 0.  0.
        4    1    3    3  502    0 -0.23797228581E+03  0.24773268229E+03 -0.23216642199E+03  0.41461446077E+03  0.12699999809E+01 0.  1.
       -4    1    3    3    0  502  0.23797228581E+03 -0.24773268229E+03 -0.11736184795E+03  0.36301199283E+03  0.12699999809E+01 0. -1.
</event>
<event>
 5   0  0.5899787E-02  0.7009286E+03  0.7818609E-02  0.9715646E-01
        2   -1    0    0  501    0  0.00000000000E+00  0.00000000000E+00  0.11717501066E+04  0.11717501066E+04  0.25500000920E-02 0. -1.
       -2   -1    0    0    0  501  0.00000000000E+00  0.00000000000E+00 -0.10482202212E+03  0.10482202215E+03  0.25500000920E-02 0.  1.
    10030    2    1    2    0    0  0.00000000000E+00  0.00000000000E+00  0.10669280845E+04  0.12765721288E+04  0.70092857159E+03 0.  0.
        2    1    3    3  502    0 -0.11739669504E+03 -0.11146177065E+03 -0.32650094171E+02  0.16514157254E+03  0.25500000920E-02 0.  1.
       -2    1    3    3    0  502  0.11739669504E+03  0.11146177065E+03  0.10995781787E+04  0.11114305563E+04  0.25500000920E-02 0. -1.
</event>
<event>
 5   0  0.6131198E-02  0.6975949E+03  0.7818609E-02  0.9721354E-01
       -2   -1    0    0    0  501  0.00000000000E+00  0.00000000000E+00  0.23101404946E+03  0.23101404947E+03  0.25500000920E-02 0.  1.
        2   -1    0    0  501    0  0.00000000000E+00  0.00000000000E+00 -0.52663324201E+03  0.52663324202E+03  0.25500000920E-02 0. -1.
    10030    2    1    2    0    0  0.00000000000E+00  0.00000000000E+00 -0.29561919255E+03  0.75764729149E+03  0.69759494788E+03 0.  0.
        1    1    3    3  502    0  0.20852188525E+02  0.34805824968E+03 -0.13807601814E+03  0.37502579345E+03  0.50400001928E-02 0. -1.
       -1    1    3    3    0  502 -0.20852188525E+02 -0.34805824968E+03 -0.15754317441E+03  0.38262149805E+03  0.50400001928E-02 0.  1.
</event>
<event>
 5   0  0.6248886E-02  0.7203769E+03  0.7818609E-02  0.9683006E-01
        2   -1    0    0  501    0  0.00000000000E+00  0.00000000000E+00  0.17992647370E+04  0.17992647370E+04  0.25500000920E-02 0.  1.
       -2   -1    0    0    0  501  0.00000000000E+00  0.00000000000E+00 -0.72104854094E+02  0.72104854139E+02  0.25500000920E-02 0. -1.
    10030    2    1    2    0    0  0.00000000000E+00  0.00000000000E+00  0.17271598829E+04  0.18713695911E+04  0.72037690518E+03 0.  0.
        3    1    3    3  502    0 -0.31243741371E+03  0.74267197180E+02  0.12872860684E+04  0.13267396829E+04  0.10100000352E+00 0.  1.
       -3    1    3    3    0  502  0.31243741371E+03 -0.74267197180E+02  0.43987381446E+03  0.54462990820E+03  0.10100000352E+00 0. -1.
</event>
<event>
 5   0  0.6131198E-02  0.6963200E+03  0.7818609E-02  0.9723546E-01
        2   -1    0    0  501    0  0.00000000000E+00  0.00000000000E+00  0.19634576145E+03  0.19634576147E+03  0.25500000920E-02 0. -1.
       -2   -1    0    0    0  501  0.00000000000E+00  0.00000000000E+00 -0.61735670469E+03  0.61735670469E+03  0.25500000920E-02 0.  1.
    10030    2    1    2    0    0  0.00000000000E+00  0.00000000000E+00 -0.42101094324E+03  0.81370246616E+03  0.69631996174E+03 0.  0.
        1    1    3    3  502    0  0.39057665005E+02 -0.83939310013E+01 -0.61466946518E+03  0.61596632272E+03  0.50400001928E-02 0.  1.
       -1    1    3    3    0  502 -0.39057665005E+02  0.83939310013E+01  0.19365852195E+03  0.19773614344E+03  0.50400001928E-02 0. -1.
</event>
<event>
 5   0  0.6167756E-02  0.6880701E+03  0.7818609E-02  0.9737854E-01
       -2   -1    0    0    0  501  0.00000000000E+00  0.00000000000E+00  0.23861894234E+03  0.23861894236E+03  0.25500000920E-02 0. -1.
        2   -1    0    0  501    0  0.00000000000E+00  0.00000000000E+00 -0.49602148951E+03  0.49602148951E+03  0.25500000920E-02 0.  1.
    10030    2    1    2    0    0  0.00000000000E+00  0.00000000000E+00 -0.25740254716E+03  0.73464043187E+03  0.68807012205E+03 0.  0.
        4    1    3    3  502    0  0.24397279821E+03 -0.10364017645E+03 -0.36284893474E+03  0.44936062888E+03  0.12699999809E+01 0.  1.
       -4    1    3    3    0  502 -0.24397279821E+03  0.10364017645E+03  0.10544638757E+03  0.28527980299E+03  0.12699999809E+01 0. -1.
</event>
<event>
 5   0  0.3439015E-02  0.6896723E+03  0.7818609E-02  0.9735059E-01
       -1   -1    0    0    0  501  0.00000000000E+00  0.00000000000E+00  0.26810782569E+03  0.26810782574E+03  0.50400001928E-02 0.  1.
        1   -1    0    0  501    0  0.00000000000E+00  0.00000000000E+00 -0.44352291159E+03  0.44352291161E+03  0.50400001928E-02 0. -1.
    10030    2    1    2    0    0  0.00000000000E+00  0.00000000000E+00 -0.17541508590E+03  0.71163073735E+03  0.68967228013E+03 0.  0.
        1    1    3    3  502    0 -0.24862997406E+03  0.61281234281E+02 -0.32601479109E+03  0.41455747214E+03  0.50400001928E-02 0. -1.
       -1    1    3    3    0  502  0.24862997406E+03 -0.61281234281E+02  0.15059970519E+03  0.29707326521E+03  0.50400001928E-02 0.  1.
</event>
<event>
 5   0  0.3439015E-02  0.6829849E+03  0.7818609E-02  0.9746781E-01
       -1   -1    0    0    0  501  0.00000000000E+00  0.00000000000E+00  0.87937468359E+03  0.87937468360E+03  0.50400001928E-02 0. -1.
        1   -1    0    0  501    0  0.00000000000E+00  0.00000000000E+00 -0.13261364556E+03  0.13261364565E+03  0.50400001928E-02 0.  1.
    10030    2    1    2    0    0  0.00000000000E+00  0.00000000000E+00  0.74676103803E+03  0.10119883293E+04  0.68298486852E+03 0.  0.
        1    1    3    3  502    0  0.25817024959E+02 -0.25812675882E+03  0.70244497636E+03  0.74881565638E+03  0.50400001928E-02 0. -1.
       -1    1    3    3    0  502 -0.25817024959E+02  0.25812675882E+03  0.44316061667E+02  0.26317267287E+03  0.50400001928E-02 0.  1.
</event>
<event>
 5   0  0.3601475E-02  0.7256446E+03  0.7818609E-02  0.9674354E-01
       -1   -1    0    0    0  501  0.00000000000E+00  0.00000000000E+00  0.31563935823E+03  0.31563935827E+03  0.50400001928E-02 0. -1.
        1   -1    0    0  501    0  0.00000000000E+00  0.00000000000E+00 -0.41705826928E+03  0.41705826931E+03  0.50400001928E-02 0.  1.
    10030    2    1    2    0    0  0.00000000000E+00  0.00000000000E+00 -0.10141891105E+03  0.73269762758E+03  0.72564455344E+03 0.  0.
        5    1    3    3  502    0  0.21124160005E+03  0.28776452210E+03 -0.11604137120E+03  0.37539195996E+03  0.46999998093E+01 0.  1.
       -5    1    3    3    0  502 -0.21124160005E+03 -0.28776452210E+03  0.14622460148E+02  0.35730566762E+03  0.46999998093E+01 0. -1.
</event>
<event>
 5   0  0.3439015E-02  0.6952910E+03  0.7818609E-02  0.9725319E-01
        1   -1    0    0  501    0  0.00000000000E+00  0.00000000000E+00  0.73030103309E+03  0.73030103311E+03  0.50400001928E-02 0. -1.
       -1   -1    0    0    0  501  0.00000000000E+00  0.00000000000E+00 -0.16548985256E+03  0.16548985264E+03  0.50400001928E-02 0.  1.
    10030    2    1    2    0    0  0.00000000000E+00  0.00000000000E+00  0.56481118053E+03  0.89579088574E+03  0.69529104793E+03 0.  0.
        1    1    3    3  502    0  0.17542561188E+03  0.11733163440E+03 -0.73511935420E+02  0.22348347234E+03  0.50400001928E-02 0.  1.
       -1    1    3    3    0  502 -0.17542561188E+03 -0.11733163440E+03  0.63832311595E+03  0.67230741340E+03  0.50400001928E-02 0. -1.
</event>
<event>
 5   0  0.3749730E-02  0.7016386E+03  0.7818609E-02  0.9714434E-01
       -1   -1    0    0    0  501  0.00000000000E+00  0.00000000000E+00  0.68027695637E+02  0.68027695824E+02  0.50400001928E-02 0. -1.
        1   -1    0    0  501    0  0.00000000000E+00  0.00000000000E+00 -0.18091774497E+04  0.18091774497E+04  0.50400001928E-02 0.  1.
    10030    2    1    2    0    0  0.00000000000E+00  0.00000000000E+00 -0.17411497540E+04  0.18772051455E+04  0.70163857670E+03 0.  0.
        4    1    3    3  502    0  0.12873641943E+03 -0.21883882297E+03 -0.15182849783E+04  0.15393681770E+04  0.12699999809E+01 0.  1.
       -4    1    3    3    0  502 -0.12873641943E+03  0.21883882297E+03 -0.22286477576E+03  0.33783696853E+03  0.12699999809E+01 0. -1.
</event>
<event>
 5   0  0.3717372E-02  0.6954914E+03  0.7818609E-02  0.9724974E-01
        1   -1    0    0  501    0  0.00000000000E+00  0.00000000000E+00  0.51988161620E+03  0.51988161623E+03  0.50400001928E-02 0. -1.
       -1   -1    0    0    0  501  0.00000000000E+00  0.00000000000E+00 -0.23260504210E+03  0.23260504215E+03  0.50400001928E-02 0.  1.
    10030    2    1    2    0    0  0.00000000000E+00  0.00000000000E+00  0.28727657410E+03  0.75248665838E+03  0.69549143849E+03 0.  0.
        3    1    3    3  502    0  0.19608815748E+03  0.28716844412E+03  0.14719298917E+03  0.37760040660E+03  0.10100000352E+00 0. -1.
       -3    1    3    3    0  502 -0.19608815748E+03 -0.28716844412E+03  0.14008358493E+03  0.37488625178E+03  0.10100000352E+00 0.  1.
</event>
<event>
 5   0  0.6167756E-02  0.7069012E+03  0.7818609E-02  0.9705502E-01
        2   -1    0    0  501    0  0.00000000000E+00  0.00000000000E+00  0.16549175876E+04  0.16549175876E+04  0.25500000920E-02 0. -1.
       -2   -1    0    0    0  501  0.00000000000E+00  0.00000000000E+00 -0.75488557251E+02  0.75488557294E+02  0.25500000920E-02 0.  1.
    10030    2    1    2    0    0  0.00000000000E+00  0.00000000000E+00  0.15794290304E+04  0.17304061449E+04  0.70690124090E+03 0.  0.
        4    1    3    3  502    0  0.82350202567E+02 -0.20906367082E+03  0.12185912719E+03  0.25561774996E+03  0.12699999809E+01 0.  1.
       -4    1    3    3    0  502 -0.82350202567E+02  0.20906367082E+03  0.14575699032E+04  0.14747883949E+04  0.12699999809E+01 0. -1.
</event>
<event>
 5   0  0.3755872E-02  0.7012761E+03  0.7818609E-02  0.9715052E-01
       -1   -1    0    0    0  501  0.00000000000E+00  0.00000000000E+00  0.32914174181E+03  0.32914174185E+03  0.50400001928E-02 0.  1.
        1   -1    0    0  501    0  0.00000000000E+00  0.00000000000E+00 -0.37353828254E+03  0.37353828257E+03  0.50400001928E-02 0. -1.
    10030    2    1    2    0    0  0.00000000000E+00  0.00000000000E+00 -0.44396540734E+02  0.70268002442E+03  0.70127609676E+03 0.  0.
        2    1    3    3  502    0 -0.11542335360E+03  0.22181750289E+03 -0.26849819108E+03  0.36690166770E+03  0.25500000920E-02 0. -1.
       -2    1    3    3    0  502  0.11542335360E+03 -0.22181750289E+03  0.22410165035E+03  0.33577835672E+03  0.25500000920E-02 0.  1.
</event>
<event>
 5   0  0.3717372E-02  0.6591490E+03  0.7818609E-02  0.9789762E-01
       -1   -1    0    0    0  501  0.00000000000E+00  0.00000000000E+00  0.69578045840E+02  0.69578046023E+02  0.50400001928E-02 0. -1.
        1   -1    0    0  501    0  0.00000000000E+00  0.00000000000E+00 -0.15611154069E+04  0.15611154069E+04  0.50400001928E-02 0.  1.
    10030    2    1    2    0    0  0.00000000000E+00  0.00000000000E+00 -0.14915373610E+04  0.16306934529E+04  0.65914902563E+03 0.  0.
        3    1    3    3  502    0  0.23734539008E+03 -0.70152531043E+02 -0.12841848752E+04  0.13078168892E+04  0.10100000352E+00 0.  1.
       -3    1    3    3    0  502 -0.23734539008E+03  0.70152531043E+02 -0.20735248583E+03  0.32287656370E+03  0.10100000352E+00 0. -1.
</event>
<event>
 5   0  0.5987810E-02  0.6905889E+03  0.7818609E-02  0.9733463E-01
        2   -1    0    0  501    0  0.00000000000E+00  0.00000000000E+00  0.18148957344E+04  0.18148957344E+04  0.25500000920E-02 0. -1.
       -2   -1    0    0    0  501  0.00000000000E+00  0.00000000000E+00 -0.65694273444E+02  0.65694273494E+02  0.25500000920E-02 0.  1.
    10030    2    1    2    0    0  0.00000000000E+00  0.00000000000E+00  0.17492014610E+04  0.18805900079E+04  0.69058889854E+03 0.  0.
        5    1    3    3  502    0  0.97173826705E+02 -0.14956392907E+02  0.17758820001E+04  0.17786077180E+04  0.46999998093E+01 0. -1.
       -5    1    3    3    0  502 -0.97173826705E+02  0.14956392907E+02 -0.26680539136E+02  0.10198228989E+03  0.46999998093E+01 0.  1.
</event>
<event>
 5   0  0.3755872E-02  0.6809407E+03  0.7818609E-02  0.9750393E-01
       -1   -1    0    0    0  501  0.00000000000E+00  0.00000000000E+00  0.25285657013E+03  0.25285657018E+03  0.50400001928E-02 0.  1.
        1   -1    0    0  501    0  0.00000000000E+00  0.00000000000E+00 -0.45844200310E+03  0.45844200313E+03  0.50400001928E-02 0. -1.
    10030    2    1    2    0    0  0.00000000000E+00  0.00000000000E+00 -0.20558543297E+03  0.71129857331E+03  0.68094073908E+03 0.  0.
        2    1    3    3  502    0 -0.26255614347E+03  0.25001605202E+02 -0.32770381415E+03  0.42065496377E+03  0.25500000920E-02 0. -1.
       -2    1    3    3    0  502  0.26255614347E+03 -0.25001605202E+02  0.12211838118E+03  0.29064360953E+03  0.25500000920E-02 0.  1.
</event>
<event>
 5   0  0.3717372E-02  0.8051213E+03  0.7818609E-02  0.9552634E-01
       -1   -1    0    0    0  501  0.00000000000E+00  0.00000000000E+00  0.15263519747E+03  0.15263519756E+03  0.50400001928E-02 0.  1.
        1   -1    0    0  501    0  0.00000000000E+00  0.00000000000E+00 -0.10617150376E+04  0.10617150377E+04  0.50400001928E-02 0. -1.
    10030    2    1    2    0    0  0.00000000000E+00  0.00000000000E+00 -0.90907984017E+03  0.12143502352E+04  0.80512131878E+03 0.  0.
        3    1    3    3  502    0 -0.35430408447E+03 -0.14355863127E+03 -0.64481443650E+03  0.74961732411E+03  0.10100000352E+00 0. -1.
       -3    1    3    3    0  502  0.35430408447E+03  0.14355863127E+03 -0.26426540368E+03  0.46473291111E+03  0.10100000352E+00 0.  1.
</event>
<event>
 5   0  0.3601475E-02  0.6976104E+03  0.7818609E-02  0.9721328E-01
       -1   -1    0    0    0  501  0.00000000000E+00  0.00000000000E+00  0.17405032718E+03  0.17405032725E+03  0.50400001928E-02 0.  1.
        1   -1    0    0  501    0  0.00000000000E+00  0.00000000000E+00 -0.69902230788E+03  0.69902230790E+03  0.50400001928E-02 0. -1.
    10030    2    1    2    0    0  0.00000000000E+00  0.00000000000E+00 -0.52497198070E+03  0.87307263515E+03  0.69761038246E+03 0.  0.
        5    1    3    3  502    0 -0.48539071159E+02  0.18289345770E+03  0.10418325634E+03  0.21606086920E+03  0.46999998093E+01 0.  1.
       -5    1    3    3    0  502  0.48539071159E+02 -0.18289345770E+03 -0.62915523704E+03  0.65701176595E+03  0.46999998093E+01 0. -1.
</event>
<event>
 5   0  0.2439375E-02  0.7057820E+03  0.7818609E-02  0.9707395E-01
       -3   -1    0    0    0  501  0.00000000000E+00  0.00000000000E+00  0.20517179068E+03  0.20517181554E+03  0.10100000352E+00 0.  1.
        3   -1    0    0  501    0  0.00000000000E+00  0.00000000000E+00 -0.60696475930E+03  0.60696476770E+03  0.10100000352E+00 0. -1.
    10030    2    1    2    0    0  0.00000000000E+00  0.00000000000E+00 -0.40179296862E+03  0.81213658324E+03  0.70578200615E+03 0.  0.
        5    1    3    3  502    0  0.29462060521E+02 -0.16269974600E+00 -0.60551092712E+03  0.60624550501E+03  0.46999998093E+01 0. -1.
       -5    1    3    3    0  502 -0.29462060521E+02  0.16269974600E+00  0.20371795850E+03  0.20589107823E+03  0.46999998093E+01 0.  1.
</event>
<event>
 5   0  0.5899787E-02  0.7013839E+03  0.7818609E-02  0.9714868E-01
        2   -1    0    0  501    0  0.00000000000E+00  0.00000000000E+00  0.32637438702E+03  0.32637438703E+03  0.25500000920E-02 0. -1.
       -2   -1    0    0    0  501  0.00000000000E+00  0.00000000000E+00 -0.37682137441E+03  0.37682137442E+03  0.25500000920E-02 0.  1.
    10030    2    1    2    0    0  0.00000000000E+00  0.00000000000E+00 -0.50446987390E+02  0.70319576144E+03  0.70138390370E+03 0.  0.
        2    1    3    3  502    0  0.31820214732E+03 -0.37614456900E+02  0.11768380840E+03  0.34134576707E+03  0.25500000920E-02 0. -1.
       -2    1    3    3    0  502 -0.31820214732E+03  0.37614456900E+02 -0.16813079579E+03  0.36184999437E+03  0.25500000920E-02 0.  1.
</event>
<event>
 5   0  0.5899787E-02  0.7159277E+03  0.7818609E-02  0.9690375E-01
        2   -1    0    0  501    0  0.00000000000E+00  0.00000000000E+00  0.25699560111E+03  0.25699560113E+03  0.25500000920E-02 0. -1.
       -2   -1    0    0    0  501  0.00000000000E+00  0.00000000000E+00 -0.49860045609E+03  0.49860045609E+03  0.25500000920E-02 0.  1.
    10030    2    1    2    0    0  0.00000000000E+00  0.00000000000E+00 -0.24160485497E+03  0.75559605722E+03  0.71592771684E+03 0.  0.
        2    1    3    3  502    0  0.33732762237E+03  0.10885111280E+03 -0.17356898352E+03  0.39467034550E+03  0.25500000920E-02 0.  1.
       -2    1    3    3    0  502 -0.33732762237E+03 -0.10885111280E+03 -0.68035871456E+02  0.36092571172E+03  0.25500000920E-02 0. -1.
</event>
<event>
 5   0  0.5987810E-02  0.6924312E+03  0.7818609E-02  0.9730264E-01
        2   -1    0    0  501    0  0.00000000000E+00  0.00000000000E+00  0.84543621092E+03  0.84543621092E+03  0.25500000920E-02 0. -1.
       -2   -1    0    0    0  501  0.00000000000E+00  0.00000000000E+00 -0.14177917194E+03  0.14177917196E+03  0.25500000920E-02 0.  1.
    10030    2    1    2    0    0  0.00000000000E+00  0.00000000000E+00  0.70365703898E+03  0.98721538288E+03  0.69243121225E+03 0.  0.
        5    1    3    3  502    0  0.46208909256E+02  0.91115392385E+02  0.82340876651E+03  0.82973571985E+03  0.46999998093E+01 0. -1.
       -5    1    3    3    0  502 -0.46208909256E+02 -0.91115392385E+02 -0.11975172753E+03  0.15747966303E+03  0.46999998093E+01 0.  1.
</event>
<event>
 5   0  0.6167756E-02  0.6956172E+03  0.7818609E-02  0.9724757E-01
       -2   -1    0    0    0  501  0.00000000000E+00  0.00000000000E+00  0.19371728927E+03  0.19371728928E+03  0.25500000920E-02 0.  1.
        2   -1    0    0  501    0  0.00000000000E+00  0.00000000000E+00 -0.62447091960E+03  0.62447091960E+03  0.25500000920E-02 0. -1.
    10030    2    1    2    0    0  0.00000000000E+00  0.00000000000E+00 -0.43075363033E+03  0.81818820889E+03  0.69561717569E+03 0.  0.
        4    1    3    3  502    0 -0.14462273884E+03 -0.30761982782E+03 -0.30199777167E+03  0.45469766005E+03  0.12699999809E+01 0. -1.
       -4    1    3    3    0  502  0.14462273884E+03  0.30761982782E+03 -0.12875585866E+03  0.36349054884E+03  0.12699999809E+01 0.  1.
</event>
<event>
 5   0  0.3439015E-02  0.6821865E+03  0.7818609E-02  0.9748190E-01
       -1   -1    0    0    0  501  0.00000000000E+00  0.00000000000E+00  0.30883954497E+03  0.30883954501E+03  0.50400001928E-02 0.  1.
        1   -1    0    0  501    0  0.00000000000E+00  0.00000000000E+00 -0.37671541584E+03  0.37671541587E+03  0.50400001928E-02 0. -1.
    10030    2    1    2    0    0  0.00000000000E+00  0.00000000000E+00 -0.67875870867E+02  0.68555496088E+03  0.68218653647E+03 0.  0.
        1    1    3    3  502    0  0.47562068468E+02 -0.49922800903E+02  0.30176267061E+03  0.30954021678E+03  0.50400001928E-02 0.  1.
       -1    1    3    3    0  502 -0.47562068468E+02  0.49922800903E+02 -0.36963854148E+03  0.37601474410E+03  0.50400001928E-02 0. -1.
</event>
<event>
 5   0  0.6167756E-02  0.7116033E+03  0.7818609E-02  0.9697592E-01
       -2   -1    0    0    0  501  0.00000000000E+00  0.00000000000E+00  0.91353400212E+02  0.91353400247E+02  0.25500000920E-02 0. -1.
        2   -1    0    0  501    0  0.00000000000E+00  0.00000000000E+00 -0.13857699879E+04  0.13857699879E+04  0.25500000920E-02 0.  1.
    10030    2    1    2    0    0  0.00000000000E+00  0.00000000000E+00 -0.12944165877E+04  0.14771233881E+04  0.71160326119E+03 0.  0.
        4    1    3    3  502    0  0.22237642161E+03 -0.21598454898E+03 -0.28473501530E+03  0.42092308100E+03  0.12699999809E+01 0. -1.
       -4    1    3    3    0  502 -0.22237642161E+03  0.21598454898E+03 -0.10096815724E+04  0.10562003071E+04  0.12699999809E+01 0.  1.
</event>
<event>
 5   0  0.3749730E-02  0.7005966E+03  0.7818609E-02  0.9716213E-01
       -1   -1    0    0    0  501  0.00000000000E+00  0.00000000000E+00  0.41492016419E+03  0.41492016422E+03  0.50400001928E-02 0.  1.
        1   -1    0    0  501    0  0.00000000000E+00  0.00000000000E+00 -0.29574096537E+03  0.29574096541E+03  0.50400001928E-02 0. -1.
    10030    2    1    2    0    0  0.00000000000E+00  0.00000000000E+00  0.11917919882E+03  0.71066112963E+03  0.70059657417E+03 0.  0.
        4    1    3    3  502    0 -0.12111691914E+03  0.31857591842E+03 -0.22488527181E+02  0.34156590968E+03  0.12699999809E+01 0. -1.
       -4    1    3    3    0  502  0.12111691914E+03 -0.31857591842E+03  0.14166772600E+03  0.36909521995E+03  0.12699999809E+01 0.  1.
</event>
<event>
 5   0  0.6131198E-02  0.6996835E+03  0.7818609E-02  0.9717774E-01
        2   -1    0    0  501    0  0.00000000000E+00  0.00000000000E+00  0.11328994200E+04  0.11328994200E+04  0.25500000920E-02 0. -1.
       -2   -1    0    0    0  501  0.00000000000E+00  0.00000000000E+00 -0.10803189032E+03  0.10803189035E+03  0.25500000920E-02 0.  1.
    10030    2    1    2    0    0  0.00000000000E+00  0.00000000000E+00  0.10248675297E+04  0.12409313104E+04  0.69968354537E+03 0.  0.
        1    1    3    3  502    0 -0.17427132951E+03  0.20708512683E+01 -0.25556197445E+02  0.17614739273E+03  0.50400001928E-02 0.  1.
       -1    1    3    3    0  502  0.17427132951E+03 -0.20708512683E+01  0.10504237272E+04  0.10647839177E+04  0.50400001928E-02 0. -1.
</event>
<event>
 5   0  0.3717372E-02  0.7678174E+03  0.7818609E-02  0.9607805E-01
       -1   -1    0    0    0  501  0.00000000000E+00  0.00000000000E+00  0.67017172335E+03  0.67017172337E+03  0.50400001928E-02 0. -1.
        1   -1    0    0  501    0  0.00000000000E+00  0.00000000000E+00 -0.21992254575E+03  0.21992254581E+03  0.50400001928E-02 0.  1.
    10030    2    1    2    0    0  0.00000000000E+00  0.00000000000E+00  0.45024917760E+03  0.89009426918E+03  0.76781735205E+03 0.  0.
        3    1    3    3  502    0 -0.12520992686E+03  0.22300489270E+03 -0.10678859181E+03  0.27715071982E+03  0.10100000352E+00 0.  1.
       -3    1    3    3    0  502  0.12520992686E+03 -0.22300489270E+03  0.55703776941E+03  0.61294354936E+03  0.10100000352E+00 0. -1.
</event>
<event>
 5   0  0.6248886E-02  0.6946395E+03  0.7818609E-02  0.9726444E-01
        2   -1    0    0  501    0  0.00000000000E+00  0.00000000000E+00  0.10575932891E+03  0.10575932894E+03  0.25500000920E-02 0.  1.
       -2   -1    0    0    0  501  0.00000000000E+00  0.00000000000E+00 -0.11406180598E+04  0.11406180598E+04  0.25500000920E-02 0. -1.
    10030    2    1    2    0    0  0.00000000000E+00  0.00000000000E+00 -0.10348587309E+04  0.12463773887E+04  0.69463947647E+03 0.  0.
        3    1    3    3  502    0  0.30594083953E+03  0.15780573103E+03 -0.60021051445E+03  0.69192132348E+03  0.10100000352E+00 0.  1.
       -3    1    3    3    0  502 -0.30594083953E+03 -0.15780573103E+03 -0.43464821642E+03  0.55445606523E+03  0.10100000352E+00 0. -1.
</event>
<event>
 5   0  0.3601475E-02  0.7071878E+03  0.7818609E-02  0.9705018E-01
       -1   -1    0    0    0  501  0.00000000000E+00  0.00000000000E+00  0.65911063994E+02  0.65911064187E+02  0.50400001928E-02 0.  1.
        1   -1    0    0  501    0  0.00000000000E+00  0.00000000000E+00 -0.18969297736E+04  0.18969297736E+04  0.50400001928E-02 0. -1.
    10030    2    1    2    0    0  0.00000000000E+00  0.00000000000E+00 -0.18310187096E+04  0.19628408378E+04  0.70718783897E+03 0.  0.
        5    1    3    3  502    0  0.12909399665E+03  0.29391798051E+03 -0.50426259525E+03  0.59779251769E+03  0.46999998093E+01 0.  1.
       -5    1    3    3    0  502 -0.12909399665E+03 -0.29391798051E+03 -0.13267561144E+04  0.13650483201E+04  0.46999998093E+01 0. -1.
</event>
<event>
 5   0  0.6131198E-02  0.7053170E+03  0.7818609E-02  0.9708182E-01
       -2   -1    0    0    0  501  0.00000000000E+00  0.00000000000E+00  0.54997008437E+02  0.54997008496E+02  0.25500000920E-02 0. -1.
        2   -1    0    0  501    0  0.00000000000E+00  0.00000000000E+00 -0.22613595828E+04  0.22613595828E+04  0.25500000920E-02 0.  1.
    10030    2    1    2    0    0  0.00000000000E+00  0.00000000000E+00 -0.22063625743E+04  0.23163565913E+04  0.70531698441E+03 0.  0.
        1    1    3    3  502    0 -0.29349462534E+03 -0.10234175115E+03 -0.55604900431E+03  0.63702702011E+03  0.50400001928E-02 0. -1.
       -1    1    3    3    0  502  0.29349462534E+03  0.10234175115E+03 -0.16503135700E+04  0.16793295712E+04  0.50400001928E-02 0.  1.
</event>
<event>
 5   0  0.6248886E-02  0.6698205E+03  0.7818609E-02  0.9770282E-01
        2   -1    0    0  501    0  0.00000000000E+00  0.00000000000E+00  0.10218960995E+04  0.10218960995E+04  0.25500000920E-02 0.  1.
       -2   -1    0    0    0  501  0.00000000000E+00  0.00000000000E+00 -0.10976152018E+03  0.10976152021E+03  0.25500000920E-02 0. -1.
    10030    2    1    2    0    0  0.00000000000E+00  0.00000000000E+00  0.91213457934E+03  0.11316576197E+04  0.66982048154E+03 0.  0.
        3    1    3    3  502    0  0.12290392295E+03 -0.27678677570E+03  0.21447222712E+03  0.37109923186E+03  0.10100000352E+00 0.  1.
       -3    1    3    3    0  502 -0.12290392295E+03  0.27678677570E+03  0.69766235223E+03  0.76055838789E+03  0.10100000352E+00 0. -1.
</event>
<event>
 5   0  0.3601475E-02  0.6928866E+03  0.7818609E-02  0.9729475E-01
        1   -1    0    0  501    0  0.00000000000E+00  0.00000000000E+00  0.17759266982E+04  0.17759266982E+04  0.50400001928E-02 0. -1.
       -1   -1    0    0    0  501  0.00000000000E+00  0.00000000000E+00 -0.67583281553E+02  0.67583281741E+02  0.50400001928E-02 0.  1.
    10030    2    1    2    0    0  0.00000000000E+00  0.00000000000E+00  0.17083434166E+04  0.18435099799E+04  0.69288658305E+03 0.  0.
        5    1    3    3  502    0  0.18451235985E+03  0.27991441519E+03  0.10861800703E+04  0.11367524471E+04  0.46999998093E+01 0. -1.
       -5    1    3    3    0  502 -0.18451235985E+03 -0.27991441519E+03  0.62216334632E+03  0.70675753287E+03  0.46999998093E+01 0.  1.
</event>
<event>
 5   0  0.3749730E-02  0.6871001E+03  0.7818609E-02  0.9739551E-01
       -1   -1    0    0    0  501  0.00000000000E+00  0.00000000000E+00  0.71893761754E+02  0.71893761930E+02  0.50400001928E-02 0. -1.
        1   -1    0    0  501    0  0.00000000000E+00  0.00000000000E+00 -0.16416813244E+04  0.16416813244E+04  0.50400001928E-02 0.  1.
    10030    2    1    2    0    0  0.00000000000E+00  0.00000000000E+00 -0.15697875627E+04  0.17135750864E+04  0.68710012712E+03 0.  0.
        4    1    3    3  502    0 -0.13746084201E+03 -0.17892745363E+03 -0.14309812883E+04  0.14486613052E+04  0.12699999809E+01 0.  1.
       -4    1    3    3    0  502  0.13746084201E+03  0.17892745363E+03 -0.13880627434E+03  0.26491378115E+03  0.12699999809E+01 0. -1.
</event>
<event>
 5   0  0.3755872E-02  0.7111716E+03  0.7818609E-02  0.9698316E-01
        1   -1    0    0  501    0  0.00000000000E+00  0.00000000000E+00  0.19301121172E+03  0.19301121178E+03  0.50400001928E-02 0. -1.
       -1   -1    0    0    0  501  0.00000000000E+00  0.00000000000E+00 -0.65509793882E+03  0.65509793884E+03  0.50400001928E-02 0.  1.
    10030    2    1    2    0    0  0.00000000000E+00  0.00000000000E+00 -0.46208672710E+03  0.84810915062E+03  0.71117156018E+03 0.  0.
        2    1    3    3  502    0  0.30400317524E+03 -0.67728962629E+02 -0.43564897151E+03  0.53553260342E+03  0.25500000920E-02 0. -1.
       -2    1    3    3    0  502 -0.30400317524E+03  0.67728962629E+02 -0.26437755593E+02  0.31257654721E+03  0.25500000920E-02 0.  1.
</event>
<event>
 5   0  0.6167756E-02  0.7295227E+03  0.7818609E-02  0.9668035E-01
       -2   -1    0    0    0  501  0.00000000000E+00  0.00000000000E+00  0.11305767258E+03  0.11305767261E+03  0.25500000920E-02 0.  1.
        2   -1    0    0  501    0  0.00000000000E+00  0.00000000000E+00 -0.11768405890E+04  0.11768405891E+04  0.25500000920E-02 0. -1.
    10030    2    1    2    0    0  0.00000000000E+00  0.00000000000E+00 -0.10637829165E+04  0.12898982617E+04  0.72952274267E+03 0.  0.
        4    1    3    3  502    0  0.23331633733E+03 -0.10100660935E+03 -0.99435518700E+03  0.10263443375E+04  0.12699999809E+01 0. -1.
       -4    1    3    3    0  502 -0.23331633733E+03  0.10100660935E+03 -0.69427729462E+02  0.26355392411E+03  0.12699999809E+01 0.  1.
</event>
<event>
 5   0  0.6131198E-02  0.6969043E+03  0.7818609E-02  0.9722541E-01
       -2   -1    0    0    0  501  0.00000000000E+00  0.00000000000E+00  0.63790085660E+02  0.63790085711E+02  0.25500000920E-02 0.  1.
        2   -1    0    0  501    0  0.00000000000E+00  0.00000000000E+00 -0.19034131612E+04  0.19034131612E+04  0.25500000920E-02 0. -1.
    10030    2    1    2    0    0  0.00000000000E+00  0.00000000000E+00 -0.18396230756E+04  0.19672032470E+04  0.69690426503E+03 0.  0.
        1    1    3    3  502    0  0.14379724724E+03  0.98519816881E+02 -0.68123566542E+02  0.18714866544E+03  0.50400001928E-02 0.  1.
       -1    1    3    3    0  502 -0.14379724724E+03 -0.98519816881E+02 -0.17714995090E+04  0.17800545815E+04  0.50400001928E-02 0. -1.
</event>
<event>
 5   0  0.3439015E-02  0.6876830E+03  0.7818609E-02  0.9738531E-01
        1   -1    0    0  501    0  0.00000000000E+00  0.00000000000E+00  0.12748897546E+04  0.12748897546E+04  0.50400001928E-02 0. -1.
       -1   -1    0    0    0  501  0.00000000000E+00  0.00000000000E+00 -0.92735063478E+02  0.92735063615E+02  0.50400001928E-02 0.  1.
    10030    2    1    2    0    0  0.00000000000E+00  0.00000000000E+00  0.11821546911E+04  0.13676248182E+04  0.68768301541E+03 0.  0.
        1    1    3    3  502    0  0.27136419253E+03 -0.20564897031E+03  0.68639102645E+03  0.76620014696E+03  0.50400001928E-02 0. -1.
       -1    1    3    3    0  502 -0.27136419253E+03  0.20564897031E+03  0.49576366467E+03  0.60142467127E+03  0.50400001928E-02 0.  1.
</event>
<event>
 5   0  0.5987810E-02  0.6863989E+03  0.7818609E-02  0.9740779E-01
       -2   -1    0    0    0  501  0.00000000000E+00  0.00000000000E+00  0.10213823347E+03  0.10213823351E+03  0.25500000920E-02 0.  1.
        2   -1    0    0  501    0  0.00000000000E+00  0.00000000000E+00 -0.11532006009E+04  0.11532006009E+04  0.25500000920E-02 0. -1.
    10030    2    1    2    0    0  0.00000000000E+00  0.00000000000E+00 -0.10510623674E+04  0.12553388344E+04  0.68639892844E+03 0.  0.
        5    1    3    3  502    0 -0.26798989258E+03  0.11496057029E+03 -0.19466490515E+03  0.35064373735E+03  0.46999998093E+01 0.  1.
       -5    1    3    3    0  502  0.26798989258E+03 -0.11496057029E+03 -0.85639746229E+03  0.90469509707E+03  0.46999998093E+01 0. -1.
</event>
<event>
 5   0  0.3749730E-02  0.8948779E+03  0.7818609E-02  0.9432007E-01
       -1   -1    0    0    0  501  0.00000000000E+00  0.00000000000E+00  0.57231726476E+03  0.57231726478E+03  0.50400001928E-02 0.  1.
        1   -1    0    0  501    0  0.00000000000E+00  0.00000000000E+00 -0.34980878736E+03  0.34980878739E+03  0.50400001928E-02 0. -1.
    10030    2    1    2    0    0  0.00000000000E+00  0.00000000000E+00  0.22250847740E+03  0.92212605217E+03  0.89487788752E+03 0.  0.
        4    1    3    3  502    0  0.17593959468E+03 -0.18810717919E+03 -0.26575627048E+03  0.37009061058E+03  0.12699999809E+01 0. -1.
       -4    1    3    3    0  502 -0.17593959468E+03  0.18810717919E+03  0.48826474789E+03  0.55203544159E+03  0.12699999809E+01 0.  1.
</event>
<event>
 5   0  0.3717372E-02  0.7199308E+03  0.7818609E-02  0.9683742E-01
        1   -1    0    0  501    0  0.00000000000E+00  0.00000000000E+00  0.89985089204E+03  0.89985089205E+03  0.50400001928E-02 0. -1.
       -1   -1    0    0    0  501  0.00000000000E+00  0.00000000000E+00 -0.14399618543E+03  0.14399618552E+03  0.50400001928E-02 0.  1.
    10030    2    1    2    0    0  0.00000000000E+00  0.00000000000E+00  0.75585470661E+03  0.10438470776E+04  0.71993081879E+03 0.  0.
        3    1    3    3  502    0  0.34438233881E+03  0.10472516926E+03  0.37369282260E+03  0.51885729466E+03  0.10100000352E+00 0. -1.
       -3    1    3    3    0  502 -0.34438233881E+03 -0.10472516926E+03  0.38216188401E+03  0.52498978290E+03  0.10100000352E+00 0.  1.
</event>
<event>
 5   0  0.2439375E-02  0.6977917E+03  0.7818609E-02  0.9721016E-01
        3   -1    0    0  501    0  0.00000000000E+00  0.00000000000E+00  0.25958425583E+03  0.25958427548E+03  0.10100000352E+00 0.  1.
       -3   -1    0    0    0  501  0.00000000000E+00  0.00000000000E+00 -0.46893561629E+03  0.46893562717E+03  0.10100000352E+00 0. -1.
    10030    2    1    2    0    0  0.00000000000E+00  0.00000000000E+00 -0.20935136046E+03  0.72851990264E+03  0.69779169988E+03 0.  0.
        2    1    3    3  502    0 -0.16035032781E+02 -0.33689774274E+03 -0.11463036552E+02  0.33747386944E+03  0.25500000920E-02 0. -1.
       -2    1    3    3    0  502  0.16035032781E+02  0.33689774274E+03 -0.19788832391E+03  0.39104603321E+03  0.25500000920E-02 0.  1.
</event>
<event>
 5   0  0.3755872E-02  0.7027594E+03  0.7818609E-02  0.9712525E-01
        1   -1    0    0  501    0  0.00000000000E+00  0.00000000000E+00  0.99397433592E+03  0.99397433594E+03  0.50400001928E-02 0.  1.
       -1   -1    0    0    0  501  0.00000000000E+00  0.00000000000E+00 -0.12421616540E+03  0.12421616550E+03  0.50400001928E-02 0. -1.
    10030    2    1    2    0    0  0.00000000000E+00  0.00000000000E+00  0.86975817052E+03  0.11181905014E+04  0.70275936302E+03 0.  0.
        2    1    3    3  502    0  0.10049157467E+03 -0.23288590614E+03  0.82180261240E+03  0.86005461199E+03  0.25500000920E-02 0.  1.
       -2    1    3    3    0  502 -0.10049157467E+03  0.23288590614E+03  0.47955558123E+02  0.25813588945E+03  0.25500000920E-02 0. -1.
</event>
<event>
 5   0  0.2439375E-02  0.6964993E+03  0.7818609E-02  0.9723238E-01
        3   -1    0    0  501    0  0.00000000000E+00  0.00000000000E+00  0.41821199675E+03  0.41821200895E+03  0.10100000352E+00 0.  1.
       -3   -1    0    0    0  501  0.00000000000E+00  0.00000000000E+00 -0.28999121171E+03  0.28999122930E+03  0.10100000352E+00 0. -1.
    10030    2    1    2    0    0  0.00000000000E+00  0.00000000000E+00  0.12822078504E+03  0.70820323824E+03  0.69649928711E+03 0.  0.
        4    1    3    3  502    0 -0.25784849098E+03  0.42623241582E+01  0.30207769275E+03  0.39718579666E+03  0.12699999809E+01 0.  1.
       -4    1    3    3    0  502  0.25784849098E+03 -0.42623241582E+01 -0.17385690771E+03  0.31101744158E+03  0.12699999809E+01 0. -1.
</event>
<event>
 5   0  0.6167756E-02  0.7034399E+03  0.7818609E-02  0.9711368E-01
       -2   -1    0    0    0  501  0.00000000000E+00  0.00000000000E+00  0.63803273262E+02  0.63803273313E+02  0.25500000920E-02 0. -1.
        2   -1    0    0  501    0  0.00000000000E+00  0.00000000000E+00 -0.19388803332E+04  0.19388803332E+04  0.25500000920E-02 0.  1.
    10030    2    1    2    0    0  0.00000000000E+00  0.00000000000E+00 -0.18750770599E+04  0.20026836065E+04  0.70343986743E+03 0.  0.
        4    1    3    3  502    0  0.68215238761E+02  0.13162940959E+03 -0.18455695024E+04  0.18515150611E+04  0.12699999809E+01 0.  1.
       -4    1    3    3    0  502 -0.68215238761E+02 -0.13162940959E+03 -0.29507557482E+02  0.15116854539E+03  0.12699999809E+01 0. -1.
</event>
<event>
 5   0  0.3439015E-02  0.6996187E+03  0.7818609E-02  0.9717884E-01
       -1   -1    0    0    0  501  0.00000000000E+00  0.00000000000E+00  0.13857063307E+03  0.13857063316E+03  0.50400001928E-02 0.  1.
        1   -1    0    0  501    0  0.00000000000E+00  0.00000000000E+00 -0.88306293737E+03  0.88306293739E+03  0.50400001928E-02 0. -1.
    10030    2    1    2    0    0  0.00000000000E+00  0.00000000000E+00 -0.74449230430E+03  0.10216335706E+04  0.69961872567E+03 0.  0.
        1    1    3    3  502    0 -0.17969578555E+03 -0.17037007032E+03 -0.11437655014E+02  0.24788577245E+03  0.50400001928E-02 0.  1.
       -1    1    3    3    0  502  0.17969578555E+03  0.17037007032E+03 -0.73305464929E+03  0.77374779811E+03  0.50400001928E-02 0. -1.
</event>
<event>
 5   0  0.3717372E-02  0.6969463E+03  0.7818609E-02  0.9722469E-01
       -1   -1    0    0    0  501  0.00000000000E+00  0.00000000000E+00  0.37970359286E+03  0.37970359289E+03  0.50400001928E-02 0. -1.
        1   -1    0    0  501    0  0.00000000000E+00  0.00000000000E+00 -0.31981142831E+03  0.31981142835E+03  0.50400001928E-02 0.  1.
    10030    2    1    2    0    0  0.00000000000E+00  0.00000000000E+00  0.59892164552E+02  0.69951502124E+03  0.69694633478E+03 0.  0.
        3    1    3    3  502    0  0.81935447463E+02 -0.33210878424E+03 -0.36811282136E+02  0.34404177481E+03  0.10100000352E+00 0.  1.
       -3    1    3    3    0  502 -0.81935447463E+02  0.33210878424E+03  0.96703446688E+02  0.35547324643E+03  0.10100000352E+00 0. -1.
</event>
<event>
 5   0  0.5899787E-02  0.6918581E+03  0.7818609E-02  0.9731258E-01
       -2   -1    0    0    0  501  0.00000000000E+00  0.00000000000E+00  0.44132518850E+02  0.44132518923E+02  0.25500000920E-02 0. -1.
        2   -1    0    0  501    0  0.00000000000E+00  0.00000000000E+00 -0.27115358893E+04  0.27115358893E+04  0.25500000920E-02 0.  1.
    10030    2    1    2    0    0  0.00000000000E+00  0.00000000000E+00 -0.26674033705E+04  0.27556684083E+04  0.69185810352E+03 0.  0.
        2    1    3    3  502    0 -0.10749383339E+03  0.11780053944E+03 -0.11101246533E+03  0.19430815416E+03  0.25500000920E-02 0. -1.
       -2    1    3    3    0  502  0.10749383339E+03 -0.11780053944E+03 -0.25563909052E+04  0.25613602541E+04  0.25500000920E-02 0.  1.
</event>
<event>
 5   0  0.6167756E-02  0.6916730E+03  0.7818609E-02  0.9731579E-01
       -2   -1    0    0    0  501  0.00000000000E+00  0.00000000000E+00  0.22658683082E+03  0.22658683083E+03  0.25500000920E-02 0.  1.
        2   -1    0    0  501    0  0.00000000000E+00  0.00000000000E+00 -0.52784570234E+03  0.52784570235E+03  0.25500000920E-02 0. -1.
    10030    2    1    2    0    0  0.00000000000E+00  0.00000000000E+00 -0.30125887152E+03  0.75443253318E+03  0.69167300038E+03 0.  0.
        4    1    3    3  502    0 -0.38032104230E+02 -0.34194804726E+03 -0.18882643785E+03  0.39246903637E+03  0.12699999809E+01 0. -1.
       -4    1    3    3    0  502  0.38032104230E+02  0.34194804726E+03 -0.11243243367E+03  0.36196349681E+03  0.12699999809E+01 0.  1.
</event>
<event>
 5   0  0.3601475E-02  0.6868680E+03  0.7818609E-02  0.9739957E-01
        1   -1    0    0  501    0  0.00000000000E+00  0.00000000000E+00  0.76166172349E+03  0.76166172351E+03  0.50400001928E-02 0. -1.
       -1   -1    0    0    0  501  0.00000000000E+00  0.00000000000E+00 -0.15485473446E+03  0.15485473455E+03  0.50400001928E-02 0.  1.
    10030    2    1    2    0    0  0.00000000000E+00  0.00000000000E+00  0.60680698903E+03  0.91651645805E+03  0.68686803387E+03 0.  0.
        5    1    3    3  502    0 -0.32551284868E+02  0.69417545492E+01 -0.15265452673E+03  0.15631144754E+03  0.46999998093E+01 0.  1.
       -5    1    3    3    0  502  0.32551284868E+02 -0.69417545492E+01  0.75946151575E+03  0.76020501052E+03  0.46999998093E+01 0. -1.
</event>
<event>
 5   0  0.6167756E-02  0.7045848E+03  0.7818609E-02  0.9709423E-01
       -2   -1    0    0    0  501  0.00000000000E+00  0.00000000000E+00  0.32834761973E+03  0.32834761974E+03  0.25500000920E-02 0.  1.
        2   -1    0    0  501    0  0.00000000000E+00  0.00000000000E+00 -0.37798340710E+03  0.37798340711E+03  0.25500000920E-02 0. -1.
    10030    2    1    2    0    0  0.00000000000E+00  0.00000000000E+00 -0.49635787371E+02  0.70633102685E+03  0.70458484805E+03 0.  0.
        4    1    3    3  502    0 -0.15873748234E+03  0.21353783914E+03 -0.25628477775E+03  0.36943131601E+03  0.12699999809E+01 0. -1.
       -4    1    3    3    0  502  0.15873748234E+03 -0.21353783914E+03  0.20664899038E+03  0.33689971084E+03  0.12699999809E+01 0.  1.
</event>
<event>
 5   0  0.3755872E-02  0.6810737E+03  0.7818609E-02  0.9750158E-01
        1   -1    0    0  501    0  0.00000000000E+00  0.00000000000E+00  0.79373057167E+03  0.79373057168E+03  0.50400001928E-02 0. -1.
       -1   -1    0    0    0  501  0.00000000000E+00  0.00000000000E+00 -0.14610164015E+03  0.14610164024E+03  0.50400001928E-02 0.  1.
    10030    2    1    2    0    0  0.00000000000E+00  0.00000000000E+00  0.64762893152E+03  0.93983221192E+03  0.68107367709E+03 0.  0.
        2    1    3    3  502    0  0.54760987955E+02 -0.25101600810E+03  0.63224455299E+03  0.68245217921E+03  0.25500000920E-02 0. -1.
       -2    1    3    3    0  502 -0.54760987955E+02  0.25101600810E+03  0.15384378531E+02  0.25738003270E+03  0.25500000920E-02 0.  1.
</event>
<event>
 5   0  0.5987810E-02  0.7134242E+03  0.7818609E-02  0.9694546E-01
        2   -1    0    0  501    0  0.00000000000E+00  0.00000000000E+00  0.38277522142E+03  0.38277522143E+03  0.25500000920E-02 0.  1.
       -2   -1    0    0    0  501  0.00000000000E+00  0.00000000000E+00 -0.33242362788E+03  0.33242362789E+03  0.25500000920E-02 0. -1.
    10030    2    1    2    0    0  0.00000000000E+00  0.00000000000E+00  0.50351593543E+02  0.71519884932E+03  0.71342421539E+03 0.  0.
        5    1    3    3  502    0  0.23200860205E+03  0.14635744666E+03 -0.20336704356E+03  0.34150949916E+03  0.46999998093E+01 0. -1.
       -5    1    3    3    0  502 -0.23200860205E+03 -0.14635744666E+03  0.25371863710E+03  0.37368935016E+03  0.46999998093E+01 0.  1.
</event>
<event>
 5   0  0.3755872E-02  0.6991209E+03  0.7818609E-02  0.9718737E-01
        1   -1    0    0  501    0  0.00000000000E+00  0.00000000000E+00  0.10264503287E+04  0.10264503287E+04  0.50400001928E-02 0. -1.
       -1   -1    0    0    0  501  0.00000000000E+00  0.00000000000E+00 -0.11904375223E+03  0.11904375233E+03  0.50400001928E-02 0.  1.
    10030    2    1    2    0    0  0.00000000000E+00  0.00000000000E+00  0.90740657647E+03  0.11454940810E+04  0.69912087273E+03 0.  0.
        2    1    3    3  502    0  0.62428996289E+02 -0.11166091631E+03  0.98671743889E+03  0.99497580072E+03  0.25500000920E-02 0. -1.
       -2    1    3    3    0  502 -0.62428996289E+02  0.11166091631E+03 -0.79310862413E+02  0.15051828032E+03  0.25500000920E-02 0.  1.
</event>
<event>
 5   0  0.6248886E-02  0.6919148E+03  0.7818609E-02  0.9731160E-01
        2   -1    0    0  501    0  0.00000000000E+00  0.00000000000E+00  0.73874748815E+03  0.73874748816E+03  0.25500000920E-02 0.  1.
       -2   -1    0    0    0  501  0.00000000000E+00  0.00000000000E+00 -0.16201275896E+03  0.16201275898E+03  0.25500000920E-02 0. -1.
    10030    2    1    2    0    0  0.00000000000E+00  0.00000000000E+00  0.57673472920E+03  0.90076024713E+03  0.69191478880E+03 0.  0.
        3    1    3    3  502    0  0.20495442176E+03  0.38957394476E+02 -0.70907832579E+02  0.22034501244E+03  0.10100000352E+00 0. -1.
       -3    1    3    3    0  502 -0.20495442176E+03 -0.38957394476E+02  0.64764256178E+03  0.68041523470E+03  0.10100000352E+00 0.  1.
</event>
<event>
 5   0  0.2439375E-02  0.6989064E+03  0.7818609E-02  0.9719104E-01
        4   -1    0    0  501    0  0.00000000000E+00  0.00000000000E+00  0.23179874003E+03  0.23180221910E+03  0.12699999809E+01 0. -1.
       -4   -1    0    0    0  501  0.00000000000E+00  0.00000000000E+00 -0.52681752547E+03  0.52681905626E+03  0.12699999809E+01 0.  1.
    10030    2    1    2    0    0  0.00000000000E+00  0.00000000000E+00 -0.29501878544E+03  0.75862127536E+03  0.69890639979E+03 0.  0.
        2    1    3    3  502    0  0.22328011559E+03 -0.69521907087E+02 -0.42936931782E+03  0.48892260806E+03  0.25500000920E-02 0.  1.
       -2    1    3    3    0  502 -0.22328011559E+03  0.69521907087E+02  0.13435053238E+03  0.26969866730E+03  0.25500000920E-02 0. -1.
</event>
<event>
 5   0  0.5899787E-02  0.7098511E+03  0.7818609E-02  0.9700532E-01
       -2   -1    0    0    0  501  0.00000000000E+00  0.00000000000E+00  0.13229641638E+03  0.13229641641E+03  0.25500000920E-02 0.  1.
        2   -1    0    0  501    0  0.00000000000E+00  0.00000000000E+00 -0.95219626324E+03  0.95219626325E+03  0.25500000920E-02 0. -1.
    10030    2    1    2    0    0  0.00000000000E+00  0.00000000000E+00 -0.81989984686E+03  0.10844926797E+04  0.70985112054E+03 0.  0.
        2    1    3    3  502    0 -0.21077697271E+03 -0.52871270438E+02  0.18780418068E+02  0.21811695847E+03  0.25500000920E-02 0.  1.
       -2    1    3    3    0  502  0.21077697271E+03  0.52871270438E+02 -0.83868026493E+03  0.86637572118E+03  0.25500000920E-02 0. -1.
</event>
<event>
 5   0  0.3601475E-02  0.7112002E+03  0.7818609E-02  0.9698268E-01
       -1   -1    0    0    0  501  0.00000000000E+00  0.00000000000E+00  0.12428211972E+03  0.12428211982E+03  0.50400001928E-02 0. -1.
        1   -1    0    0  501    0  0.00000000000E+00  0.00000000000E+00 -0.10174547361E+04  0.10174547361E+04  0.50400001928E-02 0.  1.
    10030    2    1    2    0    0  0.00000000000E+00  0.00000000000E+00 -0.89317261634E+03  0.11417368559E+04  0.71120020073E+03 0.  0.
        5    1    3    3  502    0  0.14497198341E+03  0.18282991630E+03 -0.87730847917E+03  0.90781931676E+03  0.46999998093E+01 0.  1.
       -5    1    3    3    0  502 -0.14497198341E+03 -0.18282991630E+03 -0.15864137174E+02  0.23391753913E+03  0.46999998093E+01 0. -1.
</event>
<event>
 5   0  0.6167756E-02  0.7001083E+03  0.7818609E-02  0.9717047E-01
       -2   -1    0    0    0  501  0.00000000000E+00  0.00000000000E+00  0.20021395940E+03  0.20021395942E+03  0.25500000920E-02 0.  1.
        2   -1    0    0  501    0  0.00000000000E+00  0.00000000000E+00 -0.61203474098E+03  0.61203474099E+03  0.25500000920E-02 0. -1.
    10030    2    1    2    0    0  0.00000000000E+00  0.00000000000E+00 -0.41182078158E+03  0.81224870040E+03  0.70010827388E+03 0.  0.
        4    1    3    3  502    0  0.19516513542E+03  0.23230964888E+03 -0.40845689972E+03  0.50881809606E+03  0.12699999809E+01 0. -1.
       -4    1    3    3    0  502 -0.19516513542E+03 -0.23230964888E+03 -0.33638818577E+01  0.30343060434E+03  0.12699999809E+01 0.  1.
</event>
<event>
 5   0  0.5987810E-02  0.7295586E+03  0.7818609E-02  0.9667977E-01
       -2   -1    0    0    0  501  0.00000000000E+00  0.00000000000E+00  0.35108713484E+03  0.35108713485E+03  0.25500000920E-02 0. -1.
        2   -1    0    0  501    0  0.00000000000E+00  0.00000000000E+00 -0.37900548253E+03  0.37900548254E+03  0.25500000920E-02 0.  1.
    10030    2    1    2    0    0  0.00000000000E+00  0.00000000000E+00 -0.27918347688E+02  0.73009261739E+03  0.72955863084E+03 0.  0.
        5    1    3    3  502    0 -0.13984918370E+02  0.16372988158E+03 -0.33983352061E+03  0.37750756786E+03  0.46999998093E+01 0.  1.
       -5    1    3    3    0  502  0.13984918370E+02 -0.16372988158E+03  0.31191517292E+03  0.35258504954E+03  0.46999998093E+01 0. -1.
</event>
<event>
 5   0  0.3749730E-02  0.6922710E+03  0.7818609E-02  0.9730542E-01
       -1   -1    0    0    0  501  0.00000000000E+00  0.00000000000E+00  0.48741971145E+03  0.48741971147E+03  0.50400001928E-02 0. -1.
        1   -1    0    0  501    0  0.00000000000E+00  0.00000000000E+00 -0.24580413936E+03  0.24580413942E+03  0.50400001928E-02 0.  1.
    10030    2    1    2    0    0  0.00000000000E+00  0.00000000000E+00  0.24161557208E+03  0.73322385089E+03  0.69227099523E+03 0.  0.
        4    1    3    3  502    0 -0.59731370905E+02 -0.26305831311E+03 -0.10891133043E+03  0.29091373904E+03  0.12699999809E+01 0.  1.
       -4    1    3    3    0  502  0.59731370905E+02  0.26305831311E+03  0.35052690251E+03  0.44231011185E+03  0.12699999809E+01 0. -1.
</event>
<event>
 5   0  0.2439375E-02  0.5132690E+03  0.7818609E-02  0.1010372E+00
        4   -1    0    0  501    0  0.00000000000E+00  0.00000000000E+00  0.11484330026E+03  0.11485032222E+03  0.12699999809E+01 0. -1.
       -4   -1    0    0    0  501  0.00000000000E+00  0.00000000000E+00 -0.57346293042E+03  0.57346433670E+03  0.12699999809E+01 0.  1.
    10030    2    1    2    0    0  0.00000000000E+00  0.00000000000E+00 -0.45861963016E+03  0.68831465892E+03  0.51326903717E+03 0.  0.
        4    1    3    3  502    0 -0.15994147316E+03 -0.13944195317E+03 -0.35742635241E+02  0.21518476251E+03  0.12699999809E+01 0. -1.
       -4    1    3    3    0  502  0.15994147316E+03  0.13944195317E+03 -0.42287699492E+03  0.47312989641E+03  0.12699999809E+01 0.  1.
</event>
<event>
 5   0  0.5987810E-02  0.7076286E+03  0.7818609E-02  0.9704275E-01
        2   -1    0    0  501    0  0.00000000000E+00  0.00000000000E+00  0.16569931372E+03  0.16569931374E+03  0.25500000920E-02 0. -1.
       -2   -1    0    0    0  501  0.00000000000E+00  0.00000000000E+00 -0.75549221879E+03  0.75549221879E+03  0.25500000920E-02 0.  1.
    10030    2    1    2    0    0  0.00000000000E+00  0.00000000000E+00 -0.58979290507E+03  0.92119153254E+03  0.70762855281E+03 0.  0.
        5    1    3    3  502    0 -0.14879015339E+03  0.22222217867E+03 -0.59640110398E+03  0.65363412799E+03  0.46999998093E+01 0.  1.
       -5    1    3    3    0  502  0.14879015339E+03 -0.22222217867E+03  0.66081989133E+01  0.26755740455E+03  0.46999998093E+01 0. -1.
</event>
<event>
 5   0  0.3717372E-02  0.6974228E+03  0.7818609E-02  0.9721650E-01
       -1   -1    0    0    0  501  0.00000000000E+00  0.00000000000E+00  0.85957565614E+03  0.85957565616E+03  0.50400001928E-02 0.  1.
        1   -1    0    0  501    0  0.00000000000E+00  0.00000000000E+00 -0.14146474995E+03  0.14146475004E+03  0.50400001928E-02 0. -1.
    10030    2    1    2    0    0  0.00000000000E+00  0.00000000000E+00  0.71811090620E+03  0.10010404062E+04  0.69742284250E+03 0.  0.
        3    1    3    3  502    0 -0.18304909048E+03  0.28073424249E+03  0.49733307642E+03  0.59971566892E+03  0.10100000352E+00 0.  1.
       -3    1    3    3    0  502  0.18304909048E+03 -0.28073424249E+03  0.22077782977E+03  0.40132473728E+03  0.10100000352E+00 0. -1.
</event>
<event>
 5   0  0.6131198E-02  0.6986715E+03  0.7818609E-02  0.9719507E-01
        2   -1    0    0  501    0  0.00000000000E+00  0.00000000000E+00  0.13018347592E+04  0.13018347592E+04  0.25500000920E-02 0.  1.
       -2   -1    0    0    0  501  0.00000000000E+00  0.00000000000E+00 -0.93741135821E+02  0.93741135856E+02  0.25500000920E-02 0. -1.
    10030    2    1    2    0    0  0.00000000000E+00  0.00000000000E+00  0.12080936234E+04  0.13955758951E+04  0.69867150795E+03 0.  0.
        1    1    3    3  502    0 -0.86365612177E+02  0.26130933326E+02 -0.70062200472E+02  0.11423903275E+03  0.50400001928E-02 0. -1.
       -1    1    3    3    0  502  0.86365612177E+02 -0.26130933326E+02  0.12781558238E+04  0.12813368623E+04  0.50400001928E-02 0.  1.
</event>
<event>
 5   0  0.3439015E-02  0.7004050E+03  0.7818609E-02  0.9716540E-01
       -1   -1    0    0    0  501  0.00000000000E+00  0.00000000000E+00  0.89685594390E+03  0.89685594391E+03  0.50400001928E-02 0.  1.
        1   -1    0    0  501    0  0.00000000000E+00  0.00000000000E+00 -0.13674636644E+03  0.13674636654E+03  0.50400001928E-02 0. -1.
    10030    2    1    2    0    0  0.00000000000E+00  0.00000000000E+00  0.76010957745E+03  0.10336023105E+04  0.70040500172E+03 0.  0.
        1    1    3    3  502    0 -0.23786452690E+03 -0.24748071254E+02  0.75759078510E+03  0.79444055655E+03  0.50400001928E-02 0.  1.
       -1    1    3    3    0  502  0.23786452690E+03  0.24748071254E+02  0.25187923533E+01  0.23916175390E+03  0.50400001928E-02 0. -1.
</event>
<event>
 5   0  0.6131198E-02  0.6415973E+03  0.7818609E-02  0.9822675E-01
        2   -1    0    0  501    0  0.00000000000E+00  0.00000000000E+00  0.13302829038E+04  0.13302829038E+04  0.25500000920E-02 0.  1.
       -2   -1    0    0    0  501  0.00000000000E+00  0.00000000000E+00 -0.77360811862E+02  0.77360811904E+02  0.25500000920E-02 0. -1.
    10030    2    1    2    0    0  0.00000000000E+00  0.00000000000E+00  0.12529220919E+04  0.14076437157E+04  0.64159727391E+03 0.  0.
        1    1    3    3  502    0  0.75462505182E+02 -0.23409170964E+03  0.10783238524E+04  0.11060180147E+04  0.50400001928E-02 0.  1.
       -1    1    3    3    0  502 -0.75462505182E+02  0.23409170964E+03  0.17459823951E+03  0.30162570096E+03  0.50400001928E-02 0. -1.
</event>
<event>
 5   0  0.6131198E-02  0.6961584E+03  0.7818609E-02  0.9723824E-01
       -2   -1    0    0    0  501  0.00000000000E+00  0.00000000000E+00  0.68261867020E+02  0.68261867068E+02  0.25500000920E-02 0. -1.
        2   -1    0    0  501    0  0.00000000000E+00  0.00000000000E+00 -0.17749167342E+04  0.17749167342E+04  0.25500000920E-02 0.  1.
    10030    2    1    2    0    0  0.00000000000E+00  0.00000000000E+00 -0.17066548671E+04  0.18431786012E+04  0.69615840187E+03 0.  0.
        1    1    3    3  502    0 -0.92958018482E+02  0.15963562002E+03 -0.72230676180E+02  0.19834816608E+03  0.50400001928E-02 0. -1.
       -1    1    3    3    0  502  0.92958018482E+02 -0.15963562002E+03 -0.16344241910E+04  0.16448304352E+04  0.50400001928E-02 0.  1.
</event>
<event>
 5   0  0.5987810E-02  0.6783465E+03  0.7818609E-02  0.9754996E-01
        2   -1    0    0  501    0  0.00000000000E+00  0.00000000000E+00  0.41222624570E+03  0.41222624571E+03  0.25500000920E-02 0. -1.
       -2   -1    0    0    0  501  0.00000000000E+00  0.00000000000E+00 -0.27906641011E+03  0.27906641012E+03  0.25500000920E-02 0.  1.
    10030    2    1    2    0    0  0.00000000000E+00  0.00000000000E+00  0.13315983559E+03  0.69129265583E+03  0.67834651483E+03 0.  0.
        5    1    3    3  502    0  0.46591139505E+02 -0.82185362697E+02  0.39851267132E+03  0.40958467662E+03  0.46999998093E+01 0. -1.
       -5    1    3    3    0  502 -0.46591139505E+02  0.82185362697E+02 -0.26535283573E+03  0.28170797921E+03  0.46999998093E+01 0.  1.
</event>
<event>
 5   0  0.6248886E-02  0.7110699E+03  0.7818609E-02  0.9698486E-01
       -2   -1    0    0    0  501  0.00000000000E+00  0.00000000000E+00  0.81143339392E+02  0.81143339432E+02  0.25500000920E-02 0. -1.
        2   -1    0    0  501    0  0.00000000000E+00  0.00000000000E+00 -0.15578002915E+04  0.15578002915E+04  0.25500000920E-02 0.  1.
    10030    2    1    2    0    0  0.00000000000E+00  0.00000000000E+00 -0.14766569521E+04  0.16389436309E+04  0.71106994816E+03 0.  0.
        3    1    3    3  502    0 -0.14438188238E+02  0.17354274289E+03 -0.14527708441E+04  0.14631707626E+04  0.10100000352E+00 0.  1.
       -3    1    3    3    0  502  0.14438188238E+02 -0.17354274289E+03 -0.23886108030E+02  0.17577286835E+03  0.10100000352E+00 0. -1.
</event>
<event>
 5   0  0.3755872E-02  0.6926951E+03  0.7818609E-02  0.9729807E-01
        1   -1    0    0  501    0  0.00000000000E+00  0.00000000000E+00  0.60889016493E+03  0.60889016495E+03  0.50400001928E-02 0. -1.
       -1   -1    0    0    0  501  0.00000000000E+00  0.00000000000E+00 -0.19700864494E+03  0.19700864500E+03  0.50400001928E-02 0.  1.
    10030    2    1    2    0    0  0.00000000000E+00  0.00000000000E+00  0.41188151999E+03  0.80589880996E+03  0.69269510275E+03 0.  0.
        2    1    3    3  502    0  0.25260416976E+03 -0.21871503237E+03  0.31200719076E+03  0.45715819917E+03  0.25500000920E-02 0. -1.
       -2    1    3    3    0  502 -0.25260416976E+03  0.21871503237E+03  0.99874329227E+02  0.34874061079E+03  0.25500000920E-02 0.  1.
</event>
<event>
 5   0  0.3717372E-02  0.6826290E+03  0.7818609E-02  0.9747409E-01
       -1   -1    0    0    0  501  0.00000000000E+00  0.00000000000E+00  0.18976061619E+03  0.18976061626E+03  0.50400001928E-02 0.  1.
        1   -1    0    0  501    0  0.00000000000E+00  0.00000000000E+00 -0.61390813900E+03  0.61390813902E+03  0.50400001928E-02 0. -1.
    10030    2    1    2    0    0  0.00000000000E+00  0.00000000000E+00 -0.42414752280E+03  0.80366875528E+03  0.68262899668E+03 0.  0.
        3    1    3    3  502    0 -0.11875411780E+03 -0.23005480137E+03 -0.47392447242E+03  0.54002978426E+03  0.10100000352E+00 0. -1.
       -3    1    3    3    0  502  0.11875411780E+03  0.23005480137E+03  0.49776949618E+02  0.26363897102E+03  0.10100000352E+00 0.  1.
</event>
<event>
 5   0  0.3601475E-02  0.6961520E+03  0.7818609E-02  0.9723835E-01
        1   -1    0    0  501    0  0.00000000000E+00  0.00000000000E+00  0.47820025302E+03  0.47820025305E+03  0.50400001928E-02 0.  1.
       -1   -1    0    0    0  501  0.00000000000E+00  0.00000000000E+00 -0.25336017933E+03  0.25336017938E+03  0.50400001928E-02 0. -1.
    10030    2    1    2    0    0  0.00000000000E+00  0.00000000000E+00  0.22484007369E+03  0.73156043243E+03  0.69615200033E+03 0.  0.
        5    1    3    3  502    0  0.29938041815E+03  0.89423747579E+02 -0.48707022100E+02  0.31625892146E+03  0.46999998093E+01 0. -1.
       -5    1    3    3    0  502 -0.29938041815E+03 -0.89423747579E+02  0.27354709579E+03  0.41530151097E+03  0.46999998093E+01 0.  1.
</event>
<event>
 5   0  0.2439375E-02  0.7379418E+03  0.7818609E-02  0.9654460E-01
        3   -1    0    0  501    0  0.00000000000E+00  0.00000000000E+00  0.38073564043E+03  0.38073565383E+03  0.10100000352E+00 0.  1.
       -3   -1    0    0    0  501  0.00000000000E+00  0.00000000000E+00 -0.35756963172E+03  0.35756964598E+03  0.10100000352E+00 0. -1.
    10030    2    1    2    0    0  0.00000000000E+00  0.00000000000E+00  0.23166008714E+02  0.73830529981E+03  0.73794176719E+03 0.  0.
        4    1    3    3  502    0 -0.18242480808E+03 -0.29936998456E+03  0.12669054798E+03  0.37276441100E+03  0.12699999809E+01 0.  1.
       -4    1    3    3    0  502  0.18242480808E+03  0.29936998456E+03 -0.10352453927E+03  0.36554088881E+03  0.12699999809E+01 0. -1.
</event>
<event>
 5   0  0.3755872E-02  0.7058944E+03  0.7818609E-02  0.9707205E-01
        1   -1    0    0  501    0  0.00000000000E+00  0.00000000000E+00  0.10107425979E+04  0.10107425980E+04  0.50400001928E-02 0. -1.
       -1   -1    0    0    0  501  0.00000000000E+00  0.00000000000E+00 -0.12324774112E+03  0.12324774123E+03  0.50400001928E-02 0.  1.
    10030    2    1    2    0    0  0.00000000000E+00  0.00000000000E+00  0.88749485682E+03  0.11339903392E+04  0.70589444571E+03 0.  0.
        2    1    3    3  502    0 -0.42095856515E+02  0.28965240938E+03  0.12689949339E+03  0.31902047086E+03  0.25500000920E-02 0.  1.
       -2    1    3    3    0  502  0.42095856515E+02 -0.28965240938E+03  0.76059536343E+03  0.81496986832E+03  0.25500000920E-02 0. -1.
</event>
<event>
 5   0  0.3439015E-02  0.5880536E+03  0.7818609E-02  0.9930506E-01
       -1   -1    0    0    0  501  0.00000000000E+00  0.00000000000E+00  0.96468805943E+02  0.96468806074E+02  0.50400001928E-02 0.  1.
        1   -1    0    0  501    0  0.00000000000E+00  0.00000000000E+00 -0.89616298564E+03  0.89616298565E+03  0.50400001928E-02 0. -1.
    10030    2    1    2    0    0  0.00000000000E+00  0.00000000000E+00 -0.79969417970E+03  0.99263179173E+03  0.58805364798E+03 0.  0.
        1    1    3    3  502    0 -0.85246844921E+02 -0.74039867129E+02 -0.85810858033E+03  0.86550520631E+03  0.50400001928E-02 0. -1.
       -1    1    3    3    0  502  0.85246844921E+02  0.74039867129E+02  0.58414400631E+02  0.12712658542E+03  0.50400001928E-02 0.  1.
</event>
<event>
 5   0  0.6167756E-02  0.7141703E+03  0.7818609E-02  0.9693301E-01
       -2   -1    0    0    0  501  0.00000000000E+00  0.00000000000E+00  0.11477069155E+03  0.11477069158E+03  0.25500000920E-02 0.  1.
        2   -1    0    0  501    0  0.00000000000E+00  0.00000000000E+00 -0.11109962037E+04  0.11109962037E+04  0.25500000920E-02 0. -1.
    10030    2    1    2    0    0  0.00000000000E+00  0.00000000000E+00 -0.99622551212E+03  0.12257668953E+04  0.71417029518E+03 0.  0.
        4    1    3    3  502    0  0.15445221243E+03  0.71894209216E+01 -0.10505565675E+04  0.10618747045E+04  0.12699999809E+01 0. -1.
       -4    1    3    3    0  502 -0.15445221243E+03 -0.71894209216E+01  0.54331055397E+02  0.16389219072E+03  0.12699999809E+01 0.  1.
</event>
<event>
 5   0  0.3717372E-02  0.7323025E+03  0.7818609E-02  0.9663531E-01
        1   -1    0    0  501    0  0.00000000000E+00  0.00000000000E+00  0.10317464654E+04  0.10317464655E+04  0.50400001928E-02 0. -1.
       -1   -1    0    0    0  501  0.00000000000E+00  0.00000000000E+00 -0.12994154275E+03  0.12994154284E+03  0.50400001928E-02 0.  1.
    10030    2    1    2    0    0  0.00000000000E+00  0.00000000000E+00  0.90180492270E+03  0.11616880083E+04  0.73230247168E+03 0.  0.
        3    1    3    3  502    0  0.21906878225E+03  0.59895381006E+02  0.90651402021E+03  0.93452997119E+03  0.10100000352E+00 0. -1.
       -3    1    3    3    0  502 -0.21906878225E+03 -0.59895381006E+02 -0.47090975038E+01  0.22715803711E+03  0.10100000352E+00 0.  1.
</event>
<event>
 5   0  0.5899787E-02  0.6659752E+03  0.7818609E-02  0.9777256E-01
       -2   -1    0    0    0  501  0.00000000000E+00  0.00000000000E+00  0.17266425712E+03  0.17266425714E+03  0.25500000920E-02 0. -1.
        2   -1    0    0  501    0  0.00000000000E+00  0.00000000000E+00 -0.64217534653E+03  0.64217534654E+03  0.25500000920E-02 0.  1.
    10030    2    1    2    0    0  0.00000000000E+00  0.00000000000E+00 -0.46951108941E+03  0.81483960368E+03  0.66597516218E+03 0.  0.
        2    1    3    3  502    0 -0.33469724356E+01 -0.29395763227E+03 -0.43405552029E+02  0.29716381635E+03  0.25500000920E-02 0. -1.
       -2    1    3    3    0  502  0.33469724356E+01  0.29395763227E+03 -0.42610553738E+03  0.51767578733E+03  0.25500000920E-02 0.  1.
</event>
<event>
 5   0  0.3601475E-02  0.5764403E+03  0.7818609E-02  0.9955528E-01
        1   -1    0    0  501    0  0.00000000000E+00  0.00000000000E+00  0.12463762558E+04  0.12463762558E+04  0.50400001928E-02 0. -1.
       -1   -1    0    0    0  501  0.00000000000E+00  0.00000000000E+00 -0.66649900353E+02  0.66649900544E+02  0.50400001928E-02 0.  1.
    10030    2    1    2    0    0  0.00000000000E+00  0.00000000000E+00  0.11797263555E+04  0.13130261564E+04  0.57644029486E+03 0.  0.
        5    1    3    3  502    0  0.66746441688E+02 -0.22483525200E+03  0.97130615186E+03  0.99923155908E+03  0.46999998093E+01 0. -1.
       -5    1    3    3    0  502 -0.66746441688E+02  0.22483525200E+03  0.20842020361E+03  0.31379459729E+03  0.46999998093E+01 0.  1.
</event>
<event>
 5   0  0.6167756E-02  0.7011713E+03  0.7818609E-02  0.9715231E-01
        2   -1    0    0  501    0  0.00000000000E+00  0.00000000000E+00  0.14741230187E+04  0.14741230187E+04  0.25500000920E-02 0. -1.
       -2   -1    0    0    0  501  0.00000000000E+00  0.00000000000E+00 -0.83378583177E+02  0.83378583216E+02  0.25500000920E-02 0.  1.
    10030    2    1    2    0    0  0.00000000000E+00  0.00000000000E+00  0.13907444355E+04  0.15575016019E+04  0.70117127369E+03 0.  0.
        4    1    3    3  502    0  0.24235153181E+03 -0.25033428475E+03  0.78160722435E+03  0.85575287621E+03  0.12699999809E+01 0. -1.
       -4    1    3    3    0  502 -0.24235153181E+03  0.25033428475E+03  0.60913721119E+03  0.70174872572E+03  0.12699999809E+01 0.  1.
</event>
<event>
 5   0  0.6131198E-02  0.6862895E+03  0.7818609E-02  0.9740970E-01
       -2   -1    0    0    0  501  0.00000000000E+00  0.00000000000E+00  0.17093660594E+03  0.17093660596E+03  0.25500000920E-02 0.  1.
        2   -1    0    0  501    0  0.00000000000E+00  0.00000000000E+00 -0.68884213201E+03  0.68884213201E+03  0.25500000920E-02 0. -1.
    10030    2    1    2    0    0  0.00000000000E+00  0.00000000000E+00 -0.51790552607E+03  0.85977873797E+03  0.68628954846E+03 0.  0.
        1    1    3    3  502    0 -0.31209666175E+03 -0.14121809509E+03 -0.28405428934E+03  0.44500979313E+03  0.50400001928E-02 0.  1.
       -1    1    3    3    0  502  0.31209666175E+03  0.14121809509E+03 -0.23385123673E+03  0.41476894484E+03  0.50400001928E-02 0. -1.
</event>
<event>
 5   0  0.6131198E-02  0.7196595E+03  0.7818609E-02  0.9684190E-01
        2   -1    0    0  501    0  0.00000000000E+00  0.00000000000E+00  0.43010921581E+03  0.43010921582E+03  0.25500000920E-02 0. -1.
       -2   -1    0    0    0  501  0.00000000000E+00  0.00000000000E+00 -0.30103385861E+03  0.30103385862E+03  0.25500000920E-02 0.  1.
    10030    2    1    2    0    0  0.00000000000E+00  0.00000000000E+00  0.12907535720E+03  0.73114307444E+03  0.71965946632E+03 0.  0.
        1    1    3    3  502    0 -0.46067509903E+02  0.79435539044E+02 -0.28892954120E+03  0.30317074420E+03  0.50400001928E-02 0.  1.
       -1    1    3    3    0  502  0.46067509903E+02 -0.79435539044E+02  0.41800489841E+03  0.42797233024E+03  0.50400001928E-02 0. -1.
</event>
<event>
 5   0  0.3755872E-02  0.6987208E+03  0.7818609E-02  0.9719422E-01
       -1   -1    0    0    0  501  0.00000000000E+00  0.00000000000E+00  0.37934022891E+03  0.37934022894E+03  0.50400001928E-02 0. -1.
        1   -1    0    0  501    0  0.00000000000E+00  0.00000000000E+00 -0.32174990757E+03  0.32174990761E+03  0.50400001928E-02 0.  1.
    10030    2    1    2    0    0  0.00000000000E+00  0.00000000000E+00  0.57590321342E+02  0.70109013655E+03  0.69872078433E+03 0.  0.
        2    1    3    3  502    0 -0.26031403815E+03 -0.23246263079E+03  0.12917138358E+02  0.34924078462E+03  0.25500000920E-02 0.  1.
       -2    1    3    3    0  502  0.26031403815E+03  0.23246263079E+03  0.44673182983E+02  0.35184935193E+03  0.25500000920E-02 0. -1.
</event>
<event>
 5   0  0.6167756E-02  0.7033210E+03  0.7818609E-02  0.9711570E-01
       -2   -1    0    0    0  501  0.00000000000E+00  0.00000000000E+00  0.13826830557E+04  0.13826830557E+04  0.25500000920E-02 0. -1.
        2   -1    0    0  501    0  0.00000000000E+00  0.00000000000E+00 -0.89438499842E+02  0.89438499878E+02  0.25500000920E-02 0.  1.
    10030    2    1    2    0    0  0.00000000000E+00  0.00000000000E+00  0.12932445559E+04  0.14721215556E+04  0.70332097449E+03 0.  0.
        4    1    3    3  502    0  0.46166711011E+02 -0.34833981556E+03  0.61765773706E+03  0.71061570863E+03  0.12699999809E+01 0.  1.
       -4    1    3    3    0  502 -0.46166711011E+02  0.34833981556E+03  0.67558681884E+03  0.76150584699E+03  0.12699999809E+01 0. -1.
</event>
<event>
 5   0  0.6167756E-02  0.7044333E+03  0.7818609E-02  0.9709681E-01
       -2   -1    0    0    0  501  0.00000000000E+00  0.00000000000E+00  0.86994265268E+02  0.86994265305E+02  0.25500000920E-02 0.  1.
        2   -1    0    0  501    0  0.00000000000E+00  0.00000000000E+00 -0.14260315036E+04  0.14260315036E+04  0.25500000920E-02 0. -1.
    10030    2    1    2    0    0  0.00000000000E+00  0.00000000000E+00 -0.13390372383E+04  0.15130257689E+04  0.70443328409E+03 0.  0.
        4    1    3    3  502    0 -0.20208297759E+03 -0.10187001393E+02 -0.50301974460E+02  0.20850229343E+03  0.12699999809E+01 0.  1.
       -4    1    3    3    0  502  0.20208297759E+03  0.10187001393E+02 -0.12887352639E+04  0.13045234755E+04  0.12699999809E+01 0. -1.
</event>
<event>
 5   0  0.2439375E-02  0.6084709E+03  0.7818609E-02  0.9887986E-01
        4   -1    0    0  501    0  0.00000000000E+00  0.00000000000E+00  0.24713896658E+03  0.24714222970E+03  0.12699999809E+01 0. -1.
       -4   -1    0    0    0  501  0.00000000000E+00  0.00000000000E+00 -0.37451606275E+03  0.37451821606E+03  0.12699999809E+01 0.  1.
    10030    2    1    2    0    0  0.00000000000E+00  0.00000000000E+00 -0.12737709617E+03  0.62166044576E+03  0.60847085813E+03 0.  0.
        4    1    3    3  502    0  0.95670229921E+00 -0.59987331475E+02  0.24103528096E+03  0.24839286380E+03  0.12699999809E+01 0. -1.
       -4    1    3    3    0  502 -0.95670229921E+00  0.59987331475E+02 -0.36841237713E+03  0.37326758196E+03  0.12699999809E+01 0.  1.
</event>
<event>
 5   0  0.6167756E-02  0.6638721E+03  0.7818609E-02  0.9781092E-01
       -2   -1    0    0    0  501  0.00000000000E+00  0.00000000000E+00  0.46943024127E+03  0.46943024127E+03  0.25500000920E-02 0. -1.
        2   -1    0    0  501    0  0.00000000000E+00  0.00000000000E+00 -0.23471334932E+03  0.23471334933E+03  0.25500000920E-02 0.  1.
    10030    2    1    2    0    0  0.00000000000E+00  0.00000000000E+00  0.23471689195E+03  0.70414359061E+03  0.66387210879E+03 0.  0.
        4    1    3    3  502    0  0.32662512743E+03 -0.50302297472E+02  0.15031817265E+03  0.36305848141E+03  0.12699999809E+01 0. -1.
       -4    1    3    3    0  502 -0.32662512743E+03  0.50302297472E+02  0.84398719297E+02  0.34108510920E+03  0.12699999809E+01 0.  1.
</event>
<event>
 5   0  0.3717372E-02  0.7494031E+03  0.7818609E-02  0.9636287E-01
        1   -1    0    0  501    0  0.00000000000E+00  0.00000000000E+00  0.15444120481E+04  0.15444120481E+04  0.50400001928E-02 0.  1.
       -1   -1    0    0    0  501  0.00000000000E+00  0.00000000000E+00 -0.90909193140E+02  0.90909193279E+02  0.50400001928E-02 0. -1.
    10030    2    1    2    0    0  0.00000000000E+00  0.00000000000E+00  0.14535028549E+04  0.16353212413E+04  0.74940310457E+03 0.  0.
        3    1    3    3  502    0  0.32437807762E+03  0.44447981763E+02  0.11243876594E+04  0.11710868367E+04  0.10100000352E+00 0.  1.
       -3    1    3    3    0  502 -0.32437807762E+03 -0.44447981763E+02  0.32911519553E+03  0.46423440464E+03  0.10100000352E+00 0. -1.
</event>
<event>
 5   0  0.3601475E-02  0.7276140E+03  0.7818609E-02  0.9671140E-01
        1   -1    0    0  501    0  0.00000000000E+00  0.00000000000E+00  0.11690127560E+04  0.11690127561E+04  0.50400001928E-02 0. -1.
       -1   -1    0    0    0  501  0.00000000000E+00  0.00000000000E+00 -0.11321992656E+03  0.11321992667E+03  0.50400001928E-02 0.  1.
    10030    2    1    2    0    0  0.00000000000E+00  0.00000000000E+00  0.10557928295E+04  0.12822326827E+04  0.72761401435E+03 0.  0.
        5    1    3    3  502    0 -0.76698424655E+02 -0.18385660541E+03  0.10642889852E+04  0.10827830040E+04  0.46999998093E+01 0. -1.
       -5    1    3    3    0  502  0.76698424655E+02  0.18385660541E+03 -0.84961557032E+01  0.19944967876E+03  0.46999998093E+01 0.  1.
</event>
<event>
 5   0  0.3717372E-02  0.7075245E+03  0.7818609E-02  0.9704450E-01
       -1   -1    0    0    0  501  0.00000000000E+00  0.00000000000E+00  0.22423517433E+03  0.22423517439E+03  0.50400001928E-02 0. -1.
        1   -1    0    0  501    0  0.00000000000E+00  0.00000000000E+00 -0.55810930313E+03  0.55810930316E+03  0.50400001928E-02 0.  1.
    10030    2    1    2    0    0  0.00000000000E+00  0.00000000000E+00 -0.33387412880E+03  0.78234447755E+03  0.70752452089E+03 0.  0.
        3    1    3    3  502    0  0.11186272240E+03  0.13552354243E+03 -0.50643588864E+03  0.53605710398E+03  0.10100000352E+00 0.  1.
       -3    1    3    3    0  502 -0.11186272240E+03 -0.13552354243E+03  0.17256175984E+03  0.24628737357E+03  0.10100000352E+00 0. -1.
</event>
<event>
 5   0  0.2439375E-02  0.6972501E+03  0.7818609E-02  0.9721946E-01
        4   -1    0    0  501    0  0.00000000000E+00  0.00000000000E+00  0.33970688101E+03  0.33970925496E+03  0.12699999809E+01 0.  1.
       -4   -1    0    0    0  501  0.00000000000E+00  0.00000000000E+00 -0.35777260621E+03  0.35777486029E+03  0.12699999809E+01 0. -1.
    10030    2    1    2    0    0  0.00000000000E+00  0.00000000000E+00 -0.18065725197E+02  0.69748411526E+03  0.69725011338E+03 0.  0.
        3    1    3    3  502    0 -0.78754282205E+02 -0.13474039636E+03 -0.32087809591E+03  0.35681924557E+03  0.10100000352E+00 0. -1.
       -3    1    3    3    0  502  0.78754282205E+02  0.13474039636E+03  0.30281237071E+03  0.34066486968E+03  0.10100000352E+00 0.  1.
</event>
<event>
 5   0  0.6248886E-02  0.6896307E+03  0.7818609E-02  0.9735131E-01
       -2   -1    0    0    0  501  0.00000000000E+00  0.00000000000E+00  0.62602239336E+02  0.62602239388E+02  0.25500000920E-02 0.  1.
        2   -1    0    0  501    0  0.00000000000E+00  0.00000000000E+00 -0.18992552918E+04  0.18992552918E+04  0.25500000920E-02 0. -1.
    10030    2    1    2    0    0  0.00000000000E+00  0.00000000000E+00 -0.18366530524E+04  0.19618575312E+04  0.68963072550E+03 0.  0.
        3    1    3    3  502    0 -0.23875938129E+03 -0.14207240782E+03 -0.14992988003E+04  0.15248237649E+04  0.10100000352E+00 0. -1.
       -3    1    3    3    0  502  0.23875938129E+03  0.14207240782E+03 -0.33735425214E+03  0.43703376626E+03  0.10100000352E+00 0.  1.
</event>
<event>
 5   0  0.5987810E-02  0.7043178E+03  0.7818609E-02  0.9709876E-01
       -2   -1    0    0    0  501  0.00000000000E+00  0.00000000000E+00  0.90312646876E+02  0.90312646912E+02  0.25500000920E-02 0. -1.
        2   -1    0    0  501    0  0.00000000000E+00  0.00000000000E+00 -0.13731842353E+04  0.13731842353E+04  0.25500000920E-02 0.  1.
    10030    2    1    2    0    0  0.00000000000E+00  0.00000000000E+00 -0.12828715884E+04  0.14634968822E+04  0.70431783441E+03 0.  0.
        5    1    3    3  502    0 -0.21125314386E+03 -0.17980632134E+03 -0.10920828123E+04  0.11267764476E+04  0.46999998093E+01 0.  1.
       -5    1    3    3    0  502  0.21125314386E+03  0.17980632134E+03 -0.19078877613E+03  0.33672043460E+03  0.46999998093E+01 0. -1.
</event>
<event>
 5   0  0.5899787E-02  0.6886155E+03  0.7818609E-02  0.9736902E-01
       -2   -1    0    0    0  501  0.00000000000E+00  0.00000000000E+00  0.16905174195E+03  0.16905174197E+03  0.25500000920E-02 0. -1.
        2   -1    0    0  501    0  0.00000000000E+00  0.00000000000E+00 -0.70125172496E+03  0.70125172497E+03  0.25500000920E-02 0.  1.
    10030    2    1    2    0    0  0.00000000000E+00  0.00000000000E+00 -0.53219998301E+03  0.87030346694E+03  0.68861549696E+03 0.  0.
        2    1    3    3  502    0 -0.16683980639E+03  0.10159292494E+03  0.92242351781E+02  0.21602151481E+03  0.25500000920E-02 0. -1.
       -2    1    3    3    0  502  0.16683980639E+03 -0.10159292494E+03 -0.62444233479E+03  0.65428195213E+03  0.25500000920E-02 0.  1.
</event>
<event>
 5   0  0.3755872E-02  0.6937888E+03  0.7818609E-02  0.9727913E-01
       -1   -1    0    0    0  501  0.00000000000E+00  0.00000000000E+00  0.13487818682E+03  0.13487818691E+03  0.50400001928E-02 0.  1.
        1   -1    0    0  501    0  0.00000000000E+00  0.00000000000E+00 -0.89218083000E+03  0.89218083001E+03  0.50400001928E-02 0. -1.
    10030    2    1    2    0    0  0.00000000000E+00  0.00000000000E+00 -0.75730264318E+03  0.10270590169E+04  0.69378882297E+03 0.  0.
        2    1    3    3  502    0 -0.15635595125E+03 -0.21945379152E+03 -0.70206424450E+03  0.75199824037E+03  0.25500000920E-02 0. -1.
       -2    1    3    3    0  502  0.15635595125E+03  0.21945379152E+03 -0.55238398681E+02  0.27506077656E+03  0.25500000920E-02 0.  1.
</event>
<event>
 5   0  0.6131198E-02  0.6963213E+03  0.7818609E-02  0.9723544E-01
        2   -1    0    0  501    0  0.00000000000E+00  0.00000000000E+00  0.22598716522E+04  0.22598716522E+04  0.25500000920E-02 0.  1.
       -2   -1    0    0    0  501  0.00000000000E+00  0.00000000000E+00 -0.53638372355E+02  0.53638372416E+02  0.25500000920E-02 0. -1.
    10030    2    1    2    0    0  0.00000000000E+00  0.00000000000E+00  0.22062332798E+04  0.23135100246E+04  0.69632129718E+03 0.  0.
        1    1    3    3  502    0  0.32104044005E+03  0.57801227279E+02  0.69881238268E+03  0.77119821851E+03  0.50400001928E-02 0. -1.
       -1    1    3    3    0  502 -0.32104044005E+03 -0.57801227279E+02  0.15074208972E+04  0.15423118061E+04  0.50400001928E-02 0.  1.
</event>
<event>
 5   0  0.3601475E-02  0.6784649E+03  0.7818609E-02  0.9754786E-01
        1   -1    0    0  501    0  0.00000000000E+00  0.00000000000E+00  0.17814410911E+03  0.17814410918E+03  0.50400001928E-02 0. -1.
       -1   -1    0    0    0  501  0.00000000000E+00  0.00000000000E+00 -0.64598637701E+03  0.64598637703E+03  0.50400001928E-02 0.  1.
    10030    2    1    2    0    0  0.00000000000E+00  0.00000000000E+00 -0.46784226790E+03  0.82413048622E+03  0.67846493696E+03 0.  0.
        5    1    3    3  502    0 -0.15784668402E+03  0.28337468864E+03 -0.11342823891E+03  0.34366385495E+03  0.46999998093E+01 0. -1.
       -5    1    3    3    0  502  0.15784668402E+03 -0.28337468864E+03 -0.35441402899E+03  0.48046663127E+03  0.46999998093E+01 0.  1.
</event>
<event>
 5   0  0.2439375E-02  0.6930204E+03  0.7818609E-02  0.9729243E-01
       -4   -1    0    0    0  501  0.00000000000E+00  0.00000000000E+00  0.42214706393E+03  0.42214897428E+03  0.12699999809E+01 0.  1.
        4   -1    0    0  501    0  0.00000000000E+00  0.00000000000E+00 -0.28442134184E+03  0.28442417723E+03  0.12699999809E+01 0. -1.
    10030    2    1    2    0    0  0.00000000000E+00  0.00000000000E+00  0.13772572209E+03  0.70657315151E+03  0.69302037770E+03 0.  0.
        4    1    3    3  502    0  0.96536106217E+02  0.15338490446E+03  0.36997136745E+03  0.41197885182E+03  0.12699999809E+01 0.  1.
       -4    1    3    3    0  502 -0.96536106217E+02 -0.15338490446E+03 -0.23224564535E+03  0.29459429968E+03  0.12699999809E+01 0. -1.
</event>
<event>
 5   0  0.3439015E-02  0.7079196E+03  0.7818609E-02  0.9703784E-01
       -1   -1    0    0    0  501  0.00000000000E+00  0.00000000000E+00  0.18701304555E+03  0.18701304562E+03  0.50400001928E-02 0. -1.
        1   -1    0    0  501    0  0.00000000000E+00  0.00000000000E+00 -0.66994020208E+03  0.66994020210E+03  0.50400001928E-02 0.  1.
    10030    2    1    2    0    0  0.00000000000E+00  0.00000000000E+00 -0.48292715653E+03  0.85695324772E+03  0.70791964958E+03 0.  0.
        1    1    3    3  502    0  0.26497969674E+03  0.12175037497E+03 -0.48432413671E+03  0.56533818455E+03  0.50400001928E-02 0.  1.
       -1    1    3    3    0  502 -0.26497969674E+03 -0.12175037497E+03  0.13969801822E+01  0.29161506317E+03  0.50400001928E-02 0. -1.
</event>
<event>
 5   0  0.2439375E-02  0.7029976E+03  0.7818609E-02  0.9712120E-01
        3   -1    0    0  501    0  0.00000000000E+00  0.00000000000E+00  0.22805245293E+03  0.22805247529E+03  0.10100000352E+00 0.  1.
       -3   -1    0    0    0  501  0.00000000000E+00  0.00000000000E+00 -0.54176747007E+03  0.54176747948E+03  0.10100000352E+00 0. -1.
    10030    2    1    2    0    0  0.00000000000E+00  0.00000000000E+00 -0.31371501714E+03  0.76981995478E+03  0.70299761791E+03 0.  0.
        1    1    3    3  502    0  0.16463896217E+03  0.27178669572E+03 -0.32139786608E+03  0.45196303409E+03  0.50400001928E-02 0. -1.
       -1    1    3    3    0  502 -0.16463896217E+03 -0.27178669572E+03  0.76828489470E+01  0.31785692069E+03  0.50400001928E-02 0.  1.
</event>
<event>
 5   0  0.3717372E-02  0.6954940E+03  0.7818609E-02  0.9724969E-01
       -1   -1    0    0    0  501  0.00000000000E+00  0.00000000000E+00  0.21865876561E+03  0.21865876567E+03  0.50400001928E-02 0. -1.
        1   -1    0    0  501    0  0.00000000000E+00  0.00000000000E+00 -0.55304423128E+03  0.55304423131E+03  0.50400001928E-02 0.  1.
    10030    2    1    2    0    0  0.00000000000E+00  0.00000000000E+00 -0.33438546568E+03  0.77170299697E+03  0.69549397976E+03 0.  0.
        3    1    3    3  502    0 -0.60813224644E+02 -0.15692745479E+03  0.17046016083E+03  0.23954363066E+03  0.10100000352E+00 0. -1.
       -3    1    3    3    0  502  0.60813224644E+02  0.15692745479E+03 -0.50484562650E+03  0.53215936632E+03  0.10100000352E+00 0.  1.
</event>
<event>
 5   0  0.3755872E-02  0.7774766E+03  0.7818609E-02  0.9593203E-01
       -1   -1    0    0    0  501  0.00000000000E+00  0.00000000000E+00  0.40099233920E+03  0.40099233923E+03  0.50400001928E-02 0. -1.
        1   -1    0    0  501    0  0.00000000000E+00  0.00000000000E+00 -0.37685877559E+03  0.37685877562E+03  0.50400001928E-02 0.  1.
    10030    2    1    2    0    0  0.00000000000E+00  0.00000000000E+00  0.24133563609E+02  0.77785111485E+03  0.77747664143E+03 0.  0.
        2    1    3    3  502    0  0.25711491657E+03  0.26738033746E+03 -0.10425252476E+03  0.38531664136E+03  0.25500000920E-02 0.  1.
       -2    1    3    3    0  502 -0.25711491657E+03 -0.26738033746E+03  0.12838608837E+03  0.39253447349E+03  0.25500000920E-02 0. -1.
</event>
<event>
 5   0  0.3717372E-02  0.7063482E+03  0.7818609E-02  0.9706437E-01
       -1   -1    0    0    0  501  0.00000000000E+00  0.00000000000E+00  0.27750117822E+03  0.27750117827E+03  0.50400001928E-02 0. -1.
        1   -1    0    0  501    0  0.00000000000E+00  0.00000000000E+00 -0.44948255719E+03  0.44948255722E+03  0.50400001928E-02 0.  1.
    10030    2    1    2    0    0  0.00000000000E+00  0.00000000000E+00 -0.17198137897E+03  0.72698373548E+03  0.70634818393E+03 0.  0.
        3    1    3    3  502    0  0.22126308212E+03 -0.27470885540E+03 -0.67880542688E+02  0.35920757929E+03  0.10100000352E+00 0. -1.
       -3    1    3    3    0  502 -0.22126308212E+03  0.27470885540E+03 -0.10410083628E+03  0.36777615619E+03  0.10100000352E+00 0.  1.
</event>
<event>
 5   0  0.3749730E-02  0.6592124E+03  0.7818609E-02  0.9789645E-01
        1   -1    0    0  501    0  0.00000000000E+00  0.00000000000E+00  0.58713955154E+03  0.58713955156E+03  0.50400001928E-02 0.  1.
       -1   -1    0    0    0  501  0.00000000000E+00  0.00000000000E+00 -0.18503307103E+03  0.18503307110E+03  0.50400001928E-02 0. -1.
    10030    2    1    2    0    0  0.00000000000E+00  0.00000000000E+00  0.40210648051E+03  0.77217262266E+03  0.65921236148E+03 0.  0.
        4    1    3    3  502    0 -0.15868991969E+03 -0.23422479438E+03  0.29766413970E+01  0.28293854139E+03  0.12699999809E+01 0. -1.
       -4    1    3    3    0  502  0.15868991969E+03  0.23422479438E+03  0.39912983911E+03  0.48923408127E+03  0.12699999809E+01 0.  1.
</event>
<event>
 5   0  0.2439375E-02  0.7061138E+03  0.7818609E-02  0.9706834E-01
        4   -1    0    0  501    0  0.00000000000E+00  0.00000000000E+00  0.59833703073E+03  0.59833837854E+03  0.12699999809E+01 0. -1.
       -4   -1    0    0    0  501  0.00000000000E+00  0.00000000000E+00 -0.20832250623E+03  0.20832637736E+03  0.12699999809E+01 0.  1.
    10030    2    1    2    0    0  0.00000000000E+00  0.00000000000E+00  0.39001452449E+03  0.80666475590E+03  0.70611380039E+03 0.  0.
        3    1    3    3  502    0  0.20595483839E+03  0.18996763598E+03  0.44040825474E+03  0.52198135908E+03  0.10100000352E+00 0. -1.
       -3    1    3    3    0  502 -0.20595483839E+03 -0.18996763598E+03 -0.50393730251E+02  0.28468339682E+03  0.10100000352E+00 0.  1.
</event>
<event>
 5   0  0.5899787E-02  0.6807506E+03  0.7818609E-02  0.9750729E-01
        2   -1    0    0  501    0  0.00000000000E+00  0.00000000000E+00  0.76856241601E+03  0.76856241601E+03  0.25500000920E-02 0. -1.
       -2   -1    0    0    0  501  0.00000000000E+00  0.00000000000E+00 -0.15074293075E+03  0.15074293077E+03  0.25500000920E-02 0.  1.
    10030    2    1    2    0    0  0.00000000000E+00  0.00000000000E+00  0.61781948526E+03  0.91930534678E+03  0.68075061825E+03 0.  0.
        2    1    3    3  502    0  0.20444532410E+03  0.80479842907E+02  0.65997051063E+03  0.69558318738E+03  0.25500000920E-02 0. -1.
       -2    1    3    3    0  502 -0.20444532410E+03 -0.80479842907E+02 -0.42151025371E+02  0.22372215940E+03  0.25500000920E-02 0.  1.
</event>
<event>
 5   0  0.3755872E-02  0.8741908E+03  0.7818609E-02  0.9458432E-01
        1   -1    0    0  501    0  0.00000000000E+00  0.00000000000E+00  0.15484209966E+04  0.15484209966E+04  0.50400001928E-02 0. -1.
       -1   -1    0    0    0  501  0.00000000000E+00  0.00000000000E+00 -0.12338530688E+03  0.12338530698E+03  0.50400001928E-02 0.  1.
    10030    2    1    2    0    0  0.00000000000E+00  0.00000000000E+00  0.14250356898E+04  0.16718063036E+04  0.87419082570E+03 0.  0.
        2    1    3    3  502    0  0.13276682634E+03  0.19775061819E+03  0.11627371499E+02  0.23846914464E+03  0.25500000920E-02 0.  1.
       -2    1    3    3    0  502 -0.13276682634E+03 -0.19775061819E+03  0.14134083183E+04  0.14333371590E+04  0.25500000920E-02 0. -1.
</event>
<event>
 5   0  0.3601475E-02  0.6917862E+03  0.7818609E-02  0.9731383E-01
        1   -1    0    0  501    0  0.00000000000E+00  0.00000000000E+00  0.13735392133E+04  0.13735392133E+04  0.50400001928E-02 0.  1.
       -1   -1    0    0    0  501  0.00000000000E+00  0.00000000000E+00 -0.87104936002E+02  0.87104936147E+02  0.50400001928E-02 0. -1.
    10030    2    1    2    0    0  0.00000000000E+00  0.00000000000E+00  0.12864342773E+04  0.14606441495E+04  0.69178622532E+03 0.  0.
        5    1    3    3  502    0  0.33764449564E+03  0.43791309302E+02  0.77162264061E+03  0.84341275406E+03  0.46999998093E+01 0.  1.
       -5    1    3    3    0  502 -0.33764449564E+03 -0.43791309302E+02  0.51481163670E+03  0.61723139541E+03  0.46999998093E+01 0. -1.
</event>
<event>
 5   0  0.3601475E-02  0.7002439E+03  0.7818609E-02  0.9716815E-01
       -1   -1    0    0    0  501  0.00000000000E+00  0.00000000000E+00  0.10577734092E+03  0.10577734104E+03  0.50400001928E-02 0. -1.
        1   -1    0    0  501    0  0.00000000000E+00  0.00000000000E+00 -0.11589000213E+04  0.11589000213E+04  0.50400001928E-02 0.  1.
    10030    2    1    2    0    0  0.00000000000E+00  0.00000000000E+00 -0.10531226804E+04  0.12646773624E+04  0.70024385104E+03 0.  0.
        5    1    3    3  502    0  0.29973332901E+03 -0.17326294895E+03 -0.43266127488E+03  0.55414617817E+03  0.46999998093E+01 0.  1.
       -5    1    3    3    0  502 -0.29973332901E+03  0.17326294895E+03 -0.62046140553E+03  0.71053118422E+03  0.46999998093E+01 0. -1.
</event>
<event>
 5   0  0.6248886E-02  0.6947141E+03  0.7818609E-02  0.9726315E-01
        2   -1    0    0  501    0  0.00000000000E+00  0.00000000000E+00  0.77235283199E+03  0.77235283199E+03  0.25500000920E-02 0.  1.
       -2   -1    0    0    0  501  0.00000000000E+00  0.00000000000E+00 -0.15621992811E+03  0.15621992813E+03  0.25500000920E-02 0. -1.
    10030    2    1    2    0    0  0.00000000000E+00  0.00000000000E+00  0.61613290387E+03  0.92857276013E+03  0.69471405313E+03 0.  0.
        3    1    3    3  502    0  0.19106224429E+03 -0.27187098551E+03  0.44331211616E+03  0.55402550166E+03  0.10100000352E+00 0.  1.
       -3    1    3    3    0  502 -0.19106224429E+03  0.27187098551E+03  0.17282078771E+03  0.37454725846E+03  0.10100000352E+00 0. -1.
</event>
<event>
 5   0  0.6248886E-02  0.6964211E+03  0.7818609E-02  0.9723372E-01
       -2   -1    0    0    0  501  0.00000000000E+00  0.00000000000E+00  0.14250743086E+03  0.14250743088E+03  0.25500000920E-02 0. -1.
        2   -1    0    0  501    0  0.00000000000E+00  0.00000000000E+00 -0.85083706108E+03  0.85083706108E+03  0.25500000920E-02 0.  1.
    10030    2    1    2    0    0  0.00000000000E+00  0.00000000000E+00 -0.70832963021E+03  0.99334449196E+03  0.69642114749E+03 0.  0.
        3    1    3    3  502    0  0.11253212383E+03 -0.30777059828E+03 -0.52211406207E+03  0.61643274091E+03  0.10100000352E+00 0.  1.
       -3    1    3    3    0  502 -0.11253212383E+03  0.30777059828E+03 -0.18621556815E+03  0.37691175105E+03  0.10100000352E+00 0. -1.
</event>
<event>
 5   0  0.6167756E-02  0.7207422E+03  0.7818609E-02  0.9682403E-01
       -2   -1    0    0    0  501  0.00000000000E+00  0.00000000000E+00  0.73366286152E+03  0.73366286152E+03  0.25500000920E-02 0.  1.
        2   -1    0    0  501    0  0.00000000000E+00  0.00000000000E+00 -0.17701225712E+03  0.17701225714E+03  0.25500000920E-02 0. -1.
    10030    2    1    2    0    0  0.00000000000E+00  0.00000000000E+00  0.55665060439E+03  0.91067511866E+03  0.72074217053E+03 0.  0.
        4    1    3    3  502    0 -0.82653738853E+02 -0.96420915818E+02  0.70444789491E+03  0.71580519913E+03  0.12699999809E+01 0.  1.
       -4    1    3    3    0  502  0.82653738853E+02  0.96420915818E+02 -0.14779729052E+03  0.19486991953E+03  0.12699999809E+01 0. -1.
</event>
<event>
 5   0  0.6248886E-02  0.7370714E+03  0.7818609E-02  0.9655855E-01
       -2   -1    0    0    0  501  0.00000000000E+00  0.00000000000E+00  0.12345429204E+03  0.12345429206E+03  0.25500000920E-02 0.  1.
        2   -1    0    0  501    0  0.00000000000E+00  0.00000000000E+00 -0.11001524793E+04  0.11001524793E+04  0.25500000920E-02 0. -1.
    10030    2    1    2    0    0  0.00000000000E+00  0.00000000000E+00 -0.97669818723E+03  0.12236067713E+04  0.73707135470E+03 0.  0.
        3    1    3    3  502    0 -0.25003335049E+03 -0.19618412158E+02 -0.93662630906E+03  0.96962385051E+03  0.10100000352E+00 0. -1.
       -3    1    3    3    0  502  0.25003335049E+03  0.19618412158E+02 -0.40071878171E+02  0.25398292083E+03  0.10100000352E+00 0.  1.
</event>
<event>
 5   0  0.6131198E-02  0.7012952E+03  0.7818609E-02  0.9715020E-01
       -2   -1    0    0    0  501  0.00000000000E+00  0.00000000000E+00  0.76734335253E+02  0.76734335296E+02  0.25500000920E-02 0. -1.
        2   -1    0    0  501    0  0.00000000000E+00  0.00000000000E+00 -0.16023299301E+04  0.16023299301E+04  0.25500000920E-02 0.  1.
    10030    2    1    2    0    0  0.00000000000E+00  0.00000000000E+00 -0.15255955948E+04  0.16790642654E+04  0.70129515064E+03 0.  0.
        1    1    3    3  502    0  0.14188718686E+03 -0.31546679408E+03 -0.90038708254E+03  0.96454557715E+03  0.50400001928E-02 0.  1.
       -1    1    3    3    0  502 -0.14188718686E+03  0.31546679408E+03 -0.62520851226E+03  0.71451868820E+03  0.50400001928E-02 0. -1.
</event>
<event>
 5   0  0.6248886E-02  0.6919546E+03  0.7818609E-02  0.9731091E-01
       -2   -1    0    0    0  501  0.00000000000E+00  0.00000000000E+00  0.15401766594E+03  0.15401766596E+03  0.25500000920E-02 0. -1.
        2   -1    0    0  501    0  0.00000000000E+00  0.00000000000E+00 -0.77718542311E+03  0.77718542311E+03  0.25500000920E-02 0.  1.
    10030    2    1    2    0    0  0.00000000000E+00  0.00000000000E+00 -0.62316775717E+03  0.93120308907E+03  0.69195457909E+03 0.  0.
        3    1    3    3  502    0  0.12288385158E+03  0.20986448134E+03 -0.64275163019E+03  0.68722136887E+03  0.10100000352E+00 0.  1.
       -3    1    3    3    0  502 -0.12288385158E+03 -0.20986448134E+03  0.19583873027E+02  0.24398172020E+03  0.10100000352E+00 0. -1.
</event>
<event>
 5   0  0.5987810E-02  0.6847825E+03  0.7818609E-02  0.9743616E-01
        2   -1    0    0  501    0  0.00000000000E+00  0.00000000000E+00  0.11208637453E+04  0.11208637453E+04  0.25500000920E-02 0.  1.
       -2   -1    0    0    0  501  0.00000000000E+00  0.00000000000E+00 -0.10459054759E+03  0.10459054762E+03  0.25500000920E-02 0. -1.
    10030    2    1    2    0    0  0.00000000000E+00  0.00000000000E+00  0.10162731977E+04  0.12254542929E+04  0.68478245571E+03 0.  0.
        5    1    3    3  502    0 -0.22403462930E+03  0.19970225398E+03  0.21333714784E+03  0.36824901088E+03  0.46999998093E+01 0.  1.
       -5    1    3    3    0  502  0.22403462930E+03 -0.19970225398E+03  0.80293604988E+03  0.85720528204E+03  0.46999998093E+01 0. -1.
</event>
<event>
 5   0  0.3717372E-02  0.6905863E+03  0.7818609E-02  0.9733468E-01
        1   -1    0    0  501    0  0.00000000000E+00  0.00000000000E+00  0.12684182327E+04  0.12684182327E+04  0.50400001928E-02 0.  1.
       -1   -1    0    0    0  501  0.00000000000E+00  0.00000000000E+00 -0.93996871946E+02  0.93996872081E+02  0.50400001928E-02 0. -1.
    10030    2    1    2    0    0  0.00000000000E+00  0.00000000000E+00  0.11744213607E+04  0.13624151048E+04  0.69058626192E+03 0.  0.
        3    1    3    3  502    0 -0.95333234161E+02 -0.33165430263E+03  0.56350917171E+03  0.66077651199E+03  0.10100000352E+00 0.  1.
       -3    1    3    3    0  502  0.95333234161E+02  0.33165430263E+03  0.61091218901E+03  0.70163859278E+03  0.10100000352E+00 0. -1.
</event>
<event>
 5   0  0.2439375E-02  0.7356699E+03  0.7818609E-02  0.9658104E-01
        3   -1    0    0  501    0  0.00000000000E+00  0.00000000000E+00  0.37284408053E+03  0.37284409421E+03  0.10100000352E+00 0. -1.
       -3   -1    0    0    0  501  0.00000000000E+00  0.00000000000E+00 -0.36289310765E+03  0.36289312171E+03  0.10100000352E+00 0.  1.
    10030    2    1    2    0    0  0.00000000000E+00  0.00000000000E+00  0.99509728784E+01  0.73573721592E+03  0.73566991853E+03 0.  0.
        1    1    3    3  502    0 -0.15371369704E+03 -0.32732087797E+03  0.72329248670E+02  0.36877957922E+03  0.50400001928E-02 0.  1.
       -1    1    3    3    0  502  0.15371369704E+03  0.32732087797E+03 -0.62378275792E+02  0.36695763670E+03  0.50400001928E-02 0. -1.
</event>
<event>
 5   0  0.3439015E-02  0.7037124E+03  0.7818609E-02  0.9710904E-01
        1   -1    0    0  501    0  0.00000000000E+00  0.00000000000E+00  0.87557847441E+03  0.87557847443E+03  0.50400001928E-02 0. -1.
       -1   -1    0    0    0  501  0.00000000000E+00  0.00000000000E+00 -0.14139542100E+03  0.14139542109E+03  0.50400001928E-02 0.  1.
    10030    2    1    2    0    0  0.00000000000E+00  0.00000000000E+00  0.73418305341E+03  0.10169738955E+04  0.70371240451E+03 0.  0.
        1    1    3    3  502    0  0.27517326200E+03 -0.81459830327E+02  0.72879862597E+02  0.29608698464E+03  0.50400001928E-02 0. -1.
       -1    1    3    3    0  502 -0.27517326200E+03  0.81459830327E+02  0.66130319081E+03  0.72088691088E+03  0.50400001928E-02 0.  1.
</event>
<event>
 5   0  0.3717372E-02  0.7100706E+03  0.7818609E-02  0.9700163E-01
       -1   -1    0    0    0  501  0.00000000000E+00  0.00000000000E+00  0.38504742166E+03  0.38504742169E+03  0.50400001928E-02 0.  1.
        1   -1    0    0  501    0  0.00000000000E+00  0.00000000000E+00 -0.32736246100E+03  0.32736246104E+03  0.50400001928E-02 0. -1.
    10030    2    1    2    0    0  0.00000000000E+00  0.00000000000E+00  0.57684960651E+02  0.71240988273E+03  0.71007062066E+03 0.  0.
        3    1    3    3  502    0 -0.10699201811E+03 -0.83029737518E+01 -0.31070091214E+03  0.32871157314E+03  0.10100000352E+00 0. -1.
       -3    1    3    3    0  502  0.10699201811E+03  0.83029737518E+01  0.36838587279E+03  0.38369830959E+03  0.10100000352E+00 0.  1.
</event>
<event>
 5   0  0.3749730E-02  0.7021679E+03  0.7818609E-02  0.9713532E-01
       -1   -1    0    0    0  501  0.00000000000E+00  0.00000000000E+00  0.30629221956E+03  0.30629221960E+03  0.50400001928E-02 0.  1.
        1   -1    0    0  501    0  0.00000000000E+00  0.00000000000E+00 -0.40242600145E+03  0.40242600148E+03  0.50400001928E-02 0. -1.
    10030    2    1    2    0    0  0.00000000000E+00  0.00000000000E+00 -0.96133781892E+02  0.70871822109E+03  0.70216793780E+03 0.  0.
        4    1    3    3  502    0  0.22954560585E+02  0.20446911058E+03  0.23905795022E+03  0.31541218349E+03  0.12699999809E+01 0.  1.
       -4    1    3    3    0  502 -0.22954560585E+02 -0.20446911058E+03 -0.33519173211E+03  0.39330603759E+03  0.12699999809E+01 0. -1.
</event>
<event>
 5   0  0.3749730E-02  0.7347918E+03  0.7818609E-02  0.9659516E-01
       -1   -1    0    0    0  501  0.00000000000E+00  0.00000000000E+00  0.18741014092E+03  0.18741014098E+03  0.50400001928E-02 0. -1.
        1   -1    0    0  501    0  0.00000000000E+00  0.00000000000E+00 -0.72023712080E+03  0.72023712082E+03  0.50400001928E-02 0.  1.
    10030    2    1    2    0    0  0.00000000000E+00  0.00000000000E+00 -0.53282697988E+03  0.90764726180E+03  0.73479178096E+03 0.  0.
        4    1    3    3  502    0  0.55776855299E+02  0.11230911858E+03 -0.69298200882E+03  0.70423722789E+03  0.12699999809E+01 0.  1.
       -4    1    3    3    0  502 -0.55776855299E+02 -0.11230911858E+03  0.16015502893E+03  0.20341003391E+03  0.12699999809E+01 0. -1.
</event>
<event>
 5   0  0.6167756E-02  0.6916575E+03  0.7818609E-02  0.9731606E-01
        2   -1    0    0  501    0  0.00000000000E+00  0.00000000000E+00  0.20408494575E+03  0.20408494577E+03  0.25500000920E-02 0.  1.
       -2   -1    0    0    0  501  0.00000000000E+00  0.00000000000E+00 -0.58601836819E+03  0.58601836819E+03  0.25500000920E-02 0. -1.
    10030    2    1    2    0    0  0.00000000000E+00  0.00000000000E+00 -0.38193342243E+03  0.79010331396E+03  0.69165750741E+03 0.  0.
        4    1    3    3  502    0  0.90663349000E+02  0.12020918851E+03  0.16467487194E+03  0.22313564978E+03  0.12699999809E+01 0.  1.
       -4    1    3    3    0  502 -0.90663349000E+02 -0.12020918851E+03 -0.54660829437E+03  0.56696766418E+03  0.12699999809E+01 0. -1.
</event>
<event>
 5   0  0.5987810E-02  0.6787771E+03  0.7818609E-02  0.9754231E-01
        2   -1    0    0  501    0  0.00000000000E+00  0.00000000000E+00  0.27873753629E+03  0.27873753631E+03  0.25500000920E-02 0. -1.
       -2   -1    0    0    0  501  0.00000000000E+00  0.00000000000E+00 -0.41323677406E+03  0.41323677407E+03  0.25500000920E-02 0.  1.
    10030    2    1    2    0    0  0.00000000000E+00  0.00000000000E+00 -0.13449923776E+03  0.69197431037E+03  0.67877713666E+03 0.  0.
        5    1    3    3  502    0 -0.63938464646E+01  0.23021514596E+03  0.18684041580E+03  0.29659960499E+03  0.46999998093E+01 0. -1.
       -5    1    3    3    0  502  0.63938464646E+01 -0.23021514596E+03 -0.32133965357E+03  0.39537470538E+03  0.46999998093E+01 0.  1.
</event>
<event>
 5   0  0.3749730E-02  0.7085210E+03  0.7818609E-02  0.9702770E-01
       -1   -1    0    0    0  501  0.00000000000E+00  0.00000000000E+00  0.85440058383E+03  0.85440058385E+03  0.50400001928E-02 0. -1.
        1   -1    0    0  501    0  0.00000000000E+00  0.00000000000E+00 -0.14688717043E+03  0.14688717052E+03  0.50400001928E-02 0.  1.
    10030    2    1    2    0    0  0.00000000000E+00  0.00000000000E+00  0.70751341340E+03  0.10012877544E+04  0.70852095021E+03 0.  0.
        4    1    3    3  502    0  0.15694893562E+03 -0.31683692546E+03  0.38472711613E+03  0.52252767631E+03  0.12699999809E+01 0. -1.
       -4    1    3    3    0  502 -0.15694893562E+03  0.31683692546E+03  0.32278629727E+03  0.47876007805E+03  0.12699999809E+01 0.  1.
</event>
<event>
 5   0  0.6248886E-02  0.6700684E+03  0.7818609E-02  0.9769834E-01
        2   -1    0    0  501    0  0.00000000000E+00  0.00000000000E+00  0.17950829662E+04  0.17950829662E+04  0.25500000920E-02 0.  1.
       -2   -1    0    0    0  501  0.00000000000E+00  0.00000000000E+00 -0.62530761794E+02  0.62530761846E+02  0.25500000920E-02 0. -1.
    10030    2    1    2    0    0  0.00000000000E+00  0.00000000000E+00  0.17325522044E+04  0.18576137280E+04  0.67006837086E+03 0.  0.
        3    1    3    3  502    0 -0.31909735608E+03 -0.44895757724E+02  0.11204975425E+04  0.11659131634E+04  0.10100000352E+00 0.  1.
       -3    1    3    3    0  502  0.31909735608E+03  0.44895757724E+02  0.61205466191E+03  0.69170056461E+03  0.10100000352E+00 0. -1.
</event>
<event>
 5   0  0.6131198E-02  0.6956869E+03  0.7818609E-02  0.9724637E-01
        2   -1    0    0  501    0  0.00000000000E+00  0.00000000000E+00  0.39687240522E+03  0.39687240522E+03  0.25500000920E-02 0. -1.
       -2   -1    0    0    0  501  0.00000000000E+00  0.00000000000E+00 -0.30487144543E+03  0.30487144544E+03  0.25500000920E-02 0.  1.
    10030    2    1    2    0    0  0.00000000000E+00  0.00000000000E+00  0.92000959786E+02  0.70174385066E+03  0.69568689462E+03 0.  0.
        1    1    3    3  502    0  0.12488679469E+03  0.28412690189E+03  0.20443565969E+03  0.37164330593E+03  0.50400001928E-02 0. -1.
       -1    1    3    3    0  502 -0.12488679469E+03 -0.28412690189E+03 -0.11243469990E+03  0.33010054473E+03  0.50400001928E-02 0.  1.
</event>
<event>
 5   0  0.2439375E-02  0.6961372E+03  0.7818609E-02  0.9723861E-01
        3   -1    0    0  501    0  0.00000000000E+00  0.00000000000E+00  0.72714073745E+02  0.72714143890E+02  0.10100000352E+00 0.  1.
       -3   -1    0    0    0  501  0.00000000000E+00  0.00000000000E+00 -0.16661382436E+04  0.16661382467E+04  0.10100000352E+00 0. -1.
    10030    2    1    2    0    0  0.00000000000E+00  0.00000000000E+00 -0.15934241699E+04  0.17388523906E+04  0.69613723579E+03 0.  0.
        3    1    3    3  502    0 -0.42290922235E+01 -0.13126926726E+03  0.84444493316E+01  0.13160860410E+03  0.10100000352E+00 0.  1.
       -3    1    3    3    0  502  0.42290922235E+01  0.13126926726E+03 -0.16018686192E+04  0.16072437865E+04  0.10100000352E+00 0. -1.
</event>
<event>
 5   0  0.5899787E-02  0.6271813E+03  0.7818609E-02  0.9850565E-01
        2   -1    0    0  501    0  0.00000000000E+00  0.00000000000E+00  0.10543887798E+04  0.10543887798E+04  0.25500000920E-02 0.  1.
       -2   -1    0    0    0  501  0.00000000000E+00  0.00000000000E+00 -0.93266444511E+02  0.93266444546E+02  0.25500000920E-02 0. -1.
    10030    2    1    2    0    0  0.00000000000E+00  0.00000000000E+00  0.96112233527E+03  0.11476552243E+04  0.62718129004E+03 0.  0.
        2    1    3    3  502    0 -0.23088314198E+03  0.21213798850E+03  0.47061553145E+03  0.56549847910E+03  0.25500000920E-02 0.  1.
       -2    1    3    3    0  502  0.23088314198E+03 -0.21213798850E+03  0.49050680382E+03  0.58215674523E+03  0.25500000920E-02 0. -1.
</event>
<event>
 5   0  0.2439375E-02  0.7123922E+03  0.7818609E-02  0.9696271E-01
       -4   -1    0    0    0  501  0.00000000000E+00  0.00000000000E+00  0.44680149202E+03  0.44680329696E+03  0.12699999809E+01 0.  1.
        4   -1    0    0  501    0  0.00000000000E+00  0.00000000000E+00 -0.28396047239E+03  0.28396331239E+03  0.12699999809E+01 0. -1.
    10030    2    1    2    0    0  0.00000000000E+00  0.00000000000E+00  0.16284101963E+03  0.73076660934E+03  0.71239219511E+03 0.  0.
        4    1    3    3  502    0 -0.22571175155E+03  0.27501242572E+03  0.63759652764E+02  0.36144783207E+03  0.12699999809E+01 0. -1.
       -4    1    3    3    0  502  0.22571175155E+03 -0.27501242572E+03  0.99081366861E+02  0.36931877727E+03  0.12699999809E+01 0.  1.
</event>
<event>
 5   0  0.3749730E-02  0.6937820E+03  0.7818609E-02  0.9727925E-01
       -1   -1    0    0    0  501  0.00000000000E+00  0.00000000000E+00  0.15773429581E+03  0.15773429589E+03  0.50400001928E-02 0.  1.
        1   -1    0    0  501    0  0.00000000000E+00  0.00000000000E+00 -0.76288655144E+03  0.76288655146E+03  0.50400001928E-02 0. -1.
    10030    2    1    2    0    0  0.00000000000E+00  0.00000000000E+00 -0.60515225564E+03  0.92062084735E+03  0.69378202057E+03 0.  0.
        4    1    3    3  502    0  0.13443598404E+03  0.27030801370E+03 -0.75855022000E+02  0.31127970274E+03  0.12699999809E+01 0.  1.
       -4    1    3    3    0  502 -0.13443598404E+03 -0.27030801370E+03 -0.52929723364E+03  0.60934114461E+03  0.12699999809E+01 0. -1.
</event>
<event>
 5   0  0.5987810E-02  0.6850485E+03  0.7818609E-02  0.9743149E-01
        2   -1    0    0  501    0  0.00000000000E+00  0.00000000000E+00  0.26429476959E+03  0.26429476961E+03  0.25500000920E-02 0.  1.
       -2   -1    0    0    0  501  0.00000000000E+00  0.00000000000E+00 -0.44390907704E+03  0.44390907705E+03  0.25500000920E-02 0. -1.
    10030    2    1    2    0    0  0.00000000000E+00  0.00000000000E+00 -0.17961430745E+03  0.70820384665E+03  0.68504845739E+03 0.  0.
        5    1    3    3  502    0  0.99246153881E+02  0.22678025989E+03 -0.33449647793E+03  0.41615990806E+03  0.46999998093E+01 0. -1.
       -5    1    3    3    0  502 -0.99246153881E+02 -0.22678025989E+03  0.15488217048E+03  0.29204393859E+03  0.46999998093E+01 0.  1.
</event>
<event>
 5   0  0.2439375E-02  0.6970959E+03  0.7818609E-02  0.9722211E-01
        4   -1    0    0  501    0  0.00000000000E+00  0.00000000000E+00  0.70228382395E+03  0.70228497227E+03  0.12699999809E+01 0.  1.
       -4   -1    0    0    0  501  0.00000000000E+00  0.00000000000E+00 -0.17298297858E+03  0.17298764054E+03  0.12699999809E+01 0. -1.
    10030    2    1    2    0    0  0.00000000000E+00  0.00000000000E+00  0.52930084537E+03  0.87527261281E+03  0.69709594879E+03 0.  0.
        2    1    3    3  502    0  0.15950706106E+03  0.29937905395E+03  0.36521884441E+03  0.49845273074E+03  0.25500000920E-02 0. -1.
       -2    1    3    3    0  502 -0.15950706106E+03 -0.29937905395E+03  0.16408200096E+03  0.37681988206E+03  0.25500000920E-02 0.  1.
</event>
<event>
 5   0  0.3601475E-02  0.6714355E+03  0.7818609E-02  0.9767368E-01
       -1   -1    0    0    0  501  0.00000000000E+00  0.00000000000E+00  0.10663525761E+03  0.10663525773E+03  0.50400001928E-02 0. -1.
        1   -1    0    0  501    0  0.00000000000E+00  0.00000000000E+00 -0.10569337409E+04  0.10569337409E+04  0.50400001928E-02 0.  1.
    10030    2    1    2    0    0  0.00000000000E+00  0.00000000000E+00 -0.95029848325E+03  0.11635689986E+04  0.67143548257E+03 0.  0.
        5    1    3    3  502    0  0.19945485666E+03  0.23119708326E+03 -0.23346549745E+03  0.38439895896E+03  0.46999998093E+01 0. -1.
       -5    1    3    3    0  502 -0.19945485666E+03 -0.23119708326E+03 -0.71683298580E+03  0.77917003965E+03  0.46999998093E+01 0.  1.
</event>
<event>
 5   0  0.3749730E-02  0.7064520E+03  0.7818609E-02  0.9706262E-01
        1   -1    0    0  501    0  0.00000000000E+00  0.00000000000E+00  0.41298730437E+03  0.41298730440E+03  0.50400001928E-02 0.  1.
       -1   -1    0    0    0  501  0.00000000000E+00  0.00000000000E+00 -0.30211241968E+03  0.30211241973E+03  0.50400001928E-02 0. -1.
    10030    2    1    2    0    0  0.00000000000E+00  0.00000000000E+00  0.11087488468E+03  0.71509972413E+03  0.70645196255E+03 0.  0.
        4    1    3    3  502    0 -0.32426665555E+03 -0.50902011247E+01  0.19712302280E+03  0.37951794828E+03  0.12699999809E+01 0.  1.
       -4    1    3    3    0  502  0.32426665555E+03  0.50902011247E+01 -0.86248138120E+02  0.33558177584E+03  0.12699999809E+01 0. -1.
</event>
<event>
 5   0  0.3717372E-02  0.6833726E+03  0.7818609E-02  0.9746098E-01
       -1   -1    0    0    0  501  0.00000000000E+00  0.00000000000E+00  0.49499082250E+03  0.49499082253E+03  0.50400001928E-02 0.  1.
        1   -1    0    0  501    0  0.00000000000E+00  0.00000000000E+00 -0.23586197863E+03  0.23586197868E+03  0.50400001928E-02 0. -1.
    10030    2    1    2    0    0  0.00000000000E+00  0.00000000000E+00  0.25912884387E+03  0.73085280121E+03  0.68337256260E+03 0.  0.
        3    1    3    3  502    0  0.16220050411E+03  0.15628293259E+03  0.40435223114E+03  0.46285429195E+03  0.10100000352E+00 0.  1.
       -3    1    3    3    0  502 -0.16220050411E+03 -0.15628293259E+03 -0.14522338726E+03  0.26799850926E+03  0.10100000352E+00 0. -1.
</event>
<event>
 5   0  0.2439375E-02  0.6839085E+03  0.7818609E-02  0.9745153E-01
        3   -1    0    0  501    0  0.00000000000E+00  0.00000000000E+00  0.12787616318E+04  0.12787616357E+04  0.10100000352E+00 0.  1.
       -3   -1    0    0    0  501  0.00000000000E+00  0.00000000000E+00 -0.91442123917E+02  0.91442179695E+02  0.10100000352E+00 0. -1.
    10030    2    1    2    0    0  0.00000000000E+00  0.00000000000E+00  0.11873195078E+04  0.13702038154E+04  0.68390853347E+03 0.  0.
        3    1    3    3  502    0  0.25482778867E+03  0.13999585261E+03  0.95426939527E+03  0.99758013692E+03  0.10100000352E+00 0.  1.
       -3    1    3    3    0  502 -0.25482778867E+03 -0.13999585261E+03  0.23305011257E+03  0.37262367852E+03  0.10100000352E+00 0. -1.
</event>
<event>
 5   0  0.2439375E-02  0.7019094E+03  0.7818609E-02  0.9713972E-01
       -3   -1    0    0    0  501  0.00000000000E+00  0.00000000000E+00  0.24832908992E+03  0.24832911046E+03  0.10100000352E+00 0.  1.
        3   -1    0    0  501    0  0.00000000000E+00  0.00000000000E+00 -0.49599181804E+03  0.49599182833E+03  0.10100000352E+00 0. -1.
    10030    2    1    2    0    0  0.00000000000E+00  0.00000000000E+00 -0.24766272812E+03  0.74432093879E+03  0.70190941938E+03 0.  0.
        2    1    3    3  502    0 -0.49576636455E+02  0.14137796024E+03  0.21271497223E+03  0.26017922657E+03  0.25500000920E-02 0.  1.
       -2    1    3    3    0  502  0.49576636455E+02 -0.14137796024E+03 -0.46037770035E+03  0.48414171222E+03  0.25500000920E-02 0. -1.
</event>
<event>
 5   0  0.3601475E-02  0.7104119E+03  0.7818609E-02  0.9699590E-01
        1   -1    0    0  501    0  0.00000000000E+00  0.00000000000E+00  0.15214964911E+04  0.15214964911E+04  0.50400001928E-02 0. -1.
       -1   -1    0    0    0  501  0.00000000000E+00  0.00000000000E+00 -0.82925774906E+02  0.82925775060E+02  0.50400001928E-02 0.  1.
    10030    2    1    2    0    0  0.00000000000E+00  0.00000000000E+00  0.14385707162E+04  0.16044222661E+04  0.71041192464E+03 0.  0.
        5    1    3    3  502    0 -0.17877726246E+03  0.19269915268E+03  0.17983068421E+03  0.31852070262E+03  0.46999998093E+01 0.  1.
       -5    1    3    3    0  502  0.17877726246E+03 -0.19269915268E+03  0.12587400320E+04  0.12859015635E+04  0.46999998093E+01 0. -1.
</event>
<event>
 5   0  0.3749730E-02  0.6963337E+03  0.7818609E-02  0.9723523E-01
       -1   -1    0    0    0  501  0.00000000000E+00  0.00000000000E+00  0.19426360644E+03  0.19426360650E+03  0.50400001928E-02 0. -1.
        1   -1    0    0  501    0  0.00000000000E+00  0.00000000000E+00 -0.62399834605E+03  0.62399834607E+03  0.50400001928E-02 0.  1.
    10030    2    1    2    0    0  0.00000000000E+00  0.00000000000E+00 -0.42973473961E+03  0.81826195257E+03  0.69633373938E+03 0.  0.
        4    1    3    3  502    0 -0.18764507137E+03  0.17899150259E+03  0.58125201041E+02  0.26576076216E+03  0.12699999809E+01 0. -1.
       -4    1    3    3    0  502  0.18764507137E+03 -0.17899150259E+03 -0.48785994065E+03  0.55250119041E+03  0.12699999809E+01 0.  1.
</event>
<event>
 5   0  0.3601475E-02  0.6974435E+03  0.7818609E-02  0.9721614E-01
        1   -1    0    0  501    0  0.00000000000E+00  0.00000000000E+00  0.32214939948E+03  0.32214939952E+03  0.50400001928E-02 0.  1.
       -1   -1    0    0    0  501  0.00000000000E+00  0.00000000000E+00 -0.37748592990E+03  0.37748592993E+03  0.50400001928E-02 0. -1.
    10030    2    1    2    0    0  0.00000000000E+00  0.00000000000E+00 -0.55336530415E+02  0.69963532945E+03  0.69744351930E+03 0.  0.
        5    1    3    3  502    0  0.15581048914E+03  0.89359934183E+02 -0.32747648471E+03  0.37353051335E+03  0.46999998093E+01 0. -1.
       -5    1    3    3    0  502 -0.15581048914E+03 -0.89359934183E+02  0.27213995430E+03  0.32610481610E+03  0.46999998093E+01 0.  1.
</event>
<event>
 5   0  0.6131198E-02  0.4940535E+03  0.7818609E-02  0.1015343E+00
       -2   -1    0    0    0  501  0.00000000000E+00  0.00000000000E+00  0.40420462936E+02  0.40420463016E+02  0.25500000920E-02 0. -1.
        2   -1    0    0  501    0  0.00000000000E+00  0.00000000000E+00 -0.15096862407E+04  0.15096862407E+04  0.25500000920E-02 0.  1.
    10030    2    1    2    0    0  0.00000000000E+00  0.00000000000E+00 -0.14692657777E+04  0.15501067037E+04  0.49405350641E+03 0.  0.
        1    1    3    3  502    0  0.15338579906E+03 -0.15735260475E+03 -0.10887035992E+04  0.11106586211E+04  0.50400001928E-02 0.  1.
       -1    1    3    3    0  502 -0.15338579906E+03  0.15735260475E+03 -0.38056217850E+03  0.43944808260E+03  0.50400001928E-02 0. -1.
</event>
<event>
 5   0  0.3439015E-02  0.6986709E+03  0.7818609E-02  0.9719508E-01
       -1   -1    0    0    0  501  0.00000000000E+00  0.00000000000E+00  0.11404619947E+03  0.11404619958E+03  0.50400001928E-02 0.  1.
        1   -1    0    0  501    0  0.00000000000E+00  0.00000000000E+00 -0.10700510010E+04  0.10700510010E+04  0.50400001928E-02 0. -1.
    10030    2    1    2    0    0  0.00000000000E+00  0.00000000000E+00 -0.95600480156E+03  0.11840972006E+04  0.69867088097E+03 0.  0.
        1    1    3    3  502    0  0.15209209378E+03  0.68661055141E+02 -0.99813561079E+03  0.10119886576E+04  0.50400001928E-02 0. -1.
       -1    1    3    3    0  502 -0.15209209378E+03 -0.68661055141E+02  0.42130809229E+02  0.17210854306E+03  0.50400001928E-02 0.  1.
</event>
<event>
 5   0  0.6167756E-02  0.6955379E+03  0.7818609E-02  0.9724894E-01
       -2   -1    0    0    0  501  0.00000000000E+00  0.00000000000E+00  0.15503242614E+03  0.15503242616E+03  0.25500000920E-02 0.  1.
        2   -1    0    0  501    0  0.00000000000E+00  0.00000000000E+00 -0.78011579361E+03  0.78011579361E+03  0.25500000920E-02 0. -1.
    10030    2    1    2    0    0  0.00000000000E+00  0.00000000000E+00 -0.62508336747E+03  0.93514821977E+03  0.69553790454E+03 0.  0.
        4    1    3    3  502    0  0.14912580988E+03 -0.26660223132E+03 -0.89070466294E+02  0.31819870802E+03  0.12699999809E+01 0.  1.
       -4    1    3    3    0  502 -0.14912580988E+03  0.26660223132E+03 -0.53601290118E+03  0.61694951175E+03  0.12699999809E+01 0. -1.
</event>
<event>
 5   0  0.5987810E-02  0.6525548E+03  0.7818609E-02  0.9801997E-01
       -2   -1    0    0    0  501  0.00000000000E+00  0.00000000000E+00  0.56422340684E+02  0.56422340742E+02  0.25500000920E-02 0. -1.
        2   -1    0    0  501    0  0.00000000000E+00  0.00000000000E+00 -0.18867871756E+04  0.18867871756E+04  0.25500000920E-02 0.  1.
    10030    2    1    2    0    0  0.00000000000E+00  0.00000000000E+00 -0.18303648349E+04  0.19432095164E+04  0.65255482185E+03 0.  0.
        5    1    3    3  502    0 -0.22102851750E+03 -0.23803820471E+03 -0.10054592010E+04  0.10566390525E+04  0.46999998093E+01 0.  1.
       -5    1    3    3    0  502  0.22102851750E+03  0.23803820471E+03 -0.82490563399E+03  0.88657046389E+03  0.46999998093E+01 0. -1.
</event>
<event>
 5   0  0.2439375E-02  0.6917591E+03  0.7818609E-02  0.9731430E-01
        4   -1    0    0  501    0  0.00000000000E+00  0.00000000000E+00  0.19470325357E+03  0.19470739547E+03  0.12699999809E+01 0.  1.
       -4   -1    0    0    0  501  0.00000000000E+00  0.00000000000E+00 -0.61442455257E+03  0.61442586510E+03  0.12699999809E+01 0. -1.
    10030    2    1    2    0    0  0.00000000000E+00  0.00000000000E+00 -0.41972129901E+03  0.80913326057E+03  0.69175910873E+03 0.  0.
        3    1    3    3  502    0  0.11801887126E+03  0.30275326970E+03 -0.71242282979E+02  0.33266119307E+03  0.10100000352E+00 0.  1.
       -3    1    3    3    0  502 -0.11801887126E+03 -0.30275326970E+03 -0.34847901603E+03  0.47647206750E+03  0.10100000352E+00 0. -1.
</event>
<event>
 5   0  0.3439015E-02  0.6986648E+03  0.7818609E-02  0.9719518E-01
       -1   -1    0    0    0  501  0.00000000000E+00  0.00000000000E+00  0.19501970641E+03  0.19501970648E+03  0.50400001928E-02 0.  1.
        1   -1    0    0  501    0  0.00000000000E+00  0.00000000000E+00 -0.62574770295E+03  0.62574770297E+03  0.50400001928E-02 0. -1.
    10030    2    1    2    0    0  0.00000000000E+00  0.00000000000E+00 -0.43072799654E+03  0.82076740944E+03  0.69866482193E+03 0.  0.
        1    1    3    3  502    0  0.34275347832E+03  0.64398573230E+02 -0.23903516659E+03  0.42280602411E+03  0.50400001928E-02 0.  1.
       -1    1    3    3    0  502 -0.34275347832E+03 -0.64398573230E+02 -0.19169282995E+03  0.39796138533E+03  0.50400001928E-02 0. -1.
</event>
<event>
 5   0  0.5899787E-02  0.6924732E+03  0.7818609E-02  0.9730191E-01
       -2   -1    0    0    0  501  0.00000000000E+00  0.00000000000E+00  0.10504970413E+03  0.10504970417E+03  0.25500000920E-02 0.  1.
        2   -1    0    0  501    0  0.00000000000E+00  0.00000000000E+00 -0.11411719357E+04  0.11411719357E+04  0.25500000920E-02 0. -1.
    10030    2    1    2    0    0  0.00000000000E+00  0.00000000000E+00 -0.10361222315E+04  0.12462216398E+04  0.69247317414E+03 0.  0.
        2    1    3    3  502    0  0.21311182691E+02 -0.31551784607E+03 -0.77177020819E+03  0.83404731997E+03  0.25500000920E-02 0. -1.
       -2    1    3    3    0  502 -0.21311182691E+02  0.31551784607E+03 -0.26435202333E+03  0.41217431985E+03  0.25500000920E-02 0.  1.
</event>
<event>
 5   0  0.3717372E-02  0.7036715E+03  0.7818609E-02  0.9710974E-01
       -1   -1    0    0    0  501  0.00000000000E+00  0.00000000000E+00  0.17978655208E+03  0.17978655216E+03  0.50400001928E-02 0. -1.
        1   -1    0    0  501    0  0.00000000000E+00  0.00000000000E+00 -0.68852969575E+03  0.68852969577E+03  0.50400001928E-02 0.  1.
    10030    2    1    2    0    0  0.00000000000E+00  0.00000000000E+00 -0.50874314366E+03  0.86831624792E+03  0.70367145756E+03 0.  0.
        3    1    3    3  502    0 -0.34947187857E+02  0.11256431118E+03  0.15470028877E+03  0.19448449716E+03  0.10100000352E+00 0. -1.
       -3    1    3    3    0  502  0.34947187857E+02 -0.11256431118E+03 -0.66344343243E+03  0.67383175076E+03  0.10100000352E+00 0.  1.
</event>
<event>
 5   0  0.3717372E-02  0.6965045E+03  0.7818609E-02  0.9723229E-01
        1   -1    0    0  501    0  0.00000000000E+00  0.00000000000E+00  0.13917593965E+04  0.13917593965E+04  0.50400001928E-02 0. -1.
       -1   -1    0    0    0  501  0.00000000000E+00  0.00000000000E+00 -0.87141225016E+02  0.87141225162E+02  0.50400001928E-02 0.  1.
    10030    2    1    2    0    0  0.00000000000E+00  0.00000000000E+00  0.13046181715E+04  0.14789006217E+04  0.69650446906E+03 0.  0.
        3    1    3    3  502    0  0.90772241042E+02  0.30459922294E+03  0.95453210567E+03  0.10060575716E+04  0.10100000352E+00 0.  1.
       -3    1    3    3    0  502 -0.90772241042E+02 -0.30459922294E+03  0.35008606584E+03  0.47284305012E+03  0.10100000352E+00 0. -1.
</event>
<event>
 5   0  0.5899787E-02  0.6981660E+03  0.7818609E-02  0.9720374E-01
       -2   -1    0    0    0  501  0.00000000000E+00  0.00000000000E+00  0.95007387762E+02  0.95007387796E+02  0.25500000920E-02 0.  1.
        2   -1    0    0  501    0  0.00000000000E+00  0.00000000000E+00 -0.12826257708E+04  0.12826257708E+04  0.25500000920E-02 0. -1.
    10030    2    1    2    0    0  0.00000000000E+00  0.00000000000E+00 -0.11876183830E+04  0.13776331586E+04  0.69816595158E+03 0.  0.
        2    1    3    3  502    0  0.15492650141E+03 -0.23882878997E+03 -0.99246508421E+03  0.10324864915E+04  0.25500000920E-02 0. -1.
       -2    1    3    3    0  502 -0.15492650141E+03  0.23882878997E+03 -0.19515329884E+03  0.34514666710E+03  0.25500000920E-02 0.  1.
</event>
<event>
 5   0  0.3717372E-02  0.7142282E+03  0.7818609E-02  0.9693205E-01
       -1   -1    0    0    0  501  0.00000000000E+00  0.00000000000E+00  0.68735543259E+03  0.68735543261E+03  0.50400001928E-02 0. -1.
        1   -1    0    0  501    0  0.00000000000E+00  0.00000000000E+00 -0.18553788872E+03  0.18553788879E+03  0.50400001928E-02 0.  1.
    10030    2    1    2    0    0  0.00000000000E+00  0.00000000000E+00  0.50181754387E+03  0.87289332140E+03  0.71422818707E+03 0.  0.
        3    1    3    3  502    0  0.56608463027E+02  0.13536106661E+03 -0.14700038866E+03  0.20769270788E+03  0.10100000352E+00 0.  1.
       -3    1    3    3    0  502 -0.56608463027E+02 -0.13536106661E+03  0.64881793253E+03  0.66520061351E+03  0.10100000352E+00 0. -1.
</event>
<event>
 5   0  0.6248886E-02  0.6821242E+03  0.7818609E-02  0.9748300E-01
       -2   -1    0    0    0  501  0.00000000000E+00  0.00000000000E+00  0.10637360395E+03  0.10637360398E+03  0.25500000920E-02 0. -1.
        2   -1    0    0  501    0  0.00000000000E+00  0.00000000000E+00 -0.10935357590E+04  0.10935357590E+04  0.25500000920E-02 0.  1.
    10030    2    1    2    0    0  0.00000000000E+00  0.00000000000E+00 -0.98716215501E+03  0.11999093630E+04  0.68212415220E+03 0.  0.
        3    1    3    3  502    0  0.33129670746E+03 -0.17974402588E+02 -0.63256760662E+03  0.71429851930E+03  0.10100000352E+00 0. -1.
       -3    1    3    3    0  502 -0.33129670746E+03  0.17974402588E+02 -0.35459454839E+03  0.48561084365E+03  0.10100000352E+00 0.  1.
</event>
<event>
 5   0  0.6248886E-02  0.7037510E+03  0.7818609E-02  0.9710839E-01
        2   -1    0    0  501    0  0.00000000000E+00  0.00000000000E+00  0.12365859620E+04  0.12365859620E+04  0.25500000920E-02 0.  1.
       -2   -1    0    0    0  501  0.00000000000E+00  0.00000000000E+00 -0.10012759272E+03  0.10012759275E+03  0.25500000920E-02 0. -1.
    10030    2    1    2    0    0  0.00000000000E+00  0.00000000000E+00  0.11364583692E+04  0.13367135547E+04  0.70375102298E+03 0.  0.
        3    1    3    3  502    0  0.31503215874E+03  0.13181609898E+03  0.40710770747E+03  0.53137316518E+03  0.10100000352E+00 0. -1.
       -3    1    3    3    0  502 -0.31503215874E+03 -0.13181609898E+03  0.72935066176E+03  0.80534038952E+03  0.10100000352E+00 0.  1.
</event>
<event>
 5   0  0.5899787E-02  0.6923881E+03  0.7818609E-02  0.9730339E-01
       -2   -1    0    0    0  501  0.00000000000E+00  0.00000000000E+00  0.90476407527E+02  0.90476407563E+02  0.25500000920E-02 0.  1.
        2   -1    0    0  501    0  0.00000000000E+00  0.00000000000E+00 -0.13246581490E+04  0.13246581490E+04  0.25500000920E-02 0. -1.
    10030    2    1    2    0    0  0.00000000000E+00  0.00000000000E+00 -0.12341817415E+04  0.14151345565E+04  0.69238807196E+03 0.  0.
        2    1    3    3  502    0  0.40398577869E+02  0.21081994738E+03 -0.61957270327E+02  0.22341843850E+03  0.25500000920E-02 0.  1.
       -2    1    3    3    0  502 -0.40398577869E+02 -0.21081994738E+03 -0.11722244711E+04  0.11917161181E+04  0.25500000920E-02 0. -1.
</event>
<event>
 5   0  0.3749730E-02  0.4851290E+03  0.7818609E-02  0.1017735E+00
        1   -1    0    0  501    0  0.00000000000E+00  0.00000000000E+00  0.21272866788E+03  0.21272866794E+03  0.50400001928E-02 0. -1.
       -1   -1    0    0    0  501  0.00000000000E+00  0.00000000000E+00 -0.27658484196E+03  0.27658484201E+03  0.50400001928E-02 0.  1.
    10030    2    1    2    0    0  0.00000000000E+00  0.00000000000E+00 -0.63856174079E+02  0.48931350995E+03  0.48512895198E+03 0.  0.
        4    1    3    3  502    0 -0.68548414831E+02  0.22916113489E+03  0.86958837418E+01  0.23935526361E+03  0.12699999809E+01 0. -1.
       -4    1    3    3    0  502  0.68548414831E+02 -0.22916113489E+03 -0.72552057821E+02  0.24995824634E+03  0.12699999809E+01 0.  1.
</event>
<event>
 5   0  0.6131198E-02  0.6940002E+03  0.7818609E-02  0.9727548E-01
       -2   -1    0    0    0  501  0.00000000000E+00  0.00000000000E+00  0.16354773947E+03  0.16354773949E+03  0.25500000920E-02 0.  1.
        2   -1    0    0  501    0  0.00000000000E+00  0.00000000000E+00 -0.73623191789E+03  0.73623191789E+03  0.25500000920E-02 0. -1.
    10030    2    1    2    0    0  0.00000000000E+00  0.00000000000E+00 -0.57268417842E+03  0.89977965738E+03  0.69400018992E+03 0.  0.
        1    1    3    3  502    0  0.85439968295E+02 -0.35618006595E+02 -0.71992884238E+03  0.72585547370E+03  0.50400001928E-02 0. -1.
       -1    1    3    3    0  502 -0.85439968295E+02  0.35618006595E+02  0.14724466396E+03  0.17392418368E+03  0.50400001928E-02 0.  1.
</event>
<event>
 5   0  0.5899787E-02  0.7008454E+03  0.7818609E-02  0.9715787E-01
        2   -1    0    0  501    0  0.00000000000E+00  0.00000000000E+00  0.23993745755E+03  0.23993745757E+03  0.25500000920E-02 0. -1.
       -2   -1    0    0    0  501  0.00000000000E+00  0.00000000000E+00 -0.51178371602E+03  0.51178371602E+03  0.25500000920E-02 0.  1.
    10030    2    1    2    0    0  0.00000000000E+00  0.00000000000E+00 -0.27184625846E+03  0.75172117359E+03  0.70084544272E+03 0.  0.
        2    1    3    3  502    0  0.20115900769E+03  0.21052896932E+03  0.73187439009E+02  0.30023956190E+03  0.25500000920E-02 0. -1.
       -2    1    3    3    0  502 -0.20115900769E+03 -0.21052896932E+03 -0.34503369747E+03  0.45148161169E+03  0.25500000920E-02 0.  1.
</event>
<event>
 5   0  0.6131198E-02  0.6798096E+03  0.7818609E-02  0.9752397E-01
       -2   -1    0    0    0  501  0.00000000000E+00  0.00000000000E+00  0.22958249594E+03  0.22958249595E+03  0.25500000920E-02 0.  1.
        2   -1    0    0  501    0  0.00000000000E+00  0.00000000000E+00 -0.50324078431E+03  0.50324078431E+03  0.25500000920E-02 0. -1.
    10030    2    1    2    0    0  0.00000000000E+00  0.00000000000E+00 -0.27365828837E+03  0.73282328026E+03  0.67980960666E+03 0.  0.
        1    1    3    3  502    0  0.41891613062E+00 -0.88923732278E+02  0.21682107253E+03  0.23434799587E+03  0.50400001928E-02 0.  1.
       -1    1    3    3    0  502 -0.41891613062E+00  0.88923732278E+02 -0.49047936090E+03  0.49847528439E+03  0.50400001928E-02 0. -1.
</event>
<event>
 5   0  0.6248886E-02  0.6979437E+03  0.7818609E-02  0.9720755E-01
       -2   -1    0    0    0  501  0.00000000000E+00  0.00000000000E+00  0.14150876070E+03  0.14150876073E+03  0.25500000920E-02 0. -1.
        2   -1    0    0  501    0  0.00000000000E+00  0.00000000000E+00 -0.86059241605E+03  0.86059241605E+03  0.25500000920E-02 0.  1.
    10030    2    1    2    0    0  0.00000000000E+00  0.00000000000E+00 -0.71908365534E+03  0.10021011768E+04  0.69794374065E+03 0.  0.
        3    1    3    3  502    0 -0.17427650925E+03  0.14630972764E+03 -0.73942318961E+03  0.77364429915E+03  0.10100000352E+00 0.  1.
       -3    1    3    3    0  502  0.17427650925E+03 -0.14630972764E+03  0.20339534265E+02  0.22845687763E+03  0.10100000352E+00 0. -1.
</event>
<event>
 5   0  0.2439375E-02  0.7874472E+03  0.7818609E-02  0.9578367E-01
       -4   -1    0    0    0  501  0.00000000000E+00  0.00000000000E+00  0.39499910641E+03  0.39500114806E+03  0.12699999809E+01 0.  1.
        4   -1    0    0  501    0  0.00000000000E+00  0.00000000000E+00 -0.39244810454E+03  0.39245015946E+03  0.12699999809E+01 0. -1.
    10030    2    1    2    0    0  0.00000000000E+00  0.00000000000E+00  0.25510018708E+01  0.78745130751E+03  0.78744717543E+03 0.  0.
        1    1    3    3  502    0  0.68237235496E+02 -0.11494368135E+03  0.37161498396E+03  0.39492539361E+03  0.50400001928E-02 0.  1.
       -1    1    3    3    0  502 -0.68237235496E+02  0.11494368135E+03 -0.36906398208E+03  0.39252591391E+03  0.50400001928E-02 0. -1.
</event>
<event>
 5   0  0.6131198E-02  0.7123755E+03  0.7818609E-02  0.9696299E-01
       -2   -1    0    0    0  501  0.00000000000E+00  0.00000000000E+00  0.62123523631E+02  0.62123523683E+02  0.25500000920E-02 0. -1.
        2   -1    0    0  501    0  0.00000000000E+00  0.00000000000E+00 -0.20422171656E+04  0.20422171656E+04  0.25500000920E-02 0.  1.
    10030    2    1    2    0    0  0.00000000000E+00  0.00000000000E+00 -0.19800936419E+04  0.21043406893E+04  0.71237553692E+03 0.  0.
        1    1    3    3  502    0 -0.10439033539E+01  0.11884627178E+03  0.18218221282E+01  0.11886481864E+03  0.50400001928E-02 0. -1.
       -1    1    3    3    0  502  0.10439033539E+01 -0.11884627178E+03 -0.19819154641E+04  0.19854758706E+04  0.50400001928E-02 0.  1.
</event>
<event>
 5   0  0.6167756E-02  0.6728316E+03  0.7818609E-02  0.9764856E-01
        2   -1    0    0  501    0  0.00000000000E+00  0.00000000000E+00  0.32910224925E+03  0.32910224926E+03  0.25500000920E-02 0.  1.
       -2   -1    0    0    0  501  0.00000000000E+00  0.00000000000E+00 -0.34389183624E+03  0.34389183625E+03  0.25500000920E-02 0. -1.
    10030    2    1    2    0    0  0.00000000000E+00  0.00000000000E+00 -0.14789586987E+02  0.67299408551E+03  0.67283155934E+03 0.  0.
        4    1    3    3  502    0  0.25716834105E+02 -0.11516118020E+02  0.32791742809E+03  0.32912828666E+03  0.12699999809E+01 0.  1.
       -4    1    3    3    0  502 -0.25716834105E+02  0.11516118020E+02 -0.34270701508E+03  0.34386579885E+03  0.12699999809E+01 0. -1.
</event>
<event>
 5   0  0.3439015E-02  0.7063947E+03  0.7818609E-02  0.9706359E-01
       -1   -1    0    0    0  501  0.00000000000E+00  0.00000000000E+00  0.45279203951E+03  0.45279203954E+03  0.50400001928E-02 0. -1.
        1   -1    0    0  501    0  0.00000000000E+00  0.00000000000E+00 -0.27550917070E+03  0.27550917075E+03  0.50400001928E-02 0.  1.
    10030    2    1    2    0    0  0.00000000000E+00  0.00000000000E+00  0.17728286881E+03  0.72830121029E+03  0.70639467533E+03 0.  0.
        1    1    3    3  502    0  0.23713587433E+03  0.70408328479E+02  0.34856602707E+03  0.42742137390E+03  0.50400001928E-02 0. -1.
       -1    1    3    3    0  502 -0.23713587433E+03 -0.70408328479E+02 -0.17128315826E+03  0.30087983639E+03  0.50400001928E-02 0.  1.
</event>
<event>
 5   0  0.3755872E-02  0.6968991E+03  0.7818609E-02  0.9722550E-01
        1   -1    0    0  501    0  0.00000000000E+00  0.00000000000E+00  0.89959929005E+03  0.89959929006E+03  0.50400001928E-02 0. -1.
       -1   -1    0    0    0  501  0.00000000000E+00  0.00000000000E+00 -0.13496797542E+03  0.13496797551E+03  0.50400001928E-02 0.  1.
    10030    2    1    2    0    0  0.00000000000E+00  0.00000000000E+00  0.76463131463E+03  0.10345672656E+04  0.69689911730E+03 0.  0.
        2    1    3    3  502    0 -0.17401998326E+03 -0.30188307627E+03  0.38103121305E+03  0.51633432157E+03  0.25500000920E-02 0.  1.
       -2    1    3    3    0  502  0.17401998326E+03  0.30188307627E+03  0.38360010158E+03  0.51823294400E+03  0.25500000920E-02 0. -1.
</event>
<event>
 5   0  0.3601475E-02  0.6569953E+03  0.7818609E-02  0.9793741E-01
        1   -1    0    0  501    0  0.00000000000E+00  0.00000000000E+00  0.87990700133E+03  0.87990700134E+03  0.50400001928E-02 0.  1.
       -1   -1    0    0    0  501  0.00000000000E+00  0.00000000000E+00 -0.12263875862E+03  0.12263875872E+03  0.50400001928E-02 0. -1.
    10030    2    1    2    0    0  0.00000000000E+00  0.00000000000E+00  0.75726824271E+03  0.10025457601E+04  0.65699528888E+03 0.  0.
        5    1    3    3  502    0 -0.18189085461E+03 -0.69024753154E+02  0.78247915628E+03  0.80631533506E+03  0.46999998093E+01 0.  1.
       -5    1    3    3    0  502  0.18189085461E+03  0.69024753154E+02 -0.25210913570E+02  0.19623042501E+03  0.46999998093E+01 0. -1.
</event>
<event>
 5   0  0.3601475E-02  0.7115700E+03  0.7818609E-02  0.9697648E-01
        1   -1    0    0  501    0  0.00000000000E+00  0.00000000000E+00  0.90758887277E+03  0.90758887279E+03  0.50400001928E-02 0. -1.
       -1   -1    0    0    0  501  0.00000000000E+00  0.00000000000E+00 -0.13947170706E+03  0.13947170715E+03  0.50400001928E-02 0.  1.
    10030    2    1    2    0    0  0.00000000000E+00  0.00000000000E+00  0.76811716571E+03  0.10470605799E+04  0.71157000905E+03 0.  0.
        5    1    3    3  502    0  0.16994599549E+03 -0.28500193279E+03  0.57280491585E+03  0.66199343252E+03  0.46999998093E+01 0.  1.
       -5    1    3    3    0  502 -0.16994599549E+03  0.28500193279E+03  0.19531224986E+03  0.38506714741E+03  0.46999998093E+01 0. -1.
</event>
<event>
 5   0  0.3439015E-02  0.7037064E+03  0.7818609E-02  0.9710915E-01
        1   -1    0    0  501    0  0.00000000000E+00  0.00000000000E+00  0.78954643594E+03  0.78954643596E+03  0.50400001928E-02 0.  1.
       -1   -1    0    0    0  501  0.00000000000E+00  0.00000000000E+00 -0.15679973976E+03  0.15679973984E+03  0.50400001928E-02 0. -1.
    10030    2    1    2    0    0  0.00000000000E+00  0.00000000000E+00  0.63274669619E+03  0.94634617580E+03  0.70370640392E+03 0.  0.
        1    1    3    3  502    0  0.12417957197E+03 -0.21302719653E+03  0.65391483513E+03  0.69886033239E+03  0.50400001928E-02 0.  1.
       -1    1    3    3    0  502 -0.12417957197E+03  0.21302719653E+03 -0.21168138940E+02  0.24748584341E+03  0.50400001928E-02 0. -1.
</event>
<event>
 5   0  0.6167756E-02  0.7033675E+03  0.7818609E-02  0.9711491E-01
       -2   -1    0    0    0  501  0.00000000000E+00  0.00000000000E+00  0.12677282182E+03  0.12677282184E+03  0.25500000920E-02 0. -1.
        2   -1    0    0  501    0  0.00000000000E+00  0.00000000000E+00 -0.97561494890E+03  0.97561494891E+03  0.25500000920E-02 0.  1.
    10030    2    1    2    0    0  0.00000000000E+00  0.00000000000E+00 -0.84884212709E+03  0.11023877708E+04  0.70336750023E+03 0.  0.
        4    1    3    3  502    0  0.19161070276E+03  0.12992923684E+03 -0.95050219295E+01  0.23170719959E+03  0.12699999809E+01 0. -1.
       -4    1    3    3    0  502 -0.19161070276E+03 -0.12992923684E+03 -0.83933710516E+03  0.87068057116E+03  0.12699999809E+01 0.  1.
</event>
<event>
 5   0  0.3439015E-02  0.6673452E+03  0.7818609E-02  0.9774766E-01
        1   -1    0    0  501    0  0.00000000000E+00  0.00000000000E+00  0.34943361674E+03  0.34943361677E+03  0.50400001928E-02 0. -1.
       -1   -1    0    0    0  501  0.00000000000E+00  0.00000000000E+00 -0.31862250392E+03  0.31862250396E+03  0.50400001928E-02 0.  1.
    10030    2    1    2    0    0  0.00000000000E+00  0.00000000000E+00  0.30811112814E+02  0.66805612073E+03  0.66734522983E+03 0.  0.
        1    1    3    3  502    0  0.31288218024E+03 -0.75186649260E+02  0.10375557948E+03  0.33810281164E+03  0.50400001928E-02 0.  1.
       -1    1    3    3    0  502 -0.31288218024E+03  0.75186649260E+02 -0.72944466664E+02  0.32995330909E+03  0.50400001928E-02 0. -1.
</event>
<event>
 5   0  0.5987810E-02  0.8224888E+03  0.7818609E-02  0.9528024E-01
       -2   -1    0    0    0  501  0.00000000000E+00  0.00000000000E+00  0.54865757624E+03  0.54865757624E+03  0.25500000920E-02 0.  1.
        2   -1    0    0  501    0  0.00000000000E+00  0.00000000000E+00 -0.30824686257E+03  0.30824686258E+03  0.25500000920E-02 0. -1.
    10030    2    1    2    0    0  0.00000000000E+00  0.00000000000E+00  0.24041071367E+03  0.85690443882E+03  0.82248884857E+03 0.  0.
        5    1    3    3  502    0 -0.82721961465E+02 -0.39676728592E+03  0.47779007946E+02  0.40813248545E+03  0.46999998093E+01 0. -1.
       -5    1    3    3    0  502  0.82721961465E+02  0.39676728592E+03  0.19263170572E+03  0.44877195337E+03  0.46999998093E+01 0.  1.
</event>
<event>
 5   0  0.5987810E-02  0.7009627E+03  0.7818609E-02  0.9715587E-01
        2   -1    0    0  501    0  0.00000000000E+00  0.00000000000E+00  0.38485455875E+03  0.38485455876E+03  0.25500000920E-02 0. -1.
       -2   -1    0    0    0  501  0.00000000000E+00  0.00000000000E+00 -0.31917818346E+03  0.31917818347E+03  0.25500000920E-02 0.  1.
    10030    2    1    2    0    0  0.00000000000E+00  0.00000000000E+00  0.65676375285E+02  0.70403274223E+03  0.70096270647E+03 0.  0.
        5    1    3    3  502    0 -0.53669471625E+02 -0.34542824465E+03  0.79505456977E+01  0.34969470336E+03  0.46999998093E+01 0.  1.
       -5    1    3    3    0  502  0.53669471625E+02  0.34542824465E+03  0.57725829587E+02  0.35433803886E+03  0.46999998093E+01 0. -1.
</event>
<event>
 5   0  0.5987810E-02  0.6968647E+03  0.7818609E-02  0.9722609E-01
       -2   -1    0    0    0  501  0.00000000000E+00  0.00000000000E+00  0.17078208247E+03  0.17078208249E+03  0.25500000920E-02 0.  1.
        2   -1    0    0  501    0  0.00000000000E+00  0.00000000000E+00 -0.71087723988E+03  0.71087723988E+03  0.25500000920E-02 0. -1.
    10030    2    1    2    0    0  0.00000000000E+00  0.00000000000E+00 -0.54009515741E+03  0.88165932237E+03  0.69686467959E+03 0.  0.
        5    1    3    3  502    0 -0.30835174494E+03  0.73389353217E+02 -0.45302345850E+03  0.55291874604E+03  0.46999998093E+01 0. -1.
       -5    1    3    3    0  502  0.30835174494E+03 -0.73389353217E+02 -0.87071698903E+02  0.32874057632E+03  0.46999998093E+01 0.  1.
</event>
<event>
 5   0  0.2439375E-02  0.6833698E+03  0.7818609E-02  0.9746102E-01
       -3   -1    0    0    0  501  0.00000000000E+00  0.00000000000E+00  0.11401621147E+03  0.11401625620E+03  0.10100000352E+00 0.  1.
        3   -1    0    0  501    0  0.00000000000E+00  0.00000000000E+00 -0.10239644770E+04  0.10239644820E+04  0.10100000352E+00 0. -1.
    10030    2    1    2    0    0  0.00000000000E+00  0.00000000000E+00 -0.90994826552E+03  0.11379807382E+04  0.68336982266E+03 0.  0.
        5    1    3    3  502    0  0.20993585984E+03  0.16247233612E+02 -0.69341670391E+01  0.21073018416E+03  0.46999998093E+01 0.  1.
       -5    1    3    3    0  502 -0.20993585984E+03 -0.16247233612E+02 -0.90301409849E+03  0.92725055401E+03  0.46999998093E+01 0. -1.
</event>
<event>
 5   0  0.5899787E-02  0.6017966E+03  0.7818609E-02  0.9901686E-01
        2   -1    0    0  501    0  0.00000000000E+00  0.00000000000E+00  0.31466224727E+03  0.31466224729E+03  0.25500000920E-02 0.  1.
       -2   -1    0    0    0  501  0.00000000000E+00  0.00000000000E+00 -0.28773636791E+03  0.28773636792E+03  0.25500000920E-02 0. -1.
    10030    2    1    2    0    0  0.00000000000E+00  0.00000000000E+00  0.26925879363E+02  0.60239861521E+03  0.60179655086E+03 0.  0.
        2    1    3    3  502    0  0.18923564723E+03  0.11994128983E+03  0.21452137075E+03  0.31018617265E+03  0.25500000920E-02 0.  1.
       -2    1    3    3    0  502 -0.18923564723E+03 -0.11994128983E+03 -0.18759549139E+03  0.29221244256E+03  0.25500000920E-02 0. -1.
</event>
<event>
 5   0  0.3749730E-02  0.7130765E+03  0.7818609E-02  0.9695127E-01
       -1   -1    0    0    0  501  0.00000000000E+00  0.00000000000E+00  0.22092181399E+03  0.22092181404E+03  0.50400001928E-02 0.  1.
        1   -1    0    0  501    0  0.00000000000E+00  0.00000000000E+00 -0.57540507885E+03  0.57540507887E+03  0.50400001928E-02 0. -1.
    10030    2    1    2    0    0  0.00000000000E+00  0.00000000000E+00 -0.35448326486E+03  0.79632689292E+03  0.71307652837E+03 0.  0.
        4    1    3    3  502    0 -0.80233392388E+02 -0.66413275100E+02 -0.55803441205E+03  0.56767256257E+03  0.12699999809E+01 0. -1.
       -4    1    3    3    0  502  0.80233392388E+02  0.66413275100E+02  0.20355114719E+03  0.22865433034E+03  0.12699999809E+01 0.  1.
</event>
<event>
 5   0  0.6131198E-02  0.6877508E+03  0.7818609E-02  0.9738412E-01
        2   -1    0    0  501    0  0.00000000000E+00  0.00000000000E+00  0.18913144481E+03  0.18913144482E+03  0.25500000920E-02 0.  1.
       -2   -1    0    0    0  501  0.00000000000E+00  0.00000000000E+00 -0.62522812471E+03  0.62522812471E+03  0.25500000920E-02 0. -1.
    10030    2    1    2    0    0  0.00000000000E+00  0.00000000000E+00 -0.43609667990E+03  0.81435956954E+03  0.68775082281E+03 0.  0.
        1    1    3    3  502    0  0.16068218379E+03 -0.57704780512E+02  0.13540172246E+03  0.21790418159E+03  0.50400001928E-02 0.  1.
       -1    1    3    3    0  502 -0.16068218379E+03  0.57704780512E+02 -0.57149840237E+03  0.59645538795E+03  0.50400001928E-02 0. -1.
</event>
<event>
 5   0  0.5987810E-02  0.6905653E+03  0.7818609E-02  0.9733504E-01
       -2   -1    0    0    0  501  0.00000000000E+00  0.00000000000E+00  0.67627899410E+02  0.67627899458E+02  0.25500000920E-02 0.  1.
        2   -1    0    0  501    0  0.00000000000E+00  0.00000000000E+00 -0.17628832654E+04  0.17628832654E+04  0.25500000920E-02 0. -1.
    10030    2    1    2    0    0  0.00000000000E+00  0.00000000000E+00 -0.16952553660E+04  0.18305111648E+04  0.69056525307E+03 0.  0.
        5    1    3    3  502    0  0.12154408498E+03  0.28496161859E+03 -0.12515674973E+04  0.12893484320E+04  0.46999998093E+01 0. -1.
       -5    1    3    3    0  502 -0.12154408498E+03 -0.28496161859E+03 -0.44368786865E+03  0.54116273288E+03  0.46999998093E+01 0.  1.
</event>
<event>
 5   0  0.6167756E-02  0.6913280E+03  0.7818609E-02  0.9732178E-01
       -2   -1    0    0    0  501  0.00000000000E+00  0.00000000000E+00  0.19831449774E+03  0.19831449776E+03  0.25500000920E-02 0. -1.
        2   -1    0    0  501    0  0.00000000000E+00  0.00000000000E+00 -0.60249560534E+03  0.60249560535E+03  0.25500000920E-02 0.  1.
    10030    2    1    2    0    0  0.00000000000E+00  0.00000000000E+00 -0.40418110760E+03  0.80081010311E+03  0.69132803610E+03 0.  0.
        4    1    3    3  502    0  0.10256416143E+03  0.30326516559E+03 -0.51090096116E+02  0.32419281098E+03  0.12699999809E+01 0.  1.
       -4    1    3    3    0  502 -0.10256416143E+03 -0.30326516559E+03 -0.35309101148E+03  0.47661729213E+03  0.12699999809E+01 0. -1.
</event>
<event>
 5   0  0.6248886E-02  0.8438635E+03  0.7818609E-02  0.9498610E-01
       -2   -1    0    0    0  501  0.00000000000E+00  0.00000000000E+00  0.12916544061E+04  0.12916544061E+04  0.25500000920E-02 0.  1.
        2   -1    0    0  501    0  0.00000000000E+00  0.00000000000E+00 -0.13782820439E+03  0.13782820442E+03  0.25500000920E-02 0. -1.
    10030    2    1    2    0    0  0.00000000000E+00  0.00000000000E+00  0.11538262017E+04  0.14294826105E+04  0.84386351386E+03 0.  0.
        3    1    3    3  502    0 -0.21707181970E+03  0.13729055699E+03  0.98554941285E+01  0.25703309692E+03  0.10100000352E+00 0. -1.
       -3    1    3    3    0  502  0.21707181970E+03 -0.13729055699E+03  0.11439707076E+04  0.11724495136E+04  0.10100000352E+00 0.  1.
</event>
<event>
 5   0  0.5987810E-02  0.7067793E+03  0.7818609E-02  0.9705708E-01
       -2   -1    0    0    0  501  0.00000000000E+00  0.00000000000E+00  0.79367461130E+03  0.79367461130E+03  0.25500000920E-02 0. -1.
        2   -1    0    0  501    0  0.00000000000E+00  0.00000000000E+00 -0.15734944478E+03  0.15734944480E+03  0.25500000920E-02 0.  1.
    10030    2    1    2    0    0  0.00000000000E+00  0.00000000000E+00  0.63632516651E+03  0.95102405611E+03  0.70677934163E+03 0.  0.
        5    1    3    3  502    0 -0.23157542841E+03  0.23079171155E+03  0.49854068994E+03  0.59620206531E+03  0.46999998093E+01 0. -1.
       -5    1    3    3    0  502  0.23157542841E+03 -0.23079171155E+03  0.13778447658E+03  0.35482199079E+03  0.46999998093E+01 0.  1.
</event>
<event>
 5   0  0.3749730E-02  0.7360903E+03  0.7818609E-02  0.9657429E-01
        1   -1    0    0  501    0  0.00000000000E+00  0.00000000000E+00  0.33656779067E+03  0.33656779070E+03  0.50400001928E-02 0.  1.
       -1   -1    0    0    0  501  0.00000000000E+00  0.00000000000E+00 -0.40246638550E+03  0.40246638553E+03  0.50400001928E-02 0. -1.
    10030    2    1    2    0    0  0.00000000000E+00  0.00000000000E+00 -0.65898594834E+02  0.73903417624E+03  0.73609027221E+03 0.  0.
        4    1    3    3  502    0  0.29152405309E+03 -0.20974315717E+03  0.47853279941E+02  0.36231204067E+03  0.12699999809E+01 0.  1.
       -4    1    3    3    0  502 -0.29152405309E+03  0.20974315717E+03 -0.11375187478E+03  0.37672213557E+03  0.12699999809E+01 0. -1.
</event>
<event>
 5   0  0.3717372E-02  0.7030133E+03  0.7818609E-02  0.9712093E-01
        1   -1    0    0  501    0  0.00000000000E+00  0.00000000000E+00  0.43043988324E+03  0.43043988327E+03  0.50400001928E-02 0.  1.
       -1   -1    0    0    0  501  0.00000000000E+00  0.00000000000E+00 -0.28704805308E+03  0.28704805312E+03  0.50400001928E-02 0. -1.
    10030    2    1    2    0    0  0.00000000000E+00  0.00000000000E+00  0.14339183017E+03  0.71748793639E+03  0.70301331560E+03 0.  0.
        3    1    3    3  502    0 -0.11402540922E+03  0.17447771584E+03  0.36056536169E+03  0.41647527840E+03  0.10100000352E+00 0.  1.
       -3    1    3    3    0  502  0.11402540922E+03 -0.17447771584E+03 -0.21717353152E+03  0.30101265799E+03  0.10100000352E+00 0. -1.
</event>
<event>
 5   0  0.3601475E-02  0.6495308E+03  0.7818609E-02  0.9807660E-01
       -1   -1    0    0    0  501  0.00000000000E+00  0.00000000000E+00  0.70577843106E+02  0.70577843286E+02  0.50400001928E-02 0. -1.
        1   -1    0    0  501    0  0.00000000000E+00  0.00000000000E+00 -0.14944145156E+04  0.14944145156E+04  0.50400001928E-02 0.  1.
    10030    2    1    2    0    0  0.00000000000E+00  0.00000000000E+00 -0.14238366725E+04  0.15649923589E+04  0.64953076406E+03 0.  0.
        5    1    3    3  502    0  0.48978131092E+02  0.29152846765E+03 -0.10357389821E+04  0.10771095737E+04  0.46999998093E+01 0.  1.
       -5    1    3    3    0  502 -0.48978131092E+02 -0.29152846765E+03 -0.38809769042E+03  0.48788278519E+03  0.46999998093E+01 0. -1.
</event>
<event>
 5   0  0.6131198E-02  0.6861163E+03  0.7818609E-02  0.9741274E-01
        2   -1    0    0  501    0  0.00000000000E+00  0.00000000000E+00  0.22123138103E+03  0.22123138105E+03  0.25500000920E-02 0. -1.
       -2   -1    0    0    0  501  0.00000000000E+00  0.00000000000E+00 -0.53197192816E+03  0.53197192816E+03  0.25500000920E-02 0.  1.
    10030    2    1    2    0    0  0.00000000000E+00  0.00000000000E+00 -0.31074054712E+03  0.75320330921E+03  0.68611627103E+03 0.  0.
        1    1    3    3  502    0  0.34028302309E+03  0.21785997587E+02 -0.19676274502E+03  0.39367847712E+03  0.50400001928E-02 0.  1.
       -1    1    3    3    0  502 -0.34028302309E+03 -0.21785997587E+02 -0.11397780210E+03  0.35952483209E+03  0.50400001928E-02 0. -1.
</event>
<event>
 5   0  0.5987810E-02  0.6947943E+03  0.7818609E-02  0.9726176E-01
       -2   -1    0    0    0  501  0.00000000000E+00  0.00000000000E+00  0.14014623546E+03  0.14014623548E+03  0.25500000920E-02 0.  1.
        2   -1    0    0  501    0  0.00000000000E+00  0.00000000000E+00 -0.86113457524E+03  0.86113457525E+03  0.25500000920E-02 0. -1.
    10030    2    1    2    0    0  0.00000000000E+00  0.00000000000E+00 -0.72098833978E+03  0.10012808107E+04  0.69479426870E+03 0.  0.
        5    1    3    3  502    0 -0.93364810397E+02 -0.21289369962E+03 -0.73246456913E+03  0.76848366943E+03  0.46999998093E+01 0. -1.
       -5    1    3    3    0  502  0.93364810397E+02  0.21289369962E+03  0.11476229344E+02  0.23279714129E+03  0.46999998093E+01 0.  1.
</event>
<event>
 5   0  0.3601475E-02  0.6989368E+03  0.7818609E-02  0.9719052E-01
        1   -1    0    0  501    0  0.00000000000E+00  0.00000000000E+00  0.16154993599E+03  0.16154993607E+03  0.50400001928E-02 0. -1.
       -1   -1    0    0    0  501  0.00000000000E+00  0.00000000000E+00 -0.75597781448E+03  0.75597781450E+03  0.50400001928E-02 0.  1.
    10030    2    1    2    0    0  0.00000000000E+00  0.00000000000E+00 -0.59442787848E+03  0.91752775057E+03  0.69893681427E+03 0.  0.
        5    1    3    3  502    0  0.34792363457E+03 -0.24923924857E+02 -0.32456260824E+03  0.47648193480E+03  0.46999998093E+01 0. -1.
       -5    1    3    3    0  502 -0.34792363457E+03  0.24923924857E+02 -0.26986527025E+03  0.44104581577E+03  0.46999998093E+01 0.  1.
</event>
<event>
 5   0  0.3439015E-02  0.7180800E+03  0.7818609E-02  0.9686803E-01
        1   -1    0    0  501    0  0.00000000000E+00  0.00000000000E+00  0.15596048970E+03  0.15596048978E+03  0.50400001928E-02 0.  1.
       -1   -1    0    0    0  501  0.00000000000E+00  0.00000000000E+00 -0.82655377368E+03  0.82655377369E+03  0.50400001928E-02 0. -1.
    10030    2    1    2    0    0  0.00000000000E+00  0.00000000000E+00 -0.67059328398E+03  0.98251426347E+03  0.71808002717E+03 0.  0.
        1    1    3    3  502    0 -0.15435276657E+03 -0.17430723473E+03  0.38669225042E+02  0.23601503685E+03  0.50400001928E-02 0.  1.
       -1    1    3    3    0  502  0.15435276657E+03  0.17430723473E+03 -0.70926250902E+03  0.74649922663E+03  0.50400001928E-02 0. -1.
</event>
<event>
 5   0  0.2439375E-02  0.6884002E+03  0.7818609E-02  0.9737278E-01
       -3   -1    0    0    0  501  0.00000000000E+00  0.00000000000E+00  0.58487974660E+03  0.58487975532E+03  0.10100000352E+00 0. -1.
        3   -1    0    0  501    0  0.00000000000E+00  0.00000000000E+00 -0.20256077225E+03  0.20256079743E+03  0.10100000352E+00 0.  1.
    10030    2    1    2    0    0  0.00000000000E+00  0.00000000000E+00  0.38231897435E+03  0.78744055276E+03  0.68840019318E+03 0.  0.
        5    1    3    3  502    0  0.28899836342E+03  0.46732231513E+02 -0.15838887886E+02  0.29321820525E+03  0.46999998093E+01 0.  1.
       -5    1    3    3    0  502 -0.28899836342E+03 -0.46732231513E+02  0.39815786224E+03  0.49422234751E+03  0.46999998093E+01 0. -1.
</event>
<event>
 5   0  0.5899787E-02  0.7028615E+03  0.7818609E-02  0.9712351E-01
        2   -1    0    0  501    0  0.00000000000E+00  0.00000000000E+00  0.68059785301E+03  0.68059785301E+03  0.25500000920E-02 0. -1.
       -2   -1    0    0    0  501  0.00000000000E+00  0.00000000000E+00 -0.18146336171E+03  0.18146336173E+03  0.25500000920E-02 0.  1.
    10030    2    1    2    0    0  0.00000000000E+00  0.00000000000E+00  0.49913449130E+03  0.86206121474E+03  0.70286150667E+03 0.  0.
        2    1    3    3  502    0  0.15150630384E+03 -0.13947818955E+03  0.59884108048E+03  0.63326058233E+03  0.25500000920E-02 0. -1.
       -2    1    3    3    0  502 -0.15150630384E+03  0.13947818955E+03 -0.99706589175E+02  0.22880063241E+03  0.25500000920E-02 0.  1.
</event>
<event>
 5   0  0.3749730E-02  0.7214977E+03  0.7818609E-02  0.9681159E-01
        1   -1    0    0  501    0  0.00000000000E+00  0.00000000000E+00  0.75366876689E+03  0.75366876690E+03  0.50400001928E-02 0.  1.
       -1   -1    0    0    0  501  0.00000000000E+00  0.00000000000E+00 -0.17267494859E+03  0.17267494866E+03  0.50400001928E-02 0. -1.
    10030    2    1    2    0    0  0.00000000000E+00  0.00000000000E+00  0.58099381830E+03  0.92634371557E+03  0.72149765244E+03 0.  0.
        4    1    3    3  502    0 -0.87141655548E+02 -0.46338932291E+01 -0.15891645228E+03  0.18130414447E+03  0.12699999809E+01 0. -1.
       -4    1    3    3    0  502  0.87141655548E+02  0.46338932291E+01  0.73991027057E+03  0.74503957110E+03  0.12699999809E+01 0.  1.
</event>
<event>
 5   0  0.6167756E-02  0.7010508E+03  0.7818609E-02  0.9715437E-01
        2   -1    0    0  501    0  0.00000000000E+00  0.00000000000E+00  0.98907380510E+03  0.98907380510E+03  0.25500000920E-02 0. -1.
       -2   -1    0    0    0  501  0.00000000000E+00  0.00000000000E+00 -0.12422535312E+03  0.12422535315E+03  0.25500000920E-02 0.  1.
    10030    2    1    2    0    0  0.00000000000E+00  0.00000000000E+00  0.86484845198E+03  0.11132991582E+04  0.70105076198E+03 0.  0.
        4    1    3    3  502    0  0.27708599768E+03 -0.20923488426E+03  0.50875847451E+03  0.61594860597E+03  0.12699999809E+01 0.  1.
       -4    1    3    3    0  502 -0.27708599768E+03  0.20923488426E+03  0.35608997747E+03  0.49735055228E+03  0.12699999809E+01 0. -1.
</event>
<event>
 5   0  0.6131198E-02  0.6448888E+03  0.7818609E-02  0.9816417E-01
       -2   -1    0    0    0  501  0.00000000000E+00  0.00000000000E+00  0.75498881936E+03  0.75498881937E+03  0.25500000920E-02 0.  1.
        2   -1    0    0  501    0  0.00000000000E+00  0.00000000000E+00 -0.13771117933E+03  0.13771117935E+03  0.25500000920E-02 0. -1.
    10030    2    1    2    0    0  0.00000000000E+00  0.00000000000E+00  0.61727764003E+03  0.89269999872E+03  0.64488882982E+03 0.  0.
        1    1    3    3  502    0 -0.17984980018E+02  0.60751797088E+02 -0.12900969791E+03  0.14372801583E+03  0.50400001928E-02 0. -1.
       -1    1    3    3    0  502  0.17984980018E+02 -0.60751797088E+02  0.74628733794E+03  0.74897198289E+03  0.50400001928E-02 0.  1.
</event>
<event>
 5   0  0.2439375E-02  0.6812494E+03  0.7818609E-02  0.9749847E-01
        4   -1    0    0  501    0  0.00000000000E+00  0.00000000000E+00  0.12934539471E+04  0.12934545706E+04  0.12699999809E+01 0. -1.
       -4   -1    0    0    0  501  0.00000000000E+00  0.00000000000E+00 -0.89696696331E+02  0.89705686735E+02  0.12699999809E+01 0.  1.
    10030    2    1    2    0    0  0.00000000000E+00  0.00000000000E+00  0.12037572508E+04  0.13831602573E+04  0.68124942470E+03 0.  0.
        2    1    3    3  502    0  0.88592777723E+02  0.76714967103E+02  0.12512389680E+04  0.12567150916E+04  0.25500000920E-02 0. -1.
       -2    1    3    3    0  502 -0.88592777723E+02 -0.76714967103E+02 -0.47481717262E+02  0.12644516568E+03  0.25500000920E-02 0.  1.
</event>
<event>
 5   0  0.3439015E-02  0.7087187E+03  0.7818609E-02  0.9702437E-01
       -1   -1    0    0    0  501  0.00000000000E+00  0.00000000000E+00  0.22661083835E+03  0.22661083840E+03  0.50400001928E-02 0. -1.
        1   -1    0    0  501    0  0.00000000000E+00  0.00000000000E+00 -0.55412420215E+03  0.55412420217E+03  0.50400001928E-02 0.  1.
    10030    2    1    2    0    0  0.00000000000E+00  0.00000000000E+00 -0.32751336380E+03  0.78073504058E+03  0.70871870309E+03 0.  0.
        1    1    3    3  502    0 -0.33530587405E+03  0.78318954804E+02 -0.25596824121E+03  0.42904968056E+03  0.50400001928E-02 0.  1.
       -1    1    3    3    0  502  0.33530587405E+03 -0.78318954804E+02 -0.71545122589E+02  0.35168536001E+03  0.50400001928E-02 0. -1.
</event>
<event>
 5   0  0.3601475E-02  0.7088869E+03  0.7818609E-02  0.9702154E-01
        1   -1    0    0  501    0  0.00000000000E+00  0.00000000000E+00  0.44123874657E+03  0.44123874660E+03  0.50400001928E-02 0.  1.
       -1   -1    0    0    0  501  0.00000000000E+00  0.00000000000E+00 -0.28472148086E+03  0.28472148091E+03  0.50400001928E-02 0. -1.
    10030    2    1    2    0    0  0.00000000000E+00  0.00000000000E+00  0.15651726571E+03  0.72596022750E+03  0.70888687211E+03 0.  0.
        5    1    3    3  502    0 -0.38834466910E+02  0.28753465414E+03  0.28668885211E+03  0.40791773812E+03  0.46999998093E+01 0.  1.
       -5    1    3    3    0  502  0.38834466910E+02 -0.28753465414E+03 -0.13017158641E+03  0.31804248939E+03  0.46999998093E+01 0. -1.
</event>
<event>
 5   0  0.6167756E-02  0.7070074E+03  0.7818609E-02  0.9705323E-01
        2   -1    0    0  501    0  0.00000000000E+00  0.00000000000E+00  0.34125566410E+03  0.34125566411E+03  0.25500000920E-02 0. -1.
       -2   -1    0    0    0  501  0.00000000000E+00  0.00000000000E+00 -0.36619130946E+03  0.36619130946E+03  0.25500000920E-02 0.  1.
    10030    2    1    2    0    0  0.00000000000E+00  0.00000000000E+00 -0.24935645356E+02  0.70744697357E+03  0.70700737903E+03 0.  0.
        4    1    3    3  502    0  0.43281372189E+02  0.45928664253E+02 -0.36050663750E+03  0.36599093973E+03  0.12699999809E+01 0.  1.
       -4    1    3    3    0  502 -0.43281372189E+02 -0.45928664253E+02  0.33557099215E+03  0.34145603385E+03  0.12699999809E+01 0. -1.
</event>
<event>
 5   0  0.2439375E-02  0.7142774E+03  0.7818609E-02  0.9693123E-01
        3   -1    0    0  501    0  0.00000000000E+00  0.00000000000E+00  0.24958642743E+03  0.24958644786E+03  0.10100000352E+00 0.  1.
       -3   -1    0    0    0  501  0.00000000000E+00  0.00000000000E+00 -0.51103752688E+03  0.51103753687E+03  0.10100000352E+00 0. -1.
    10030    2    1    2    0    0  0.00000000000E+00  0.00000000000E+00 -0.26145109946E+03  0.76062398473E+03  0.71427737521E+03 0.  0.
        1    1    3    3  502    0 -0.44489529594E+02  0.26058929807E+03 -0.38643557373E+03  0.46820780982E+03  0.50400001928E-02 0. -1.
       -1    1    3    3    0  502  0.44489529594E+02 -0.26058929807E+03  0.12498447427E+03  0.29241617490E+03  0.50400001928E-02 0.  1.
</event>
<event>
 5   0  0.3749730E-02  0.7190248E+03  0.7818609E-02  0.9685239E-01
       -1   -1    0    0    0  501  0.00000000000E+00  0.00000000000E+00  0.94427748416E+02  0.94427748550E+02  0.50400001928E-02 0. -1.
        1   -1    0    0  501    0  0.00000000000E+00  0.00000000000E+00 -0.13687625041E+04  0.13687625041E+04  0.50400001928E-02 0.  1.
    10030    2    1    2    0    0  0.00000000000E+00  0.00000000000E+00 -0.12743347557E+04  0.14631902526E+04  0.71902478812E+03 0.  0.
        4    1    3    3  502    0 -0.21863988187E+03 -0.22821056251E+03 -0.98587802535E+03  0.10352973257E+04  0.12699999809E+01 0.  1.
       -4    1    3    3    0  502  0.21863988187E+03  0.22821056251E+03 -0.28845673033E+03  0.42789292697E+03  0.12699999809E+01 0. -1.
</event>
<event>
 5   0  0.6167756E-02  0.6966633E+03  0.7818609E-02  0.9722955E-01
        2   -1    0    0  501    0  0.00000000000E+00  0.00000000000E+00  0.20247497874E+04  0.20247497874E+04  0.25500000920E-02 0. -1.
       -2   -1    0    0    0  501  0.00000000000E+00  0.00000000000E+00 -0.59925901123E+02  0.59925901177E+02  0.25500000920E-02 0.  1.
    10030    2    1    2    0    0  0.00000000000E+00  0.00000000000E+00  0.19648238863E+04  0.20846756886E+04  0.69666334945E+03 0.  0.
        4    1    3    3  502    0 -0.24415455198E+03 -0.23358179695E+03  0.12356422991E+04  0.12810095259E+04  0.12699999809E+01 0. -1.
       -4    1    3    3    0  502  0.24415455198E+03  0.23358179695E+03  0.72918158716E+03  0.80366616271E+03  0.12699999809E+01 0.  1.
</event>
<event>
 5   0  0.2439375E-02  0.7049248E+03  0.7818609E-02  0.9708847E-01
       -4   -1    0    0    0  501  0.00000000000E+00  0.00000000000E+00  0.30149950177E+03  0.30150217656E+03  0.12699999809E+01 0. -1.
        4   -1    0    0  501    0  0.00000000000E+00  0.00000000000E+00 -0.41203419024E+03  0.41203614748E+03  0.12699999809E+01 0.  1.
    10030    2    1    2    0    0  0.00000000000E+00  0.00000000000E+00 -0.11053468847E+03  0.71353832404E+03  0.70492483465E+03 0.  0.
        3    1    3    3  502    0 -0.13366056357E+03  0.14830774668E+03  0.23874597335E+03  0.31122336669E+03  0.10100000352E+00 0. -1.
       -3    1    3    3    0  502  0.13366056357E+03 -0.14830774668E+03 -0.34928066183E+03  0.40231495735E+03  0.10100000352E+00 0.  1.
</event>
<event>
 5   0  0.6131198E-02  0.6983958E+03  0.7818609E-02  0.9719980E-01
        2   -1    0    0  501    0  0.00000000000E+00  0.00000000000E+00  0.21303476216E+03  0.21303476218E+03  0.25500000920E-02 0.  1.
       -2   -1    0    0    0  501  0.00000000000E+00  0.00000000000E+00 -0.57239094536E+03  0.57239094536E+03  0.25500000920E-02 0. -1.
    10030    2    1    2    0    0  0.00000000000E+00  0.00000000000E+00 -0.35935618319E+03  0.78542570754E+03  0.69839578727E+03 0.  0.
        1    1    3    3  502    0 -0.79421900486E+01 -0.38885845547E+02 -0.56984620491E+03  0.57122664910E+03  0.50400001928E-02 0. -1.
       -1    1    3    3    0  502  0.79421900486E+01  0.38885845547E+02  0.21049002172E+03  0.21419905844E+03  0.50400001928E-02 0.  1.
</event>
<event>
 5   0  0.3439015E-02  0.6851410E+03  0.7818609E-02  0.9742986E-01
        1   -1    0    0  501    0  0.00000000000E+00  0.00000000000E+00  0.78397004642E+03  0.78397004644E+03  0.50400001928E-02 0.  1.
       -1   -1    0    0    0  501  0.00000000000E+00  0.00000000000E+00 -0.14969263710E+03  0.14969263719E+03  0.50400001928E-02 0. -1.
    10030    2    1    2    0    0  0.00000000000E+00  0.00000000000E+00  0.63427740932E+03  0.93366268363E+03  0.68514098901E+03 0.  0.
        1    1    3    3  502    0 -0.18134079176E+03 -0.15651504076E+03 -0.16585964204E+02  0.24011775231E+03  0.50400001928E-02 0. -1.
       -1    1    3    3    0  502  0.18134079176E+03  0.15651504076E+03  0.65086337353E+03  0.69354493132E+03  0.50400001928E-02 0.  1.
</event>
<event>
 5   0  0.3749730E-02  0.7090684E+03  0.7818609E-02  0.9701848E-01
       -1   -1    0    0    0  501  0.00000000000E+00  0.00000000000E+00  0.27575942716E+03  0.27575942720E+03  0.50400001928E-02 0.  1.
        1   -1    0    0  501    0  0.00000000000E+00  0.00000000000E+00 -0.45581217772E+03  0.45581217774E+03  0.50400001928E-02 0. -1.
    10030    2    1    2    0    0  0.00000000000E+00  0.00000000000E+00 -0.18005275056E+03  0.73157160495E+03  0.70906841714E+03 0.  0.
        4    1    3    3  502    0 -0.31686335236E+03 -0.91950503582E+02  0.43843594511E+02  0.33283802796E+03  0.12699999809E+01 0.  1.
       -4    1    3    3    0  502  0.31686335236E+03  0.91950503582E+02 -0.22389634507E+03  0.39873357698E+03  0.12699999809E+01 0. -1.
</event>
<event>
 5   0  0.3717372E-02  0.6931724E+03  0.7818609E-02  0.9728980E-01
       -1   -1    0    0    0  501  0.00000000000E+00  0.00000000000E+00  0.76017378833E+02  0.76017379000E+02  0.50400001928E-02 0.  1.
        1   -1    0    0  501    0  0.00000000000E+00  0.00000000000E+00 -0.15801910290E+04  0.15801910290E+04  0.50400001928E-02 0. -1.
    10030    2    1    2    0    0  0.00000000000E+00  0.00000000000E+00 -0.15041736501E+04  0.16562084080E+04  0.69317236016E+03 0.  0.
        3    1    3    3  502    0  0.62329118915E+02  0.33457037169E+03 -0.90875965977E+03  0.97039496191E+03  0.10100000352E+00 0. -1.
       -3    1    3    3    0  502 -0.62329118915E+02 -0.33457037169E+03 -0.59541399036E+03  0.68581344606E+03  0.10100000352E+00 0.  1.
</event>
<event>
 5   0  0.6248886E-02  0.6719338E+03  0.7818609E-02  0.9766471E-01
       -2   -1    0    0    0  501  0.00000000000E+00  0.00000000000E+00  0.20080451683E+03  0.20080451685E+03  0.25500000920E-02 0.  1.
        2   -1    0    0  501    0  0.00000000000E+00  0.00000000000E+00 -0.56210760291E+03  0.56210760291E+03  0.25500000920E-02 0. -1.
    10030    2    1    2    0    0  0.00000000000E+00  0.00000000000E+00 -0.36130308607E+03  0.76291211976E+03  0.67193376346E+03 0.  0.
        3    1    3    3  502    0 -0.38597786139E+02  0.74195296389E+02  0.18879616305E+03  0.20649148284E+03  0.10100000352E+00 0.  1.
       -3    1    3    3    0  502  0.38597786139E+02 -0.74195296389E+02 -0.55009924913E+03  0.55642063692E+03  0.10100000352E+00 0. -1.
</event>
<event>
 5   0  0.5899787E-02  0.7055695E+03  0.7818609E-02  0.9707755E-01
        2   -1    0    0  501    0  0.00000000000E+00  0.00000000000E+00  0.27585681464E+03  0.27585681465E+03  0.25500000920E-02 0.  1.
       -2   -1    0    0    0  501  0.00000000000E+00  0.00000000000E+00 -0.45116551162E+03  0.45116551162E+03  0.25500000920E-02 0. -1.
    10030    2    1    2    0    0  0.00000000000E+00  0.00000000000E+00 -0.17530869697E+03  0.72702232628E+03  0.70556950308E+03 0.  0.
        2    1    3    3  502    0  0.83692562216E+02  0.34088823429E+03 -0.12405328813E+03  0.37228812975E+03  0.25500000920E-02 0.  1.
       -2    1    3    3    0  502 -0.83692562216E+02 -0.34088823429E+03 -0.51255408841E+02  0.35473419653E+03  0.25500000920E-02 0. -1.
</event>
<event>
 5   0  0.3755872E-02  0.6918922E+03  0.7818609E-02  0.9731199E-01
       -1   -1    0    0    0  501  0.00000000000E+00  0.00000000000E+00  0.91360150870E+02  0.91360151009E+02  0.50400001928E-02 0.  1.
        1   -1    0    0  501    0  0.00000000000E+00  0.00000000000E+00 -0.13099662936E+04  0.13099662936E+04  0.50400001928E-02 0. -1.
    10030    2    1    2    0    0  0.00000000000E+00  0.00000000000E+00 -0.12186061428E+04  0.14013264446E+04  0.69189224110E+03 0.  0.
        2    1    3    3  502    0 -0.12965295403E+03  0.30726925395E+03 -0.42307585040E+03  0.53871834766E+03  0.25500000920E-02 0.  1.
       -2    1    3    3    0  502  0.12965295403E+03 -0.30726925395E+03 -0.79553029235E+03  0.86260809697E+03  0.25500000920E-02 0. -1.
</event>
<event>
 5   0  0.6131198E-02  0.7160572E+03  0.7818609E-02  0.9690160E-01
        2   -1    0    0  501    0  0.00000000000E+00  0.00000000000E+00  0.18289893624E+04  0.18289893624E+04  0.25500000920E-02 0.  1.
       -2   -1    0    0    0  501  0.00000000000E+00  0.00000000000E+00 -0.70084865340E+02  0.70084865387E+02  0.25500000920E-02 0. -1.
    10030    2    1    2    0    0  0.00000000000E+00  0.00000000000E+00  0.17589044971E+04  0.18990742278E+04  0.71605718548E+03 0.  0.
        1    1    3    3  502    0 -0.15986289156E+03 -0.28747965369E+03  0.12543674321E+04  0.12967799929E+04  0.50400001928E-02 0.  1.
       -1    1    3    3    0  502  0.15986289156E+03  0.28747965369E+03  0.50453706503E+03  0.60229423490E+03  0.50400001928E-02 0. -1.
</event>
<event>
 5   0  0.5987810E-02  0.7882078E+03  0.7818609E-02  0.9577244E-01
       -2   -1    0    0    0  501  0.00000000000E+00  0.00000000000E+00  0.46443099003E+03  0.46443099004E+03  0.25500000920E-02 0. -1.
        2   -1    0    0  501    0  0.00000000000E+00  0.00000000000E+00 -0.33442614702E+03  0.33442614703E+03  0.25500000920E-02 0.  1.
    10030    2    1    2    0    0  0.00000000000E+00  0.00000000000E+00  0.13000484301E+03  0.79885713706E+03  0.78820775576E+03 0.  0.
        5    1    3    3  502    0  0.59352626049E+02 -0.19466216911E+03  0.40702245016E+03  0.45508840816E+03  0.46999998093E+01 0. -1.
       -5    1    3    3    0  502 -0.59352626049E+02  0.19466216911E+03 -0.27701760716E+03  0.34376872891E+03  0.46999998093E+01 0.  1.
</event>
<event>
 5   0  0.3749730E-02  0.7355898E+03  0.7818609E-02  0.9658233E-01
        1   -1    0    0  501    0  0.00000000000E+00  0.00000000000E+00  0.84357831715E+03  0.84357831716E+03  0.50400001928E-02 0.  1.
       -1   -1    0    0    0  501  0.00000000000E+00  0.00000000000E+00 -0.16035629149E+03  0.16035629157E+03  0.50400001928E-02 0. -1.
    10030    2    1    2    0    0  0.00000000000E+00  0.00000000000E+00  0.68322202566E+03  0.10039346087E+04  0.73558980571E+03 0.  0.
        4    1    3    3  502    0  0.21197537166E+03 -0.29692141962E+03  0.27795224092E+03  0.45864468682E+03  0.12699999809E+01 0. -1.
       -4    1    3    3    0  502 -0.21197537166E+03  0.29692141962E+03  0.40526978473E+03  0.54528992191E+03  0.12699999809E+01 0.  1.
</event>
<event>
 5   0  0.6131198E-02  0.7117556E+03  0.7818609E-02  0.9697337E-01
        2   -1    0    0  501    0  0.00000000000E+00  0.00000000000E+00  0.34431910935E+03  0.34431910936E+03  0.25500000920E-02 0.  1.
       -2   -1    0    0    0  501  0.00000000000E+00  0.00000000000E+00 -0.36782452729E+03  0.36782452730E+03  0.25500000920E-02 0. -1.
    10030    2    1    2    0    0  0.00000000000E+00  0.00000000000E+00 -0.23505417941E+02  0.71214363665E+03  0.71175561435E+03 0.  0.
        1    1    3    3  502    0 -0.26768418819E+03 -0.54553509082E+02 -0.23995182319E+03  0.36360388809E+03  0.50400001928E-02 0. -1.
       -1    1    3    3    0  502  0.26768418819E+03  0.54553509082E+02  0.21644640525E+03  0.34853974856E+03  0.50400001928E-02 0.  1.
</event>
<event>
 5   0  0.3439015E-02  0.7036108E+03  0.7818609E-02  0.9711077E-01
        1   -1    0    0  501    0  0.00000000000E+00  0.00000000000E+00  0.14185645193E+03  0.14185645202E+03  0.50400001928E-02 0. -1.
       -1   -1    0    0    0  501  0.00000000000E+00  0.00000000000E+00 -0.87248074187E+03  0.87248074188E+03  0.50400001928E-02 0.  1.
    10030    2    1    2    0    0  0.00000000000E+00  0.00000000000E+00 -0.73062428994E+03  0.10143371939E+04  0.70361075168E+03 0.  0.
        1    1    3    3  502    0 -0.11644105088E+03 -0.19475204059E+03  0.22266104060E+02  0.22799705055E+03  0.50400001928E-02 0. -1.
       -1    1    3    3    0  502  0.11644105088E+03  0.19475204059E+03 -0.75289039400E+03  0.78634014335E+03  0.50400001928E-02 0.  1.
</event>
<event>
 5   0  0.6131198E-02  0.7007313E+03  0.7818609E-02  0.9715982E-01
        2   -1    0    0  501    0  0.00000000000E+00  0.00000000000E+00  0.50845854546E+03  0.50845854547E+03  0.25500000920E-02 0. -1.
       -2   -1    0    0    0  501  0.00000000000E+00  0.00000000000E+00 -0.24142789310E+03  0.24142789311E+03  0.25500000920E-02 0.  1.
    10030    2    1    2    0    0  0.00000000000E+00  0.00000000000E+00  0.26703065236E+03  0.74988643858E+03  0.70073126195E+03 0.  0.
        1    1    3    3  502    0  0.40915304681E+02  0.35021399069E+02  0.50400236331E+03  0.50687172223E+03  0.50400001928E-02 0. -1.
       -1    1    3    3    0  502 -0.40915304681E+02 -0.35021399069E+02 -0.23697171095E+03  0.24301471635E+03  0.50400001928E-02 0.  1.
</event>
<event>
 5   0  0.3755872E-02  0.7072551E+03  0.7818609E-02  0.9704905E-01
       -1   -1    0    0    0  501  0.00000000000E+00  0.00000000000E+00  0.22657082368E+03  0.22657082374E+03  0.50400001928E-02 0.  1.
        1   -1    0    0  501    0  0.00000000000E+00  0.00000000000E+00 -0.55193537530E+03  0.55193537532E+03  0.50400001928E-02 0. -1.
    10030    2    1    2    0    0  0.00000000000E+00  0.00000000000E+00 -0.32536455162E+03  0.77850619906E+03  0.70725512407E+03 0.  0.
        2    1    3    3  502    0 -0.28304650525E+03 -0.17155014969E+03 -0.29975760979E+03  0.44654160235E+03  0.25500000920E-02 0. -1.
       -2    1    3    3    0  502  0.28304650525E+03  0.17155014969E+03 -0.25606941826E+02  0.33196459671E+03  0.25500000920E-02 0.  1.
</event>
<event>
 5   0  0.5899787E-02  0.7004011E+03  0.7818609E-02  0.9716547E-01
       -2   -1    0    0    0  501  0.00000000000E+00  0.00000000000E+00  0.83348256778E+02  0.83348256817E+02  0.25500000920E-02 0. -1.
        2   -1    0    0  501    0  0.00000000000E+00  0.00000000000E+00 -0.14714214844E+04  0.14714214844E+04  0.25500000920E-02 0.  1.
    10030    2    1    2    0    0  0.00000000000E+00  0.00000000000E+00 -0.13880732276E+04  0.15547697412E+04  0.70040107293E+03 0.  0.
        2    1    3    3  502    0 -0.21470311658E+03 -0.31217672508E+02 -0.13042609424E+04  0.13221832615E+04  0.25500000920E-02 0.  1.
       -2    1    3    3    0  502  0.21470311658E+03  0.31217672508E+02 -0.83812285224E+02  0.23258647963E+03  0.25500000920E-02 0. -1.
</event>
<event>
 5   0  0.5899787E-02  0.7221473E+03  0.7818609E-02  0.9680089E-01
       -2   -1    0    0    0  501  0.00000000000E+00  0.00000000000E+00  0.18892414751E+03  0.18892414753E+03  0.25500000920E-02 0. -1.
        2   -1    0    0  501    0  0.00000000000E+00  0.00000000000E+00 -0.69008751224E+03  0.69008751224E+03  0.25500000920E-02 0.  1.
    10030    2    1    2    0    0  0.00000000000E+00  0.00000000000E+00 -0.50116336473E+03  0.87901165977E+03  0.72214733944E+03 0.  0.
        2    1    3    3  502    0  0.17716397453E+03  0.29669219525E+03 -0.37801740399E+03  0.51216256240E+03  0.25500000920E-02 0.  1.
       -2    1    3    3    0  502 -0.17716397453E+03 -0.29669219525E+03 -0.12314596073E+03  0.36684909737E+03  0.25500000920E-02 0. -1.
</event>
<event>
 5   0  0.3749730E-02  0.6655874E+03  0.7818609E-02  0.9777962E-01
       -1   -1    0    0    0  501  0.00000000000E+00  0.00000000000E+00  0.76732230083E+02  0.76732230249E+02  0.50400001928E-02 0. -1.
        1   -1    0    0  501    0  0.00000000000E+00  0.00000000000E+00 -0.14433524833E+04  0.14433524833E+04  0.50400001928E-02 0.  1.
    10030    2    1    2    0    0  0.00000000000E+00  0.00000000000E+00 -0.13666202532E+04  0.15200847135E+04  0.66558742467E+03 0.  0.
        4    1    3    3  502    0 -0.26003107781E+03  0.16587357589E+03 -0.96874099500E+03  0.10166567429E+04  0.12699999809E+01 0. -1.
       -4    1    3    3    0  502  0.26003107781E+03 -0.16587357589E+03 -0.39787925818E+03  0.50342797061E+03  0.12699999809E+01 0.  1.
</event>
<event>
 5   0  0.3601475E-02  0.7325509E+03  0.7818609E-02  0.9663130E-01
        1   -1    0    0  501    0  0.00000000000E+00  0.00000000000E+00  0.12300019626E+03  0.12300019636E+03  0.50400001928E-02 0. -1.
       -1   -1    0    0    0  501  0.00000000000E+00  0.00000000000E+00 -0.10907113491E+04  0.10907113491E+04  0.50400001928E-02 0.  1.
    10030    2    1    2    0    0  0.00000000000E+00  0.00000000000E+00 -0.96771115286E+03  0.12137115455E+04  0.73255091311E+03 0.  0.
        5    1    3    3  502    0  0.27478647840E+03  0.22154876827E+03 -0.64571813574E+03  0.73591131684E+03  0.46999998093E+01 0.  1.
       -5    1    3    3    0  502 -0.27478647840E+03 -0.22154876827E+03 -0.32199301712E+03  0.47780022866E+03  0.46999998093E+01 0. -1.
</event>
<event>
 5   0  0.2439375E-02  0.5620533E+03  0.7818609E-02  0.9987419E-01
       -4   -1    0    0    0  501  0.00000000000E+00  0.00000000000E+00  0.13260699307E+03  0.13261307444E+03  0.12699999809E+01 0. -1.
        4   -1    0    0  501    0  0.00000000000E+00  0.00000000000E+00 -0.59554377672E+03  0.59554513085E+03  0.12699999809E+01 0.  1.
    10030    2    1    2    0    0  0.00000000000E+00  0.00000000000E+00 -0.46293678364E+03  0.72815820529E+03  0.56205329488E+03 0.  0.
        1    1    3    3  502    0 -0.76467237665E+02  0.23050565639E+03 -0.41466545860E+03  0.48054920523E+03  0.50400001928E-02 0.  1.
       -1    1    3    3    0  502  0.76467237665E+02 -0.23050565639E+03 -0.48271325040E+02  0.24760900006E+03  0.50400001928E-02 0. -1.
</event>
<event>
 5   0  0.6248886E-02  0.6821224E+03  0.7818609E-02  0.9748303E-01
        2   -1    0    0  501    0  0.00000000000E+00  0.00000000000E+00  0.45717881241E+03  0.45717881242E+03  0.25500000920E-02 0.  1.
       -2   -1    0    0    0  501  0.00000000000E+00  0.00000000000E+00 -0.25443596491E+03  0.25443596492E+03  0.25500000920E-02 0. -1.
    10030    2    1    2    0    0  0.00000000000E+00  0.00000000000E+00  0.20274284750E+03  0.71161477734E+03  0.68212237107E+03 0.  0.
        3    1    3    3  502    0  0.10407949432E+03 -0.14417639538E+03 -0.20225037808E+03  0.26930391709E+03  0.10100000352E+00 0. -1.
       -3    1    3    3    0  502 -0.10407949432E+03  0.14417639538E+03  0.40499322559E+03  0.44231086025E+03  0.10100000352E+00 0.  1.
</event>
<event>
 5   0  0.2439375E-02  0.6417510E+03  0.7818609E-02  0.9822382E-01
       -4   -1    0    0    0  501  0.00000000000E+00  0.00000000000E+00  0.24540734765E+03  0.24541063380E+03  0.12699999809E+01 0. -1.
        4   -1    0    0  501    0  0.00000000000E+00  0.00000000000E+00 -0.41954469181E+03  0.41954661401E+03  0.12699999809E+01 0.  1.
    10030    2    1    2    0    0  0.00000000000E+00  0.00000000000E+00 -0.17413734416E+03  0.66495724781E+03  0.64175098503E+03 0.  0.
        5    1    3    3  502    0 -0.78796162239E+02 -0.25158451521E+03  0.10239692603E+03  0.28286184603E+03  0.46999998093E+01 0.  1.
       -5    1    3    3    0  502  0.78796162239E+02  0.25158451521E+03 -0.27653427018E+03  0.38209540178E+03  0.46999998093E+01 0. -1.
</event>
<event>
 5   0  0.3439015E-02  0.6999684E+03  0.7818609E-02  0.9717286E-01
       -1   -1    0    0    0  501  0.00000000000E+00  0.00000000000E+00  0.50953173461E+03  0.50953173463E+03  0.50400001928E-02 0. -1.
        1   -1    0    0  501    0  0.00000000000E+00  0.00000000000E+00 -0.24039508235E+03  0.24039508241E+03  0.50400001928E-02 0.  1.
    10030    2    1    2    0    0  0.00000000000E+00  0.00000000000E+00  0.26913665226E+03  0.74992681704E+03  0.69996835166E+03 0.  0.
        1    1    3    3  502    0  0.17341525629E+03  0.29472210192E+03  0.54717255067E+02  0.34630614563E+03  0.50400001928E-02 0.  1.
       -1    1    3    3    0  502 -0.17341525629E+03 -0.29472210192E+03  0.21441939719E+03  0.40362067141E+03  0.50400001928E-02 0. -1.
</event>
<event>
 5   0  0.6131198E-02  0.8248944E+03  0.7818609E-02  0.9524666E-01
        2   -1    0    0  501    0  0.00000000000E+00  0.00000000000E+00  0.10062777212E+04  0.10062777212E+04  0.25500000920E-02 0.  1.
       -2   -1    0    0    0  501  0.00000000000E+00  0.00000000000E+00 -0.16905144507E+03  0.16905144509E+03  0.25500000920E-02 0. -1.
    10030    2    1    2    0    0  0.00000000000E+00  0.00000000000E+00  0.83722627617E+03  0.11753291663E+04  0.82489442459E+03 0.  0.
        1    1    3    3  502    0  0.21250182513E+03  0.33152032859E+03  0.59340799849E+03  0.71217680856E+03  0.50400001928E-02 0.  1.
       -1    1    3    3    0  502 -0.21250182513E+03 -0.33152032859E+03  0.24381827768E+03  0.46315235777E+03  0.50400001928E-02 0. -1.
</event>
<event>
 5   0  0.3601475E-02  0.7893785E+03  0.7818609E-02  0.9575520E-01
       -1   -1    0    0    0  501  0.00000000000E+00  0.00000000000E+00  0.16965755961E+03  0.16965755968E+03  0.50400001928E-02 0.  1.
        1   -1    0    0  501    0  0.00000000000E+00  0.00000000000E+00 -0.91820030171E+03  0.91820030173E+03  0.50400001928E-02 0. -1.
    10030    2    1    2    0    0  0.00000000000E+00  0.00000000000E+00 -0.74854274211E+03  0.10878578614E+04  0.78937854662E+03 0.  0.
        5    1    3    3  502    0 -0.11246211733E+03 -0.14140633825E+03  0.10927780571E+03  0.21120418829E+03  0.46999998093E+01 0.  1.
       -5    1    3    3    0  502  0.11246211733E+03  0.14140633825E+03 -0.85782054782E+03  0.87665367312E+03  0.46999998093E+01 0. -1.
</event>
<event>
 5   0  0.3601475E-02  0.6958017E+03  0.7818609E-02  0.9724439E-01
       -1   -1    0    0    0  501  0.00000000000E+00  0.00000000000E+00  0.45493499126E+03  0.45493499129E+03  0.50400001928E-02 0.  1.
        1   -1    0    0  501    0  0.00000000000E+00  0.00000000000E+00 -0.26604901179E+03  0.26604901184E+03  0.50400001928E-02 0. -1.
    10030    2    1    2    0    0  0.00000000000E+00  0.00000000000E+00  0.18888597947E+03  0.72098400313E+03  0.69580170992E+03 0.  0.
        5    1    3    3  502    0  0.13985854786E+03 -0.58983979581E+02  0.41877828194E+03  0.44546252668E+03  0.46999998093E+01 0.  1.
       -5    1    3    3    0  502 -0.13985854786E+03  0.58983979581E+02 -0.22989230246E+03  0.27552147645E+03  0.46999998093E+01 0. -1.
</event>
<event>
 5   0  0.5899787E-02  0.7012708E+03  0.7818609E-02  0.9715061E-01
       -2   -1    0    0    0  501  0.00000000000E+00  0.00000000000E+00  0.58089923940E+02  0.58089923996E+02  0.25500000920E-02 0. -1.
        2   -1    0    0  501    0  0.00000000000E+00  0.00000000000E+00 -0.21164629569E+04  0.21164629569E+04  0.25500000920E-02 0.  1.
    10030    2    1    2    0    0  0.00000000000E+00  0.00000000000E+00 -0.20583730329E+04  0.21745528809E+04  0.70127076725E+03 0.  0.
        2    1    3    3  502    0 -0.47834014872E+02 -0.13211929430E+03 -0.33030430234E+02  0.14434199054E+03  0.25500000920E-02 0. -1.
       -2    1    3    3    0  502  0.47834014872E+02  0.13211929430E+03 -0.20253426027E+04  0.20302108903E+04  0.25500000920E-02 0.  1.
</event>
<event>
 5   0  0.5899787E-02  0.7028135E+03  0.7818609E-02  0.9712433E-01
        2   -1    0    0  501    0  0.00000000000E+00  0.00000000000E+00  0.55423442971E+03  0.55423442971E+03  0.25500000920E-02 0.  1.
       -2   -1    0    0    0  501  0.00000000000E+00  0.00000000000E+00 -0.22280588723E+03  0.22280588724E+03  0.25500000920E-02 0. -1.
    10030    2    1    2    0    0  0.00000000000E+00  0.00000000000E+00  0.33142854248E+03  0.77704031695E+03  0.70281347127E+03 0.  0.
        2    1    3    3  502    0  0.15831128612E+03  0.59329216653E+01 -0.18108391480E+03  0.24060142784E+03  0.25500000920E-02 0. -1.
       -2    1    3    3    0  502 -0.15831128612E+03 -0.59329216653E+01  0.51251245728E+03  0.53643888911E+03  0.25500000920E-02 0.  1.
</event>
<event>
 5   0  0.3439015E-02  0.6651332E+03  0.7818609E-02  0.9778790E-01
        1   -1    0    0  501    0  0.00000000000E+00  0.00000000000E+00  0.10613864732E+04  0.10613864732E+04  0.50400001928E-02 0. -1.
       -1   -1    0    0    0  501  0.00000000000E+00  0.00000000000E+00 -0.10420383501E+03  0.10420383513E+03  0.50400001928E-02 0.  1.
    10030    2    1    2    0    0  0.00000000000E+00  0.00000000000E+00  0.95718263815E+03  0.11655903083E+04  0.66513319269E+03 0.  0.
        1    1    3    3  502    0  0.10537299671E+02  0.11813477542E+03  0.10230648103E+04  0.10299167277E+04  0.50400001928E-02 0. -1.
       -1    1    3    3    0  502 -0.10537299671E+02 -0.11813477542E+03 -0.65882172148E+02  0.13567358062E+03  0.50400001928E-02 0.  1.
</event>
<event>
 5   0  0.5987810E-02  0.6919864E+03  0.7818609E-02  0.9731035E-01
       -2   -1    0    0    0  501  0.00000000000E+00  0.00000000000E+00  0.13945318905E+03  0.13945318907E+03  0.25500000920E-02 0. -1.
        2   -1    0    0  501    0  0.00000000000E+00  0.00000000000E+00 -0.85843362947E+03  0.85843362947E+03  0.25500000920E-02 0.  1.
    10030    2    1    2    0    0  0.00000000000E+00  0.00000000000E+00 -0.71898044042E+03  0.99788681854E+03  0.69198643695E+03 0.  0.
        5    1    3    3  502    0 -0.12981030299E+03  0.29605156816E+03 -0.53723251032E+03  0.62700726146E+03  0.46999998093E+01 0.  1.
       -5    1    3    3    0  502  0.12981030299E+03 -0.29605156816E+03 -0.18174793010E+03  0.37087955709E+03  0.46999998093E+01 0. -1.
</event>
<event>
 5   0  0.3749730E-02  0.6996789E+03  0.7818609E-02  0.9717781E-01
       -1   -1    0    0    0  501  0.00000000000E+00  0.00000000000E+00  0.28564605699E+03  0.28564605703E+03  0.50400001928E-02 0. -1.
        1   -1    0    0  501    0  0.00000000000E+00  0.00000000000E+00 -0.42845907294E+03  0.42845907297E+03  0.50400001928E-02 0.  1.
    10030    2    1    2    0    0  0.00000000000E+00  0.00000000000E+00 -0.14281301596E+03  0.71410513000E+03  0.69967891148E+03 0.  0.
        4    1    3    3  502    0  0.12669151653E+03  0.31156725672E+03  0.26812490465E+02  0.33740986702E+03  0.12699999809E+01 0. -1.
       -4    1    3    3    0  502 -0.12669151653E+03 -0.31156725672E+03 -0.16962550642E+03  0.37669526298E+03  0.12699999809E+01 0.  1.
</event>
<event>
 5   0  0.5899787E-02  0.6662534E+03  0.7818609E-02  0.9776750E-01
       -2   -1    0    0    0  501  0.00000000000E+00  0.00000000000E+00  0.26530789875E+03  0.26530789876E+03  0.25500000920E-02 0.  1.
        2   -1    0    0  501    0  0.00000000000E+00  0.00000000000E+00 -0.41828159049E+03  0.41828159050E+03  0.25500000920E-02 0. -1.
    10030    2    1    2    0    0  0.00000000000E+00  0.00000000000E+00 -0.15297369174E+03  0.68358948926E+03  0.66625343486E+03 0.  0.
        2    1    3    3  502    0  0.18836097462E+03  0.26783339832E+03 -0.13582318741E+02  0.32771796625E+03  0.25500000920E-02 0. -1.
       -2    1    3    3    0  502 -0.18836097462E+03 -0.26783339832E+03 -0.13939137300E+03  0.35587152301E+03  0.25500000920E-02 0.  1.
</event>
<event>
 5   0  0.3717372E-02  0.7024636E+03  0.7818609E-02  0.9713028E-01
       -1   -1    0    0    0  501  0.00000000000E+00  0.00000000000E+00  0.84994562088E+03  0.84994562089E+03  0.50400001928E-02 0.  1.
        1   -1    0    0  501    0  0.00000000000E+00  0.00000000000E+00 -0.14514313235E+03  0.14514313244E+03  0.50400001928E-02 0. -1.
    10030    2    1    2    0    0  0.00000000000E+00  0.00000000000E+00  0.70480248852E+03  0.99508875333E+03  0.70246357855E+03 0.  0.
        3    1    3    3  502    0  0.26141469977E+03  0.63434959887E+01  0.68457366683E+03  0.73281580272E+03  0.10100000352E+00 0.  1.
       -3    1    3    3    0  502 -0.26141469977E+03 -0.63434959887E+01  0.20228821692E+02  0.26227295061E+03  0.10100000352E+00 0. -1.
</event>
<event>
 5   0  0.3601475E-02  0.6838517E+03  0.7818609E-02  0.9745253E-01
       -1   -1    0    0    0  501  0.00000000000E+00  0.00000000000E+00  0.12303215664E+03  0.12303215674E+03  0.50400001928E-02 0.  1.
        1   -1    0    0  501    0  0.00000000000E+00  0.00000000000E+00 -0.95026614899E+03  0.95026614900E+03  0.50400001928E-02 0. -1.
    10030    2    1    2    0    0  0.00000000000E+00  0.00000000000E+00 -0.82723399235E+03  0.10732983057E+04  0.68385172004E+03 0.  0.
        5    1    3    3  502    0 -0.13943979043E+03 -0.64832733526E+02 -0.89287572504E+03  0.90603305064E+03  0.46999998093E+01 0. -1.
       -5    1    3    3    0  502  0.13943979043E+03  0.64832733526E+02  0.65641732691E+02  0.16726525509E+03  0.46999998093E+01 0.  1.
</event>
<event>
 5   0  0.2439375E-02  0.6872658E+03  0.7818609E-02  0.9739261E-01
        4   -1    0    0  501    0  0.00000000000E+00  0.00000000000E+00  0.32771621259E+03  0.32771867340E+03  0.12699999809E+01 0.  1.
       -4   -1    0    0    0  501  0.00000000000E+00  0.00000000000E+00 -0.36031775294E+03  0.36031999110E+03  0.12699999809E+01 0. -1.
    10030    2    1    2    0    0  0.00000000000E+00  0.00000000000E+00 -0.32601540352E+02  0.68803866450E+03  0.68726584624E+03 0.  0.
        5    1    3    3  502    0 -0.31727654540E+03  0.11595127167E+03 -0.79239517993E+02  0.34700157763E+03  0.46999998093E+01 0. -1.
       -5    1    3    3    0  502  0.31727654540E+03 -0.11595127167E+03  0.46637977640E+02  0.34103708687E+03  0.46999998093E+01 0.  1.
</event>
<event>
 5   0  0.3601475E-02  0.6892755E+03  0.7818609E-02  0.9735750E-01
       -1   -1    0    0    0  501  0.00000000000E+00  0.00000000000E+00  0.18600633017E+03  0.18600633023E+03  0.50400001928E-02 0.  1.
        1   -1    0    0  501    0  0.00000000000E+00  0.00000000000E+00 -0.63855442941E+03  0.63855442943E+03  0.50400001928E-02 0. -1.
    10030    2    1    2    0    0  0.00000000000E+00  0.00000000000E+00 -0.45254809924E+03  0.82456075967E+03  0.68927546326E+03 0.  0.
        5    1    3    3  502    0 -0.28106947622E+03 -0.19212304170E+03 -0.16250297584E+03  0.37728055976E+03  0.46999998093E+01 0.  1.
       -5    1    3    3    0  502  0.28106947622E+03  0.19212304170E+03 -0.29004512341E+03  0.44728019991E+03  0.46999998093E+01 0. -1.
</event>
<event>
 5   0  0.5899787E-02  0.6072754E+03  0.7818609E-02  0.9890426E-01
        2   -1    0    0  501    0  0.00000000000E+00  0.00000000000E+00  0.14798968685E+03  0.14798968687E+03  0.25500000920E-02 0. -1.
       -2   -1    0    0    0  501  0.00000000000E+00  0.00000000000E+00 -0.62298843081E+03  0.62298843082E+03  0.25500000920E-02 0.  1.
    10030    2    1    2    0    0  0.00000000000E+00  0.00000000000E+00 -0.47499874397E+03  0.77097811769E+03  0.60727543271E+03 0.  0.
        2    1    3    3  502    0  0.18392350177E+02 -0.83177174688E+01  0.14713690212E+03  0.14851508657E+03  0.25500000920E-02 0. -1.
       -2    1    3    3    0  502 -0.18392350177E+02  0.83177174688E+01 -0.62213564608E+03  0.62246303111E+03  0.25500000920E-02 0.  1.
</event>
<event>
 5   0  0.5899787E-02  0.7368661E+03  0.7818609E-02  0.9656184E-01
        2   -1    0    0  501    0  0.00000000000E+00  0.00000000000E+00  0.97991446513E+03  0.97991446513E+03  0.25500000920E-02 0. -1.
       -2   -1    0    0    0  501  0.00000000000E+00  0.00000000000E+00 -0.13852525967E+03  0.13852525970E+03  0.25500000920E-02 0.  1.
    10030    2    1    2    0    0  0.00000000000E+00  0.00000000000E+00  0.84138920545E+03  0.11184397248E+04  0.73686608214E+03 0.  0.
        2    1    3    3  502    0  0.11065114159E+03  0.18100674720E+03  0.87790208105E+03  0.90317173427E+03  0.25500000920E-02 0. -1.
       -2    1    3    3    0  502 -0.11065114159E+03 -0.18100674720E+03 -0.36512875599E+02  0.21526799055E+03  0.25500000920E-02 0.  1.
</event>
<event>
 5   0  0.3755872E-02  0.7641436E+03  0.7818609E-02  0.9613419E-01
       -1   -1    0    0    0  501  0.00000000000E+00  0.00000000000E+00  0.19883735053E+03  0.19883735059E+03  0.50400001928E-02 0.  1.
        1   -1    0    0  501    0  0.00000000000E+00  0.00000000000E+00 -0.73416220681E+03  0.73416220682E+03  0.50400001928E-02 0. -1.
    10030    2    1    2    0    0  0.00000000000E+00  0.00000000000E+00 -0.53532485628E+03  0.93299955742E+03  0.76414362026E+03 0.  0.
        2    1    3    3  502    0 -0.35530995950E+02  0.36367249209E+03 -0.13137888409E+03  0.38830470557E+03  0.25500000920E-02 0.  1.
       -2    1    3    3    0  502  0.35530995950E+02 -0.36367249209E+03 -0.40394597219E+03  0.54469485185E+03  0.25500000920E-02 0. -1.
</event>
<event>
 5   0  0.6167756E-02  0.7157712E+03  0.7818609E-02  0.9690635E-01
        2   -1    0    0  501    0  0.00000000000E+00  0.00000000000E+00  0.23108066589E+03  0.23108066590E+03  0.25500000920E-02 0. -1.
       -2   -1    0    0    0  501  0.00000000000E+00  0.00000000000E+00 -0.55427443997E+03  0.55427443997E+03  0.25500000920E-02 0.  1.
    10030    2    1    2    0    0  0.00000000000E+00  0.00000000000E+00 -0.32319377408E+03  0.78535510588E+03  0.71577121116E+03 0.  0.
        4    1    3    3  502    0 -0.11696566404E+03 -0.14449042902E+03  0.17394661884E+03  0.25459279202E+03  0.12699999809E+01 0. -1.
       -4    1    3    3    0  502  0.11696566404E+03  0.14449042902E+03 -0.49714039291E+03  0.53076231386E+03  0.12699999809E+01 0.  1.
</event>
<event>
 5   0  0.3601475E-02  0.7246649E+03  0.7818609E-02  0.9675958E-01
        1   -1    0    0  501    0  0.00000000000E+00  0.00000000000E+00  0.43302771038E+03  0.43302771041E+03  0.50400001928E-02 0.  1.
       -1   -1    0    0    0  501  0.00000000000E+00  0.00000000000E+00 -0.30317874470E+03  0.30317874474E+03  0.50400001928E-02 0. -1.
    10030    2    1    2    0    0  0.00000000000E+00  0.00000000000E+00  0.12984896568E+03  0.73620645515E+03  0.72466488167E+03 0.  0.
        5    1    3    3  502    0  0.28663809030E+03  0.19320806533E+03 -0.45302197383E+02  0.34866191418E+03  0.46999998093E+01 0. -1.
       -5    1    3    3    0  502 -0.28663809030E+03 -0.19320806533E+03  0.17515116306E+03  0.38754454097E+03  0.46999998093E+01 0.  1.
</event>
<event>
 5   0  0.3601475E-02  0.7178517E+03  0.7818609E-02  0.9687181E-01
       -1   -1    0    0    0  501  0.00000000000E+00  0.00000000000E+00  0.53161192348E+03  0.53161192350E+03  0.50400001928E-02 0. -1.
        1   -1    0    0  501    0  0.00000000000E+00  0.00000000000E+00 -0.24233425298E+03  0.24233425303E+03  0.50400001928E-02 0.  1.
    10030    2    1    2    0    0  0.00000000000E+00  0.00000000000E+00  0.28927767050E+03  0.77394617653E+03  0.71785173505E+03 0.  0.
        5    1    3    3  502    0  0.35190582698E+03  0.68332382377E+02  0.12600652972E+03  0.38000889605E+03  0.46999998093E+01 0.  1.
       -5    1    3    3    0  502 -0.35190582698E+03 -0.68332382377E+02  0.16327114078E+03  0.39393728048E+03  0.46999998093E+01 0. -1.
</event>
<event>
 5   0  0.3717372E-02  0.4717359E+03  0.7818609E-02  0.1021431E+00
        1   -1    0    0  501    0  0.00000000000E+00  0.00000000000E+00  0.61102190643E+03  0.61102190645E+03  0.50400001928E-02 0.  1.
       -1   -1    0    0    0  501  0.00000000000E+00  0.00000000000E+00 -0.91050230996E+02  0.91050231135E+02  0.50400001928E-02 0. -1.
    10030    2    1    2    0    0  0.00000000000E+00  0.00000000000E+00  0.51997167543E+03  0.70207213759E+03  0.47173588280E+03 0.  0.
        3    1    3    3  502    0 -0.17973549303E+03  0.95183871752E+02  0.82208071868E+02  0.21936953794E+03  0.10100000352E+00 0. -1.
       -3    1    3    3    0  502  0.17973549303E+03 -0.95183871752E+02  0.43776360357E+03  0.48270259964E+03  0.10100000352E+00 0.  1.
</event>
<event>
 5   0  0.5899787E-02  0.7052677E+03  0.7818609E-02  0.9708266E-01
       -2   -1    0    0    0  501  0.00000000000E+00  0.00000000000E+00  0.66306924855E+03  0.66306924856E+03  0.25500000920E-02 0.  1.
        2   -1    0    0  501    0  0.00000000000E+00  0.00000000000E+00 -0.18753790728E+03  0.18753790730E+03  0.25500000920E-02 0. -1.
    10030    2    1    2    0    0  0.00000000000E+00  0.00000000000E+00  0.47553134127E+03  0.85060715586E+03  0.70526766342E+03 0.  0.
        2    1    3    3  502    0 -0.24939257547E+03  0.75511240132E+02 -0.48793812312E+02  0.26510269749E+03  0.25500000920E-02 0. -1.
       -2    1    3    3    0  502  0.24939257547E+03 -0.75511240132E+02  0.52432515358E+03  0.58550445837E+03  0.25500000920E-02 0.  1.
</event>
<event>
 5   0  0.3749730E-02  0.7072667E+03  0.7818609E-02  0.9704885E-01
        1   -1    0    0  501    0  0.00000000000E+00  0.00000000000E+00  0.32447374220E+03  0.32447374224E+03  0.50400001928E-02 0. -1.
       -1   -1    0    0    0  501  0.00000000000E+00  0.00000000000E+00 -0.38541343086E+03  0.38541343089E+03  0.50400001928E-02 0.  1.
    10030    2    1    2    0    0  0.00000000000E+00  0.00000000000E+00 -0.60939688657E+02  0.70988717313E+03  0.70726667737E+03 0.  0.
        4    1    3    3  502    0 -0.31123387997E+03  0.19544836167E+02 -0.19784018073E+03  0.36931135735E+03  0.12699999809E+01 0.  1.
       -4    1    3    3    0  502  0.31123387997E+03 -0.19544836167E+02  0.13690049207E+03  0.34057581577E+03  0.12699999809E+01 0. -1.
</event>
<event>
 5   0  0.5899787E-02  0.7292679E+03  0.7818609E-02  0.9668449E-01
        2   -1    0    0  501    0  0.00000000000E+00  0.00000000000E+00  0.50273814550E+03  0.50273814551E+03  0.25500000920E-02 0. -1.
       -2   -1    0    0    0  501  0.00000000000E+00  0.00000000000E+00 -0.26446756225E+03  0.26446756226E+03  0.25500000920E-02 0.  1.
    10030    2    1    2    0    0  0.00000000000E+00  0.00000000000E+00  0.23827058325E+03  0.76720570777E+03  0.72926793923E+03 0.  0.
        2    1    3    3  502    0  0.86446300397E+02 -0.18610757199E+03 -0.19795623559E+03  0.28512394221E+03  0.25500000920E-02 0.  1.
       -2    1    3    3    0  502 -0.86446300397E+02  0.18610757199E+03  0.43622681884E+03  0.48208176556E+03  0.25500000920E-02 0. -1.
</event>
<event>
 5   0  0.5899787E-02  0.6952336E+03  0.7818609E-02  0.9725418E-01
        2   -1    0    0  501    0  0.00000000000E+00  0.00000000000E+00  0.63798333616E+03  0.63798333617E+03  0.25500000920E-02 0.  1.
       -2   -1    0    0    0  501  0.00000000000E+00  0.00000000000E+00 -0.18940532619E+03  0.18940532621E+03  0.25500000920E-02 0. -1.
    10030    2    1    2    0    0  0.00000000000E+00  0.00000000000E+00  0.44857800997E+03  0.82738866238E+03  0.69523360650E+03 0.  0.
        2    1    3    3  502    0 -0.52689927953E+02 -0.22893155640E+03  0.52921982375E+03  0.57901598240E+03  0.25500000920E-02 0.  1.
       -2    1    3    3    0  502  0.52689927953E+02  0.22893155640E+03 -0.80641813781E+02  0.24837267998E+03  0.25500000920E-02 0. -1.
</event>
<event>
 5   0  0.3717372E-02  0.8350689E+03  0.7818609E-02  0.9510599E-01
       -1   -1    0    0    0  501  0.00000000000E+00  0.00000000000E+00  0.18697682933E+03  0.18697682940E+03  0.50400001928E-02 0. -1.
        1   -1    0    0  501    0  0.00000000000E+00  0.00000000000E+00 -0.93238832506E+03  0.93238832508E+03  0.50400001928E-02 0.  1.
    10030    2    1    2    0    0  0.00000000000E+00  0.00000000000E+00 -0.74541149573E+03  0.11193651545E+04  0.83506889002E+03 0.  0.
        3    1    3    3  502    0  0.37944242765E+03  0.17069420828E+03 -0.32584887076E+03  0.52847948439E+03  0.10100000352E+00 0.  1.
       -3    1    3    3    0  502 -0.37944242765E+03 -0.17069420828E+03 -0.41956262497E+03  0.59088567009E+03  0.10100000352E+00 0. -1.
</event>
<event>
 5   0  0.3439015E-02  0.7430783E+03  0.7818609E-02  0.9646272E-01
       -1   -1    0    0    0  501  0.00000000000E+00  0.00000000000E+00  0.16327876070E+03  0.16327876078E+03  0.50400001928E-02 0. -1.
        1   -1    0    0  501    0  0.00000000000E+00  0.00000000000E+00 -0.84543352406E+03  0.84543352407E+03  0.50400001928E-02 0.  1.
    10030    2    1    2    0    0  0.00000000000E+00  0.00000000000E+00 -0.68215476336E+03  0.10087122849E+04  0.74307829496E+03 0.  0.
        1    1    3    3  502    0 -0.33262700513E+03  0.14674018588E+03 -0.44506347149E+03  0.57467808413E+03  0.50400001928E-02 0.  1.
       -1    1    3    3    0  502  0.33262700513E+03 -0.14674018588E+03 -0.23709129187E+03  0.43403420073E+03  0.50400001928E-02 0. -1.
</event>
<event>
 5   0  0.3717372E-02  0.6888838E+03  0.7818609E-02  0.9736434E-01
       -1   -1    0    0    0  501  0.00000000000E+00  0.00000000000E+00  0.20667746760E+03  0.20667746766E+03  0.50400001928E-02 0.  1.
        1   -1    0    0  501    0  0.00000000000E+00  0.00000000000E+00 -0.57403557857E+03  0.57403557860E+03  0.50400001928E-02 0. -1.
    10030    2    1    2    0    0  0.00000000000E+00  0.00000000000E+00 -0.36735811097E+03  0.78071304626E+03  0.68888379201E+03 0.  0.
        3    1    3    3  502    0 -0.26755556686E+03  0.20968110596E+03 -0.24665699874E+03  0.41999027701E+03  0.10100000352E+00 0. -1.
       -3    1    3    3    0  502  0.26755556686E+03 -0.20968110596E+03 -0.12070111223E+03  0.36072276924E+03  0.10100000352E+00 0.  1.
</event>
<event>
 5   0  0.3601475E-02  0.7033898E+03  0.7818609E-02  0.9711453E-01
       -1   -1    0    0    0  501  0.00000000000E+00  0.00000000000E+00  0.14841304521E+03  0.14841304529E+03  0.50400001928E-02 0.  1.
        1   -1    0    0  501    0  0.00000000000E+00  0.00000000000E+00 -0.83341252069E+03  0.83341252070E+03  0.50400001928E-02 0. -1.
    10030    2    1    2    0    0  0.00000000000E+00  0.00000000000E+00 -0.68499947548E+03  0.98182556600E+03  0.70338976438E+03 0.  0.
        5    1    3    3  502    0  0.34233188253E+03  0.36823312146E+02 -0.44237975728E+03  0.56059701548E+03  0.46999998093E+01 0. -1.
       -5    1    3    3    0  502 -0.34233188253E+03 -0.36823312146E+02 -0.24261971820E+03  0.42122855052E+03  0.46999998093E+01 0.  1.
</event>
<event>
 5   0  0.3749730E-02  0.5882184E+03  0.7818609E-02  0.9930155E-01
        1   -1    0    0  501    0  0.00000000000E+00  0.00000000000E+00  0.19256646364E+03  0.19256646371E+03  0.50400001928E-02 0. -1.
       -1   -1    0    0    0  501  0.00000000000E+00  0.00000000000E+00 -0.44919667275E+03  0.44919667278E+03  0.50400001928E-02 0.  1.
    10030    2    1    2    0    0  0.00000000000E+00  0.00000000000E+00 -0.25663020911E+03  0.64176313649E+03  0.58821837707E+03 0.  0.
        4    1    3    3  502    0  0.18388615328E+03 -0.22948921405E+03 -0.12353630531E+03  0.31897060736E+03  0.12699999809E+01 0. -1.
       -4    1    3    3    0  502 -0.18388615328E+03  0.22948921405E+03 -0.13309390379E+03  0.32279252912E+03  0.12699999809E+01 0.  1.
</event>
<event>
 5   0  0.3749730E-02  0.7108027E+03  0.7818609E-02  0.9698934E-01
        1   -1    0    0  501    0  0.00000000000E+00  0.00000000000E+00  0.60436040746E+03  0.60436040748E+03  0.50400001928E-02 0.  1.
       -1   -1    0    0    0  501  0.00000000000E+00  0.00000000000E+00 -0.20899800746E+03  0.20899800752E+03  0.50400001928E-02 0. -1.
    10030    2    1    2    0    0  0.00000000000E+00  0.00000000000E+00  0.39536240001E+03  0.81335841500E+03  0.71080270393E+03 0.  0.
        4    1    3    3  502    0 -0.21707176023E+03 -0.17297083472E+03 -0.56311799677E+02  0.28321668460E+03  0.12699999809E+01 0. -1.
       -4    1    3    3    0  502  0.21707176023E+03  0.17297083472E+03  0.45167419968E+03  0.53014173040E+03  0.12699999809E+01 0.  1.
</event>
<event>
 5   0  0.6131198E-02  0.7156241E+03  0.7818609E-02  0.9690880E-01
       -2   -1    0    0    0  501  0.00000000000E+00  0.00000000000E+00  0.19268535796E+03  0.19268535798E+03  0.25500000920E-02 0. -1.
        2   -1    0    0  501    0  0.00000000000E+00  0.00000000000E+00 -0.66444840151E+03  0.66444840151E+03  0.25500000920E-02 0.  1.
    10030    2    1    2    0    0  0.00000000000E+00  0.00000000000E+00 -0.47176304354E+03  0.85713375949E+03  0.71562414186E+03 0.  0.
        1    1    3    3  502    0 -0.20932499489E+03  0.12299004014E+03 -0.55069880146E+03  0.60184106989E+03  0.50400001928E-02 0.  1.
       -1    1    3    3    0  502  0.20932499489E+03 -0.12299004014E+03  0.78935757916E+02  0.25529268960E+03  0.50400001928E-02 0. -1.
</event>
<event>
 5   0  0.6248886E-02  0.6615599E+03  0.7818609E-02  0.9785327E-01
        2   -1    0    0  501    0  0.00000000000E+00  0.00000000000E+00  0.79393608930E+03  0.79393608930E+03  0.25500000920E-02 0. -1.
       -2   -1    0    0    0  501  0.00000000000E+00  0.00000000000E+00 -0.13781381247E+03  0.13781381249E+03  0.25500000920E-02 0.  1.
    10030    2    1    2    0    0  0.00000000000E+00  0.00000000000E+00  0.65612227683E+03  0.93174990179E+03  0.66155985167E+03 0.  0.
        3    1    3    3  502    0 -0.12695900666E+03  0.22722118513E+03  0.61555452363E+03  0.66832285470E+03  0.10100000352E+00 0. -1.
       -3    1    3    3    0  502  0.12695900666E+03 -0.22722118513E+03  0.40567753200E+02  0.26342704710E+03  0.10100000352E+00 0.  1.
</event>
<event>
 5   0  0.3601475E-02  0.6797012E+03  0.7818609E-02  0.9752590E-01
        1   -1    0    0  501    0  0.00000000000E+00  0.00000000000E+00  0.81771223146E+03  0.81771223148E+03  0.50400001928E-02 0. -1.
       -1   -1    0    0    0  501  0.00000000000E+00  0.00000000000E+00 -0.14124583027E+03  0.14124583035E+03  0.50400001928E-02 0.  1.
    10030    2    1    2    0    0  0.00000000000E+00  0.00000000000E+00  0.67646640120E+03  0.95895806183E+03  0.67970123761E+03 0.  0.
        5    1    3    3  502    0  0.21540861635E+03  0.12418249171E+03  0.11432202159E+02  0.24894768224E+03  0.46999998093E+01 0.  1.
       -5    1    3    3    0  502 -0.21540861635E+03 -0.12418249171E+03  0.66503419904E+03  0.71001037960E+03  0.46999998093E+01 0. -1.
</event>
<event>
 5   0  0.5899787E-02  0.6881334E+03  0.7818609E-02  0.9737744E-01
        2   -1    0    0  501    0  0.00000000000E+00  0.00000000000E+00  0.83327178910E+03  0.83327178910E+03  0.25500000920E-02 0.  1.
       -2   -1    0    0    0  501  0.00000000000E+00  0.00000000000E+00 -0.14206875405E+03  0.14206875407E+03  0.25500000920E-02 0. -1.
    10030    2    1    2    0    0  0.00000000000E+00  0.00000000000E+00  0.69120303505E+03  0.97534054318E+03  0.68813337334E+03 0.  0.
        2    1    3    3  502    0 -0.20239860301E+03 -0.15085828982E+03  0.14232134596E+02  0.25283585934E+03  0.25500000920E-02 0. -1.
       -2    1    3    3    0  502  0.20239860301E+03  0.15085828982E+03  0.67697090045E+03  0.72250468384E+03  0.25500000920E-02 0.  1.
</event>
<event>
 5   0  0.6167756E-02  0.6980423E+03  0.7818609E-02  0.9720586E-01
       -2   -1    0    0    0  501  0.00000000000E+00  0.00000000000E+00  0.12017670694E+03  0.12017670696E+03  0.25500000920E-02 0. -1.
        2   -1    0    0  501    0  0.00000000000E+00  0.00000000000E+00 -0.10136386499E+04  0.10136386499E+04  0.25500000920E-02 0.  1.
    10030    2    1    2    0    0  0.00000000000E+00  0.00000000000E+00 -0.89346194299E+03  0.11338153569E+04  0.69804227662E+03 0.  0.
        4    1    3    3  502    0 -0.20635525965E+02  0.17361095923E+03 -0.93738031226E+03  0.95354604127E+03  0.12699999809E+01 0. -1.
       -4    1    3    3    0  502  0.20635525965E+02 -0.17361095923E+03  0.43918369274E+02  0.18026931563E+03  0.12699999809E+01 0.  1.
</event>
<event>
 5   0  0.3749730E-02  0.6938059E+03  0.7818609E-02  0.9727884E-01
        1   -1    0    0  501    0  0.00000000000E+00  0.00000000000E+00  0.43140718791E+03  0.43140718794E+03  0.50400001928E-02 0.  1.
       -1   -1    0    0    0  501  0.00000000000E+00  0.00000000000E+00 -0.27895140976E+03  0.27895140980E+03  0.50400001928E-02 0. -1.
    10030    2    1    2    0    0  0.00000000000E+00  0.00000000000E+00  0.15245577815E+03  0.71035859774E+03  0.69380586124E+03 0.  0.
        4    1    3    3  502    0  0.12144677057E+03 -0.16902360066E+03  0.36037701517E+03  0.41616283066E+03  0.12699999809E+01 0.  1.
       -4    1    3    3    0  502 -0.12144677057E+03  0.16902360066E+03 -0.20792123702E+03  0.29419576708E+03  0.12699999809E+01 0. -1.
</event>
<event>
 5   0  0.5987810E-02  0.6695204E+03  0.7818609E-02  0.9770825E-01
       -2   -1    0    0    0  501  0.00000000000E+00  0.00000000000E+00  0.11982242303E+03  0.11982242306E+03  0.25500000920E-02 0. -1.
        2   -1    0    0  501    0  0.00000000000E+00  0.00000000000E+00 -0.93525387155E+03  0.93525387155E+03  0.25500000920E-02 0.  1.
    10030    2    1    2    0    0  0.00000000000E+00  0.00000000000E+00 -0.81543144852E+03  0.10550762946E+04  0.66952038074E+03 0.  0.
        5    1    3    3  502    0 -0.21921443440E+03 -0.98318617567E+02 -0.40430846624E+02  0.24367655235E+03  0.46999998093E+01 0. -1.
       -5    1    3    3    0  502  0.21921443440E+03  0.98318617567E+02 -0.77500060189E+03  0.81139974226E+03  0.46999998093E+01 0.  1.
</event>
<event>
 5   0  0.6131198E-02  0.6869023E+03  0.7818609E-02  0.9739897E-01
        2   -1    0    0  501    0  0.00000000000E+00  0.00000000000E+00  0.84883493424E+03  0.84883493425E+03  0.25500000920E-02 0. -1.
       -2   -1    0    0    0  501  0.00000000000E+00  0.00000000000E+00 -0.13896539530E+03  0.13896539532E+03  0.25500000920E-02 0.  1.
    10030    2    1    2    0    0  0.00000000000E+00  0.00000000000E+00  0.70986953894E+03  0.98780032957E+03  0.68690227018E+03 0.  0.
        1    1    3    3  502    0 -0.26445481492E+03 -0.19816107875E+03  0.48948683908E+03  0.59059421596E+03  0.50400001928E-02 0. -1.
       -1    1    3    3    0  502  0.26445481492E+03  0.19816107875E+03  0.22038269986E+03  0.39720611361E+03  0.50400001928E-02 0.  1.
</event>
<event>
 5   0  0.3749730E-02  0.7007393E+03  0.7818609E-02  0.9715969E-01
        1   -1    0    0  501    0  0.00000000000E+00  0.00000000000E+00  0.34571650696E+03  0.34571650700E+03  0.50400001928E-02 0. -1.
       -1   -1    0    0    0  501  0.00000000000E+00  0.00000000000E+00 -0.35508537811E+03  0.35508537814E+03  0.50400001928E-02 0.  1.
    10030    2    1    2    0    0  0.00000000000E+00  0.00000000000E+00 -0.93688711469E+01  0.70080188514E+03  0.70073925712E+03 0.  0.
        4    1    3    3  502    0  0.26254741473E+03 -0.59399617127E+01  0.22726480683E+03  0.34730006255E+03  0.12699999809E+01 0. -1.
       -4    1    3    3    0  502 -0.26254741473E+03  0.59399617127E+01 -0.23663367797E+03  0.35350182259E+03  0.12699999809E+01 0.  1.
</event>
<event>
 5   0  0.2439375E-02  0.7075593E+03  0.7818609E-02  0.9704391E-01
        3   -1    0    0  501    0  0.00000000000E+00  0.00000000000E+00  0.28562190270E+03  0.28562192056E+03  0.10100000352E+00 0. -1.
       -3   -1    0    0    0  501  0.00000000000E+00  0.00000000000E+00 -0.43820174689E+03  0.43820175853E+03  0.10100000352E+00 0.  1.
    10030    2    1    2    0    0  0.00000000000E+00  0.00000000000E+00 -0.15257984419E+03  0.72382367909E+03  0.70755926222E+03 0.  0.
        4    1    3    3  502    0 -0.31290625518E+03 -0.13584143359E+03  0.19648528312E+02  0.34168830412E+03  0.12699999809E+01 0. -1.
       -4    1    3    3    0  502  0.31290625518E+03  0.13584143359E+03 -0.17222837250E+03  0.38213537497E+03  0.12699999809E+01 0.  1.
</event>
<event>
 5   0  0.3439015E-02  0.7081524E+03  0.7818609E-02  0.9703391E-01
       -1   -1    0    0    0  501  0.00000000000E+00  0.00000000000E+00  0.88259123210E+02  0.88259123354E+02  0.50400001928E-02 0. -1.
        1   -1    0    0  501    0  0.00000000000E+00  0.00000000000E+00 -0.14204757052E+04  0.14204757052E+04  0.50400001928E-02 0.  1.
    10030    2    1    2    0    0  0.00000000000E+00  0.00000000000E+00 -0.13322165820E+04  0.15087348286E+04  0.70815235761E+03 0.  0.
        1    1    3    3  502    0  0.17078033499E+03 -0.26596971210E+03 -0.32613043536E+03  0.45416612761E+03  0.50400001928E-02 0. -1.
       -1    1    3    3    0  502 -0.17078033499E+03  0.26596971210E+03 -0.10060861466E+04  0.10545687010E+04  0.50400001928E-02 0.  1.
</event>
<event>
 5   0  0.6167756E-02  0.6940744E+03  0.7818609E-02  0.9727420E-01
       -2   -1    0    0    0  501  0.00000000000E+00  0.00000000000E+00  0.19395169118E+03  0.19395169120E+03  0.25500000920E-02 0.  1.
        2   -1    0    0  501    0  0.00000000000E+00  0.00000000000E+00 -0.62095269284E+03  0.62095269284E+03  0.25500000920E-02 0. -1.
    10030    2    1    2    0    0  0.00000000000E+00  0.00000000000E+00 -0.42700100166E+03  0.81490438404E+03  0.69407441944E+03 0.  0.
        4    1    3    3  502    0 -0.54790447503E+02 -0.31233953483E+03 -0.37902288743E+03  0.49418411574E+03  0.12699999809E+01 0. -1.
       -4    1    3    3    0  502  0.54790447503E+02  0.31233953483E+03 -0.47978114228E+02  0.32072026830E+03  0.12699999809E+01 0.  1.
</event>
<event>
 5   0  0.6248886E-02  0.6969977E+03  0.7818609E-02  0.9722380E-01
       -2   -1    0    0    0  501  0.00000000000E+00  0.00000000000E+00  0.18335506452E+03  0.18335506454E+03  0.25500000920E-02 0. -1.
        2   -1    0    0  501    0  0.00000000000E+00  0.00000000000E+00 -0.66238384110E+03  0.66238384110E+03  0.25500000920E-02 0.  1.
    10030    2    1    2    0    0  0.00000000000E+00  0.00000000000E+00 -0.47902877658E+03  0.84573890564E+03  0.69699765259E+03 0.  0.
        3    1    3    3  502    0 -0.11942333700E+03 -0.95263528021E+02 -0.61959109669E+03  0.63814591629E+03  0.10100000352E+00 0.  1.
       -3    1    3    3    0  502  0.11942333700E+03  0.95263528021E+02  0.14056232010E+03  0.20759298935E+03  0.10100000352E+00 0. -1.
</event>
<event>
 5   0  0.5899787E-02  0.7214182E+03  0.7818609E-02  0.9681289E-01
       -2   -1    0    0    0  501  0.00000000000E+00  0.00000000000E+00  0.68153657754E+02  0.68153657802E+02  0.25500000920E-02 0. -1.
        2   -1    0    0  501    0  0.00000000000E+00  0.00000000000E+00 -0.19090837922E+04  0.19090837922E+04  0.25500000920E-02 0.  1.
    10030    2    1    2    0    0  0.00000000000E+00  0.00000000000E+00 -0.18409301345E+04  0.19772374500E+04  0.72141816846E+03 0.  0.
        2    1    3    3  502    0  0.37703138862E+02 -0.33810656569E+03 -0.12490536886E+04  0.12945550175E+04  0.25500000920E-02 0.  1.
       -2    1    3    3    0  502 -0.37703138862E+02  0.33810656569E+03 -0.59187644589E+03  0.68268243250E+03  0.25500000920E-02 0. -1.
</event>
<event>
 5   0  0.5899787E-02  0.7004124E+03  0.7818609E-02  0.9716527E-01
       -2   -1    0    0    0  501  0.00000000000E+00  0.00000000000E+00  0.19681602359E+03  0.19681602361E+03  0.25500000920E-02 0.  1.
        2   -1    0    0  501    0  0.00000000000E+00  0.00000000000E+00 -0.62314230662E+03  0.62314230663E+03  0.25500000920E-02 0. -1.
    10030    2    1    2    0    0  0.00000000000E+00  0.00000000000E+00 -0.42632628303E+03  0.81995833024E+03  0.70041242402E+03 0.  0.
        2    1    3    3  502    0 -0.23346284292E+03  0.14547776926E+03  0.40568494822E+02  0.27805482041E+03  0.25500000920E-02 0.  1.
       -2    1    3    3    0  502  0.23346284292E+03 -0.14547776926E+03 -0.46689477786E+03  0.54190350983E+03  0.25500000920E-02 0. -1.
</event>
<event>
 5   0  0.6167756E-02  0.7161481E+03  0.7818609E-02  0.9690009E-01
        2   -1    0    0  501    0  0.00000000000E+00  0.00000000000E+00  0.78791749098E+03  0.78791749099E+03  0.25500000920E-02 0. -1.
       -2   -1    0    0    0  501  0.00000000000E+00  0.00000000000E+00 -0.16272897830E+03  0.16272897832E+03  0.25500000920E-02 0.  1.
    10030    2    1    2    0    0  0.00000000000E+00  0.00000000000E+00  0.62518851268E+03  0.95064646931E+03  0.71614805258E+03 0.  0.
        4    1    3    3  502    0 -0.56530459507E+02  0.33347370742E+03  0.15657022456E+03  0.37271470928E+03  0.12699999809E+01 0.  1.
       -4    1    3    3    0  502  0.56530459507E+02 -0.33347370742E+03  0.46861828812E+03  0.57793176003E+03  0.12699999809E+01 0. -1.
</event>
<event>
 5   0  0.5987810E-02  0.6914121E+03  0.7818609E-02  0.9732032E-01
        2   -1    0    0  501    0  0.00000000000E+00  0.00000000000E+00  0.10552679930E+04  0.10552679930E+04  0.25500000920E-02 0. -1.
       -2   -1    0    0    0  501  0.00000000000E+00  0.00000000000E+00 -0.11325337602E+03  0.11325337605E+03  0.25500000920E-02 0.  1.
    10030    2    1    2    0    0  0.00000000000E+00  0.00000000000E+00  0.94201461697E+03  0.11685213690E+04  0.69141207056E+03 0.  0.
        5    1    3    3  502    0  0.10154538384E+03  0.28792370567E+03  0.19703636066E+03  0.36339639884E+03  0.46999998093E+01 0.  1.
       -5    1    3    3    0  502 -0.10154538384E+03 -0.28792370567E+03  0.74497825631E+03  0.80512497020E+03  0.46999998093E+01 0. -1.
</event>
<event>
 5   0  0.5987810E-02  0.6830242E+03  0.7818609E-02  0.9746712E-01
        2   -1    0    0  501    0  0.00000000000E+00  0.00000000000E+00  0.22405876781E+03  0.22405876783E+03  0.25500000920E-02 0. -1.
       -2   -1    0    0    0  501  0.00000000000E+00  0.00000000000E+00 -0.52053536802E+03  0.52053536803E+03  0.25500000920E-02 0.  1.
    10030    2    1    2    0    0  0.00000000000E+00  0.00000000000E+00 -0.29647660021E+03  0.74459413586E+03  0.68302419626E+03 0.  0.
        5    1    3    3  502    0  0.10594300514E+03  0.15369732755E+03 -0.45995373308E+03  0.49641345208E+03  0.46999998093E+01 0.  1.
       -5    1    3    3    0  502 -0.10594300514E+03 -0.15369732755E+03  0.16347713286E+03  0.24818068378E+03  0.46999998093E+01 0. -1.
</event>
<event>
 5   0  0.6248886E-02  0.7037492E+03  0.7818609E-02  0.9710842E-01
        2   -1    0    0  501    0  0.00000000000E+00  0.00000000000E+00  0.81410064901E+03  0.81410064902E+03  0.25500000920E-02 0. -1.
       -2   -1    0    0    0  501  0.00000000000E+00  0.00000000000E+00 -0.15208896048E+03  0.15208896050E+03  0.25500000920E-02 0.  1.
    10030    2    1    2    0    0  0.00000000000E+00  0.00000000000E+00  0.66201168853E+03  0.96618960952E+03  0.70374916398E+03 0.  0.
        3    1    3    3  502    0 -0.28315798953E+03  0.18632352503E+03  0.20133373576E+03  0.39424635238E+03  0.10100000352E+00 0. -1.
       -3    1    3    3    0  502  0.28315798953E+03 -0.18632352503E+03  0.46067795277E+03  0.57194325714E+03  0.10100000352E+00 0.  1.
</event>
<event>
 5   0  0.3749730E-02  0.6963745E+03  0.7818609E-02  0.9723452E-01
        1   -1    0    0  501    0  0.00000000000E+00  0.00000000000E+00  0.69298092919E+03  0.69298092921E+03  0.50400001928E-02 0. -1.
       -1   -1    0    0    0  501  0.00000000000E+00  0.00000000000E+00 -0.17494618337E+03  0.17494618345E+03  0.50400001928E-02 0.  1.
    10030    2    1    2    0    0  0.00000000000E+00  0.00000000000E+00  0.51803474581E+03  0.86792711265E+03  0.69637452208E+03 0.  0.
        4    1    3    3  502    0  0.10810257711E+03  0.17198655346E+03 -0.93431693893E+02  0.22359927565E+03  0.12699999809E+01 0.  1.
       -4    1    3    3    0  502 -0.10810257711E+03 -0.17198655346E+03  0.61146643971E+03  0.64432783700E+03  0.12699999809E+01 0. -1.
</event>
<event>
 5   0  0.3439015E-02  0.7013209E+03  0.7818609E-02  0.9714976E-01
       -1   -1    0    0    0  501  0.00000000000E+00  0.00000000000E+00  0.20593612279E+03  0.20593612285E+03  0.50400001928E-02 0. -1.
        1   -1    0    0  501    0  0.00000000000E+00  0.00000000000E+00 -0.59709178188E+03  0.59709178190E+03  0.50400001928E-02 0.  1.
    10030    2    1    2    0    0  0.00000000000E+00  0.00000000000E+00 -0.39115565909E+03  0.80302790475E+03  0.70132094377E+03 0.  0.
        1    1    3    3  502    0 -0.67502731763E+02  0.13882932390E+03  0.16493606174E+03  0.22590729173E+03  0.50400001928E-02 0. -1.
       -1    1    3    3    0  502  0.67502731763E+02 -0.13882932390E+03 -0.55609172083E+03  0.57712061302E+03  0.50400001928E-02 0.  1.
</event>
<event>
 5   0  0.5899787E-02  0.5913346E+03  0.7818609E-02  0.9923549E-01
        2   -1    0    0  501    0  0.00000000000E+00  0.00000000000E+00  0.21351283671E+03  0.21351283672E+03  0.25500000920E-02 0.  1.
       -2   -1    0    0    0  501  0.00000000000E+00  0.00000000000E+00 -0.40943279060E+03  0.40943279060E+03  0.25500000920E-02 0. -1.
    10030    2    1    2    0    0  0.00000000000E+00  0.00000000000E+00 -0.19591995389E+03  0.62294562733E+03  0.59133461447E+03 0.  0.
        2    1    3    3  502    0  0.14955297105E+03 -0.17480164523E+03  0.97703757599E+02  0.24993545283E+03  0.25500000920E-02 0.  1.
       -2    1    3    3    0  502 -0.14955297105E+03  0.17480164523E+03 -0.29362371149E+03  0.37301017450E+03  0.25500000920E-02 0. -1.
</event>
<event>
 5   0  0.6167756E-02  0.6655106E+03  0.7818609E-02  0.9778102E-01
        2   -1    0    0  501    0  0.00000000000E+00  0.00000000000E+00  0.17525059379E+03  0.17525059381E+03  0.25500000920E-02 0.  1.
       -2   -1    0    0    0  501  0.00000000000E+00  0.00000000000E+00 -0.63181583179E+03  0.63181583180E+03  0.25500000920E-02 0. -1.
    10030    2    1    2    0    0  0.00000000000E+00  0.00000000000E+00 -0.45656523800E+03  0.80706642561E+03  0.66551063012E+03 0.  0.
        4    1    3    3  502    0 -0.13450161973E+03  0.19143294862E+03  0.58662448636E+02  0.24120562868E+03  0.12699999809E+01 0.  1.
       -4    1    3    3    0  502  0.13450161973E+03 -0.19143294862E+03 -0.51522768663E+03  0.56586079693E+03  0.12699999809E+01 0. -1.
</event>
<event>
 5   0  0.3601475E-02  0.6977771E+03  0.7818609E-02  0.9721041E-01
       -1   -1    0    0    0  501  0.00000000000E+00  0.00000000000E+00  0.33577567442E+03  0.33577567446E+03  0.50400001928E-02 0. -1.
        1   -1    0    0  501    0  0.00000000000E+00  0.00000000000E+00 -0.36251351972E+03  0.36251351976E+03  0.50400001928E-02 0.  1.
    10030    2    1    2    0    0  0.00000000000E+00  0.00000000000E+00 -0.26737845302E+02  0.69828919422E+03  0.69777710366E+03 0.  0.
        5    1    3    3  502    0 -0.24410229755E+03 -0.24682660743E+03  0.21179243283E+02  0.34782173042E+03  0.46999998093E+01 0.  1.
       -5    1    3    3    0  502  0.24410229755E+03  0.24682660743E+03 -0.47917088584E+02  0.35046746380E+03  0.46999998093E+01 0. -1.
</event>
<event>
 5   0  0.3601475E-02  0.7036714E+03  0.7818609E-02  0.9710974E-01
        1   -1    0    0  501    0  0.00000000000E+00  0.00000000000E+00  0.63512974917E+03  0.63512974919E+03  0.50400001928E-02 0.  1.
       -1   -1    0    0    0  501  0.00000000000E+00  0.00000000000E+00 -0.19490245649E+03  0.19490245655E+03  0.50400001928E-02 0. -1.
    10030    2    1    2    0    0  0.00000000000E+00  0.00000000000E+00  0.44022729268E+03  0.83003220574E+03  0.70367136743E+03 0.  0.
        5    1    3    3  502    0  0.15823389931E+03 -0.83933862132E+02  0.57727989695E+03  0.60444770619E+03  0.46999998093E+01 0.  1.
       -5    1    3    3    0  502 -0.15823389931E+03  0.83933862132E+02 -0.13705260426E+03  0.22558449955E+03  0.46999998093E+01 0. -1.
</event>
<event>
 5   0  0.6167756E-02  0.7125685E+03  0.7818609E-02  0.9695977E-01
       -2   -1    0    0    0  501  0.00000000000E+00  0.00000000000E+00  0.16683457398E+03  0.16683457400E+03  0.25500000920E-02 0.  1.
        2   -1    0    0  501    0  0.00000000000E+00  0.00000000000E+00 -0.76086429514E+03  0.76086429515E+03  0.25500000920E-02 0. -1.
    10030    2    1    2    0    0  0.00000000000E+00  0.00000000000E+00 -0.59402972117E+03  0.92769886914E+03  0.71256851052E+03 0.  0.
        4    1    3    3  502    0  0.29888214263E+03 -0.45133816342E+01 -0.54941708465E+03  0.62546914520E+03  0.12699999809E+01 0. -1.
       -4    1    3    3    0  502 -0.29888214263E+03  0.45133816342E+01 -0.44612636515E+02  0.30222972394E+03  0.12699999809E+01 0.  1.
</event>
<event>
 5   0  0.2439375E-02  0.7071229E+03  0.7818609E-02  0.9705128E-01
        3   -1    0    0  501    0  0.00000000000E+00  0.00000000000E+00  0.23623323628E+03  0.23623325787E+03  0.10100000352E+00 0.  1.
       -3   -1    0    0    0  501  0.00000000000E+00  0.00000000000E+00 -0.52916211944E+03  0.52916212908E+03  0.10100000352E+00 0. -1.
    10030    2    1    2    0    0  0.00000000000E+00  0.00000000000E+00 -0.29292888317E+03  0.76539538695E+03  0.70712288025E+03 0.  0.
        5    1    3    3  502    0  0.22582616255E+03  0.23495377421E+03  0.18802225509E+01  0.32592385144E+03  0.46999998093E+01 0. -1.
       -5    1    3    3    0  502 -0.22582616255E+03 -0.23495377421E+03 -0.29480910572E+03  0.43947153550E+03  0.46999998093E+01 0.  1.
</event>
<event>
 5   0  0.3601475E-02  0.6983323E+03  0.7818609E-02  0.9720088E-01
        1   -1    0    0  501    0  0.00000000000E+00  0.00000000000E+00  0.12803476618E+04  0.12803476618E+04  0.50400001928E-02 0.  1.
       -1   -1    0    0    0  501  0.00000000000E+00  0.00000000000E+00 -0.95221798729E+02  0.95221798862E+02  0.50400001928E-02 0. -1.
    10030    2    1    2    0    0  0.00000000000E+00  0.00000000000E+00  0.11851258631E+04  0.13755694607E+04  0.69833232047E+03 0.  0.
        5    1    3    3  502    0 -0.28597152853E+03 -0.49681272487E+02  0.21036756577E+03  0.35850320318E+03  0.46999998093E+01 0. -1.
       -5    1    3    3    0  502  0.28597152853E+03  0.49681272487E+02  0.97475829730E+03  0.10170662575E+04  0.46999998093E+01 0.  1.
</event>
<event>
 5   0  0.3749730E-02  0.7070088E+03  0.7818609E-02  0.9705321E-01
       -1   -1    0    0    0  501  0.00000000000E+00  0.00000000000E+00  0.24683602614E+03  0.24683602619E+03  0.50400001928E-02 0.  1.
        1   -1    0    0  501    0  0.00000000000E+00  0.00000000000E+00 -0.50626870007E+03  0.50626870010E+03  0.50400001928E-02 0. -1.
    10030    2    1    2    0    0  0.00000000000E+00  0.00000000000E+00 -0.25943267393E+03  0.75310472629E+03  0.70700878103E+03 0.  0.
        4    1    3    3  502    0 -0.34226602797E+03  0.54680921547E+02 -0.20372812363E+03  0.40204825375E+03  0.12699999809E+01 0. -1.
       -4    1    3    3    0  502  0.34226602797E+03 -0.54680921547E+02 -0.55704550299E+02  0.35105647254E+03  0.12699999809E+01 0.  1.
</event>
<event>
 5   0  0.3749730E-02  0.6867913E+03  0.7818609E-02  0.9740091E-01
       -1   -1    0    0    0  501  0.00000000000E+00  0.00000000000E+00  0.11290893734E+03  0.11290893745E+03  0.50400001928E-02 0.  1.
        1   -1    0    0  501    0  0.00000000000E+00  0.00000000000E+00 -0.10443866416E+04  0.10443866416E+04  0.50400001928E-02 0. -1.
    10030    2    1    2    0    0  0.00000000000E+00  0.00000000000E+00 -0.93147770429E+03  0.11572955791E+04  0.68679133933E+03 0.  0.
        4    1    3    3  502    0 -0.50208668379E+02 -0.19498786614E+02  0.10574258159E+03  0.11867695447E+03  0.12699999809E+01 0.  1.
       -4    1    3    3    0  502  0.50208668379E+02  0.19498786614E+02 -0.10372202859E+04  0.10386186246E+04  0.12699999809E+01 0. -1.
</event>
<event>
 5   0  0.3439015E-02  0.6963058E+03  0.7818609E-02  0.9723571E-01
        1   -1    0    0  501    0  0.00000000000E+00  0.00000000000E+00  0.11837898355E+04  0.11837898355E+04  0.50400001928E-02 0. -1.
       -1   -1    0    0    0  501  0.00000000000E+00  0.00000000000E+00 -0.10239185229E+03  0.10239185241E+03  0.50400001928E-02 0.  1.
    10030    2    1    2    0    0  0.00000000000E+00  0.00000000000E+00  0.10813979832E+04  0.12861816879E+04  0.69630577784E+03 0.  0.
        1    1    3    3  502    0  0.50701335138E+02  0.15280881463E+03 -0.29497228553E+02  0.16368031565E+03  0.50400001928E-02 0.  1.
       -1    1    3    3    0  502 -0.50701335138E+02 -0.15280881463E+03  0.11108952117E+04  0.11225013723E+04  0.50400001928E-02 0. -1.
</event>
<event>
 5   0  0.3439015E-02  0.6809651E+03  0.7818609E-02  0.9750350E-01
       -1   -1    0    0    0  501  0.00000000000E+00  0.00000000000E+00  0.30607763079E+03  0.30607763083E+03  0.50400001928E-02 0.  1.
        1   -1    0    0  501    0  0.00000000000E+00  0.00000000000E+00 -0.37875477514E+03  0.37875477517E+03  0.50400001928E-02 0. -1.
    10030    2    1    2    0    0  0.00000000000E+00  0.00000000000E+00 -0.72677144345E+02  0.68483240600E+03  0.68096509235E+03 0.  0.
        1    1    3    3  502    0  0.13703177292E+03  0.52622279318E+02 -0.34529911045E+03  0.37520432670E+03  0.50400001928E-02 0. -1.
       -1    1    3    3    0  502 -0.13703177292E+03 -0.52622279318E+02  0.27262196610E+03  0.30962807931E+03  0.50400001928E-02 0.  1.
</event>
<event>
 5   0  0.2439375E-02  0.6943653E+03  0.7818609E-02  0.9726917E-01
        4   -1    0    0  501    0  0.00000000000E+00  0.00000000000E+00  0.15383891117E+03  0.15384415325E+03  0.12699999809E+01 0. -1.
       -4   -1    0    0    0  501  0.00000000000E+00  0.00000000000E+00 -0.78350040184E+03  0.78350143113E+03  0.12699999809E+01 0.  1.
    10030    2    1    2    0    0  0.00000000000E+00  0.00000000000E+00 -0.62966149067E+03  0.93734558438E+03  0.69436528695E+03 0.  0.
        1    1    3    3  502    0 -0.83917530186E+02  0.18773132873E+03  0.62789726917E+02  0.21500640337E+03  0.50400001928E-02 0. -1.
       -1    1    3    3    0  502  0.83917530186E+02 -0.18773132873E+03 -0.69245121758E+03  0.72233918101E+03  0.50400001928E-02 0.  1.
</event>
<event>
 5   0  0.3601475E-02  0.6158669E+03  0.7818609E-02  0.9873023E-01
       -1   -1    0    0    0  501  0.00000000000E+00  0.00000000000E+00  0.31421168672E+03  0.31421168676E+03  0.50400001928E-02 0. -1.
        1   -1    0    0  501    0  0.00000000000E+00  0.00000000000E+00 -0.30178061535E+03  0.30178061539E+03  0.50400001928E-02 0.  1.
    10030    2    1    2    0    0  0.00000000000E+00  0.00000000000E+00  0.12431071370E+02  0.61599230214E+03  0.61586685636E+03 0.  0.
        5    1    3    3  502    0 -0.12264941498E+03 -0.15632452408E+03 -0.22903583875E+03  0.30324864592E+03  0.46999998093E+01 0.  1.
       -5    1    3    3    0  502  0.12264941498E+03  0.15632452408E+03  0.24146691012E+03  0.31274365622E+03  0.46999998093E+01 0. -1.
</event>
<event>
 5   0  0.6248886E-02  0.7021877E+03  0.7818609E-02  0.9713498E-01
       -2   -1    0    0    0  501  0.00000000000E+00  0.00000000000E+00  0.33563529743E+03  0.33563529744E+03  0.25500000920E-02 0.  1.
        2   -1    0    0  501    0  0.00000000000E+00  0.00000000000E+00 -0.36726436933E+03  0.36726436933E+03  0.25500000920E-02 0. -1.
    10030    2    1    2    0    0  0.00000000000E+00  0.00000000000E+00 -0.31629071891E+02  0.70289966678E+03  0.70218768386E+03 0.  0.
        3    1    3    3  502    0 -0.14121762911E+03 -0.27082296048E+03  0.15750657336E+03  0.34365073192E+03  0.10100000352E+00 0.  1.
       -3    1    3    3    0  502  0.14121762911E+03  0.27082296048E+03 -0.18913564526E+03  0.35924893486E+03  0.10100000352E+00 0. -1.
</event>
<event>
 5   0  0.3717372E-02  0.6877341E+03  0.7818609E-02  0.9738442E-01
        1   -1    0    0  501    0  0.00000000000E+00  0.00000000000E+00  0.10139034894E+04  0.10139034894E+04  0.50400001928E-02 0. -1.
       -1   -1    0    0    0  501  0.00000000000E+00  0.00000000000E+00 -0.11662307721E+03  0.11662307731E+03  0.50400001928E-02 0.  1.
    10030    2    1    2    0    0  0.00000000000E+00  0.00000000000E+00  0.89728041215E+03  0.11305265667E+04  0.68773409102E+03 0.  0.
        3    1    3    3  502    0  0.51222957258E+02 -0.63167092934E+02 -0.10058690814E+03  0.12935072195E+03  0.10100000352E+00 0.  1.
       -3    1    3    3    0  502 -0.51222957258E+02  0.63167092934E+02  0.99786732029E+03  0.10011758447E+04  0.10100000352E+00 0. -1.
</event>
<event>
 5   0  0.2439375E-02  0.6991343E+03  0.7818609E-02  0.9718714E-01
        3   -1    0    0  501    0  0.00000000000E+00  0.00000000000E+00  0.18729610470E+03  0.18729613193E+03  0.10100000352E+00 0. -1.
       -3   -1    0    0    0  501  0.00000000000E+00  0.00000000000E+00 -0.65242768190E+03  0.65242768971E+03  0.10100000352E+00 0.  1.
    10030    2    1    2    0    0  0.00000000000E+00  0.00000000000E+00 -0.46513157720E+03  0.83972382165E+03  0.69913425931E+03 0.  0.
        3    1    3    3  502    0 -0.34726602354E+03  0.27683473367E+02 -0.26731661311E+03  0.43911074645E+03  0.10100000352E+00 0.  1.
       -3    1    3    3    0  502  0.34726602354E+03 -0.27683473367E+02 -0.19781496409E+03  0.40061307520E+03  0.10100000352E+00 0. -1.
</event>
<event>
 5   0  0.2439375E-02  0.7082829E+03  0.7818609E-02  0.9703171E-01
       -4   -1    0    0    0  501  0.00000000000E+00  0.00000000000E+00  0.11371292464E+03  0.11372001640E+03  0.12699999809E+01 0. -1.
        4   -1    0    0  501    0  0.00000000000E+00  0.00000000000E+00 -0.11028773297E+04  0.11028780610E+04  0.12699999809E+01 0.  1.
    10030    2    1    2    0    0  0.00000000000E+00  0.00000000000E+00 -0.98916440509E+03  0.12165980774E+04  0.70828289654E+03 0.  0.
        3    1    3    3  502    0  0.22593333238E+02 -0.34342292285E+03 -0.35121680534E+03  0.49173470205E+03  0.10100000352E+00 0.  1.
       -3    1    3    3    0  502 -0.22593333238E+02  0.34342292285E+03 -0.63794759975E+03  0.72486337531E+03  0.10100000352E+00 0. -1.
</event>
<event>
 5   0  0.5987810E-02  0.6959826E+03  0.7818609E-02  0.9724127E-01
       -2   -1    0    0    0  501  0.00000000000E+00  0.00000000000E+00  0.23660189114E+03  0.23660189115E+03  0.25500000920E-02 0.  1.
        2   -1    0    0  501    0  0.00000000000E+00  0.00000000000E+00 -0.51182147171E+03  0.51182147172E+03  0.25500000920E-02 0. -1.
    10030    2    1    2    0    0  0.00000000000E+00  0.00000000000E+00 -0.27521958057E+03  0.74842336287E+03  0.69598255191E+03 0.  0.
        5    1    3    3  502    0  0.31405830119E+03  0.53662232988E+02  0.12799000480E+02  0.31890148354E+03  0.46999998093E+01 0.  1.
       -5    1    3    3    0  502 -0.31405830119E+03 -0.53662232988E+02 -0.28801858105E+03  0.42952187933E+03  0.46999998093E+01 0. -1.
</event>
<event>
 5   0  0.6248886E-02  0.7014101E+03  0.7818609E-02  0.9714824E-01
        2   -1    0    0  501    0  0.00000000000E+00  0.00000000000E+00  0.56100420041E+03  0.56100420042E+03  0.25500000920E-02 0. -1.
       -2   -1    0    0    0  501  0.00000000000E+00  0.00000000000E+00 -0.21923905735E+03  0.21923905737E+03  0.25500000920E-02 0.  1.
    10030    2    1    2    0    0  0.00000000000E+00  0.00000000000E+00  0.34176514306E+03  0.78024325778E+03  0.70141009995E+03 0.  0.
        3    1    3    3  502    0 -0.47550395454E+02  0.86180362358E+02  0.54532437067E+03  0.55413606128E+03  0.10100000352E+00 0. -1.
       -3    1    3    3    0  502  0.47550395454E+02 -0.86180362358E+02 -0.20355922761E+03  0.22610719650E+03  0.10100000352E+00 0.  1.
</event>
<event>
 5   0  0.3439015E-02  0.6591601E+03  0.7818609E-02  0.9789741E-01
       -1   -1    0    0    0  501  0.00000000000E+00  0.00000000000E+00  0.16177276713E+03  0.16177276721E+03  0.50400001928E-02 0. -1.
        1   -1    0    0  501    0  0.00000000000E+00  0.00000000000E+00 -0.67145429247E+03  0.67145429248E+03  0.50400001928E-02 0.  1.
    10030    2    1    2    0    0  0.00000000000E+00  0.00000000000E+00 -0.50968152534E+03  0.83322705969E+03  0.65916012905E+03 0.  0.
        1    1    3    3  502    0  0.20837685357E+03 -0.10355251094E+03 -0.54988486128E+03  0.59709077728E+03  0.50400001928E-02 0.  1.
       -1    1    3    3    0  502 -0.20837685357E+03  0.10355251094E+03  0.40203335937E+02  0.23613628241E+03  0.50400001928E-02 0. -1.
</event>
<event>
 5   0  0.6167756E-02  0.6843778E+03  0.7818609E-02  0.9744328E-01
        2   -1    0    0  501    0  0.00000000000E+00  0.00000000000E+00  0.15756007978E+04  0.15756007978E+04  0.25500000920E-02 0. -1.
       -2   -1    0    0    0  501  0.00000000000E+00  0.00000000000E+00 -0.74316573999E+02  0.74316574042E+02  0.25500000920E-02 0.  1.
    10030    2    1    2    0    0  0.00000000000E+00  0.00000000000E+00  0.15012842238E+04  0.16499173718E+04  0.68437782932E+03 0.  0.
        4    1    3    3  502    0  0.26598193030E+03 -0.19414828722E+03  0.97488407262E+03  0.10289997632E+04  0.12699999809E+01 0. -1.
       -4    1    3    3    0  502 -0.26598193030E+03  0.19414828722E+03  0.52640015114E+03  0.62091760862E+03  0.12699999809E+01 0.  1.
</event>
<event>
 5   0  0.6131198E-02  0.7112823E+03  0.7818609E-02  0.9698130E-01
       -2   -1    0    0    0  501  0.00000000000E+00  0.00000000000E+00  0.61397359460E+03  0.61397359461E+03  0.25500000920E-02 0. -1.
        2   -1    0    0  501    0  0.00000000000E+00  0.00000000000E+00 -0.20600337230E+03  0.20600337231E+03  0.25500000920E-02 0.  1.
    10030    2    1    2    0    0  0.00000000000E+00  0.00000000000E+00  0.40797022231E+03  0.81997696692E+03  0.71128230963E+03 0.  0.
        1    1    3    3  502    0 -0.38063049110E+02 -0.25174308273E+03 -0.82269005309E+02  0.26756600058E+03  0.50400001928E-02 0.  1.
       -1    1    3    3    0  502  0.38063049110E+02  0.25174308273E+03  0.49023922762E+03  0.55241096633E+03  0.50400001928E-02 0. -1.
</event>
<event>
 5   0  0.6248886E-02  0.6957826E+03  0.7818609E-02  0.9724472E-01
       -2   -1    0    0    0  501  0.00000000000E+00  0.00000000000E+00  0.59918840902E+02  0.59918840956E+02  0.25500000920E-02 0. -1.
        2   -1    0    0  501    0  0.00000000000E+00  0.00000000000E+00 -0.20198714544E+04  0.20198714544E+04  0.25500000920E-02 0.  1.
    10030    2    1    2    0    0  0.00000000000E+00  0.00000000000E+00 -0.19599526135E+04  0.20797902953E+04  0.69578259931E+03 0.  0.
        3    1    3    3  502    0 -0.15366107870E+03  0.16894240050E+03 -0.17644476004E+04  0.17791651432E+04  0.10100000352E+00 0.  1.
       -3    1    3    3    0  502  0.15366107870E+03 -0.16894240050E+03 -0.19550501306E+03  0.30062515218E+03  0.10100000352E+00 0. -1.
</event>
<event>
 5   0  0.3601475E-02  0.6382113E+03  0.7818609E-02  0.9829155E-01
        1   -1    0    0  501    0  0.00000000000E+00  0.00000000000E+00  0.81905916580E+03  0.81905916582E+03  0.50400001928E-02 0. -1.
       -1   -1    0    0    0  501  0.00000000000E+00  0.00000000000E+00 -0.12432365710E+03  0.12432365720E+03  0.50400001928E-02 0.  1.
    10030    2    1    2    0    0  0.00000000000E+00  0.00000000000E+00  0.69473550870E+03  0.94338282302E+03  0.63821134721E+03 0.  0.
        5    1    3    3  502    0  0.31692549786E+03  0.33963130039E+02  0.32589229852E+03  0.45587623938E+03  0.46999998093E+01 0. -1.
       -5    1    3    3    0  502 -0.31692549786E+03 -0.33963130039E+02  0.36884321018E+03  0.48750658364E+03  0.46999998093E+01 0.  1.
</event>
<event>
 5   0  0.3755872E-02  0.6974856E+03  0.7818609E-02  0.9721542E-01
        1   -1    0    0  501    0  0.00000000000E+00  0.00000000000E+00  0.96667869837E+03  0.96667869839E+03  0.50400001928E-02 0. -1.
       -1   -1    0    0    0  501  0.00000000000E+00  0.00000000000E+00 -0.12581381460E+03  0.12581381470E+03  0.50400001928E-02 0.  1.
    10030    2    1    2    0    0  0.00000000000E+00  0.00000000000E+00  0.84086488378E+03  0.10924925131E+04  0.69748558292E+03 0.  0.
        2    1    3    3  502    0 -0.46432430531E+02 -0.19844673710E+03  0.86369122577E+03  0.88741174859E+03  0.25500000920E-02 0. -1.
       -2    1    3    3    0  502  0.46432430531E+02  0.19844673710E+03 -0.22826341989E+02  0.20508076449E+03  0.25500000920E-02 0.  1.
</event>
<event>
 5   0  0.3439015E-02  0.6892252E+03  0.7818609E-02  0.9735838E-01
        1   -1    0    0  501    0  0.00000000000E+00  0.00000000000E+00  0.25004437278E+03  0.25004437283E+03  0.50400001928E-02 0.  1.
       -1   -1    0    0    0  501  0.00000000000E+00  0.00000000000E+00 -0.47494702728E+03  0.47494702730E+03  0.50400001928E-02 0. -1.
    10030    2    1    2    0    0  0.00000000000E+00  0.00000000000E+00 -0.22490265450E+03  0.72499140013E+03  0.68922516369E+03 0.  0.
        1    1    3    3  502    0  0.34050206644E+03  0.36620833031E+01 -0.56762900185E+02  0.34522035712E+03  0.50400001928E-02 0. -1.
       -1    1    3    3    0  502 -0.34050206644E+03 -0.36620833031E+01 -0.16813975432E+03  0.37977104301E+03  0.50400001928E-02 0.  1.
</event>
<event>
 5   0  0.5899787E-02  0.6998402E+03  0.7818609E-02  0.9717505E-01
        2   -1    0    0  501    0  0.00000000000E+00  0.00000000000E+00  0.40785892757E+03  0.40785892758E+03  0.25500000920E-02 0.  1.
       -2   -1    0    0    0  501  0.00000000000E+00  0.00000000000E+00 -0.30021185947E+03  0.30021185948E+03  0.25500000920E-02 0. -1.
    10030    2    1    2    0    0  0.00000000000E+00  0.00000000000E+00  0.10764706810E+03  0.70807078707E+03  0.69984023050E+03 0.  0.
        2    1    3    3  502    0 -0.77919598867E+02  0.68643465802E+02 -0.28426305304E+03  0.30263653550E+03  0.25500000920E-02 0. -1.
       -2    1    3    3    0  502  0.77919598867E+02 -0.68643465802E+02  0.39191012114E+03  0.40543425157E+03  0.25500000920E-02 0.  1.
</event>
<event>
 5   0  0.6167756E-02  0.7001080E+03  0.7818609E-02  0.9717047E-01
        2   -1    0    0  501    0  0.00000000000E+00  0.00000000000E+00  0.15482823218E+04  0.15482823218E+04  0.25500000920E-02 0. -1.
       -2   -1    0    0    0  501  0.00000000000E+00  0.00000000000E+00 -0.79144358828E+02  0.79144358869E+02  0.25500000920E-02 0.  1.
    10030    2    1    2    0    0  0.00000000000E+00  0.00000000000E+00  0.14691379630E+04  0.16274266807E+04  0.70010802504E+03 0.  0.
        4    1    3    3  502    0 -0.11316933523E+03 -0.99232924028E+02  0.14692171456E+04  0.14769072772E+04  0.12699999809E+01 0. -1.
       -4    1    3    3    0  502  0.11316933523E+03  0.99232924028E+02 -0.79182637288E-01  0.15051940345E+03  0.12699999809E+01 0.  1.
</event>
<event>
 5   0  0.3755872E-02  0.7119278E+03  0.7818609E-02  0.9697049E-01
        1   -1    0    0  501    0  0.00000000000E+00  0.00000000000E+00  0.12693793736E+04  0.12693793736E+04  0.50400001928E-02 0. -1.
       -1   -1    0    0    0  501  0.00000000000E+00  0.00000000000E+00 -0.99820675515E+02  0.99820675642E+02  0.50400001928E-02 0.  1.
    10030    2    1    2    0    0  0.00000000000E+00  0.00000000000E+00  0.11695586980E+04  0.13692000492E+04  0.71192782400E+03 0.  0.
        2    1    3    3  502    0  0.16496843865E+03  0.24755045871E+03  0.20881645781E+03  0.36345581357E+03  0.25500000920E-02 0.  1.
       -2    1    3    3    0  502 -0.16496843865E+03 -0.24755045871E+03  0.96074224023E+03  0.10057442356E+04  0.25500000920E-02 0. -1.
</event>
<event>
 5   0  0.2439375E-02  0.7006540E+03  0.7818609E-02  0.9716114E-01
        3   -1    0    0  501    0  0.00000000000E+00  0.00000000000E+00  0.56794238718E+03  0.56794239616E+03  0.10100000352E+00 0. -1.
       -3   -1    0    0    0  501  0.00000000000E+00  0.00000000000E+00 -0.21609410300E+03  0.21609412660E+03  0.10100000352E+00 0.  1.
    10030    2    1    2    0    0  0.00000000000E+00  0.00000000000E+00  0.35184828417E+03  0.78403652276E+03  0.70065401872E+03 0.  0.
        1    1    3    3  502    0  0.18278291476E+02  0.28417250844E+03 -0.52421509558E+02  0.28954468598E+03  0.50400001928E-02 0.  1.
       -1    1    3    3    0  502 -0.18278291476E+02 -0.28417250844E+03  0.40426979373E+03  0.49449183678E+03  0.50400001928E-02 0. -1.
</event>
<event>
 5   0  0.3717372E-02  0.6669486E+03  0.7818609E-02  0.9775486E-01
       -1   -1    0    0    0  501  0.00000000000E+00  0.00000000000E+00  0.12694197500E+03  0.12694197510E+03  0.50400001928E-02 0.  1.
        1   -1    0    0  501    0  0.00000000000E+00  0.00000000000E+00 -0.87603114174E+03  0.87603114175E+03  0.50400001928E-02 0. -1.
    10030    2    1    2    0    0  0.00000000000E+00  0.00000000000E+00 -0.74908916674E+03  0.10029731168E+04  0.66694864374E+03 0.  0.
        3    1    3    3  502    0 -0.10250167947E+03  0.31514422334E+03 -0.31862665920E+03  0.45972321450E+03  0.10100000352E+00 0.  1.
       -3    1    3    3    0  502  0.10250167947E+03 -0.31514422334E+03 -0.43046250754E+03  0.54324990235E+03  0.10100000352E+00 0. -1.
</event>
<event>
 5   0  0.3755872E-02  0.7000245E+03  0.7818609E-02  0.9717190E-01
        1   -1    0    0  501    0  0.00000000000E+00  0.00000000000E+00  0.30320461829E+03  0.30320461833E+03  0.50400001928E-02 0. -1.
       -1   -1    0    0    0  501  0.00000000000E+00  0.00000000000E+00 -0.40404589659E+03  0.40404589662E+03  0.50400001928E-02 0.  1.
    10030    2    1    2    0    0  0.00000000000E+00  0.00000000000E+00 -0.10084127830E+03  0.70725051496E+03  0.70002451921E+03 0.  0.
        2    1    3    3  502    0 -0.38217180840E+02  0.13453978072E+03  0.27374503761E+03  0.30740502782E+03  0.25500000920E-02 0. -1.
       -2    1    3    3    0  502  0.38217180840E+02 -0.13453978072E+03 -0.37458631591E+03  0.39984548713E+03  0.25500000920E-02 0.  1.
</event>
<event>
 5   0  0.3601475E-02  0.7120562E+03  0.7818609E-02  0.9696834E-01
       -1   -1    0    0    0  501  0.00000000000E+00  0.00000000000E+00  0.10651039623E+03  0.10651039635E+03  0.50400001928E-02 0. -1.
        1   -1    0    0  501    0  0.00000000000E+00  0.00000000000E+00 -0.11900810791E+04  0.11900810791E+04  0.50400001928E-02 0.  1.
    10030    2    1    2    0    0  0.00000000000E+00  0.00000000000E+00 -0.10835706829E+04  0.12965914755E+04  0.71205619824E+03 0.  0.
        5    1    3    3  502    0  0.12315093358E+03  0.33400080110E+03 -0.54788737617E+03  0.65339525139E+03  0.46999998093E+01 0. -1.
       -5    1    3    3    0  502 -0.12315093358E+03 -0.33400080110E+03 -0.53568330671E+03  0.64319622407E+03  0.46999998093E+01 0.  1.
</event>
<event>
 5   0  0.5899787E-02  0.6977776E+03  0.7818609E-02  0.9721040E-01
        2   -1    0    0  501    0  0.00000000000E+00  0.00000000000E+00  0.99937306163E+03  0.99937306163E+03  0.25500000920E-02 0.  1.
       -2   -1    0    0    0  501  0.00000000000E+00  0.00000000000E+00 -0.12179976454E+03  0.12179976457E+03  0.25500000920E-02 0. -1.
    10030    2    1    2    0    0  0.00000000000E+00  0.00000000000E+00  0.87757329709E+03  0.11211728262E+04  0.69777762535E+03 0.  0.
        2    1    3    3  502    0 -0.59954506983E+02  0.72673712742E+02 -0.10097408512E+03  0.13810060573E+03  0.25500000920E-02 0. -1.
       -2    1    3    3    0  502  0.59954506983E+02 -0.72673712742E+02  0.97854738220E+03  0.98307222047E+03  0.25500000920E-02 0.  1.
</event>
<event>
 5   0  0.6248886E-02  0.7444378E+03  0.7818609E-02  0.9644117E-01
       -2   -1    0    0    0  501  0.00000000000E+00  0.00000000000E+00  0.15889456127E+03  0.15889456129E+03  0.25500000920E-02 0.  1.
        2   -1    0    0  501    0  0.00000000000E+00  0.00000000000E+00 -0.87194233109E+03  0.87194233110E+03  0.25500000920E-02 0. -1.
    10030    2    1    2    0    0  0.00000000000E+00  0.00000000000E+00 -0.71304776983E+03  0.10308368924E+04  0.74443775874E+03 0.  0.
        3    1    3    3  502    0 -0.19715285866E+03  0.15013576049E+03 -0.74110912819E+03  0.78144273389E+03  0.10100000352E+00 0. -1.
       -3    1    3    3    0  502  0.19715285866E+03 -0.15013576049E+03  0.28061358368E+02  0.24939415849E+03  0.10100000352E+00 0.  1.
</event>
<event>
 5   0  0.5899787E-02  0.6284185E+03  0.7818609E-02  0.9848140E-01
        2   -1    0    0  501    0  0.00000000000E+00  0.00000000000E+00  0.14641262748E+04  0.14641262748E+04  0.25500000920E-02 0. -1.
       -2   -1    0    0    0  501  0.00000000000E+00  0.00000000000E+00 -0.67430973184E+02  0.67430973232E+02  0.25500000920E-02 0.  1.
    10030    2    1    2    0    0  0.00000000000E+00  0.00000000000E+00  0.13966953016E+04  0.15315572480E+04  0.62841852173E+03 0.  0.
        2    1    3    3  502    0  0.64465424118E+01  0.57160557263E+02 -0.54488933238E+02  0.79233396164E+02  0.25500000920E-02 0.  1.
       -2    1    3    3    0  502 -0.64465424118E+01 -0.57160557263E+02  0.14511842349E+04  0.14523238519E+04  0.25500000920E-02 0. -1.
</event>
<event>
 5   0  0.3717372E-02  0.7071490E+03  0.7818609E-02  0.9705084E-01
        1   -1    0    0  501    0  0.00000000000E+00  0.00000000000E+00  0.30926338516E+03  0.30926338520E+03  0.50400001928E-02 0.  1.
       -1   -1    0    0    0  501  0.00000000000E+00  0.00000000000E+00 -0.40423445510E+03  0.40423445513E+03  0.50400001928E-02 0. -1.
    10030    2    1    2    0    0  0.00000000000E+00  0.00000000000E+00 -0.94971069935E+02  0.71349784033E+03  0.70714896877E+03 0.  0.
        3    1    3    3  502    0 -0.22219270830E+03 -0.27352009921E+03 -0.18381080235E+02  0.35287493338E+03  0.10100000352E+00 0.  1.
       -3    1    3    3    0  502  0.22219270830E+03  0.27352009921E+03 -0.76589989700E+02  0.36062290695E+03  0.10100000352E+00 0. -1.
</event>
<event>
 5   0  0.3717372E-02  0.7586484E+03  0.7818609E-02  0.9621879E-01
       -1   -1    0    0    0  501  0.00000000000E+00  0.00000000000E+00  0.83054747719E+02  0.83054747872E+02  0.50400001928E-02 0.  1.
        1   -1    0    0  501    0  0.00000000000E+00  0.00000000000E+00 -0.17324336223E+04  0.17324336223E+04  0.50400001928E-02 0. -1.
    10030    2    1    2    0    0  0.00000000000E+00  0.00000000000E+00 -0.16493788746E+04  0.18154883702E+04  0.75864837069E+03 0.  0.
        3    1    3    3  502    0 -0.50359103126E+02  0.18211142305E+03 -0.16118057456E+04  0.16228426853E+04  0.10100000352E+00 0. -1.
       -3    1    3    3    0  502  0.50359103126E+02 -0.18211142305E+03 -0.37573129032E+02  0.19264568487E+03  0.10100000352E+00 0.  1.
</event>
<event>
 5   0  0.5987810E-02  0.6970414E+03  0.7818609E-02  0.9722305E-01
        2   -1    0    0  501    0  0.00000000000E+00  0.00000000000E+00  0.10623120954E+03  0.10623120957E+03  0.25500000920E-02 0.  1.
       -2   -1    0    0    0  501  0.00000000000E+00  0.00000000000E+00 -0.11434181327E+04  0.11434181327E+04  0.25500000920E-02 0. -1.
    10030    2    1    2    0    0  0.00000000000E+00  0.00000000000E+00 -0.10371869231E+04  0.12496493422E+04  0.69704143711E+03 0.  0.
        5    1    3    3  502    0 -0.26362563927E+03  0.62493727511E+02 -0.91154051845E+03  0.95096380080E+03  0.46999998093E+01 0. -1.
       -5    1    3    3    0  502  0.26362563927E+03 -0.62493727511E+02 -0.12564640469E+03  0.29868554144E+03  0.46999998093E+01 0.  1.
</event>
<event>
 5   0  0.3717372E-02  0.7902117E+03  0.7818609E-02  0.9574294E-01
        1   -1    0    0  501    0  0.00000000000E+00  0.00000000000E+00  0.76015977584E+03  0.76015977585E+03  0.50400001928E-02 0. -1.
       -1   -1    0    0    0  501  0.00000000000E+00  0.00000000000E+00 -0.20536292419E+03  0.20536292425E+03  0.50400001928E-02 0.  1.
    10030    2    1    2    0    0  0.00000000000E+00  0.00000000000E+00  0.55479685165E+03  0.96552270010E+03  0.79021170443E+03 0.  0.
        3    1    3    3  502    0 -0.62111602757E+02 -0.11202602409E+03 -0.17928862711E+03  0.22034541811E+03  0.10100000352E+00 0.  1.
       -3    1    3    3    0  502  0.62111602757E+02  0.11202602409E+03  0.73408547876E+03  0.74517728199E+03  0.10100000352E+00 0. -1.
</event>
<event>
 5   0  0.3755872E-02  0.7096595E+03  0.7818609E-02  0.9700854E-01
       -1   -1    0    0    0  501  0.00000000000E+00  0.00000000000E+00  0.11594168356E+03  0.11594168367E+03  0.50400001928E-02 0. -1.
        1   -1    0    0  501    0  0.00000000000E+00  0.00000000000E+00 -0.10859266682E+04  0.10859266682E+04  0.50400001928E-02 0.  1.
    10030    2    1    2    0    0  0.00000000000E+00  0.00000000000E+00 -0.96998498459E+03  0.12018683518E+04  0.70965954148E+03 0.  0.
        2    1    3    3  502    0 -0.18352364982E+03 -0.21363570291E+03 -0.11946446265E+03  0.30592956941E+03  0.25500000920E-02 0. -1.
       -2    1    3    3    0  502  0.18352364982E+03  0.21363570291E+03 -0.85052052194E+03  0.89593878242E+03  0.25500000920E-02 0.  1.
</event>
<event>
 5   0  0.5987810E-02  0.7319826E+03  0.7818609E-02  0.9664049E-01
        2   -1    0    0  501    0  0.00000000000E+00  0.00000000000E+00  0.68886718877E+03  0.68886718877E+03  0.25500000920E-02 0.  1.
       -2   -1    0    0    0  501  0.00000000000E+00  0.00000000000E+00 -0.19444915964E+03  0.19444915965E+03  0.25500000920E-02 0. -1.
    10030    2    1    2    0    0  0.00000000000E+00  0.00000000000E+00  0.49441802913E+03  0.88331634843E+03  0.73198263905E+03 0.  0.
        5    1    3    3  502    0  0.12323082872E+03  0.25211665538E+03 -0.36257686750E+02  0.28299355984E+03  0.46999998093E+01 0. -1.
       -5    1    3    3    0  502 -0.12323082872E+03 -0.25211665538E+03  0.53067571588E+03  0.60032278858E+03  0.46999998093E+01 0.  1.
</event>
<event>
 5   0  0.3439015E-02  0.6879080E+03  0.7818609E-02  0.9738138E-01
        1   -1    0    0  501    0  0.00000000000E+00  0.00000000000E+00  0.65500922291E+03  0.65500922293E+03  0.50400001928E-02 0. -1.
       -1   -1    0    0    0  501  0.00000000000E+00  0.00000000000E+00 -0.18061477466E+03  0.18061477474E+03  0.50400001928E-02 0.  1.
    10030    2    1    2    0    0  0.00000000000E+00  0.00000000000E+00  0.47439444824E+03  0.83562399766E+03  0.68790796837E+03 0.  0.
        1    1    3    3  502    0  0.51250151810E+01  0.28095572169E+03 -0.37425834355E+01  0.28102738352E+03  0.50400001928E-02 0.  1.
       -1    1    3    3    0  502 -0.51250151810E+01 -0.28095572169E+03  0.47813703168E+03  0.55459661414E+03  0.50400001928E-02 0. -1.
</event>
<event>
 5   0  0.6248886E-02  0.7008798E+03  0.7818609E-02  0.9715729E-01
       -2   -1    0    0    0  501  0.00000000000E+00  0.00000000000E+00  0.85429667228E+03  0.85429667229E+03  0.25500000920E-02 0.  1.
        2   -1    0    0  501    0  0.00000000000E+00  0.00000000000E+00 -0.14375350310E+03  0.14375350312E+03  0.25500000920E-02 0. -1.
    10030    2    1    2    0    0  0.00000000000E+00  0.00000000000E+00  0.71054316918E+03  0.99805017541E+03  0.70087984517E+03 0.  0.
        3    1    3    3  502    0 -0.93667468067E+02 -0.33611847995E+03  0.40160952092E+03  0.53201451543E+03  0.10100000352E+00 0.  1.
       -3    1    3    3    0  502  0.93667468067E+02  0.33611847995E+03  0.30893364826E+03  0.46603565997E+03  0.10100000352E+00 0. -1.
</event>
<event>
 5   0  0.6131198E-02  0.6956800E+03  0.7818609E-02  0.9724649E-01
        2   -1    0    0  501    0  0.00000000000E+00  0.00000000000E+00  0.62024433578E+03  0.62024433578E+03  0.25500000920E-02 0.  1.
       -2   -1    0    0    0  501  0.00000000000E+00  0.00000000000E+00 -0.19507259703E+03  0.19507259704E+03  0.25500000920E-02 0. -1.
    10030    2    1    2    0    0  0.00000000000E+00  0.00000000000E+00  0.42517173875E+03  0.81531693282E+03  0.69568002237E+03 0.  0.
        1    1    3    3  502    0 -0.24204454946E+03 -0.21096117895E+03  0.55775905466E+02  0.32588515554E+03  0.50400001928E-02 0.  1.
       -1    1    3    3    0  502  0.24204454946E+03  0.21096117895E+03  0.36939583328E+03  0.48943177729E+03  0.50400001928E-02 0. -1.
</event>
<event>
 5   0  0.6248886E-02  0.6950541E+03  0.7818609E-02  0.9725728E-01
        2   -1    0    0  501    0  0.00000000000E+00  0.00000000000E+00  0.76963783900E+03  0.76963783900E+03  0.25500000920E-02 0.  1.
       -2   -1    0    0    0  501  0.00000000000E+00  0.00000000000E+00 -0.15692452910E+03  0.15692452912E+03  0.25500000920E-02 0. -1.
    10030    2    1    2    0    0  0.00000000000E+00  0.00000000000E+00  0.61271330990E+03  0.92656236812E+03  0.69505411436E+03 0.  0.
        3    1    3    3  502    0 -0.26387907134E+03  0.17154497016E+03  0.10991300363E+03  0.33337774318E+03  0.10100000352E+00 0.  1.
       -3    1    3    3    0  502  0.26387907134E+03 -0.17154497016E+03  0.50280030627E+03  0.59318462494E+03  0.10100000352E+00 0. -1.
</event>
<event>
 5   0  0.2439375E-02  0.6848021E+03  0.7818609E-02  0.9743582E-01
       -4   -1    0    0    0  501  0.00000000000E+00  0.00000000000E+00  0.10987592614E+04  0.10987599954E+04  0.12699999809E+01 0.  1.
        4   -1    0    0  501    0  0.00000000000E+00  0.00000000000E+00 -0.10669623109E+03  0.10670378919E+03  0.12699999809E+01 0. -1.
    10030    2    1    2    0    0  0.00000000000E+00  0.00000000000E+00  0.99206303035E+03  0.12054637846E+04  0.68480207344E+03 0.  0.
        1    1    3    3  502    0 -0.28584371234E+03 -0.77526158719E+02  0.79848499211E+03  0.85164265735E+03  0.50400001928E-02 0.  1.
       -1    1    3    3    0  502  0.28584371234E+03  0.77526158719E+02  0.19357803825E+03  0.35382112725E+03  0.50400001928E-02 0. -1.
</event>
<event>
 5   0  0.6167756E-02  0.7012915E+03  0.7818609E-02  0.9715026E-01
       -2   -1    0    0    0  501  0.00000000000E+00  0.00000000000E+00  0.32532106883E+03  0.32532106884E+03  0.25500000920E-02 0. -1.
        2   -1    0    0  501    0  0.00000000000E+00  0.00000000000E+00 -0.37794185338E+03  0.37794185339E+03  0.25500000920E-02 0.  1.
    10030    2    1    2    0    0  0.00000000000E+00  0.00000000000E+00 -0.52620784549E+02  0.70326292224E+03  0.70129151629E+03 0.  0.
        4    1    3    3  502    0 -0.22630297342E+02 -0.24467352189E+03 -0.27716068370E+03  0.37040102613E+03  0.12699999809E+01 0.  1.
       -4    1    3    3    0  502  0.22630297342E+02  0.24467352189E+03  0.22453989915E+03  0.33286189611E+03  0.12699999809E+01 0. -1.
</event>
<event>
 5   0  0.3717372E-02  0.6665709E+03  0.7818609E-02  0.9776172E-01
       -1   -1    0    0    0  501  0.00000000000E+00  0.00000000000E+00  0.16973440332E+03  0.16973440339E+03  0.50400001928E-02 0. -1.
        1   -1    0    0  501    0  0.00000000000E+00  0.00000000000E+00 -0.65442945372E+03  0.65442945374E+03  0.50400001928E-02 0.  1.
    10030    2    1    2    0    0  0.00000000000E+00  0.00000000000E+00 -0.48469505040E+03  0.82416385714E+03  0.66657090510E+03 0.  0.
        3    1    3    3  502    0 -0.91413191335E+01  0.33302997185E+03 -0.23083770431E+03  0.40531294305E+03  0.10100000352E+00 0.  1.
       -3    1    3    3    0  502  0.91413191335E+01 -0.33302997185E+03 -0.25385734609E+03  0.41885091409E+03  0.10100000352E+00 0. -1.
</event>
<event>
 5   0  0.2439375E-02  0.7025912E+03  0.7818609E-02  0.9712811E-01
       -4   -1    0    0    0  501  0.00000000000E+00  0.00000000000E+00  0.12367566827E+04  0.12367573348E+04  0.12699999809E+01 0.  1.
        4   -1    0    0  501    0  0.00000000000E+00  0.00000000000E+00 -0.99779334888E+02  0.99787416896E+02  0.12699999809E+01 0. -1.
    10030    2    1    2    0    0  0.00000000000E+00  0.00000000000E+00  0.11369773478E+04  0.13365447517E+04  0.70259119249E+03 0.  0.
        2    1    3    3  502    0  0.13010016527E+03 -0.14381967420E+03  0.11257007372E+04  0.11422838095E+04  0.25500000920E-02 0.  1.
       -2    1    3    3    0  502 -0.13010016527E+03  0.14381967420E+03  0.11276610584E+02  0.19426094214E+03  0.25500000920E-02 0. -1.
</event>
<event>
 5   0  0.2439375E-02  0.7728517E+03  0.7818609E-02  0.9600166E-01
       -3   -1    0    0    0  501  0.00000000000E+00  0.00000000000E+00  0.63521200574E+03  0.63521201377E+03  0.10100000352E+00 0.  1.
        3   -1    0    0  501    0  0.00000000000E+00  0.00000000000E+00 -0.23507886029E+03  0.23507888199E+03  0.10100000352E+00 0. -1.
    10030    2    1    2    0    0  0.00000000000E+00  0.00000000000E+00  0.40013314545E+03  0.87029089576E+03  0.77285167345E+03 0.  0.
        4    1    3    3  502    0  0.13144813761E+03  0.35497057195E+03  0.28758673864E+03  0.47538454431E+03  0.12699999809E+01 0. -1.
       -4    1    3    3    0  502 -0.13144813761E+03 -0.35497057195E+03  0.11254640681E+03  0.39490635145E+03  0.12699999809E+01 0.  1.
</event>
<event>
 5   0  0.2439375E-02  0.7024272E+03  0.7818609E-02  0.9713090E-01
        3   -1    0    0  501    0  0.00000000000E+00  0.00000000000E+00  0.67684264912E+03  0.67684265665E+03  0.10100000352E+00 0. -1.
       -3   -1    0    0    0  501  0.00000000000E+00  0.00000000000E+00 -0.18224469527E+03  0.18224472326E+03  0.10100000352E+00 0.  1.
    10030    2    1    2    0    0  0.00000000000E+00  0.00000000000E+00  0.49459795385E+03  0.85908737991E+03  0.70242721358E+03 0.  0.
        4    1    3    3  502    0  0.21505379468E+03  0.41003311627E+02  0.58317516272E+03  0.62291595700E+03  0.12699999809E+01 0. -1.
       -4    1    3    3    0  502 -0.21505379468E+03 -0.41003311627E+02 -0.88577208868E+02  0.23617142292E+03  0.12699999809E+01 0.  1.
</event>
<event>
 5   0  0.3601475E-02  0.6835113E+03  0.7818609E-02  0.9745853E-01
        1   -1    0    0  501    0  0.00000000000E+00  0.00000000000E+00  0.82114145927E+03  0.82114145928E+03  0.50400001928E-02 0. -1.
       -1   -1    0    0    0  501  0.00000000000E+00  0.00000000000E+00 -0.14223726384E+03  0.14223726393E+03  0.50400001928E-02 0.  1.
    10030    2    1    2    0    0  0.00000000000E+00  0.00000000000E+00  0.67890419543E+03  0.96337872321E+03  0.68351127114E+03 0.  0.
        5    1    3    3  502    0 -0.70608498016E+02 -0.20951229680E+03  0.70670617528E+03  0.74049758317E+03  0.46999998093E+01 0. -1.
       -5    1    3    3    0  502  0.70608498016E+02  0.20951229680E+03 -0.27801979856E+02  0.22288114004E+03  0.46999998093E+01 0.  1.
</event>
<event>
 5   0  0.2439375E-02  0.6994409E+03  0.7818609E-02  0.9718189E-01
       -4   -1    0    0    0  501  0.00000000000E+00  0.00000000000E+00  0.44441015629E+03  0.44441197094E+03  0.12699999809E+01 0.  1.
        4   -1    0    0  501    0  0.00000000000E+00  0.00000000000E+00 -0.27520229523E+03  0.27520522561E+03  0.12699999809E+01 0. -1.
    10030    2    1    2    0    0  0.00000000000E+00  0.00000000000E+00  0.16920786106E+03  0.71961719654E+03  0.69944092625E+03 0.  0.
        3    1    3    3  502    0  0.14405229414E+02 -0.12183569633E+03 -0.25233803484E+03  0.28058143481E+03  0.10100000352E+00 0. -1.
       -3    1    3    3    0  502 -0.14405229414E+02  0.12183569633E+03  0.42154589589E+03  0.43903576173E+03  0.10100000352E+00 0.  1.
</event>
<event>
 5   0  0.3717372E-02  0.7030818E+03  0.7818609E-02  0.9711976E-01
        1   -1    0    0  501    0  0.00000000000E+00  0.00000000000E+00  0.27679407820E+03  0.27679407825E+03  0.50400001928E-02 0.  1.
       -1   -1    0    0    0  501  0.00000000000E+00  0.00000000000E+00 -0.44647265642E+03  0.44647265644E+03  0.50400001928E-02 0. -1.
    10030    2    1    2    0    0  0.00000000000E+00  0.00000000000E+00 -0.16967857821E+03  0.72326673469E+03  0.70308175172E+03 0.  0.
        3    1    3    3  502    0 -0.62278689425E+02  0.17568984106E+03 -0.39144888959E+03  0.43356406536E+03  0.10100000352E+00 0. -1.
       -3    1    3    3    0  502  0.62278689425E+02 -0.17568984106E+03  0.22177031138E+03  0.28970266933E+03  0.10100000352E+00 0.  1.
</event>
<event>
 5   0  0.3717372E-02  0.6901429E+03  0.7818609E-02  0.9734239E-01
       -1   -1    0    0    0  501  0.00000000000E+00  0.00000000000E+00  0.12937370177E+03  0.12937370187E+03  0.50400001928E-02 0. -1.
        1   -1    0    0  501    0  0.00000000000E+00  0.00000000000E+00 -0.92039032210E+03  0.92039032211E+03  0.50400001928E-02 0.  1.
    10030    2    1    2    0    0  0.00000000000E+00  0.00000000000E+00 -0.79101662033E+03  0.10497640240E+04  0.69014289274E+03 0.  0.
        3    1    3    3  502    0  0.12844705688E+03  0.20315429402E+03 -0.18893843552E+02  0.24109604129E+03  0.10100000352E+00 0. -1.
       -3    1    3    3    0  502 -0.12844705688E+03 -0.20315429402E+03 -0.77212277678E+03  0.80866798269E+03  0.10100000352E+00 0.  1.
</event>
<event>
 5   0  0.5987810E-02  0.6784063E+03  0.7818609E-02  0.9754890E-01
        2   -1    0    0  501    0  0.00000000000E+00  0.00000000000E+00  0.16282609601E+04  0.16282609601E+04  0.25500000920E-02 0. -1.
       -2   -1    0    0    0  501  0.00000000000E+00  0.00000000000E+00 -0.70663599936E+02  0.70663599982E+02  0.25500000920E-02 0.  1.
    10030    2    1    2    0    0  0.00000000000E+00  0.00000000000E+00  0.15575973602E+04  0.16989245601E+04  0.67840631223E+03 0.  0.
        5    1    3    3  502    0  0.21473957859E+03  0.16680465593E+02  0.12266878058E+03  0.24791338058E+03  0.46999998093E+01 0.  1.
       -5    1    3    3    0  502 -0.21473957859E+03 -0.16680465593E+02  0.14349285796E+04  0.14510111795E+04  0.46999998093E+01 0. -1.
</event>
<event>
 5   0  0.3439015E-02  0.7041681E+03  0.7818609E-02  0.9710131E-01
        1   -1    0    0  501    0  0.00000000000E+00  0.00000000000E+00  0.11435972398E+04  0.11435972398E+04  0.50400001928E-02 0.  1.
       -1   -1    0    0    0  501  0.00000000000E+00  0.00000000000E+00 -0.10839759780E+03  0.10839759791E+03  0.50400001928E-02 0. -1.
    10030    2    1    2    0    0  0.00000000000E+00  0.00000000000E+00  0.10351996420E+04  0.12519948377E+04  0.70416814390E+03 0.  0.
        1    1    3    3  502    0 -0.32955559923E+03  0.23583275752E+02  0.73390101987E+03  0.80484394193E+03  0.50400001928E-02 0. -1.
       -1    1    3    3    0  502  0.32955559923E+03 -0.23583275752E+02  0.30129862214E+03  0.44715089580E+03  0.50400001928E-02 0.  1.
</event>
<event>
 5   0  0.3601475E-02  0.7007060E+03  0.7818609E-02  0.9716026E-01
        1   -1    0    0  501    0  0.00000000000E+00  0.00000000000E+00  0.88546576760E+03  0.88546576761E+03  0.50400001928E-02 0. -1.
       -1   -1    0    0    0  501  0.00000000000E+00  0.00000000000E+00 -0.13862447612E+03  0.13862447621E+03  0.50400001928E-02 0.  1.
    10030    2    1    2    0    0  0.00000000000E+00  0.00000000000E+00  0.74684129148E+03  0.10240902438E+04  0.70070601027E+03 0.  0.
        5    1    3    3  502    0 -0.13913031236E+03 -0.29928524676E+03  0.54508601225E+03  0.63723602652E+03  0.46999998093E+01 0. -1.
       -5    1    3    3    0  502  0.13913031236E+03  0.29928524676E+03  0.20175527923E+03  0.38685421730E+03  0.46999998093E+01 0.  1.
</event>
<event>
 5   0  0.3749730E-02  0.6908606E+03  0.7818609E-02  0.9732991E-01
        1   -1    0    0  501    0  0.00000000000E+00  0.00000000000E+00  0.14054834675E+03  0.14054834684E+03  0.50400001928E-02 0.  1.
       -1   -1    0    0    0  501  0.00000000000E+00  0.00000000000E+00 -0.84897543291E+03  0.84897543292E+03  0.50400001928E-02 0. -1.
    10030    2    1    2    0    0  0.00000000000E+00  0.00000000000E+00 -0.70842708616E+03  0.98952377976E+03  0.69086060411E+03 0.  0.
        4    1    3    3  502    0 -0.30845384169E+03 -0.11691860718E+03 -0.20739870330E+03  0.38965313830E+03  0.12699999809E+01 0.  1.
       -4    1    3    3    0  502  0.30845384169E+03  0.11691860718E+03 -0.50102838286E+03  0.59987064146E+03  0.12699999809E+01 0. -1.
</event>
<event>
 5   0  0.3755872E-02  0.6938571E+03  0.7818609E-02  0.9727795E-01
        1   -1    0    0  501    0  0.00000000000E+00  0.00000000000E+00  0.23748936996E+03  0.23748937001E+03  0.50400001928E-02 0. -1.
       -1   -1    0    0    0  501  0.00000000000E+00  0.00000000000E+00 -0.50679918447E+03  0.50679918450E+03  0.50400001928E-02 0.  1.
    10030    2    1    2    0    0  0.00000000000E+00  0.00000000000E+00 -0.26930981452E+03  0.74428855451E+03  0.69385710069E+03 0.  0.
        2    1    3    3  502    0  0.29679376069E+03  0.16775357166E+03 -0.65705333410E+02  0.34719589288E+03  0.25500000920E-02 0. -1.
       -2    1    3    3    0  502 -0.29679376069E+03 -0.16775357166E+03 -0.20360448111E+03  0.39709266163E+03  0.25500000920E-02 0.  1.
</event>
<event>
 5   0  0.5899787E-02  0.6740628E+03  0.7818609E-02  0.9762646E-01
        2   -1    0    0  501    0  0.00000000000E+00  0.00000000000E+00  0.12722662835E+03  0.12722662838E+03  0.25500000920E-02 0.  1.
       -2   -1    0    0    0  501  0.00000000000E+00  0.00000000000E+00 -0.89281756476E+03  0.89281756476E+03  0.25500000920E-02 0. -1.
    10030    2    1    2    0    0  0.00000000000E+00  0.00000000000E+00 -0.76559093641E+03  0.10200441931E+04  0.67406281165E+03 0.  0.
        2    1    3    3  502    0 -0.41778380024E+00 -0.33536668001E+03 -0.43342097082E+03  0.54801890712E+03  0.25500000920E-02 0. -1.
       -2    1    3    3    0  502  0.41778380024E+00  0.33536668001E+03 -0.33216996558E+03  0.47202528602E+03  0.25500000920E-02 0.  1.
</event>
<event>
 5   0  0.6248886E-02  0.6940909E+03  0.7818609E-02  0.9727391E-01
        2   -1    0    0  501    0  0.00000000000E+00  0.00000000000E+00  0.89340123026E+03  0.89340123027E+03  0.25500000920E-02 0. -1.
       -2   -1    0    0    0  501  0.00000000000E+00  0.00000000000E+00 -0.13481127627E+03  0.13481127629E+03  0.25500000920E-02 0.  1.
    10030    2    1    2    0    0  0.00000000000E+00  0.00000000000E+00  0.75858995400E+03  0.10282125066E+04  0.69409094530E+03 0.  0.
        3    1    3    3  502    0 -0.13666349624E+03 -0.30707488097E+03  0.50731789919E+03  0.60855842346E+03  0.10100000352E+00 0. -1.
       -3    1    3    3    0  502  0.13666349624E+03  0.30707488097E+03  0.25127205481E+03  0.41965408310E+03  0.10100000352E+00 0.  1.
</event>
<event>
 5   0  0.6167756E-02  0.7094847E+03  0.7818609E-02  0.9701148E-01
       -2   -1    0    0    0  501  0.00000000000E+00  0.00000000000E+00  0.75965555785E+03  0.75965555786E+03  0.25500000920E-02 0. -1.
        2   -1    0    0  501    0  0.00000000000E+00  0.00000000000E+00 -0.16565684110E+03  0.16565684112E+03  0.25500000920E-02 0.  1.
    10030    2    1    2    0    0  0.00000000000E+00  0.00000000000E+00  0.59399871676E+03  0.92531239897E+03  0.70948471455E+03 0.  0.
        4    1    3    3  502    0  0.27806054912E+03  0.63726110680E+02  0.57200338888E+03  0.63919337915E+03  0.12699999809E+01 0. -1.
       -4    1    3    3    0  502 -0.27806054912E+03 -0.63726110680E+02  0.21995327880E+02  0.28611901983E+03  0.12699999809E+01 0.  1.
</event>
<event>
 5   0  0.3717372E-02  0.6980118E+03  0.7818609E-02  0.9720638E-01
       -1   -1    0    0    0  501  0.00000000000E+00  0.00000000000E+00  0.10476928730E+03  0.10476928742E+03  0.50400001928E-02 0. -1.
        1   -1    0    0  501    0  0.00000000000E+00  0.00000000000E+00 -0.11626032983E+04  0.11626032983E+04  0.50400001928E-02 0.  1.
    10030    2    1    2    0    0  0.00000000000E+00  0.00000000000E+00 -0.10578340110E+04  0.12673725858E+04  0.69801180238E+03 0.  0.
        3    1    3    3  502    0  0.13470989756E+03  0.86143462110E+02  0.34349675052E+02  0.16354621042E+03  0.10100000352E+00 0. -1.
       -3    1    3    3    0  502 -0.13470989756E+03 -0.86143462110E+02 -0.10921836861E+04  0.11038263753E+04  0.10100000352E+00 0.  1.
</event>
<event>
 5   0  0.6131198E-02  0.7112215E+03  0.7818609E-02  0.9698232E-01
       -2   -1    0    0    0  501  0.00000000000E+00  0.00000000000E+00  0.13659349405E+03  0.13659349407E+03  0.25500000920E-02 0.  1.
        2   -1    0    0  501    0  0.00000000000E+00  0.00000000000E+00 -0.92580543829E+03  0.92580543830E+03  0.25500000920E-02 0. -1.
    10030    2    1    2    0    0  0.00000000000E+00  0.00000000000E+00 -0.78921194424E+03  0.10623989324E+04  0.71122148348E+03 0.  0.
        1    1    3    3  502    0  0.34721912693E+03  0.60615024448E+02 -0.46504615870E+03  0.58352654871E+03  0.50400001928E-02 0. -1.
       -1    1    3    3    0  502 -0.34721912693E+03 -0.60615024448E+02 -0.32416578554E+03  0.47887238366E+03  0.50400001928E-02 0.  1.
</event>
<event>
 5   0  0.5987810E-02  0.4554056E+03  0.7818609E-02  0.1026122E+00
       -2   -1    0    0    0  501  0.00000000000E+00  0.00000000000E+00  0.63088575292E+02  0.63088575344E+02  0.25500000920E-02 0.  1.
        2   -1    0    0  501    0  0.00000000000E+00  0.00000000000E+00 -0.82183745801E+03  0.82183745802E+03  0.25500000920E-02 0. -1.
    10030    2    1    2    0    0  0.00000000000E+00  0.00000000000E+00 -0.75874888272E+03  0.88492603336E+03  0.45540555276E+03 0.  0.
        5    1    3    3  502    0  0.30259129708E+02 -0.10121001838E+03  0.12486299811E+02  0.10647572697E+03  0.46999998093E+01 0.  1.
       -5    1    3    3    0  502 -0.30259129708E+02  0.10121001838E+03 -0.77123518253E+03  0.77845030639E+03  0.46999998093E+01 0. -1.
</event>
<event>
 5   0  0.3749730E-02  0.6887683E+03  0.7818609E-02  0.9736635E-01
       -1   -1    0    0    0  501  0.00000000000E+00  0.00000000000E+00  0.69495638057E+03  0.69495638059E+03  0.50400001928E-02 0. -1.
        1   -1    0    0  501    0  0.00000000000E+00  0.00000000000E+00 -0.17065882694E+03  0.17065882701E+03  0.50400001928E-02 0.  1.
    10030    2    1    2    0    0  0.00000000000E+00  0.00000000000E+00  0.52429755364E+03  0.86561520761E+03  0.68876829405E+03 0.  0.
        4    1    3    3  502    0 -0.21807343978E+03 -0.26008741150E+03  0.18889647012E+03  0.38843915364E+03  0.12699999809E+01 0.  1.
       -4    1    3    3    0  502  0.21807343978E+03  0.26008741150E+03  0.33540108351E+03  0.47717605397E+03  0.12699999809E+01 0. -1.
</event>
<event>
 5   0  0.3755872E-02  0.7157179E+03  0.7818609E-02  0.9690724E-01
       -1   -1    0    0    0  501  0.00000000000E+00  0.00000000000E+00  0.34656867237E+03  0.34656867240E+03  0.50400001928E-02 0.  1.
        1   -1    0    0  501    0  0.00000000000E+00  0.00000000000E+00 -0.36951708336E+03  0.36951708339E+03  0.50400001928E-02 0. -1.
    10030    2    1    2    0    0  0.00000000000E+00  0.00000000000E+00 -0.22948410989E+02  0.71608575579E+03  0.71571794730E+03 0.  0.
        2    1    3    3  502    0 -0.10008646922E+03  0.31438246073E+03  0.12719504359E+03  0.35359894238E+03  0.25500000920E-02 0.  1.
       -2    1    3    3    0  502  0.10008646922E+03 -0.31438246073E+03 -0.15014345458E+03  0.36248681341E+03  0.25500000920E-02 0. -1.
</event>
<event>
 5   0  0.3755872E-02  0.7311521E+03  0.7818609E-02  0.9665393E-01
        1   -1    0    0  501    0  0.00000000000E+00  0.00000000000E+00  0.12783653339E+04  0.12783653339E+04  0.50400001928E-02 0. -1.
       -1   -1    0    0    0  501  0.00000000000E+00  0.00000000000E+00 -0.10454432720E+03  0.10454432732E+03  0.50400001928E-02 0.  1.
    10030    2    1    2    0    0  0.00000000000E+00  0.00000000000E+00  0.11738210067E+04  0.13829096612E+04  0.73115208771E+03 0.  0.
        2    1    3    3  502    0  0.33662097322E+03  0.14243164569E+03  0.57416759032E+03  0.68063857890E+03  0.25500000920E-02 0. -1.
       -2    1    3    3    0  502 -0.33662097322E+03 -0.14243164569E+03  0.59965341637E+03  0.70227108233E+03  0.25500000920E-02 0.  1.
</event>
<event>
 5   0  0.3717372E-02  0.7034622E+03  0.7818609E-02  0.9711330E-01
        1   -1    0    0  501    0  0.00000000000E+00  0.00000000000E+00  0.20940210434E+03  0.20940210440E+03  0.50400001928E-02 0. -1.
       -1   -1    0    0    0  501  0.00000000000E+00  0.00000000000E+00 -0.59080007794E+03  0.59080007796E+03  0.50400001928E-02 0.  1.
    10030    2    1    2    0    0  0.00000000000E+00  0.00000000000E+00 -0.38139797361E+03  0.80020218236E+03  0.70346223664E+03 0.  0.
        3    1    3    3  502    0  0.36239982669E+01 -0.21495597963E+03 -0.50736201562E+03  0.55103124380E+03  0.10100000352E+00 0.  1.
       -3    1    3    3    0  502 -0.36239982669E+01  0.21495597963E+03  0.12596404202E+03  0.24917093856E+03  0.10100000352E+00 0. -1.
</event>
<event>
 5   0  0.3755872E-02  0.6932063E+03  0.7818609E-02  0.9728921E-01
        1   -1    0    0  501    0  0.00000000000E+00  0.00000000000E+00  0.10041714553E+04  0.10041714553E+04  0.50400001928E-02 0. -1.
       -1   -1    0    0    0  501  0.00000000000E+00  0.00000000000E+00 -0.11963468116E+03  0.11963468127E+03  0.50400001928E-02 0.  1.
    10030    2    1    2    0    0  0.00000000000E+00  0.00000000000E+00  0.88453677418E+03  0.11238061366E+04  0.69320626643E+03 0.  0.
        2    1    3    3  502    0 -0.11056468963E+03 -0.30867803245E+03  0.62443967634E+03  0.70528830113E+03  0.25500000920E-02 0. -1.
       -2    1    3    3    0  502  0.11056468963E+03  0.30867803245E+03  0.26009709784E+03  0.41851783549E+03  0.25500000920E-02 0.  1.
</event>
<event>
 5   0  0.5899787E-02  0.6948054E+03  0.7818609E-02  0.9726157E-01
        2   -1    0    0  501    0  0.00000000000E+00  0.00000000000E+00  0.18447679270E+04  0.18447679270E+04  0.25500000920E-02 0.  1.
       -2   -1    0    0    0  501  0.00000000000E+00  0.00000000000E+00 -0.65422126019E+02  0.65422126069E+02  0.25500000920E-02 0. -1.
    10030    2    1    2    0    0  0.00000000000E+00  0.00000000000E+00  0.17793458010E+04  0.19101900531E+04  0.69480541117E+03 0.  0.
        2    1    3    3  502    0 -0.23562330110E+03 -0.12792781560E+03  0.28231520391E+03  0.38934013457E+03  0.25500000920E-02 0. -1.
       -2    1    3    3    0  502  0.23562330110E+03  0.12792781560E+03  0.14970305971E+04  0.15208499185E+04  0.25500000920E-02 0.  1.
</event>
<event>
 5   0  0.5899787E-02  0.6993663E+03  0.7818609E-02  0.9718317E-01
       -2   -1    0    0    0  501  0.00000000000E+00  0.00000000000E+00  0.58144235759E+03  0.58144235759E+03  0.25500000920E-02 0. -1.
        2   -1    0    0  501    0  0.00000000000E+00  0.00000000000E+00 -0.21030167969E+03  0.21030167971E+03  0.25500000920E-02 0.  1.
    10030    2    1    2    0    0  0.00000000000E+00  0.00000000000E+00  0.37114067789E+03  0.79174403730E+03  0.69936629731E+03 0.  0.
        2    1    3    3  502    0 -0.26536963986E+02 -0.65853988278E+02  0.57319650997E+03  0.57757700550E+03  0.25500000920E-02 0. -1.
       -2    1    3    3    0  502  0.26536963986E+02  0.65853988278E+02 -0.20205583208E+03  0.21416703180E+03  0.25500000920E-02 0.  1.
</event>
<event>
 5   0  0.6248886E-02  0.7129273E+03  0.7818609E-02  0.9695377E-01
        2   -1    0    0  501    0  0.00000000000E+00  0.00000000000E+00  0.70787841994E+03  0.70787841994E+03  0.25500000920E-02 0.  1.
       -2   -1    0    0    0  501  0.00000000000E+00  0.00000000000E+00 -0.17950303399E+03  0.17950303401E+03  0.25500000920E-02 0. -1.
    10030    2    1    2    0    0  0.00000000000E+00  0.00000000000E+00  0.52837538595E+03  0.88738145395E+03  0.71292727283E+03 0.  0.
        3    1    3    3  502    0  0.50587256832E+02 -0.28024213005E+03  0.53106392067E+03  0.60259739466E+03  0.10100000352E+00 0.  1.
       -3    1    3    3    0  502 -0.50587256832E+02  0.28024213005E+03 -0.26885347230E+01  0.28478405930E+03  0.10100000352E+00 0. -1.
</event>
<event>
 5   0  0.2439375E-02  0.6976734E+03  0.7818609E-02  0.9721219E-01
       -3   -1    0    0    0  501  0.00000000000E+00  0.00000000000E+00  0.46578762345E+03  0.46578763440E+03  0.10100000352E+00 0.  1.
        3   -1    0    0  501    0  0.00000000000E+00  0.00000000000E+00 -0.26125000770E+03  0.26125002723E+03  0.10100000352E+00 0. -1.
    10030    2    1    2    0    0  0.00000000000E+00  0.00000000000E+00  0.20453761575E+03  0.72703766163E+03  0.69767336567E+03 0.  0.
        4    1    3    3  502    0  0.92838570124E+02 -0.78913976388E+02  0.44288844142E+03  0.45934540404E+03  0.12699999809E+01 0.  1.
       -4    1    3    3    0  502 -0.92838570124E+02  0.78913976388E+02 -0.23835082567E+03  0.26769225758E+03  0.12699999809E+01 0. -1.
</event>
<event>
 5   0  0.3749730E-02  0.6965787E+03  0.7818609E-02  0.9723101E-01
       -1   -1    0    0    0  501  0.00000000000E+00  0.00000000000E+00  0.33994401270E+03  0.33994401274E+03  0.50400001928E-02 0.  1.
        1   -1    0    0  501    0  0.00000000000E+00  0.00000000000E+00 -0.35683955164E+03  0.35683955168E+03  0.50400001928E-02 0. -1.
    10030    2    1    2    0    0  0.00000000000E+00  0.00000000000E+00 -0.16895538943E+02  0.69678356442E+03  0.69657869362E+03 0.  0.
        4    1    3    3  502    0  0.15881717790E+03 -0.23807933956E+03  0.19010289681E+03  0.34357734529E+03  0.12699999809E+01 0.  1.
       -4    1    3    3    0  502 -0.15881717790E+03  0.23807933956E+03 -0.20699843576E+03  0.35320621912E+03  0.12699999809E+01 0. -1.
</event>
<event>
 5   0  0.3755872E-02  0.7059828E+03  0.7818609E-02  0.9707055E-01
       -1   -1    0    0    0  501  0.00000000000E+00  0.00000000000E+00  0.97730081575E+02  0.97730081705E+02  0.50400001928E-02 0.  1.
        1   -1    0    0  501    0  0.00000000000E+00  0.00000000000E+00 -0.12749700180E+04  0.12749700181E+04  0.50400001928E-02 0. -1.
    10030    2    1    2    0    0  0.00000000000E+00  0.00000000000E+00 -0.11772399365E+04  0.13727000998E+04  0.70598278723E+03 0.  0.
        2    1    3    3  502    0 -0.12508925801E+03 -0.75212900216E+02  0.36306349925E+02  0.15040762574E+03  0.25500000920E-02 0.  1.
       -2    1    3    3    0  502  0.12508925801E+03  0.75212900216E+02 -0.12135462864E+04  0.12222924740E+04  0.25500000920E-02 0. -1.
</event>
<event>
 5   0  0.2439375E-02  0.9053081E+03  0.7818609E-02  0.9418970E-01
        3   -1    0    0  501    0  0.00000000000E+00  0.00000000000E+00  0.81490116577E+03  0.81490117203E+03  0.10100000352E+00 0.  1.
       -3   -1    0    0    0  501  0.00000000000E+00  0.00000000000E+00 -0.25143623996E+03  0.25143626025E+03  0.10100000352E+00 0. -1.
    10030    2    1    2    0    0  0.00000000000E+00  0.00000000000E+00  0.56346492581E+03  0.10663374323E+04  0.90530812261E+03 0.  0.
        3    1    3    3  502    0  0.52418493583E+02 -0.25628312992E+03 -0.15339047392E+03  0.30324476721E+03  0.10100000352E+00 0. -1.
       -3    1    3    3    0  502 -0.52418493583E+02  0.25628312992E+03  0.71685539973E+03  0.76309266506E+03  0.10100000352E+00 0.  1.
</event>
<event>
 5   0  0.3755872E-02  0.6980283E+03  0.7818609E-02  0.9720610E-01
       -1   -1    0    0    0  501  0.00000000000E+00  0.00000000000E+00  0.40726572355E+02  0.40726572667E+02  0.50400001928E-02 0.  1.
        1   -1    0    0  501    0  0.00000000000E+00  0.00000000000E+00 -0.29909431829E+04  0.29909431829E+04  0.50400001928E-02 0. -1.
    10030    2    1    2    0    0  0.00000000000E+00  0.00000000000E+00 -0.29502166106E+04  0.30316697556E+04  0.69802826426E+03 0.  0.
        2    1    3    3  502    0  0.13174877432E+03  0.82010104391E+02 -0.11736645199E+03  0.19457204531E+03  0.25500000920E-02 0.  1.
       -2    1    3    3    0  502 -0.13174877432E+03 -0.82010104391E+02 -0.28328501586E+04  0.28370977103E+04  0.25500000920E-02 0. -1.
</event>
<event>
 5   0  0.6248886E-02  0.6994517E+03  0.7818609E-02  0.9718170E-01
        2   -1    0    0  501    0  0.00000000000E+00  0.00000000000E+00  0.10809443392E+04  0.10809443392E+04  0.25500000920E-02 0. -1.
       -2   -1    0    0    0  501  0.00000000000E+00  0.00000000000E+00 -0.11314936476E+03  0.11314936479E+03  0.25500000920E-02 0.  1.
    10030    2    1    2    0    0  0.00000000000E+00  0.00000000000E+00  0.96779497442E+03  0.11940937040E+04  0.69945168621E+03 0.  0.
        3    1    3    3  502    0 -0.85614262648E+02  0.24990887918E+03  0.92643125876E+02  0.27994108101E+03  0.10100000352E+00 0.  1.
       -3    1    3    3    0  502  0.85614262648E+02 -0.24990887918E+03  0.87515184854E+03  0.91415262296E+03  0.10100000352E+00 0. -1.
</event>
<event>
 5   0  0.5899787E-02  0.6991089E+03  0.7818609E-02  0.9718757E-01
        2   -1    0    0  501    0  0.00000000000E+00  0.00000000000E+00  0.16166895076E+04  0.16166895076E+04  0.25500000920E-02 0.  1.
       -2   -1    0    0    0  501  0.00000000000E+00  0.00000000000E+00 -0.75579323030E+02  0.75579323073E+02  0.25500000920E-02 0. -1.
    10030    2    1    2    0    0  0.00000000000E+00  0.00000000000E+00  0.15411101845E+04  0.16922688306E+04  0.69910885724E+03 0.  0.
        2    1    3    3  502    0 -0.11698623595E+01  0.14131899265E+03  0.15444530857E+04  0.15509054646E+04  0.25500000920E-02 0.  1.
       -2    1    3    3    0  502  0.11698623595E+01 -0.14131899265E+03 -0.33429011463E+01  0.14136336604E+03  0.25500000920E-02 0. -1.
</event>
<event>
 5   0  0.5899787E-02  0.7042751E+03  0.7818609E-02  0.9709949E-01
       -2   -1    0    0    0  501  0.00000000000E+00  0.00000000000E+00  0.13266640475E+03  0.13266640477E+03  0.25500000920E-02 0.  1.
        2   -1    0    0  501    0  0.00000000000E+00  0.00000000000E+00 -0.93468166265E+03  0.93468166265E+03  0.25500000920E-02 0. -1.
    10030    2    1    2    0    0  0.00000000000E+00  0.00000000000E+00 -0.80201525790E+03  0.10673480674E+04  0.70427510472E+03 0.  0.
        2    1    3    3  502    0 -0.22731970572E+03 -0.20567938790E+03 -0.13841178014E+03  0.33635707233E+03  0.25500000920E-02 0.  1.
       -2    1    3    3    0  502  0.22731970572E+03  0.20567938790E+03 -0.66360347776E+03  0.73099099510E+03  0.25500000920E-02 0. -1.
</event>
<event>
 5   0  0.3755872E-02  0.6934212E+03  0.7818609E-02  0.9728549E-01
        1   -1    0    0  501    0  0.00000000000E+00  0.00000000000E+00  0.37012741667E+03  0.37012741670E+03  0.50400001928E-02 0.  1.
       -1   -1    0    0    0  501  0.00000000000E+00  0.00000000000E+00 -0.32477527950E+03  0.32477527954E+03  0.50400001928E-02 0. -1.
    10030    2    1    2    0    0  0.00000000000E+00  0.00000000000E+00  0.45352137171E+02  0.69490269624E+03  0.69342118578E+03 0.  0.
        2    1    3    3  502    0 -0.21820538981E+03 -0.17831975382E+03 -0.17973742139E+03  0.33424103189E+03  0.25500000920E-02 0. -1.
       -2    1    3    3    0  502  0.21820538981E+03  0.17831975382E+03  0.22508955856E+03  0.36066166434E+03  0.25500000920E-02 0.  1.
</event>
<event>
 5   0  0.3601475E-02  0.6895581E+03  0.7818609E-02  0.9735258E-01
       -1   -1    0    0    0  501  0.00000000000E+00  0.00000000000E+00  0.32386350367E+03  0.32386350371E+03  0.50400001928E-02 0. -1.
        1   -1    0    0  501    0  0.00000000000E+00  0.00000000000E+00 -0.36704534230E+03  0.36704534234E+03  0.50400001928E-02 0.  1.
    10030    2    1    2    0    0  0.00000000000E+00  0.00000000000E+00 -0.43181838630E+02  0.69090884605E+03  0.68955809209E+03 0.  0.
        5    1    3    3  502    0  0.28748906573E+03  0.87085941417E+02 -0.19108663768E+03  0.35604791419E+03  0.46999998093E+01 0.  1.
       -5    1    3    3    0  502 -0.28748906573E+03 -0.87085941417E+02  0.14790479905E+03  0.33486093186E+03  0.46999998093E+01 0. -1.
</event>
<event>
 5   0  0.2439375E-02  0.6922703E+03  0.7818609E-02  0.9730543E-01
        3   -1    0    0  501    0  0.00000000000E+00  0.00000000000E+00  0.24641925148E+03  0.24641927217E+03  0.10100000352E+00 0.  1.
       -3   -1    0    0    0  501  0.00000000000E+00  0.00000000000E+00 -0.48620192236E+03  0.48620193285E+03  0.10100000352E+00 0. -1.
    10030    2    1    2    0    0  0.00000000000E+00  0.00000000000E+00 -0.23978267088E+03  0.73262120502E+03  0.69227025127E+03 0.  0.
        5    1    3    3  502    0 -0.28999968055E+03  0.16018557998E+03 -0.22586923766E+03  0.40099655519E+03  0.46999998093E+01 0. -1.
       -5    1    3    3    0  502  0.28999968055E+03 -0.16018557998E+03 -0.13913433217E+02  0.33162464983E+03  0.46999998093E+01 0.  1.
</event>
<event>
 5   0  0.6131198E-02  0.6999651E+03  0.7818609E-02  0.9717292E-01
       -2   -1    0    0    0  501  0.00000000000E+00  0.00000000000E+00  0.70016368310E+03  0.70016368311E+03  0.25500000920E-02 0.  1.
        2   -1    0    0  501    0  0.00000000000E+00  0.00000000000E+00 -0.17494162098E+03  0.17494162099E+03  0.25500000920E-02 0. -1.
    10030    2    1    2    0    0  0.00000000000E+00  0.00000000000E+00  0.52522206213E+03  0.87510530410E+03  0.69996505536E+03 0.  0.
        1    1    3    3  502    0 -0.78596713481E+02 -0.31122478522E+03  0.88254699168E+02  0.33290719766E+03  0.50400001928E-02 0. -1.
       -1    1    3    3    0  502  0.78596713481E+02  0.31122478522E+03  0.43696736296E+03  0.54219810643E+03  0.50400001928E-02 0.  1.
</event>
<event>
 5   0  0.6248886E-02  0.7031309E+03  0.7818609E-02  0.9711893E-01
        2   -1    0    0  501    0  0.00000000000E+00  0.00000000000E+00  0.11222654511E+04  0.11222654512E+04  0.25500000920E-02 0. -1.
       -2   -1    0    0    0  501  0.00000000000E+00  0.00000000000E+00 -0.11013282411E+03  0.11013282414E+03  0.25500000920E-02 0.  1.
    10030    2    1    2    0    0  0.00000000000E+00  0.00000000000E+00  0.10121326270E+04  0.12323982753E+04  0.70313089408E+03 0.  0.
        3    1    3    3  502    0 -0.34124464481E+03 -0.66404998536E+02  0.41430758489E+03  0.54084037991E+03  0.10100000352E+00 0.  1.
       -3    1    3    3    0  502  0.34124464481E+03  0.66404998536E+02  0.59782504215E+03  0.69155789538E+03  0.10100000352E+00 0. -1.
</event>
<event>
 5   0  0.2439375E-02  0.7180811E+03  0.7818609E-02  0.9686801E-01
       -4   -1    0    0    0  501  0.00000000000E+00  0.00000000000E+00  0.43773620731E+03  0.43773804962E+03  0.12699999809E+01 0.  1.
        4   -1    0    0  501    0  0.00000000000E+00  0.00000000000E+00 -0.29448887082E+03  0.29449160928E+03  0.12699999809E+01 0. -1.
    10030    2    1    2    0    0  0.00000000000E+00  0.00000000000E+00  0.14324733648E+03  0.73222965891E+03  0.71808110543E+03 0.  0.
        4    1    3    3  502    0 -0.19273540249E+03  0.13255354786E+03  0.34937093966E+03  0.42045100167E+03  0.12699999809E+01 0.  1.
       -4    1    3    3    0  502  0.19273540249E+03 -0.13255354786E+03 -0.20612360317E+03  0.31177865724E+03  0.12699999809E+01 0. -1.
</event>
<event>
 5   0  0.6248886E-02  0.6909966E+03  0.7818609E-02  0.9732754E-01
       -2   -1    0    0    0  501  0.00000000000E+00  0.00000000000E+00  0.89575346721E+03  0.89575346721E+03  0.25500000920E-02 0.  1.
        2   -1    0    0  501    0  0.00000000000E+00  0.00000000000E+00 -0.13326108692E+03  0.13326108694E+03  0.25500000920E-02 0. -1.
    10030    2    1    2    0    0  0.00000000000E+00  0.00000000000E+00  0.76249238029E+03  0.10290145542E+04  0.69099661552E+03 0.  0.
        3    1    3    3  502    0  0.22120392546E+03 -0.25226740381E+03  0.50403809605E+03  0.60549519580E+03  0.10100000352E+00 0.  1.
       -3    1    3    3    0  502 -0.22120392546E+03  0.25226740381E+03  0.25845428424E+03  0.42351935836E+03  0.10100000352E+00 0. -1.
</event>
<event>
 5   0  0.5899787E-02  0.7075986E+03  0.7818609E-02  0.9704325E-01
       -2   -1    0    0    0  501  0.00000000000E+00  0.00000000000E+00  0.15150476415E+03  0.15150476418E+03  0.25500000920E-02 0. -1.
        2   -1    0    0  501    0  0.00000000000E+00  0.00000000000E+00 -0.82620466733E+03  0.82620466733E+03  0.25500000920E-02 0.  1.
    10030    2    1    2    0    0  0.00000000000E+00  0.00000000000E+00 -0.67469990317E+03  0.97770943151E+03  0.70759859604E+03 0.  0.
        2    1    3    3  502    0 -0.20600872755E+03  0.11599542325E+03  0.26334663834E+02  0.23788242593E+03  0.25500000920E-02 0.  1.
       -2    1    3    3    0  502  0.20600872755E+03 -0.11599542325E+03 -0.70103456701E+03  0.73982700558E+03  0.25500000920E-02 0. -1.
</event>
<event>
 5   0  0.5987810E-02  0.6851261E+03  0.7818609E-02  0.9743012E-01
        2   -1    0    0  501    0  0.00000000000E+00  0.00000000000E+00  0.49446991176E+03  0.49446991177E+03  0.25500000920E-02 0. -1.
       -2   -1    0    0    0  501  0.00000000000E+00  0.00000000000E+00 -0.23732374962E+03  0.23732374963E+03  0.25500000920E-02 0.  1.
    10030    2    1    2    0    0  0.00000000000E+00  0.00000000000E+00  0.25714616215E+03  0.73179366140E+03  0.68512613011E+03 0.  0.
        5    1    3    3  502    0  0.18865573636E+03 -0.77046420992E+02  0.42264486854E+03  0.46923119328E+03  0.46999998093E+01 0. -1.
       -5    1    3    3    0  502 -0.18865573636E+03  0.77046420992E+02 -0.16549870639E+03  0.26256246812E+03  0.46999998093E+01 0.  1.
</event>
<event>
 5   0  0.3717372E-02  0.7004476E+03  0.7818609E-02  0.9716467E-01
       -1   -1    0    0    0  501  0.00000000000E+00  0.00000000000E+00  0.42944425723E+03  0.42944425726E+03  0.50400001928E-02 0.  1.
        1   -1    0    0  501    0  0.00000000000E+00  0.00000000000E+00 -0.28561732200E+03  0.28561732204E+03  0.50400001928E-02 0. -1.
    10030    2    1    2    0    0  0.00000000000E+00  0.00000000000E+00  0.14382693523E+03  0.71506157930E+03  0.70044762466E+03 0.  0.
        3    1    3    3  502    0 -0.32570880198E+03  0.79431491146E+02  0.17532410731E+03  0.37833072606E+03  0.10100000352E+00 0.  1.
       -3    1    3    3    0  502  0.32570880198E+03 -0.79431491146E+02 -0.31497172076E+02  0.33673085324E+03  0.10100000352E+00 0. -1.
</event>
<event>
 5   0  0.3601475E-02  0.6724614E+03  0.7818609E-02  0.9765521E-01
        1   -1    0    0  501    0  0.00000000000E+00  0.00000000000E+00  0.15681641565E+03  0.15681641573E+03  0.50400001928E-02 0. -1.
       -1   -1    0    0    0  501  0.00000000000E+00  0.00000000000E+00 -0.72091355111E+03  0.72091355112E+03  0.50400001928E-02 0.  1.
    10030    2    1    2    0    0  0.00000000000E+00  0.00000000000E+00 -0.56409713546E+03  0.87772996685E+03  0.67246138661E+03 0.  0.
        5    1    3    3  502    0 -0.31495697438E+03  0.11560330320E+03 -0.25384279994E+03  0.42073777641E+03  0.46999998093E+01 0.  1.
       -5    1    3    3    0  502  0.31495697438E+03 -0.11560330320E+03 -0.31025433552E+03  0.45699219044E+03  0.46999998093E+01 0. -1.
</event>
<event>
 5   0  0.6131198E-02  0.5161219E+03  0.7818609E-02  0.1009654E+00
        2   -1    0    0  501    0  0.00000000000E+00  0.00000000000E+00  0.25383434679E+03  0.25383434680E+03  0.25500000920E-02 0.  1.
       -2   -1    0    0    0  501  0.00000000000E+00  0.00000000000E+00 -0.26235791216E+03  0.26235791217E+03  0.25500000920E-02 0. -1.
    10030    2    1    2    0    0  0.00000000000E+00  0.00000000000E+00 -0.85235653745E+01  0.51619225897E+03  0.51612188198E+03 0.  0.
        1    1    3    3  502    0  0.37681281504E+02 -0.99094670189E+02 -0.23957203315E+03  0.26198166296E+03  0.50400001928E-02 0. -1.
       -1    1    3    3    0  502 -0.37681281504E+02  0.99094670189E+02  0.23104846778E+03  0.25421059601E+03  0.50400001928E-02 0.  1.
</event>
<event>
 5   0  0.3755872E-02  0.7132083E+03  0.7818609E-02  0.9694907E-01
        1   -1    0    0  501    0  0.00000000000E+00  0.00000000000E+00  0.89080974353E+03  0.89080974354E+03  0.50400001928E-02 0. -1.
       -1   -1    0    0    0  501  0.00000000000E+00  0.00000000000E+00 -0.14275386652E+03  0.14275386661E+03  0.50400001928E-02 0.  1.
    10030    2    1    2    0    0  0.00000000000E+00  0.00000000000E+00  0.74805587701E+03  0.10335636101E+04  0.71320834340E+03 0.  0.
        2    1    3    3  502    0  0.20863501027E+03  0.64133118706E+02 -0.34641715920E+02  0.22100152242E+03  0.25500000920E-02 0.  1.
       -2    1    3    3    0  502 -0.20863501027E+03 -0.64133118706E+02  0.78269759293E+03  0.81256208773E+03  0.25500000920E-02 0. -1.
</event>
<event>
 5   0  0.5899787E-02  0.6921747E+03  0.7818609E-02  0.9730709E-01
       -2   -1    0    0    0  501  0.00000000000E+00  0.00000000000E+00  0.78591559333E+02  0.78591559374E+02  0.25500000920E-02 0. -1.
        2   -1    0    0  501    0  0.00000000000E+00  0.00000000000E+00 -0.15240371509E+04  0.15240371509E+04  0.25500000920E-02 0.  1.
    10030    2    1    2    0    0  0.00000000000E+00  0.00000000000E+00 -0.14454455916E+04  0.16026287103E+04  0.69217470687E+03 0.  0.
        2    1    3    3  502    0  0.42852631304E+02  0.21354792514E+03 -0.99994476457E+02  0.23966217822E+03  0.25500000920E-02 0. -1.
       -2    1    3    3    0  502 -0.42852631304E+02 -0.21354792514E+03 -0.13454511151E+04  0.13629665321E+04  0.25500000920E-02 0.  1.
</event>
<event>
 5   0  0.3439015E-02  0.6955093E+03  0.7818609E-02  0.9724943E-01
        1   -1    0    0  501    0  0.00000000000E+00  0.00000000000E+00  0.16208595905E+04  0.16208595906E+04  0.50400001928E-02 0. -1.
       -1   -1    0    0    0  501  0.00000000000E+00  0.00000000000E+00 -0.74610601546E+02  0.74610601716E+02  0.50400001928E-02 0.  1.
    10030    2    1    2    0    0  0.00000000000E+00  0.00000000000E+00  0.15462489890E+04  0.16954701923E+04  0.69550933631E+03 0.  0.
        1    1    3    3  502    0  0.27523592521E+03  0.33725516924E+02  0.12847076019E+04  0.13142929078E+04  0.50400001928E-02 0. -1.
       -1    1    3    3    0  502 -0.27523592521E+03 -0.33725516924E+02  0.26154138707E+03  0.38117728446E+03  0.50400001928E-02 0.  1.
</event>
<event>
 5   0  0.6167756E-02  0.6962307E+03  0.7818609E-02  0.9723700E-01
       -2   -1    0    0    0  501  0.00000000000E+00  0.00000000000E+00  0.39515632001E+03  0.39515632002E+03  0.25500000920E-02 0. -1.
        2   -1    0    0  501    0  0.00000000000E+00  0.00000000000E+00 -0.30667428871E+03  0.30667428872E+03  0.25500000920E-02 0.  1.
    10030    2    1    2    0    0  0.00000000000E+00  0.00000000000E+00  0.88482031301E+02  0.70183060873E+03  0.69623066112E+03 0.  0.
        4    1    3    3  502    0  0.14575433208E+03 -0.20572313104E+03  0.28620570223E+03  0.38142056690E+03  0.12699999809E+01 0.  1.
       -4    1    3    3    0  502 -0.14575433208E+03  0.20572313104E+03 -0.19772367093E+03  0.32041004184E+03  0.12699999809E+01 0. -1.
</event>
<event>
 5   0  0.3749730E-02  0.7126207E+03  0.7818609E-02  0.9695889E-01
        1   -1    0    0  501    0  0.00000000000E+00  0.00000000000E+00  0.31872790725E+03  0.31872790729E+03  0.50400001928E-02 0. -1.
       -1   -1    0    0    0  501  0.00000000000E+00  0.00000000000E+00 -0.39832424130E+03  0.39832424133E+03  0.50400001928E-02 0.  1.
    10030    2    1    2    0    0  0.00000000000E+00  0.00000000000E+00 -0.79596334045E+02  0.71705214862E+03  0.71262066168E+03 0.  0.
        4    1    3    3  502    0 -0.18735113808E+03 -0.16472409004E+03 -0.29578334565E+03  0.38694169489E+03  0.12699999809E+01 0.  1.
       -4    1    3    3    0  502  0.18735113808E+03  0.16472409004E+03  0.21618701161E+03  0.33011045374E+03  0.12699999809E+01 0. -1.
</event>
<event>
 5   0  0.5987810E-02  0.6670104E+03  0.7818609E-02  0.9775374E-01
        2   -1    0    0  501    0  0.00000000000E+00  0.00000000000E+00  0.33916752665E+03  0.33916752666E+03  0.25500000920E-02 0. -1.
       -2   -1    0    0    0  501  0.00000000000E+00  0.00000000000E+00 -0.32793745339E+03  0.32793745340E+03  0.25500000920E-02 0.  1.
    10030    2    1    2    0    0  0.00000000000E+00  0.00000000000E+00  0.11230073264E+02  0.66710498006E+03  0.66701044960E+03 0.  0.
        5    1    3    3  502    0 -0.58247348000E+02  0.28962435649E+03 -0.14909568207E+03  0.33094808329E+03  0.46999998093E+01 0.  1.
       -5    1    3    3    0  502  0.58247348000E+02 -0.28962435649E+03  0.16032575533E+03  0.33615689677E+03  0.46999998093E+01 0. -1.
</event>
<event>
 5   0  0.3755872E-02  0.6959328E+03  0.7818609E-02  0.9724213E-01
        1   -1    0    0  501    0  0.00000000000E+00  0.00000000000E+00  0.42358826519E+03  0.42358826522E+03  0.50400001928E-02 0.  1.
       -1   -1    0    0    0  501  0.00000000000E+00  0.00000000000E+00 -0.28584504941E+03  0.28584504946E+03  0.50400001928E-02 0. -1.
    10030    2    1    2    0    0  0.00000000000E+00  0.00000000000E+00  0.13774321578E+03  0.70943331468E+03  0.69593278015E+03 0.  0.
        2    1    3    3  502    0  0.65823514820E+02 -0.16899968469E+03  0.37159537624E+03  0.41349335204E+03  0.25500000920E-02 0.  1.
       -2    1    3    3    0  502 -0.65823514820E+02  0.16899968469E+03 -0.23385216046E+03  0.29593996264E+03  0.25500000920E-02 0. -1.
</event>
<event>
 5   0  0.3717372E-02  0.7124427E+03  0.7818609E-02  0.9696187E-01
       -1   -1    0    0    0  501  0.00000000000E+00  0.00000000000E+00  0.29560636506E+03  0.29560636510E+03  0.50400001928E-02 0. -1.
        1   -1    0    0  501    0  0.00000000000E+00  0.00000000000E+00 -0.42926556333E+03  0.42926556336E+03  0.50400001928E-02 0.  1.
    10030    2    1    2    0    0  0.00000000000E+00  0.00000000000E+00 -0.13365919827E+03  0.72487192846E+03  0.71244265129E+03 0.  0.
        3    1    3    3  502    0 -0.68308797588E+02 -0.13862432079E+03  0.25972274857E+03  0.30222294828E+03  0.10100000352E+00 0. -1.
       -3    1    3    3    0  502  0.68308797588E+02  0.13862432079E+03 -0.39338194684E+03  0.42264898017E+03  0.10100000352E+00 0.  1.
</event>
<event>
 5   0  0.6131198E-02  0.6848821E+03  0.7818609E-02  0.9743441E-01
       -2   -1    0    0    0  501  0.00000000000E+00  0.00000000000E+00  0.13824945869E+03  0.13824945871E+03  0.25500000920E-02 0. -1.
        2   -1    0    0  501    0  0.00000000000E+00  0.00000000000E+00 -0.84821936038E+03  0.84821936039E+03  0.25500000920E-02 0.  1.
    10030    2    1    2    0    0  0.00000000000E+00  0.00000000000E+00 -0.70996990170E+03  0.98646881910E+03  0.68488208455E+03 0.  0.
        1    1    3    3  502    0 -0.13921259263E+03 -0.98626811343E+01  0.95428483283E+02  0.16906807467E+03  0.50400001928E-02 0. -1.
       -1    1    3    3    0  502  0.13921259263E+03  0.98626811343E+01 -0.80539838498E+03  0.81740074442E+03  0.50400001928E-02 0.  1.
</event>
<event>
 5   0  0.3717372E-02  0.6874324E+03  0.7818609E-02  0.9738969E-01
        1   -1    0    0  501    0  0.00000000000E+00  0.00000000000E+00  0.89020062824E+03  0.89020062825E+03  0.50400001928E-02 0.  1.
       -1   -1    0    0    0  501  0.00000000000E+00  0.00000000000E+00 -0.13271257222E+03  0.13271257232E+03  0.50400001928E-02 0. -1.
    10030    2    1    2    0    0  0.00000000000E+00  0.00000000000E+00  0.75748805602E+03  0.10229132006E+04  0.68743236823E+03 0.  0.
        3    1    3    3  502    0 -0.26419308559E+03 -0.31270784667E+02  0.70258916327E+03  0.75127051785E+03  0.10100000352E+00 0.  1.
       -3    1    3    3    0  502  0.26419308559E+03  0.31270784667E+02  0.54898892749E+02  0.27164268272E+03  0.10100000352E+00 0. -1.
</event>
<event>
 5   0  0.6131198E-02  0.7009918E+03  0.7818609E-02  0.9715538E-01
       -2   -1    0    0    0  501  0.00000000000E+00  0.00000000000E+00  0.18529764688E+03  0.18529764690E+03  0.25500000920E-02 0. -1.
        2   -1    0    0  501    0  0.00000000000E+00  0.00000000000E+00 -0.66297314474E+03  0.66297314475E+03  0.25500000920E-02 0.  1.
    10030    2    1    2    0    0  0.00000000000E+00  0.00000000000E+00 -0.47767549786E+03  0.84827079164E+03  0.70099176507E+03 0.  0.
        1    1    3    3  502    0  0.31534121085E+03  0.58659774279E+02 -0.67847809159E+02  0.32784809533E+03  0.50400001928E-02 0. -1.
       -1    1    3    3    0  502 -0.31534121085E+03 -0.58659774279E+02 -0.40982768871E+03  0.52042269631E+03  0.50400001928E-02 0.  1.
</event>
<event>
 5   0  0.3717372E-02  0.7029219E+03  0.7818609E-02  0.9712248E-01
       -1   -1    0    0    0  501  0.00000000000E+00  0.00000000000E+00  0.11178371190E+03  0.11178371201E+03  0.50400001928E-02 0. -1.
        1   -1    0    0  501    0  0.00000000000E+00  0.00000000000E+00 -0.11050339807E+04  0.11050339807E+04  0.50400001928E-02 0.  1.
    10030    2    1    2    0    0  0.00000000000E+00  0.00000000000E+00 -0.99325026880E+03  0.12168176927E+04  0.70292190239E+03 0.  0.
        3    1    3    3  502    0  0.86627281751E+02 -0.58600196647E+02 -0.10774719862E+04  0.10825359856E+04  0.10100000352E+00 0.  1.
       -3    1    3    3    0  502 -0.86627281751E+02  0.58600196647E+02  0.84221717356E+02  0.13428170712E+03  0.10100000352E+00 0. -1.
</event>
<event>
 5   0  0.3601475E-02  0.6994439E+03  0.7818609E-02  0.9718184E-01
        1   -1    0    0  501    0  0.00000000000E+00  0.00000000000E+00  0.30611215029E+03  0.30611215034E+03  0.50400001928E-02 0. -1.
       -1   -1    0    0    0  501  0.00000000000E+00  0.00000000000E+00 -0.39954450699E+03  0.39954450702E+03  0.50400001928E-02 0.  1.
    10030    2    1    2    0    0  0.00000000000E+00  0.00000000000E+00 -0.93432356695E+02  0.70565665736E+03  0.69944385964E+03 0.  0.
        5    1    3    3  502    0  0.30793878325E+03 -0.46500947410E+02  0.11373961347E+03  0.33158320526E+03  0.46999998093E+01 0. -1.
       -5    1    3    3    0  502 -0.30793878325E+03  0.46500947410E+02 -0.20717197016E+03  0.37407345209E+03  0.46999998093E+01 0.  1.
</event>
<event>
 5   0  0.6167756E-02  0.5957851E+03  0.7818609E-02  0.9914190E-01
       -2   -1    0    0    0  501  0.00000000000E+00  0.00000000000E+00  0.87688545305E+02  0.87688545342E+02  0.25500000920E-02 0.  1.
        2   -1    0    0  501    0  0.00000000000E+00  0.00000000000E+00 -0.10119902940E+04  0.10119902940E+04  0.25500000920E-02 0. -1.
    10030    2    1    2    0    0  0.00000000000E+00  0.00000000000E+00 -0.92430174873E+03  0.10996788394E+04  0.59578505107E+03 0.  0.
        4    1    3    3  502    0 -0.28618902205E+03  0.60383772566E+02 -0.35793483273E+03  0.46224378169E+03  0.12699999809E+01 0. -1.
       -4    1    3    3    0  502  0.28618902205E+03 -0.60383772566E+02 -0.56636691600E+03  0.63743505769E+03  0.12699999809E+01 0.  1.
</event>
<event>
 5   0  0.5899787E-02  0.6961497E+03  0.7818609E-02  0.9723839E-01
       -2   -1    0    0    0  501  0.00000000000E+00  0.00000000000E+00  0.25819616290E+03  0.25819616292E+03  0.25500000920E-02 0. -1.
        2   -1    0    0  501    0  0.00000000000E+00  0.00000000000E+00 -0.46924053191E+03  0.46924053192E+03  0.25500000920E-02 0.  1.
    10030    2    1    2    0    0  0.00000000000E+00  0.00000000000E+00 -0.21104436901E+03  0.72743669484E+03  0.69614971041E+03 0.  0.
        2    1    3    3  502    0 -0.17589870853E+01  0.29995552111E+02 -0.46788282549E+03  0.46884663332E+03  0.25500000920E-02 0.  1.
       -2    1    3    3    0  502  0.17589870853E+01 -0.29995552111E+02  0.25683845648E+03  0.25859006152E+03  0.25500000920E-02 0. -1.
</event>
<event>
 5   0  0.3749730E-02  0.7003456E+03  0.7818609E-02  0.9716641E-01
       -1   -1    0    0    0  501  0.00000000000E+00  0.00000000000E+00  0.61224865683E+02  0.61224865891E+02  0.50400001928E-02 0. -1.
        1   -1    0    0  501    0  0.00000000000E+00  0.00000000000E+00 -0.20027973533E+04  0.20027973533E+04  0.50400001928E-02 0.  1.
    10030    2    1    2    0    0  0.00000000000E+00  0.00000000000E+00 -0.19415724876E+04  0.20640222192E+04  0.70034562657E+03 0.  0.
        4    1    3    3  502    0 -0.10676656091E+03 -0.17052411411E+03 -0.12612203406E+03  0.23745726436E+03  0.12699999809E+01 0. -1.
       -4    1    3    3    0  502  0.10676656091E+03  0.17052411411E+03 -0.18154504535E+04  0.18265649548E+04  0.12699999809E+01 0.  1.
</event>
<event>
 5   0  0.2439375E-02  0.7098574E+03  0.7818609E-02  0.9700522E-01
       -3   -1    0    0    0  501  0.00000000000E+00  0.00000000000E+00  0.54605177760E+03  0.54605178694E+03  0.10100000352E+00 0.  1.
        3   -1    0    0  501    0  0.00000000000E+00  0.00000000000E+00 -0.23070041615E+03  0.23070043826E+03  0.10100000352E+00 0. -1.
    10030    2    1    2    0    0  0.00000000000E+00  0.00000000000E+00  0.31535136145E+03  0.77675222520E+03  0.70985740694E+03 0.  0.
        2    1    3    3  502    0 -0.30012137055E+03  0.47080920149E+01 -0.49593084817E+02  0.30422767340E+03  0.25500000920E-02 0. -1.
       -2    1    3    3    0  502  0.30012137055E+03 -0.47080920149E+01  0.36494444627E+03  0.47252455181E+03  0.25500000920E-02 0.  1.
</event>
<event>
 5   0  0.5987810E-02  0.6924580E+03  0.7818609E-02  0.9730218E-01
       -2   -1    0    0    0  501  0.00000000000E+00  0.00000000000E+00  0.27167145566E+03  0.27167145567E+03  0.25500000920E-02 0. -1.
        2   -1    0    0  501    0  0.00000000000E+00  0.00000000000E+00 -0.44124813122E+03  0.44124813123E+03  0.25500000920E-02 0.  1.
    10030    2    1    2    0    0  0.00000000000E+00  0.00000000000E+00 -0.16957667556E+03  0.71291958690E+03  0.69245800485E+03 0.  0.
        5    1    3    3  502    0 -0.13926231402E+03  0.23832512491E+03 -0.29991134378E+03  0.40762944128E+03  0.46999998093E+01 0.  1.
       -5    1    3    3    0  502  0.13926231402E+03 -0.23832512491E+03  0.13033466822E+03  0.30529014561E+03  0.46999998093E+01 0. -1.
</event>
<event>
 5   0  0.3749730E-02  0.7078400E+03  0.7818609E-02  0.9703918E-01
        1   -1    0    0  501    0  0.00000000000E+00  0.00000000000E+00  0.73665507182E+03  0.73665507183E+03  0.50400001928E-02 0. -1.
       -1   -1    0    0    0  501  0.00000000000E+00  0.00000000000E+00 -0.17003803078E+03  0.17003803086E+03  0.50400001928E-02 0.  1.
    10030    2    1    2    0    0  0.00000000000E+00  0.00000000000E+00  0.56661704103E+03  0.90669310269E+03  0.70784003227E+03 0.  0.
        4    1    3    3  502    0  0.17194878248E+03 -0.36167790765E+02  0.67683386328E+03  0.69927118078E+03  0.12699999809E+01 0. -1.
       -4    1    3    3    0  502 -0.17194878248E+03  0.36167790765E+02 -0.11021682225E+03  0.20742192191E+03  0.12699999809E+01 0.  1.
</event>
<event>
 5   0  0.6167756E-02  0.6944202E+03  0.7818609E-02  0.9726822E-01
       -2   -1    0    0    0  501  0.00000000000E+00  0.00000000000E+00  0.98667584743E+02  0.98667584776E+02  0.25500000920E-02 0. -1.
        2   -1    0    0  501    0  0.00000000000E+00  0.00000000000E+00 -0.12218284015E+04  0.12218284015E+04  0.25500000920E-02 0.  1.
    10030    2    1    2    0    0  0.00000000000E+00  0.00000000000E+00 -0.11231608168E+04  0.13204959863E+04  0.69442021103E+03 0.  0.
        4    1    3    3  502    0 -0.84294465453E+02 -0.23986806678E+03 -0.10112187690E+04  0.10426923122E+04  0.12699999809E+01 0.  1.
       -4    1    3    3    0  502  0.84294465453E+02  0.23986806678E+03 -0.11194204783E+03  0.27780367409E+03  0.12699999809E+01 0. -1.
</event>
<event>
 5   0  0.3755872E-02  0.6976493E+03  0.7818609E-02  0.9721261E-01
        1   -1    0    0  501    0  0.00000000000E+00  0.00000000000E+00  0.46833909221E+03  0.46833909223E+03  0.50400001928E-02 0. -1.
       -1   -1    0    0    0  501  0.00000000000E+00  0.00000000000E+00 -0.25980887684E+03  0.25980887689E+03  0.50400001928E-02 0.  1.
    10030    2    1    2    0    0  0.00000000000E+00  0.00000000000E+00  0.20853021537E+03  0.72814796912E+03  0.69764934904E+03 0.  0.
        2    1    3    3  502    0 -0.34052690554E+03 -0.30885642015E+02  0.17632052426E+03  0.38470953142E+03  0.25500000920E-02 0.  1.
       -2    1    3    3    0  502  0.34052690554E+03  0.30885642015E+02  0.32209691107E+02  0.34343843770E+03  0.25500000920E-02 0. -1.
</event>
<event>
 5   0  0.3755872E-02  0.7001234E+03  0.7818609E-02  0.9717021E-01
        1   -1    0    0  501    0  0.00000000000E+00  0.00000000000E+00  0.29667144159E+03  0.29667144163E+03  0.50400001928E-02 0. -1.
       -1   -1    0    0    0  501  0.00000000000E+00  0.00000000000E+00 -0.41306024685E+03  0.41306024688E+03  0.50400001928E-02 0.  1.
    10030    2    1    2    0    0  0.00000000000E+00  0.00000000000E+00 -0.11638880526E+03  0.70973168851E+03  0.70012335747E+03 0.  0.
        2    1    3    3  502    0 -0.34602035195E+03 -0.27646024114E+01 -0.11188781989E+03  0.36367102061E+03  0.25500000920E-02 0. -1.
       -2    1    3    3    0  502  0.34602035195E+03  0.27646024114E+01 -0.45009853705E+01  0.34606066789E+03  0.25500000920E-02 0.  1.
</event>
<event>
 5   0  0.5899787E-02  0.6910346E+03  0.7818609E-02  0.9732688E-01
       -2   -1    0    0    0  501  0.00000000000E+00  0.00000000000E+00  0.90478587190E+02  0.90478587226E+02  0.25500000920E-02 0. -1.
        2   -1    0    0  501    0  0.00000000000E+00  0.00000000000E+00 -0.13194525203E+04  0.13194525203E+04  0.25500000920E-02 0.  1.
    10030    2    1    2    0    0  0.00000000000E+00  0.00000000000E+00 -0.12289739331E+04  0.14099311075E+04  0.69103458648E+03 0.  0.
        2    1    3    3  502    0  0.58963633113E+02  0.29299262911E+03 -0.26073534323E+03  0.39661607375E+03  0.25500000920E-02 0. -1.
       -2    1    3    3    0  502 -0.58963633113E+02 -0.29299262911E+03 -0.96823858989E+03  0.10133150338E+04  0.25500000920E-02 0.  1.
</event>
<event>
 5   0  0.3601475E-02  0.6999954E+03  0.7818609E-02  0.9717240E-01
       -1   -1    0    0    0  501  0.00000000000E+00  0.00000000000E+00  0.20105762494E+03  0.20105762501E+03  0.50400001928E-02 0.  1.
        1   -1    0    0  501    0  0.00000000000E+00  0.00000000000E+00 -0.60927008009E+03  0.60927008011E+03  0.50400001928E-02 0. -1.
    10030    2    1    2    0    0  0.00000000000E+00  0.00000000000E+00 -0.40821245515E+03  0.81032770512E+03  0.69999541509E+03 0.  0.
        5    1    3    3  502    0 -0.26194913792E+02  0.22281510671E+03 -0.51503740890E+03  0.56179922379E+03  0.46999998093E+01 0. -1.
       -5    1    3    3    0  502  0.26194913792E+02 -0.22281510671E+03  0.10682495375E+03  0.24852848133E+03  0.46999998093E+01 0.  1.
</event>
<event>
 5   0  0.3749730E-02  0.6492211E+03  0.7818609E-02  0.9808242E-01
       -1   -1    0    0    0  501  0.00000000000E+00  0.00000000000E+00  0.34207165207E+03  0.34207165211E+03  0.50400001928E-02 0. -1.
        1   -1    0    0  501    0  0.00000000000E+00  0.00000000000E+00 -0.30804075454E+03  0.30804075458E+03  0.50400001928E-02 0.  1.
    10030    2    1    2    0    0  0.00000000000E+00  0.00000000000E+00  0.34030897528E+02  0.65011240669E+03  0.64922110205E+03 0.  0.
        4    1    3    3  502    0  0.29315364659E+03 -0.61721650043E+02  0.14217413813E+03  0.33160778195E+03  0.12699999809E+01 0. -1.
       -4    1    3    3    0  502 -0.29315364659E+03  0.61721650043E+02 -0.10814324061E+03  0.31850462474E+03  0.12699999809E+01 0.  1.
</event>
<event>
 5   0  0.3601475E-02  0.7008932E+03  0.7818609E-02  0.9715706E-01
        1   -1    0    0  501    0  0.00000000000E+00  0.00000000000E+00  0.10914827109E+04  0.10914827110E+04  0.50400001928E-02 0.  1.
       -1   -1    0    0    0  501  0.00000000000E+00  0.00000000000E+00 -0.11251926220E+03  0.11251926231E+03  0.50400001928E-02 0. -1.
    10030    2    1    2    0    0  0.00000000000E+00  0.00000000000E+00  0.97896344874E+03  0.12040019733E+04  0.70089322841E+03 0.  0.
        5    1    3    3  502    0 -0.16033599271E+03 -0.25230661008E+03  0.80353815188E+03  0.85735751445E+03  0.46999998093E+01 0.  1.
       -5    1    3    3    0  502  0.16033599271E+03  0.25230661008E+03  0.17542529686E+03  0.34664445881E+03  0.46999998093E+01 0. -1.
</event>
<event>
 5   0  0.5899787E-02  0.7142802E+03  0.7818609E-02  0.9693118E-01
        2   -1    0    0  501    0  0.00000000000E+00  0.00000000000E+00  0.53954599677E+03  0.53954599677E+03  0.25500000920E-02 0.  1.
       -2   -1    0    0    0  501  0.00000000000E+00  0.00000000000E+00 -0.23640069414E+03  0.23640069415E+03  0.25500000920E-02 0. -1.
    10030    2    1    2    0    0  0.00000000000E+00  0.00000000000E+00  0.30314530263E+03  0.77594669092E+03  0.71428019197E+03 0.  0.
        2    1    3    3  502    0  0.16475548207E+03 -0.31685707835E+03  0.15429308353E+03  0.38903615848E+03  0.25500000920E-02 0. -1.
       -2    1    3    3    0  502 -0.16475548207E+03  0.31685707835E+03  0.14885221910E+03  0.38691053244E+03  0.25500000920E-02 0.  1.
</event>
<event>
 5   0  0.5899787E-02  0.6438246E+03  0.7818609E-02  0.9818436E-01
       -2   -1    0    0    0  501  0.00000000000E+00  0.00000000000E+00  0.79988173559E+02  0.79988173600E+02  0.25500000920E-02 0. -1.
        2   -1    0    0  501    0  0.00000000000E+00  0.00000000000E+00 -0.12955357449E+04  0.12955357449E+04  0.25500000920E-02 0.  1.
    10030    2    1    2    0    0  0.00000000000E+00  0.00000000000E+00 -0.12155475714E+04  0.13755239185E+04  0.64382462844E+03 0.  0.
        2    1    3    3  502    0 -0.72600208263E+02  0.29475036356E+03 -0.83667707830E+03  0.89004331379E+03  0.25500000920E-02 0.  1.
       -2    1    3    3    0  502  0.72600208263E+02 -0.29475036356E+03 -0.37887049307E+03  0.48548060474E+03  0.25500000920E-02 0. -1.
</event>
<event>
 5   0  0.3749730E-02  0.7135369E+03  0.7818609E-02  0.9694358E-01
        1   -1    0    0  501    0  0.00000000000E+00  0.00000000000E+00  0.10374620664E+04  0.10374620664E+04  0.50400001928E-02 0. -1.
       -1   -1    0    0    0  501  0.00000000000E+00  0.00000000000E+00 -0.12268760222E+03  0.12268760232E+03  0.50400001928E-02 0.  1.
    10030    2    1    2    0    0  0.00000000000E+00  0.00000000000E+00  0.91477446420E+03  0.11601496688E+04  0.71353691815E+03 0.  0.
        4    1    3    3  502    0  0.99156107305E+02 -0.14908191721E+03  0.95912008101E+03  0.97568965063E+03  0.12699999809E+01 0. -1.
       -4    1    3    3    0  502 -0.99156107305E+02  0.14908191721E+03 -0.44345616809E+02  0.18446001812E+03  0.12699999809E+01 0.  1.
</event>
<event>
 5   0  0.6248886E-02  0.7052297E+03  0.7818609E-02  0.9708330E-01
        2   -1    0    0  501    0  0.00000000000E+00  0.00000000000E+00  0.16781406157E+04  0.16781406157E+04  0.25500000920E-02 0. -1.
       -2   -1    0    0    0  501  0.00000000000E+00  0.00000000000E+00 -0.74092250919E+02  0.74092250963E+02  0.25500000920E-02 0.  1.
    10030    2    1    2    0    0  0.00000000000E+00  0.00000000000E+00  0.16040483648E+04  0.17522328666E+04  0.70522965228E+03 0.  0.
        3    1    3    3  502    0 -0.34793691980E+03  0.52810241658E+02  0.74712664491E+03  0.82586152321E+03  0.10100000352E+00 0.  1.
       -3    1    3    3    0  502  0.34793691980E+03 -0.52810241658E+02  0.85692171985E+03  0.92637134344E+03  0.10100000352E+00 0. -1.
</event>
<event>
 5   0  0.6248886E-02  0.7149080E+03  0.7818609E-02  0.9692072E-01
        2   -1    0    0  501    0  0.00000000000E+00  0.00000000000E+00  0.22698733715E+04  0.22698733715E+04  0.25500000920E-02 0. -1.
       -2   -1    0    0    0  501  0.00000000000E+00  0.00000000000E+00 -0.56290958250E+02  0.56290958308E+02  0.25500000920E-02 0.  1.
    10030    2    1    2    0    0  0.00000000000E+00  0.00000000000E+00  0.22135824132E+04  0.23261643298E+04  0.71490795843E+03 0.  0.
        3    1    3    3  502    0  0.82239521838E+02 -0.34735947817E+03  0.11677849931E+04  0.12211239684E+04  0.10100000352E+00 0. -1.
       -3    1    3    3    0  502 -0.82239521838E+02  0.34735947817E+03  0.10457974202E+04  0.11050403614E+04  0.10100000352E+00 0.  1.
</event>
<event>
 5   0  0.6167756E-02  0.6924539E+03  0.7818609E-02  0.9730225E-01
       -2   -1    0    0    0  501  0.00000000000E+00  0.00000000000E+00  0.16388848258E+04  0.16388848258E+04  0.25500000920E-02 0. -1.
        2   -1    0    0  501    0  0.00000000000E+00  0.00000000000E+00 -0.73143092908E+02  0.73143092952E+02  0.25500000920E-02 0.  1.
    10030    2    1    2    0    0  0.00000000000E+00  0.00000000000E+00  0.15657417329E+04  0.17120279188E+04  0.69245391217E+03 0.  0.
        4    1    3    3  502    0 -0.31972891289E+03  0.76868094545E+02  0.10507160955E+04  0.11009728462E+04  0.12699999809E+01 0. -1.
       -4    1    3    3    0  502  0.31972891289E+03 -0.76868094545E+02  0.51502563739E+03  0.61105507262E+03  0.12699999809E+01 0.  1.
</event>
<event>
 5   0  0.3749730E-02  0.6914646E+03  0.7818609E-02  0.9731941E-01
       -1   -1    0    0    0  501  0.00000000000E+00  0.00000000000E+00  0.17207126725E+03  0.17207126733E+03  0.50400001928E-02 0. -1.
        1   -1    0    0  501    0  0.00000000000E+00  0.00000000000E+00 -0.69465874450E+03  0.69465874452E+03  0.50400001928E-02 0.  1.
    10030    2    1    2    0    0  0.00000000000E+00  0.00000000000E+00 -0.52258747725E+03  0.86673001185E+03  0.69146456312E+03 0.  0.
        4    1    3    3  502    0  0.95974701241E+02 -0.32376399325E+03 -0.35421070648E+03  0.48938850016E+03  0.12699999809E+01 0.  1.
       -4    1    3    3    0  502 -0.95974701241E+02  0.32376399325E+03 -0.16837677077E+03  0.37734151168E+03  0.12699999809E+01 0. -1.
</event>
<event>
 5   0  0.3749730E-02  0.6859578E+03  0.7818609E-02  0.9741552E-01
       -1   -1    0    0    0  501  0.00000000000E+00  0.00000000000E+00  0.21505304233E+03  0.21505304239E+03  0.50400001928E-02 0.  1.
        1   -1    0    0  501    0  0.00000000000E+00  0.00000000000E+00 -0.54700239081E+03  0.54700239084E+03  0.50400001928E-02 0. -1.
    10030    2    1    2    0    0  0.00000000000E+00  0.00000000000E+00 -0.33194934848E+03  0.76205543322E+03  0.68595780726E+03 0.  0.
        4    1    3    3  502    0  0.26758047786E+03 -0.18870427271E+03 -0.27940067692E+03  0.43043578595E+03  0.12699999809E+01 0. -1.
       -4    1    3    3    0  502 -0.26758047786E+03  0.18870427271E+03 -0.52548671569E+02  0.33161964727E+03  0.12699999809E+01 0.  1.
</event>
<event>
 5   0  0.5987810E-02  0.6909974E+03  0.7818609E-02  0.9732753E-01
        2   -1    0    0  501    0  0.00000000000E+00  0.00000000000E+00  0.26968542969E+03  0.26968542970E+03  0.25500000920E-02 0.  1.
       -2   -1    0    0    0  501  0.00000000000E+00  0.00000000000E+00 -0.44262436884E+03  0.44262436885E+03  0.25500000920E-02 0. -1.
    10030    2    1    2    0    0  0.00000000000E+00  0.00000000000E+00 -0.17293893915E+03  0.71230979855E+03  0.69099737513E+03 0.  0.
        5    1    3    3  502    0  0.13917076496E+02 -0.30319014617E+03 -0.25657200468E+03  0.39745343543E+03  0.46999998093E+01 0. -1.
       -5    1    3    3    0  502 -0.13917076496E+02  0.30319014617E+03  0.83633065525E+02  0.31485636312E+03  0.46999998093E+01 0.  1.
</event>
<event>
 5   0  0.3749730E-02  0.7046455E+03  0.7818609E-02  0.9709321E-01
       -1   -1    0    0    0  501  0.00000000000E+00  0.00000000000E+00  0.16665159348E+03  0.16665159356E+03  0.50400001928E-02 0.  1.
        1   -1    0    0  501    0  0.00000000000E+00  0.00000000000E+00 -0.74485535526E+03  0.74485535528E+03  0.50400001928E-02 0. -1.
    10030    2    1    2    0    0  0.00000000000E+00  0.00000000000E+00 -0.57820376178E+03  0.91150694884E+03  0.70464553333E+03 0.  0.
        4    1    3    3  502    0 -0.75329552436E+02  0.60893072740E+02  0.14908598815E+03  0.17779412966E+03  0.12699999809E+01 0.  1.
       -4    1    3    3    0  502  0.75329552436E+02 -0.60893072740E+02 -0.72728974993E+03  0.73371281918E+03  0.12699999809E+01 0. -1.
</event>
<event>
 5   0  0.6248886E-02  0.6906653E+03  0.7818609E-02  0.9733330E-01
       -2   -1    0    0    0  501  0.00000000000E+00  0.00000000000E+00  0.11018988414E+04  0.11018988414E+04  0.25500000920E-02 0. -1.
        2   -1    0    0  501    0  0.00000000000E+00  0.00000000000E+00 -0.10822649157E+03  0.10822649160E+03  0.25500000920E-02 0.  1.
    10030    2    1    2    0    0  0.00000000000E+00  0.00000000000E+00  0.99367234983E+03  0.12101253330E+04  0.69066531892E+03 0.  0.
        3    1    3    3  502    0  0.33603306396E+03  0.70983113144E+02  0.43371591556E+03  0.55323261657E+03  0.10100000352E+00 0.  1.
       -3    1    3    3    0  502 -0.33603306396E+03 -0.70983113144E+02  0.55995643428E+03  0.65689271644E+03  0.10100000352E+00 0. -1.
</event>
<event>
 5   0  0.6248886E-02  0.6962974E+03  0.7818609E-02  0.9723585E-01
        2   -1    0    0  501    0  0.00000000000E+00  0.00000000000E+00  0.11476464935E+04  0.11476464935E+04  0.25500000920E-02 0.  1.
       -2   -1    0    0    0  501  0.00000000000E+00  0.00000000000E+00 -0.10561398269E+03  0.10561398272E+03  0.25500000920E-02 0. -1.
    10030    2    1    2    0    0  0.00000000000E+00  0.00000000000E+00  0.10420325108E+04  0.12532604762E+04  0.69629739888E+03 0.  0.
        3    1    3    3  502    0 -0.15706962735E+03  0.14832541353E+03  0.29621829725E+02  0.21805677960E+03  0.10100000352E+00 0. -1.
       -3    1    3    3    0  502  0.15706962735E+03 -0.14832541353E+03  0.10124106810E+04  0.10352036966E+04  0.10100000352E+00 0.  1.
</event>
<event>
 5   0  0.3749730E-02  0.5632037E+03  0.7818609E-02  0.9984832E-01
        1   -1    0    0  501    0  0.00000000000E+00  0.00000000000E+00  0.20325921820E+03  0.20325921827E+03  0.50400001928E-02 0.  1.
       -1   -1    0    0    0  501  0.00000000000E+00  0.00000000000E+00 -0.39014018668E+03  0.39014018671E+03  0.50400001928E-02 0. -1.
    10030    2    1    2    0    0  0.00000000000E+00  0.00000000000E+00 -0.18688096847E+03  0.59339940498E+03  0.56320365539E+03 0.  0.
        4    1    3    3  502    0  0.25031440393E+03 -0.94121169804E+02 -0.18638503560E+03  0.32597099536E+03  0.12699999809E+01 0.  1.
       -4    1    3    3    0  502 -0.25031440393E+03  0.94121169804E+02 -0.49593287847E+00  0.26742840962E+03  0.12699999809E+01 0. -1.
</event>
<event>
 5   0  0.3717372E-02  0.6967877E+03  0.7818609E-02  0.9722741E-01
       -1   -1    0    0    0  501  0.00000000000E+00  0.00000000000E+00  0.90492819891E+02  0.90492820032E+02  0.50400001928E-02 0. -1.
        1   -1    0    0  501    0  0.00000000000E+00  0.00000000000E+00 -0.13413027599E+04  0.13413027599E+04  0.50400001928E-02 0.  1.
    10030    2    1    2    0    0  0.00000000000E+00  0.00000000000E+00 -0.12508099400E+04  0.14317955799E+04  0.69678768410E+03 0.  0.
        3    1    3    3  502    0 -0.21494561340E+03 -0.14925816670E+03 -0.10980148679E+04  0.11287675923E+04  0.10100000352E+00 0.  1.
       -3    1    3    3    0  502  0.21494561340E+03  0.14925816670E+03 -0.15279507210E+03  0.30302798766E+03  0.10100000352E+00 0. -1.
</event>
<event>
 5   0  0.3749730E-02  0.6990695E+03  0.7818609E-02  0.9718825E-01
       -1   -1    0    0    0  501  0.00000000000E+00  0.00000000000E+00  0.41965787567E+03  0.41965787570E+03  0.50400001928E-02 0. -1.
        1   -1    0    0  501    0  0.00000000000E+00  0.00000000000E+00 -0.29112895391E+03  0.29112895396E+03  0.50400001928E-02 0.  1.
    10030    2    1    2    0    0  0.00000000000E+00  0.00000000000E+00  0.12852892176E+03  0.71078682966E+03  0.69906954839E+03 0.  0.
        4    1    3    3  502    0 -0.24845560927E+03  0.14677249559E+03 -0.13627372548E+03  0.31913084526E+03  0.12699999809E+01 0.  1.
       -4    1    3    3    0  502  0.24845560927E+03 -0.14677249559E+03  0.26480264723E+03  0.39165598441E+03  0.12699999809E+01 0. -1.
</event>
<event>
 5   0  0.5987810E-02  0.4448483E+03  0.7818609E-02  0.1029270E+00
        2   -1    0    0  501    0  0.00000000000E+00  0.00000000000E+00  0.15358410940E+04  0.15358410940E+04  0.25500000920E-02 0.  1.
       -2   -1    0    0    0  501  0.00000000000E+00  0.00000000000E+00 -0.32211988035E+02  0.32211988136E+02  0.25500000920E-02 0. -1.
    10030    2    1    2    0    0  0.00000000000E+00  0.00000000000E+00  0.15036291060E+04  0.15680530822E+04  0.44484826638E+03 0.  0.
        5    1    3    3  502    0  0.80751639955E+02  0.73495310790E+02  0.68962426559E+02  0.12922961866E+03  0.46999998093E+01 0. -1.
       -5    1    3    3    0  502 -0.80751639955E+02 -0.73495310790E+02  0.14346666795E+04  0.14388234635E+04  0.46999998093E+01 0.  1.
</event>
<event>
 5   0  0.3749730E-02  0.6772442E+03  0.7818609E-02  0.9756959E-01
        1   -1    0    0  501    0  0.00000000000E+00  0.00000000000E+00  0.36253984369E+03  0.36253984372E+03  0.50400001928E-02 0.  1.
       -1   -1    0    0    0  501  0.00000000000E+00  0.00000000000E+00 -0.31628223172E+03  0.31628223176E+03  0.50400001928E-02 0. -1.
    10030    2    1    2    0    0  0.00000000000E+00  0.00000000000E+00  0.46257611969E+02  0.67882207548E+03  0.67724415353E+03 0.  0.
        4    1    3    3  502    0  0.61349096327E+02  0.25268253046E+03 -0.19428929562E+03  0.32459531129E+03  0.12699999809E+01 0. -1.
       -4    1    3    3    0  502 -0.61349096327E+02 -0.25268253046E+03  0.24054690759E+03  0.35422676419E+03  0.12699999809E+01 0.  1.
</event>
<event>
 5   0  0.3601475E-02  0.6963077E+03  0.7818609E-02  0.9723567E-01
        1   -1    0    0  501    0  0.00000000000E+00  0.00000000000E+00  0.64228526586E+03  0.64228526588E+03  0.50400001928E-02 0.  1.
       -1   -1    0    0    0  501  0.00000000000E+00  0.00000000000E+00 -0.18871848166E+03  0.18871848173E+03  0.50400001928E-02 0. -1.
    10030    2    1    2    0    0  0.00000000000E+00  0.00000000000E+00  0.45356678420E+03  0.83100374761E+03  0.69630769119E+03 0.  0.
        5    1    3    3  502    0 -0.25247100652E+03 -0.15282241217E+03  0.44714328934E+03  0.53577561534E+03  0.46999998093E+01 0.  1.
       -5    1    3    3    0  502  0.25247100652E+03  0.15282241217E+03  0.64234948585E+01  0.29522813226E+03  0.46999998093E+01 0. -1.
</event>
<event>
 5   0  0.3755872E-02  0.4469171E+03  0.7818609E-02  0.1028645E+00
        1   -1    0    0  501    0  0.00000000000E+00  0.00000000000E+00  0.41561821774E+03  0.41561821777E+03  0.50400001928E-02 0.  1.
       -1   -1    0    0    0  501  0.00000000000E+00  0.00000000000E+00 -0.12014322484E+03  0.12014322494E+03  0.50400001928E-02 0. -1.
    10030    2    1    2    0    0  0.00000000000E+00  0.00000000000E+00  0.29547499290E+03  0.53576144271E+03  0.44691705278E+03 0.  0.
        2    1    3    3  502    0  0.17928310530E+02  0.21198006623E+03  0.65755941318E+02  0.22266750239E+03  0.25500000920E-02 0. -1.
       -2    1    3    3    0  502 -0.17928310530E+02 -0.21198006623E+03  0.22971905158E+03  0.31309394032E+03  0.25500000920E-02 0.  1.
</event>
<event>
 5   0  0.3601475E-02  0.7000682E+03  0.7818609E-02  0.9717116E-01
        1   -1    0    0  501    0  0.00000000000E+00  0.00000000000E+00  0.52420570963E+03  0.52420570966E+03  0.50400001928E-02 0. -1.
       -1   -1    0    0    0  501  0.00000000000E+00  0.00000000000E+00 -0.23373239145E+03  0.23373239150E+03  0.50400001928E-02 0.  1.
    10030    2    1    2    0    0  0.00000000000E+00  0.00000000000E+00  0.29047331818E+03  0.75793810116E+03  0.70006815141E+03 0.  0.
        5    1    3    3  502    0  0.24866205151E+02 -0.21461622025E+03  0.44335919031E+03  0.49322197009E+03  0.46999998093E+01 0. -1.
       -5    1    3    3    0  502 -0.24866205151E+02  0.21461622025E+03 -0.15288587213E+03  0.26471613107E+03  0.46999998093E+01 0.  1.
</event>
<event>
 5   0  0.5899787E-02  0.6861401E+03  0.7818609E-02  0.9741233E-01
       -2   -1    0    0    0  501  0.00000000000E+00  0.00000000000E+00  0.99262590870E+02  0.99262590903E+02  0.25500000920E-02 0.  1.
        2   -1    0    0  501    0  0.00000000000E+00  0.00000000000E+00 -0.11857140175E+04  0.11857140175E+04  0.25500000920E-02 0. -1.
    10030    2    1    2    0    0  0.00000000000E+00  0.00000000000E+00 -0.10864514266E+04  0.12849766084E+04  0.68614005983E+03 0.  0.
        2    1    3    3  502    0 -0.16187452933E+02 -0.15203120374E+03 -0.11183846239E+04  0.11287868211E+04  0.25500000920E-02 0. -1.
       -2    1    3    3    0  502  0.16187452933E+02  0.15203120374E+03  0.31933197310E+02  0.15618978725E+03  0.25500000920E-02 0.  1.
</event>
<event>
 5   0  0.6167756E-02  0.7019335E+03  0.7818609E-02  0.9713931E-01
        2   -1    0    0  501    0  0.00000000000E+00  0.00000000000E+00  0.11687272690E+04  0.11687272690E+04  0.25500000920E-02 0. -1.
       -2   -1    0    0    0  501  0.00000000000E+00  0.00000000000E+00 -0.10539469650E+03  0.10539469653E+03  0.25500000920E-02 0.  1.
    10030    2    1    2    0    0  0.00000000000E+00  0.00000000000E+00  0.10633325725E+04  0.12741219655E+04  0.70193348924E+03 0.  0.
        4    1    3    3  502    0  0.43547199528E+02  0.30806539417E+03  0.23687506615E+03  0.39103971095E+03  0.12699999809E+01 0.  1.
       -4    1    3    3    0  502 -0.43547199528E+02 -0.30806539417E+03  0.82645750630E+03  0.88308225455E+03  0.12699999809E+01 0. -1.
</event>
<event>
 5   0  0.6248886E-02  0.6986499E+03  0.7818609E-02  0.9719544E-01
        2   -1    0    0  501    0  0.00000000000E+00  0.00000000000E+00  0.10889334117E+04  0.10889334117E+04  0.25500000920E-02 0. -1.
       -2   -1    0    0    0  501  0.00000000000E+00  0.00000000000E+00 -0.11206186154E+03  0.11206186157E+03  0.25500000920E-02 0.  1.
    10030    2    1    2    0    0  0.00000000000E+00  0.00000000000E+00  0.97687155018E+03  0.12009952733E+04  0.69864985575E+03 0.  0.
        3    1    3    3  502    0  0.77000235495E+02  0.92724387405E+02 -0.75186399173E+02  0.14205580983E+03  0.10100000352E+00 0.  1.
       -3    1    3    3    0  502 -0.77000235495E+02 -0.92724387405E+02  0.10520579494E+04  0.10589394635E+04  0.10100000352E+00 0. -1.
</event>
<event>
 5   0  0.3749730E-02  0.7027737E+03  0.7818609E-02  0.9712500E-01
        1   -1    0    0  501    0  0.00000000000E+00  0.00000000000E+00  0.97864187896E+03  0.97864187898E+03  0.50400001928E-02 0.  1.
       -1   -1    0    0    0  501  0.00000000000E+00  0.00000000000E+00 -0.12616743443E+03  0.12616743453E+03  0.50400001928E-02 0. -1.
    10030    2    1    2    0    0  0.00000000000E+00  0.00000000000E+00  0.85247444453E+03  0.11048093135E+04  0.70277374782E+03 0.  0.
        4    1    3    3  502    0  0.33442848706E+03 -0.69135211666E+02  0.55633994586E+03  0.65279233965E+03  0.12699999809E+01 0.  1.
       -4    1    3    3    0  502 -0.33442848706E+03  0.69135211666E+02  0.29613449867E+03  0.45201697385E+03  0.12699999809E+01 0. -1.
</event>
<event>
 5   0  0.3717372E-02  0.6966761E+03  0.7818609E-02  0.9722933E-01
       -1   -1    0    0    0  501  0.00000000000E+00  0.00000000000E+00  0.47475382503E+03  0.47475382506E+03  0.50400001928E-02 0.  1.
        1   -1    0    0  501    0  0.00000000000E+00  0.00000000000E+00 -0.25558385765E+03  0.25558385770E+03  0.50400001928E-02 0. -1.
    10030    2    1    2    0    0  0.00000000000E+00  0.00000000000E+00  0.21916996738E+03  0.73033768276E+03  0.69667614876E+03 0.  0.
        3    1    3    3  502    0 -0.23704372037E+03 -0.25249697330E+03  0.70431250880E+02  0.35341904051E+03  0.10100000352E+00 0. -1.
       -3    1    3    3    0  502  0.23704372037E+03  0.25249697330E+03  0.14873871650E+03  0.37691864225E+03  0.10100000352E+00 0.  1.
</event>
<event>
 5   0  0.3601475E-02  0.7063953E+03  0.7818609E-02  0.9706357E-01
        1   -1    0    0  501    0  0.00000000000E+00  0.00000000000E+00  0.36820214286E+03  0.36820214290E+03  0.50400001928E-02 0.  1.
       -1   -1    0    0    0  501  0.00000000000E+00  0.00000000000E+00 -0.33880460313E+03  0.33880460317E+03  0.50400001928E-02 0. -1.
    10030    2    1    2    0    0  0.00000000000E+00  0.00000000000E+00  0.29397539733E+02  0.70700674606E+03  0.70639530267E+03 0.  0.
        5    1    3    3  502    0  0.90446069095E+02  0.12295483290E+03  0.33345223783E+03  0.36675723205E+03  0.46999998093E+01 0.  1.
       -5    1    3    3    0  502 -0.90446069095E+02 -0.12295483290E+03 -0.30405469810E+03  0.34024951401E+03  0.46999998093E+01 0. -1.
</event>
<event>
 5   0  0.3601475E-02  0.7302538E+03  0.7818609E-02  0.9666849E-01
        1   -1    0    0  501    0  0.00000000000E+00  0.00000000000E+00  0.66623421856E+03  0.66623421858E+03  0.50400001928E-02 0.  1.
       -1   -1    0    0    0  501  0.00000000000E+00  0.00000000000E+00 -0.20010628440E+03  0.20010628446E+03  0.50400001928E-02 0. -1.
    10030    2    1    2    0    0  0.00000000000E+00  0.00000000000E+00  0.46612793416E+03  0.86634050305E+03  0.73025380260E+03 0.  0.
        5    1    3    3  502    0 -0.34880069654E+03 -0.93231708390E+02  0.29740651228E+03  0.46778926976E+03  0.46999998093E+01 0.  1.
       -5    1    3    3    0  502  0.34880069654E+03  0.93231708390E+02  0.16872142189E+03  0.39855123329E+03  0.46999998093E+01 0. -1.
</event>
<event>
 5   0  0.5899787E-02  0.6514850E+03  0.7818609E-02  0.9803997E-01
       -2   -1    0    0    0  501  0.00000000000E+00  0.00000000000E+00  0.18284500568E+03  0.18284500569E+03  0.25500000920E-02 0.  1.
        2   -1    0    0  501    0  0.00000000000E+00  0.00000000000E+00 -0.58031755393E+03  0.58031755394E+03  0.25500000920E-02 0. -1.
    10030    2    1    2    0    0  0.00000000000E+00  0.00000000000E+00 -0.39747254826E+03  0.76316255963E+03  0.65148496974E+03 0.  0.
        2    1    3    3  502    0  0.27854210754E+03 -0.66216500426E+01 -0.10520175328E+01  0.27862278922E+03  0.25500000920E-02 0.  1.
       -2    1    3    3    0  502 -0.27854210754E+03  0.66216500426E+01 -0.39642053072E+03  0.48453977041E+03  0.25500000920E-02 0. -1.
</event>
<event>
 5   0  0.5899787E-02  0.7042536E+03  0.7818609E-02  0.9709986E-01
        2   -1    0    0  501    0  0.00000000000E+00  0.00000000000E+00  0.64218582243E+03  0.64218582244E+03  0.25500000920E-02 0.  1.
       -2   -1    0    0    0  501  0.00000000000E+00  0.00000000000E+00 -0.19308006135E+03  0.19308006137E+03  0.25500000920E-02 0. -1.
    10030    2    1    2    0    0  0.00000000000E+00  0.00000000000E+00  0.44910576108E+03  0.83526588381E+03  0.70425358502E+03 0.  0.
        2    1    3    3  502    0  0.28856893342E+03 -0.16923513292E+03  0.35491219206E+03  0.48772453663E+03  0.25500000920E-02 0.  1.
       -2    1    3    3    0  502 -0.28856893342E+03  0.16923513292E+03  0.94193569018E+02  0.34754134718E+03  0.25500000920E-02 0. -1.
</event>
<event>
 5   0  0.3439015E-02  0.6936095E+03  0.7818609E-02  0.9728224E-01
       -1   -1    0    0    0  501  0.00000000000E+00  0.00000000000E+00  0.32083814439E+03  0.32083814442E+03  0.50400001928E-02 0. -1.
        1   -1    0    0  501    0  0.00000000000E+00  0.00000000000E+00 -0.37487293363E+03  0.37487293367E+03  0.50400001928E-02 0.  1.
    10030    2    1    2    0    0  0.00000000000E+00  0.00000000000E+00 -0.54034789248E+02  0.69571107809E+03  0.69360950522E+03 0.  0.
        1    1    3    3  502    0  0.28485928374E+03 -0.39601792219E+02  0.16737493286E+03  0.33275739158E+03  0.50400001928E-02 0. -1.
       -1    1    3    3    0  502 -0.28485928374E+03  0.39601792219E+02 -0.22140972211E+03  0.36295368651E+03  0.50400001928E-02 0.  1.
</event>
<event>
 5   0  0.3749730E-02  0.7169026E+03  0.7818609E-02  0.9688755E-01
       -1   -1    0    0    0  501  0.00000000000E+00  0.00000000000E+00  0.20160999817E+03  0.20160999824E+03  0.50400001928E-02 0. -1.
        1   -1    0    0  501    0  0.00000000000E+00  0.00000000000E+00 -0.63730630977E+03  0.63730630979E+03  0.50400001928E-02 0.  1.
    10030    2    1    2    0    0  0.00000000000E+00  0.00000000000E+00 -0.43569631160E+03  0.83891630803E+03  0.71690257074E+03 0.  0.
        4    1    3    3  502    0  0.34527093473E+03  0.63278159522E+02 -0.30279475066E+03  0.46357568721E+03  0.12699999809E+01 0.  1.
       -4    1    3    3    0  502 -0.34527093473E+03 -0.63278159522E+02 -0.13290156094E+03  0.37534062082E+03  0.12699999809E+01 0. -1.
</event>
<event>
 5   0  0.6131198E-02  0.6860986E+03  0.7818609E-02  0.9741305E-01
       -2   -1    0    0    0  501  0.00000000000E+00  0.00000000000E+00  0.11252906139E+03  0.11252906142E+03  0.25500000920E-02 0.  1.
        2   -1    0    0  501    0  0.00000000000E+00  0.00000000000E+00 -0.10457994590E+04  0.10457994590E+04  0.25500000920E-02 0. -1.
    10030    2    1    2    0    0  0.00000000000E+00  0.00000000000E+00 -0.93327039759E+03  0.11583285204E+04  0.68609862713E+03 0.  0.
        1    1    3    3  502    0 -0.26074872622E+03  0.81437541398E+02 -0.81697263679E+03  0.86143267912E+03  0.50400001928E-02 0. -1.
       -1    1    3    3    0  502  0.26074872622E+03 -0.81437541398E+02 -0.11629776080E+03  0.29689584127E+03  0.50400001928E-02 0.  1.
</event>
<event>
 5   0  0.5987810E-02  0.6996210E+03  0.7818609E-02  0.9717880E-01
        2   -1    0    0  501    0  0.00000000000E+00  0.00000000000E+00  0.87622660397E+03  0.87622660398E+03  0.25500000920E-02 0. -1.
       -2   -1    0    0    0  501  0.00000000000E+00  0.00000000000E+00 -0.13965268994E+03  0.13965268997E+03  0.25500000920E-02 0.  1.
    10030    2    1    2    0    0  0.00000000000E+00  0.00000000000E+00  0.73657391403E+03  0.10158792939E+04  0.69962104673E+03 0.  0.
        5    1    3    3  502    0  0.21303105943E+03  0.11994826778E+03  0.50572314347E+01  0.24457613296E+03  0.46999998093E+01 0.  1.
       -5    1    3    3    0  502 -0.21303105943E+03 -0.11994826778E+03  0.73151668259E+03  0.77130316098E+03  0.46999998093E+01 0. -1.
</event>
<event>
 5   0  0.3755872E-02  0.7031549E+03  0.7818609E-02  0.9711852E-01
        1   -1    0    0  501    0  0.00000000000E+00  0.00000000000E+00  0.17033950519E+03  0.17033950526E+03  0.50400001928E-02 0. -1.
       -1   -1    0    0    0  501  0.00000000000E+00  0.00000000000E+00 -0.72564899627E+03  0.72564899628E+03  0.50400001928E-02 0.  1.
    10030    2    1    2    0    0  0.00000000000E+00  0.00000000000E+00 -0.55530949108E+03  0.89598850155E+03  0.70315486489E+03 0.  0.
        2    1    3    3  502    0  0.78805882826E+02  0.16352483203E+03 -0.66131747719E+03  0.68577805703E+03  0.25500000920E-02 0.  1.
       -2    1    3    3    0  502 -0.78805882826E+02 -0.16352483203E+03  0.10600798611E+03  0.21021044452E+03  0.25500000920E-02 0. -1.
</event>
<event>
 5   0  0.3755872E-02  0.6937323E+03  0.7818609E-02  0.9728011E-01
       -1   -1    0    0    0  501  0.00000000000E+00  0.00000000000E+00  0.52122308797E+02  0.52122309040E+02  0.50400001928E-02 0.  1.
        1   -1    0    0  501    0  0.00000000000E+00  0.00000000000E+00 -0.23083422466E+04  0.23083422466E+04  0.50400001928E-02 0. -1.
    10030    2    1    2    0    0  0.00000000000E+00  0.00000000000E+00 -0.22562199378E+04  0.23604645556E+04  0.69373230480E+03 0.  0.
        2    1    3    3  502    0  0.24502112903E+03 -0.16016342674E+03 -0.49493739379E+03  0.57502234802E+03  0.25500000920E-02 0.  1.
       -2    1    3    3    0  502 -0.24502112903E+03  0.16016342674E+03 -0.17612825440E+04  0.17854422076E+04  0.25500000920E-02 0. -1.
</event>
<event>
 5   0  0.3717372E-02  0.6034707E+03  0.7818609E-02  0.9898232E-01
        1   -1    0    0  501    0  0.00000000000E+00  0.00000000000E+00  0.17310332372E+03  0.17310332380E+03  0.50400001928E-02 0.  1.
       -1   -1    0    0    0  501  0.00000000000E+00  0.00000000000E+00 -0.52595297108E+03  0.52595297111E+03  0.50400001928E-02 0. -1.
    10030    2    1    2    0    0  0.00000000000E+00  0.00000000000E+00 -0.35284964736E+03  0.69905629490E+03  0.60347065364E+03 0.  0.
        3    1    3    3  502    0  0.71396749680E+02  0.26694740938E+03 -0.31680459610E+03  0.42038503488E+03  0.10100000352E+00 0. -1.
       -3    1    3    3    0  502 -0.71396749680E+02 -0.26694740938E+03 -0.36045051261E+02  0.27867126002E+03  0.10100000352E+00 0.  1.
</event>
<event>
 5   0  0.6248886E-02  0.7118344E+03  0.7818609E-02  0.9697205E-01
        2   -1    0    0  501    0  0.00000000000E+00  0.00000000000E+00  0.32765403325E+03  0.32765403326E+03  0.25500000920E-02 0.  1.
       -2   -1    0    0    0  501  0.00000000000E+00  0.00000000000E+00 -0.38661834940E+03  0.38661834941E+03  0.25500000920E-02 0. -1.
    10030    2    1    2    0    0  0.00000000000E+00  0.00000000000E+00 -0.58964316153E+02  0.71427238267E+03  0.71183442321E+03 0.  0.
        3    1    3    3  502    0 -0.39823048169E+02  0.23784384852E+03 -0.29214475842E+03  0.37881940489E+03  0.10100000352E+00 0. -1.
       -3    1    3    3    0  502  0.39823048169E+02 -0.23784384852E+03  0.23318044227E+03  0.33545297778E+03  0.10100000352E+00 0.  1.
</event>
<event>
 5   0  0.3717372E-02  0.6916442E+03  0.7818609E-02  0.9731629E-01
        1   -1    0    0  501    0  0.00000000000E+00  0.00000000000E+00  0.45379825632E+03  0.45379825635E+03  0.50400001928E-02 0. -1.
       -1   -1    0    0    0  501  0.00000000000E+00  0.00000000000E+00 -0.26353761538E+03  0.26353761543E+03  0.50400001928E-02 0.  1.
    10030    2    1    2    0    0  0.00000000000E+00  0.00000000000E+00  0.19026064094E+03  0.71733587178E+03  0.69164415811E+03 0.  0.
        3    1    3    3  502    0  0.56781379455E+02 -0.30754866337E+03 -0.57941286719E+02  0.31806840192E+03  0.10100000352E+00 0.  1.
       -3    1    3    3    0  502 -0.56781379455E+02  0.30754866337E+03  0.24820192766E+03  0.39926746986E+03  0.10100000352E+00 0. -1.
</event>
<event>
 5   0  0.3755872E-02  0.7419252E+03  0.7818609E-02  0.9648104E-01
       -1   -1    0    0    0  501  0.00000000000E+00  0.00000000000E+00  0.26038599237E+03  0.26038599242E+03  0.50400001928E-02 0. -1.
        1   -1    0    0  501    0  0.00000000000E+00  0.00000000000E+00 -0.52849709780E+03  0.52849709782E+03  0.50400001928E-02 0.  1.
    10030    2    1    2    0    0  0.00000000000E+00  0.00000000000E+00 -0.26811110543E+03  0.78888309024E+03  0.74192517494E+03 0.  0.
        2    1    3    3  502    0  0.11501033444E+03  0.21861795680E+03  0.16021336722E+03  0.29443082567E+03  0.25500000920E-02 0. -1.
       -2    1    3    3    0  502 -0.11501033444E+03 -0.21861795680E+03 -0.42832447265E+03  0.49445226457E+03  0.25500000920E-02 0.  1.
</event>
<event>
 5   0  0.6248886E-02  0.7008146E+03  0.7818609E-02  0.9715840E-01
       -2   -1    0    0    0  501  0.00000000000E+00  0.00000000000E+00  0.18201655886E+03  0.18201655888E+03  0.25500000920E-02 0. -1.
        2   -1    0    0  501    0  0.00000000000E+00  0.00000000000E+00 -0.67458297977E+03  0.67458297978E+03  0.25500000920E-02 0.  1.
    10030    2    1    2    0    0  0.00000000000E+00  0.00000000000E+00 -0.49256642092E+03  0.85659953866E+03  0.70081459075E+03 0.  0.
        3    1    3    3  502    0 -0.16268205756E+01  0.14506984431E+03 -0.63614881775E+03  0.65248236359E+03  0.10100000352E+00 0.  1.
       -3    1    3    3    0  502  0.16268205756E+01 -0.14506984431E+03  0.14358239683E+03  0.20411717506E+03  0.10100000352E+00 0. -1.
</event>
<event>
 5   0  0.5987810E-02  0.6986138E+03  0.7818609E-02  0.9719606E-01
       -2   -1    0    0    0  501  0.00000000000E+00  0.00000000000E+00  0.66839580969E+02  0.66839581018E+02  0.25500000920E-02 0.  1.
        2   -1    0    0  501    0  0.00000000000E+00  0.00000000000E+00 -0.18254946142E+04  0.18254946142E+04  0.25500000920E-02 0. -1.
    10030    2    1    2    0    0  0.00000000000E+00  0.00000000000E+00 -0.17586550332E+04  0.18923341952E+04  0.69861375630E+03 0.  0.
        5    1    3    3  502    0  0.20478435835E+03  0.89254089353E+02 -0.15205184820E+03  0.27026797892E+03  0.46999998093E+01 0.  1.
       -5    1    3    3    0  502 -0.20478435835E+03 -0.89254089353E+02 -0.16066031850E+04  0.16220662163E+04  0.46999998093E+01 0. -1.
</event>
<event>
 5   0  0.5987810E-02  0.6873703E+03  0.7818609E-02  0.9739078E-01
        2   -1    0    0  501    0  0.00000000000E+00  0.00000000000E+00  0.96599652845E+03  0.96599652846E+03  0.25500000920E-02 0. -1.
       -2   -1    0    0    0  501  0.00000000000E+00  0.00000000000E+00 -0.12227735391E+03  0.12227735394E+03  0.25500000920E-02 0.  1.
    10030    2    1    2    0    0  0.00000000000E+00  0.00000000000E+00  0.84371917454E+03  0.10882738824E+04  0.68737034967E+03 0.  0.
        5    1    3    3  502    0 -0.13940103328E+03  0.27345717680E+03  0.66655088489E+03  0.73384170485E+03  0.46999998093E+01 0. -1.
       -5    1    3    3    0  502  0.13940103328E+03 -0.27345717680E+03  0.17716828965E+03  0.35443217754E+03  0.46999998093E+01 0.  1.
</event>
<event>
 5   0  0.5987810E-02  0.6992410E+03  0.7818609E-02  0.9718531E-01
       -2   -1    0    0    0  501  0.00000000000E+00  0.00000000000E+00  0.26183797712E+03  0.26183797713E+03  0.25500000920E-02 0. -1.
        2   -1    0    0  501    0  0.00000000000E+00  0.00000000000E+00 -0.46683260330E+03  0.46683260331E+03  0.25500000920E-02 0.  1.
    10030    2    1    2    0    0  0.00000000000E+00  0.00000000000E+00 -0.20499462618E+03  0.72867058044E+03  0.69924103000E+03 0.  0.
        5    1    3    3  502    0  0.47468067031E+02 -0.33691773455E+03 -0.18833575456E+02  0.34079843134E+03  0.46999998093E+01 0.  1.
       -5    1    3    3    0  502 -0.47468067031E+02  0.33691773455E+03 -0.18616105072E+03  0.38787214910E+03  0.46999998093E+01 0. -1.
</event>
<event>
 5   0  0.5899787E-02  0.6095661E+03  0.7818609E-02  0.9885756E-01
       -2   -1    0    0    0  501  0.00000000000E+00  0.00000000000E+00  0.18509590017E+03  0.18509590019E+03  0.25500000920E-02 0. -1.
        2   -1    0    0  501    0  0.00000000000E+00  0.00000000000E+00 -0.50186254942E+03  0.50186254943E+03  0.25500000920E-02 0.  1.
    10030    2    1    2    0    0  0.00000000000E+00  0.00000000000E+00 -0.31676664925E+03  0.68695844961E+03  0.60956607634E+03 0.  0.
        2    1    3    3  502    0 -0.12452645765E+03 -0.15315816262E+03 -0.42009229243E+03  0.46415708073E+03  0.25500000920E-02 0.  1.
       -2    1    3    3    0  502  0.12452645765E+03  0.15315816262E+03  0.10332564318E+03  0.22280136888E+03  0.25500000920E-02 0. -1.
</event>
<event>
 5   0  0.6167756E-02  0.6788294E+03  0.7818609E-02  0.9754138E-01
       -2   -1    0    0    0  501  0.00000000000E+00  0.00000000000E+00  0.78173548296E+03  0.78173548297E+03  0.25500000920E-02 0. -1.
        2   -1    0    0  501    0  0.00000000000E+00  0.00000000000E+00 -0.14736740252E+03  0.14736740255E+03  0.25500000920E-02 0.  1.
    10030    2    1    2    0    0  0.00000000000E+00  0.00000000000E+00  0.63436808044E+03  0.92910288551E+03  0.67882936765E+03 0.  0.
        4    1    3    3  502    0  0.76491467363E+02  0.27991708505E+02 -0.13378899337E+03  0.15663839878E+03  0.12699999809E+01 0.  1.
       -4    1    3    3    0  502 -0.76491467363E+02 -0.27991708505E+02  0.76815707381E+03  0.77246448674E+03  0.12699999809E+01 0. -1.
</event>
<event>
 5   0  0.6248886E-02  0.6968511E+03  0.7818609E-02  0.9722632E-01
        2   -1    0    0  501    0  0.00000000000E+00  0.00000000000E+00  0.82537273315E+03  0.82537273315E+03  0.25500000920E-02 0.  1.
       -2   -1    0    0    0  501  0.00000000000E+00  0.00000000000E+00 -0.14708551131E+03  0.14708551133E+03  0.25500000920E-02 0. -1.
    10030    2    1    2    0    0  0.00000000000E+00  0.00000000000E+00  0.67828722184E+03  0.97245824449E+03  0.69685111894E+03 0.  0.
        3    1    3    3  502    0 -0.79926585625E+02 -0.21103138302E+03  0.70961724430E+03  0.74463356580E+03  0.10100000352E+00 0.  1.
       -3    1    3    3    0  502  0.79926585625E+02  0.21103138302E+03 -0.31330022462E+02  0.22782467869E+03  0.10100000352E+00 0. -1.
</event>
<event>
 5   0  0.5987810E-02  0.7048407E+03  0.7818609E-02  0.9708990E-01
       -2   -1    0    0    0  501  0.00000000000E+00  0.00000000000E+00  0.18289067038E+03  0.18289067040E+03  0.25500000920E-02 0.  1.
        2   -1    0    0  501    0  0.00000000000E+00  0.00000000000E+00 -0.67909475000E+03  0.67909475000E+03  0.25500000920E-02 0. -1.
    10030    2    1    2    0    0  0.00000000000E+00  0.00000000000E+00 -0.49620407961E+03  0.86198542040E+03  0.70484067445E+03 0.  0.
        5    1    3    3  502    0  0.28226652912E+03  0.20834956970E+03 -0.20765087724E+03  0.40770689653E+03  0.46999998093E+01 0. -1.
       -5    1    3    3    0  502 -0.28226652912E+03 -0.20834956970E+03 -0.28855320237E+03  0.45427852387E+03  0.46999998093E+01 0.  1.
</event>
<event>
 5   0  0.6167756E-02  0.6945712E+03  0.7818609E-02  0.9726562E-01
        2   -1    0    0  501    0  0.00000000000E+00  0.00000000000E+00  0.14521828418E+04  0.14521828418E+04  0.25500000920E-02 0. -1.
       -2   -1    0    0    0  501  0.00000000000E+00  0.00000000000E+00 -0.83052400343E+02  0.83052400383E+02  0.25500000920E-02 0.  1.
    10030    2    1    2    0    0  0.00000000000E+00  0.00000000000E+00  0.13691304415E+04  0.15352352422E+04  0.69457115051E+03 0.  0.
        4    1    3    3  502    0 -0.24403083422E+03  0.23588931177E+03  0.84715402382E+03  0.91261512612E+03  0.12699999809E+01 0. -1.
       -4    1    3    3    0  502  0.24403083422E+03 -0.23588931177E+03  0.52197641763E+03  0.62262011606E+03  0.12699999809E+01 0.  1.
</event>
<event>
 5   0  0.3601475E-02  0.6946940E+03  0.7818609E-02  0.9726349E-01
       -1   -1    0    0    0  501  0.00000000000E+00  0.00000000000E+00  0.54832762377E+03  0.54832762379E+03  0.50400001928E-02 0. -1.
        1   -1    0    0  501    0  0.00000000000E+00  0.00000000000E+00 -0.22003256923E+03  0.22003256929E+03  0.50400001928E-02 0.  1.
    10030    2    1    2    0    0  0.00000000000E+00  0.00000000000E+00  0.32829505454E+03  0.76836019308E+03  0.69469399269E+03 0.  0.
        5    1    3    3  502    0 -0.26374384418E+03  0.12161145814E+03  0.37481189735E+03  0.47419005735E+03  0.46999998093E+01 0. -1.
       -5    1    3    3    0  502  0.26374384418E+03 -0.12161145814E+03 -0.46516842813E+02  0.29417013573E+03  0.46999998093E+01 0.  1.
</event>
<event>
 5   0  0.6131198E-02  0.8858257E+03  0.7818609E-02  0.9443476E-01
       -2   -1    0    0    0  501  0.00000000000E+00  0.00000000000E+00  0.12878881706E+03  0.12878881709E+03  0.25500000920E-02 0. -1.
        2   -1    0    0  501    0  0.00000000000E+00  0.00000000000E+00 -0.15232050657E+04  0.15232050657E+04  0.25500000920E-02 0.  1.
    10030    2    1    2    0    0  0.00000000000E+00  0.00000000000E+00 -0.13944162486E+04  0.16519938827E+04  0.88582566811E+03 0.  0.
        1    1    3    3  502    0  0.37126597277E+03  0.23942590657E+03 -0.75643485719E+03  0.87598908696E+03  0.50400001928E-02 0.  1.
       -1    1    3    3    0  502 -0.37126597277E+03 -0.23942590657E+03 -0.63798139140E+03  0.77600479578E+03  0.50400001928E-02 0. -1.
</event>
<event>
 5   0  0.3755872E-02  0.7065109E+03  0.7818609E-02  0.9706162E-01
        1   -1    0    0  501    0  0.00000000000E+00  0.00000000000E+00  0.28913575830E+03  0.28913575834E+03  0.50400001928E-02 0. -1.
       -1   -1    0    0    0  501  0.00000000000E+00  0.00000000000E+00 -0.43159449965E+03  0.43159449968E+03  0.50400001928E-02 0.  1.
    10030    2    1    2    0    0  0.00000000000E+00  0.00000000000E+00 -0.14245874136E+03  0.72073025802E+03  0.70651087171E+03 0.  0.
        2    1    3    3  502    0  0.17449756070E+03 -0.30429512700E+03 -0.28621787868E+02  0.35194336157E+03  0.25500000920E-02 0. -1.
       -2    1    3    3    0  502 -0.17449756070E+03  0.30429512700E+03 -0.11383695349E+03  0.36878689645E+03  0.25500000920E-02 0.  1.
</event>
<event>
 5   0  0.6248886E-02  0.6827212E+03  0.7818609E-02  0.9747246E-01
       -2   -1    0    0    0  501  0.00000000000E+00  0.00000000000E+00  0.14509369150E+03  0.14509369152E+03  0.25500000920E-02 0.  1.
        2   -1    0    0  501    0  0.00000000000E+00  0.00000000000E+00 -0.80311599666E+03  0.80311599667E+03  0.25500000920E-02 0. -1.
    10030    2    1    2    0    0  0.00000000000E+00  0.00000000000E+00 -0.65802230516E+03  0.94820968818E+03  0.68272121592E+03 0.  0.
        3    1    3    3  502    0 -0.15107306480E+03  0.20019154836E+03 -0.65063931299E+03  0.69730284149E+03  0.10100000352E+00 0. -1.
       -3    1    3    3    0  502  0.15107306480E+03 -0.20019154836E+03 -0.73829921790E+01  0.25090684670E+03  0.10100000352E+00 0.  1.
</event>
<event>
 5   0  0.3749730E-02  0.7058063E+03  0.7818609E-02  0.9707354E-01
       -1   -1    0    0    0  501  0.00000000000E+00  0.00000000000E+00  0.22169859090E+03  0.22169859096E+03  0.50400001928E-02 0. -1.
        1   -1    0    0  501    0  0.00000000000E+00  0.00000000000E+00 -0.56175648116E+03  0.56175648118E+03  0.50400001928E-02 0.  1.
    10030    2    1    2    0    0  0.00000000000E+00  0.00000000000E+00 -0.34005789026E+03  0.78345507214E+03  0.70580626332E+03 0.  0.
        4    1    3    3  502    0  0.33084867700E+03  0.90758390801E+02 -0.26183910846E+03  0.43157764561E+03  0.12699999809E+01 0.  1.
       -4    1    3    3    0  502 -0.33084867700E+03 -0.90758390801E+02 -0.78218781796E+02  0.35187742653E+03  0.12699999809E+01 0. -1.
</event>
<event>
 5   0  0.3439015E-02  0.6966301E+03  0.7818609E-02  0.9723013E-01
        1   -1    0    0  501    0  0.00000000000E+00  0.00000000000E+00  0.13328637180E+03  0.13328637190E+03  0.50400001928E-02 0. -1.
       -1   -1    0    0    0  501  0.00000000000E+00  0.00000000000E+00 -0.91024600154E+03  0.91024600155E+03  0.50400001928E-02 0.  1.
    10030    2    1    2    0    0  0.00000000000E+00  0.00000000000E+00 -0.77695962974E+03  0.10435323735E+04  0.69663013730E+03 0.  0.
        1    1    3    3  502    0 -0.66297403109E+02  0.18220543533E+02  0.12302013173E+03  0.14093007735E+03  0.50400001928E-02 0. -1.
       -1    1    3    3    0  502  0.66297403109E+02 -0.18220543533E+02 -0.89997976146E+03  0.90260229611E+03  0.50400001928E-02 0.  1.
</event>
<event>
 5   0  0.3601475E-02  0.6589959E+03  0.7818609E-02  0.9790044E-01
       -1   -1    0    0    0  501  0.00000000000E+00  0.00000000000E+00  0.73163753022E+02  0.73163753195E+02  0.50400001928E-02 0.  1.
        1   -1    0    0  501    0  0.00000000000E+00  0.00000000000E+00 -0.14839162942E+04  0.14839162942E+04  0.50400001928E-02 0. -1.
    10030    2    1    2    0    0  0.00000000000E+00  0.00000000000E+00 -0.14107525411E+04  0.15570800474E+04  0.65899585854E+03 0.  0.
        5    1    3    3  502    0 -0.19279399718E+02  0.77022745278E+02 -0.14608931822E+04  0.14630567926E+04  0.46999998093E+01 0. -1.
       -5    1    3    3    0  502  0.19279399718E+02 -0.77022745278E+02  0.50140641098E+02  0.94023254738E+02  0.46999998093E+01 0.  1.
</event>
<event>
 5   0  0.6167756E-02  0.6838663E+03  0.7818609E-02  0.9745228E-01
        2   -1    0    0  501    0  0.00000000000E+00  0.00000000000E+00  0.65017614509E+03  0.65017614509E+03  0.25500000920E-02 0.  1.
       -2   -1    0    0    0  501  0.00000000000E+00  0.00000000000E+00 -0.17982554774E+03  0.17982554775E+03  0.25500000920E-02 0. -1.
    10030    2    1    2    0    0  0.00000000000E+00  0.00000000000E+00  0.47035059735E+03  0.83000169285E+03  0.68386630689E+03 0.  0.
        4    1    3    3  502    0  0.91158386706E+02 -0.26731112151E+03  0.46911095576E+03  0.54756898092E+03  0.12699999809E+01 0.  1.
       -4    1    3    3    0  502 -0.91158386706E+02  0.26731112151E+03  0.12396415877E+01  0.28243271192E+03  0.12699999809E+01 0. -1.
</event>
<event>
 5   0  0.3755872E-02  0.6623952E+03  0.7818609E-02  0.9783794E-01
       -1   -1    0    0    0  501  0.00000000000E+00  0.00000000000E+00  0.60252965776E+03  0.60252965779E+03  0.50400001928E-02 0.  1.
        1   -1    0    0  501    0  0.00000000000E+00  0.00000000000E+00 -0.18205221591E+03  0.18205221598E+03  0.50400001928E-02 0. -1.
    10030    2    1    2    0    0  0.00000000000E+00  0.00000000000E+00  0.42047744185E+03  0.78458187377E+03  0.66239522760E+03 0.  0.
        2    1    3    3  502    0  0.75883903576E+02 -0.95866684367E+02  0.57482037032E+03  0.58767954375E+03  0.25500000920E-02 0.  1.
       -2    1    3    3    0  502 -0.75883903576E+02  0.95866684367E+02 -0.15434292847E+03  0.19690233002E+03  0.25500000920E-02 0. -1.
</event>
<event>
 5   0  0.5899787E-02  0.6967840E+03  0.7818609E-02  0.9722748E-01
        2   -1    0    0  501    0  0.00000000000E+00  0.00000000000E+00  0.68853206714E+03  0.68853206715E+03  0.25500000920E-02 0. -1.
       -2   -1    0    0    0  501  0.00000000000E+00  0.00000000000E+00 -0.17628371651E+03  0.17628371653E+03  0.25500000920E-02 0.  1.
    10030    2    1    2    0    0  0.00000000000E+00  0.00000000000E+00  0.51224835063E+03  0.86481578368E+03  0.69678401744E+03 0.  0.
        2    1    3    3  502    0  0.30294692419E+03 -0.50592345451E+02  0.52028723236E+02  0.31151791657E+03  0.25500000920E-02 0.  1.
       -2    1    3    3    0  502 -0.30294692419E+03  0.50592345451E+02  0.46021962740E+03  0.55329786711E+03  0.25500000920E-02 0. -1.
</event>
<event>
 5   0  0.2439375E-02  0.6907344E+03  0.7818609E-02  0.9733210E-01
        3   -1    0    0  501    0  0.00000000000E+00  0.00000000000E+00  0.49677261524E+03  0.49677262550E+03  0.10100000352E+00 0. -1.
       -3   -1    0    0    0  501  0.00000000000E+00  0.00000000000E+00 -0.24010681477E+03  0.24010683601E+03  0.10100000352E+00 0.  1.
    10030    2    1    2    0    0  0.00000000000E+00  0.00000000000E+00  0.25666580047E+03  0.73687946151E+03  0.69073439734E+03 0.  0.
        1    1    3    3  502    0 -0.34053524086E+03  0.29280007487E+02  0.75454049691E+02  0.35002126042E+03  0.50400001928E-02 0.  1.
       -1    1    3    3    0  502  0.34053524086E+03 -0.29280007487E+02  0.18121175078E+03  0.38685820109E+03  0.50400001928E-02 0. -1.
</event>
<event>
 5   0  0.6131198E-02  0.6119713E+03  0.7818609E-02  0.9880876E-01
        2   -1    0    0  501    0  0.00000000000E+00  0.00000000000E+00  0.67733744832E+03  0.67733744832E+03  0.25500000920E-02 0. -1.
       -2   -1    0    0    0  501  0.00000000000E+00  0.00000000000E+00 -0.13822833279E+03  0.13822833281E+03  0.25500000920E-02 0.  1.
    10030    2    1    2    0    0  0.00000000000E+00  0.00000000000E+00  0.53910911553E+03  0.81556578113E+03  0.61197132687E+03 0.  0.
        1    1    3    3  502    0  0.12176822433E+03 -0.13870675550E+03  0.59479598303E+03  0.62277550204E+03  0.50400001928E-02 0. -1.
       -1    1    3    3    0  502 -0.12176822433E+03  0.13870675550E+03 -0.55686867505E+02  0.19279027910E+03  0.50400001928E-02 0.  1.
</event>
<event>
 5   0  0.5987810E-02  0.7062998E+03  0.7818609E-02  0.9706519E-01
        2   -1    0    0  501    0  0.00000000000E+00  0.00000000000E+00  0.12814005337E+04  0.12814005337E+04  0.25500000920E-02 0. -1.
       -2   -1    0    0    0  501  0.00000000000E+00  0.00000000000E+00 -0.97326992223E+02  0.97326992256E+02  0.25500000920E-02 0.  1.
    10030    2    1    2    0    0  0.00000000000E+00  0.00000000000E+00  0.11840735415E+04  0.13787275259E+04  0.70629982246E+03 0.  0.
        5    1    3    3  502    0  0.12028763831E+03 -0.15349921945E+03  0.17387566453E+02  0.19584571419E+03  0.46999998093E+01 0.  1.
       -5    1    3    3    0  502 -0.12028763831E+03  0.15349921945E+03  0.11666859750E+04  0.11828818118E+04  0.46999998093E+01 0. -1.
</event>
<event>
 5   0  0.3755872E-02  0.4808285E+03  0.7818609E-02  0.1018908E+00
        1   -1    0    0  501    0  0.00000000000E+00  0.00000000000E+00  0.13326869670E+03  0.13326869679E+03  0.50400001928E-02 0.  1.
       -1   -1    0    0    0  501  0.00000000000E+00  0.00000000000E+00 -0.43370283115E+03  0.43370283118E+03  0.50400001928E-02 0. -1.
    10030    2    1    2    0    0  0.00000000000E+00  0.00000000000E+00 -0.30043413446E+03  0.56697152798E+03  0.48082849790E+03 0.  0.
        2    1    3    3  502    0  0.18380102466E+03 -0.81431594982E+02 -0.30569169266E+03  0.36587064968E+03  0.25500000920E-02 0. -1.
       -2    1    3    3    0  502 -0.18380102466E+03  0.81431594982E+02  0.52575582090E+01  0.20110087830E+03  0.25500000920E-02 0.  1.
</event>
<event>
 5   0  0.3749730E-02  0.7027071E+03  0.7818609E-02  0.9712614E-01
        1   -1    0    0  501    0  0.00000000000E+00  0.00000000000E+00  0.11841322322E+03  0.11841322332E+03  0.50400001928E-02 0. -1.
       -1   -1    0    0    0  501  0.00000000000E+00  0.00000000000E+00 -0.10425298366E+04  0.10425298366E+04  0.50400001928E-02 0.  1.
    10030    2    1    2    0    0  0.00000000000E+00  0.00000000000E+00 -0.92411661341E+03  0.11609430600E+04  0.70270710349E+03 0.  0.
        4    1    3    3  502    0 -0.21575418430E+03 -0.19457251737E+03 -0.13562986470E+03  0.32063282061E+03  0.12699999809E+01 0. -1.
       -4    1    3    3    0  502  0.21575418430E+03  0.19457251737E+03 -0.78848674872E+03  0.84031023935E+03  0.12699999809E+01 0.  1.
</event>
<event>
 5   0  0.6167756E-02  0.5822757E+03  0.7818609E-02  0.9942876E-01
       -2   -1    0    0    0  501  0.00000000000E+00  0.00000000000E+00  0.13439030498E+03  0.13439030501E+03  0.25500000920E-02 0. -1.
        2   -1    0    0  501    0  0.00000000000E+00  0.00000000000E+00 -0.63070957709E+03  0.63070957710E+03  0.25500000920E-02 0.  1.
    10030    2    1    2    0    0  0.00000000000E+00  0.00000000000E+00 -0.49631927211E+03  0.76509988211E+03  0.58227571625E+03 0.  0.
        4    1    3    3  502    0 -0.10327636864E+03 -0.27207116377E+03 -0.25922466527E+03  0.38972781074E+03  0.12699999809E+01 0.  1.
       -4    1    3    3    0  502  0.10327636864E+03  0.27207116377E+03 -0.23709460683E+03  0.37537207137E+03  0.12699999809E+01 0. -1.
</event>
<event>
 5   0  0.6248886E-02  0.6878456E+03  0.7818609E-02  0.9738247E-01
        2   -1    0    0  501    0  0.00000000000E+00  0.00000000000E+00  0.75186514465E+03  0.75186514465E+03  0.25500000920E-02 0. -1.
       -2   -1    0    0    0  501  0.00000000000E+00  0.00000000000E+00 -0.15731928717E+03  0.15731928719E+03  0.25500000920E-02 0.  1.
    10030    2    1    2    0    0  0.00000000000E+00  0.00000000000E+00  0.59454585748E+03  0.90918443185E+03  0.68784558912E+03 0.  0.
        3    1    3    3  502    0  0.26114880795E+03  0.56185103836E+01  0.59298864205E+03  0.64797052970E+03  0.10100000352E+00 0. -1.
       -3    1    3    3    0  502 -0.26114880795E+03 -0.56185103836E+01  0.15572154254E+01  0.26121390215E+03  0.10100000352E+00 0.  1.
</event>
<event>
 5   0  0.3439015E-02  0.7049797E+03  0.7818609E-02  0.9708754E-01
        1   -1    0    0  501    0  0.00000000000E+00  0.00000000000E+00  0.16536298228E+04  0.16536298228E+04  0.50400001928E-02 0.  1.
       -1   -1    0    0    0  501  0.00000000000E+00  0.00000000000E+00 -0.75137181698E+02  0.75137181867E+02  0.50400001928E-02 0. -1.
    10030    2    1    2    0    0  0.00000000000E+00  0.00000000000E+00  0.15784926411E+04  0.17287670047E+04  0.70497967236E+03 0.  0.
        1    1    3    3  502    0 -0.25542040871E+03 -0.21284432773E+03  0.50214990220E+03  0.60224315466E+03  0.50400001928E-02 0. -1.
       -1    1    3    3    0  502  0.25542040871E+03  0.21284432773E+03  0.10763427389E+04  0.11265238500E+04  0.50400001928E-02 0.  1.
</event>
<event>
 5   0  0.3439015E-02  0.7034883E+03  0.7818609E-02  0.9711285E-01
        1   -1    0    0  501    0  0.00000000000E+00  0.00000000000E+00  0.45521044798E+03  0.45521044801E+03  0.50400001928E-02 0. -1.
       -1   -1    0    0    0  501  0.00000000000E+00  0.00000000000E+00 -0.27179503892E+03  0.27179503897E+03  0.50400001928E-02 0.  1.
    10030    2    1    2    0    0  0.00000000000E+00  0.00000000000E+00  0.18341540906E+03  0.72700548698E+03  0.70348828407E+03 0.  0.
        1    1    3    3  502    0 -0.25905417353E+03  0.21034801640E+03 -0.23224276329E+02  0.33450668134E+03  0.50400001928E-02 0.  1.
       -1    1    3    3    0  502  0.25905417353E+03 -0.21034801640E+03  0.20663968539E+03  0.39249880564E+03  0.50400001928E-02 0. -1.
</event>
<event>
 5   0  0.3755872E-02  0.7123680E+03  0.7818609E-02  0.9696312E-01
        1   -1    0    0  501    0  0.00000000000E+00  0.00000000000E+00  0.41351136580E+03  0.41351136583E+03  0.50400001928E-02 0.  1.
       -1   -1    0    0    0  501  0.00000000000E+00  0.00000000000E+00 -0.30680425071E+03  0.30680425075E+03  0.50400001928E-02 0. -1.
    10030    2    1    2    0    0  0.00000000000E+00  0.00000000000E+00  0.10670711509E+03  0.72031561658E+03  0.71236800818E+03 0.  0.
        2    1    3    3  502    0 -0.17360656906E+03  0.18161023290E+03  0.30864912931E+03  0.39797713822E+03  0.25500000920E-02 0.  1.
       -2    1    3    3    0  502  0.17360656906E+03 -0.18161023290E+03 -0.20194201422E+03  0.32233847836E+03  0.25500000920E-02 0. -1.
</event>
<event>
 5   0  0.3755872E-02  0.7722953E+03  0.7818609E-02  0.9601008E-01
       -1   -1    0    0    0  501  0.00000000000E+00  0.00000000000E+00  0.34577895144E+03  0.34577895147E+03  0.50400001928E-02 0. -1.
        1   -1    0    0  501    0  0.00000000000E+00  0.00000000000E+00 -0.43122927453E+03  0.43122927456E+03  0.50400001928E-02 0.  1.
    10030    2    1    2    0    0  0.00000000000E+00  0.00000000000E+00 -0.85450323095E+02  0.77700822603E+03  0.77229529689E+03 0.  0.
        2    1    3    3  502    0 -0.57742012587E+02  0.27778923206E+03 -0.30625682263E+03  0.41748561518E+03  0.25500000920E-02 0.  1.
       -2    1    3    3    0  502  0.57742012587E+02 -0.27778923206E+03  0.22080649954E+03  0.35952261085E+03  0.25500000920E-02 0. -1.
</event>
<event>
 5   0  0.5987810E-02  0.7129274E+03  0.7818609E-02  0.9695376E-01
        2   -1    0    0  501    0  0.00000000000E+00  0.00000000000E+00  0.50282834538E+03  0.50282834538E+03  0.25500000920E-02 0.  1.
       -2   -1    0    0    0  501  0.00000000000E+00  0.00000000000E+00 -0.25270328001E+03  0.25270328002E+03  0.25500000920E-02 0. -1.
    10030    2    1    2    0    0  0.00000000000E+00  0.00000000000E+00  0.25012506537E+03  0.75553162540E+03  0.71292740770E+03 0.  0.
        5    1    3    3  502    0  0.34101652903E+03 -0.67512453125E+01  0.23471784432E+03  0.41406812100E+03  0.46999998093E+01 0.  1.
       -5    1    3    3    0  502 -0.34101652903E+03  0.67512453125E+01  0.15407221047E+02  0.34146350441E+03  0.46999998093E+01 0. -1.
</event>
<event>
 5   0  0.3601475E-02  0.6991735E+03  0.7818609E-02  0.9718647E-01
       -1   -1    0    0    0  501  0.00000000000E+00  0.00000000000E+00  0.45874413190E+03  0.45874413193E+03  0.50400001928E-02 0.  1.
        1   -1    0    0  501    0  0.00000000000E+00  0.00000000000E+00 -0.26640319578E+03  0.26640319583E+03  0.50400001928E-02 0. -1.
    10030    2    1    2    0    0  0.00000000000E+00  0.00000000000E+00  0.19234093612E+03  0.72514732775E+03  0.69917352012E+03 0.  0.
        5    1    3    3  502    0  0.17244458860E+03 -0.28502864722E+03 -0.13641785875E+02  0.33344662871E+03  0.46999998093E+01 0. -1.
       -5    1    3    3    0  502 -0.17244458860E+03  0.28502864722E+03  0.20598272200E+03  0.39170069905E+03  0.46999998093E+01 0.  1.
</event>
<event>
 5   0  0.3717372E-02  0.7033212E+03  0.7818609E-02  0.9711569E-01
       -1   -1    0    0    0  501  0.00000000000E+00  0.00000000000E+00  0.52296620643E+02  0.52296620886E+02  0.50400001928E-02 0.  1.
        1   -1    0    0  501    0  0.00000000000E+00  0.00000000000E+00 -0.23646878291E+04  0.23646878291E+04  0.50400001928E-02 0. -1.
    10030    2    1    2    0    0  0.00000000000E+00  0.00000000000E+00 -0.23123912084E+04  0.24169844500E+04  0.70332121434E+03 0.  0.
        3    1    3    3  502    0  0.13559663169E+02 -0.53413222982E+02 -0.23497571186E+04  0.23504032342E+04  0.10100000352E+00 0. -1.
       -3    1    3    3    0  502 -0.13559663169E+02  0.53413222982E+02  0.37365910125E+02  0.66581215782E+02  0.10100000352E+00 0.  1.
</event>
<event>
 5   0  0.3717372E-02  0.6928126E+03  0.7818609E-02  0.9729603E-01
        1   -1    0    0  501    0  0.00000000000E+00  0.00000000000E+00  0.28605902654E+03  0.28605902659E+03  0.50400001928E-02 0.  1.
       -1   -1    0    0    0  501  0.00000000000E+00  0.00000000000E+00 -0.41948444401E+03  0.41948444404E+03  0.50400001928E-02 0. -1.
    10030    2    1    2    0    0  0.00000000000E+00  0.00000000000E+00 -0.13342541746E+03  0.70554347063E+03  0.69281256262E+03 0.  0.
        3    1    3    3  502    0  0.13242263146E+03  0.82268467523E+02 -0.38174068509E+03  0.41234671688E+03  0.10100000352E+00 0. -1.
       -3    1    3    3    0  502 -0.13242263146E+03 -0.82268467523E+02  0.24831526762E+03  0.29319675375E+03  0.10100000352E+00 0.  1.
</event>
<event>
 5   0  0.3749730E-02  0.6917823E+03  0.7818609E-02  0.9731390E-01
       -1   -1    0    0    0  501  0.00000000000E+00  0.00000000000E+00  0.12539217346E+03  0.12539217356E+03  0.50400001928E-02 0. -1.
        1   -1    0    0  501    0  0.00000000000E+00  0.00000000000E+00 -0.95413213605E+03  0.95413213607E+03  0.50400001928E-02 0.  1.
    10030    2    1    2    0    0  0.00000000000E+00  0.00000000000E+00 -0.82873996260E+03  0.10795243096E+04  0.69178234255E+03 0.  0.
        4    1    3    3  502    0 -0.11269013962E+02 -0.29845936978E+03 -0.14213545143E+03  0.33077044236E+03  0.12699999809E+01 0. -1.
       -4    1    3    3    0  502  0.11269013962E+02  0.29845936978E+03 -0.68660451116E+03  0.74875386726E+03  0.12699999809E+01 0.  1.
</event>
<event>
 5   0  0.5899787E-02  0.7008005E+03  0.7818609E-02  0.9715864E-01
       -2   -1    0    0    0  501  0.00000000000E+00  0.00000000000E+00  0.19865829510E+03  0.19865829512E+03  0.25500000920E-02 0.  1.
        2   -1    0    0  501    0  0.00000000000E+00  0.00000000000E+00 -0.61804787204E+03  0.61804787205E+03  0.25500000920E-02 0. -1.
    10030    2    1    2    0    0  0.00000000000E+00  0.00000000000E+00 -0.41938957694E+03  0.81670616716E+03  0.70080050388E+03 0.  0.
        2    1    3    3  502    0  0.23028833059E+03  0.15932761960E+03  0.35764012547E+02  0.28230669523E+03  0.25500000920E-02 0. -1.
       -2    1    3    3    0  502 -0.23028833059E+03 -0.15932761960E+03 -0.45515358949E+03  0.53439947193E+03  0.25500000920E-02 0.  1.
</event>
<event>
 5   0  0.6131198E-02  0.6775922E+03  0.7818609E-02  0.9756339E-01
       -2   -1    0    0    0  501  0.00000000000E+00  0.00000000000E+00  0.22734055433E+03  0.22734055434E+03  0.25500000920E-02 0.  1.
        2   -1    0    0  501    0  0.00000000000E+00  0.00000000000E+00 -0.50489361899E+03  0.50489361900E+03  0.25500000920E-02 0. -1.
    10030    2    1    2    0    0  0.00000000000E+00  0.00000000000E+00 -0.27755306467E+03  0.73223417334E+03  0.67759219366E+03 0.  0.
        1    1    3    3  502    0 -0.27983879272E+03 -0.12629008367E+03 -0.29359084961E+03  0.42479939047E+03  0.50400001928E-02 0. -1.
       -1    1    3    3    0  502  0.27983879272E+03  0.12629008367E+03  0.16037784941E+02  0.30743478287E+03  0.50400001928E-02 0.  1.
</event>
<event>
 5   0  0.3601475E-02  0.6771461E+03  0.7818609E-02  0.9757134E-01
       -1   -1    0    0    0  501  0.00000000000E+00  0.00000000000E+00  0.21891077308E+03  0.21891077314E+03  0.50400001928E-02 0. -1.
        1   -1    0    0  501    0  0.00000000000E+00  0.00000000000E+00 -0.52364575232E+03  0.52364575234E+03  0.50400001928E-02 0.  1.
    10030    2    1    2    0    0  0.00000000000E+00  0.00000000000E+00 -0.30473497924E+03  0.74255652548E+03  0.67714605955E+03 0.  0.
        5    1    3    3  502    0 -0.13686501556E+03  0.22547233574E+03 -0.38509374905E+03  0.46678591691E+03  0.46999998093E+01 0.  1.
       -5    1    3    3    0  502  0.13686501556E+03 -0.22547233574E+03  0.80358769811E+02  0.27577060857E+03  0.46999998093E+01 0. -1.
</event>
<event>
 5   0  0.3755872E-02  0.7040082E+03  0.7818609E-02  0.9710402E-01
       -1   -1    0    0    0  501  0.00000000000E+00  0.00000000000E+00  0.21841872254E+03  0.21841872260E+03  0.50400001928E-02 0.  1.
        1   -1    0    0  501    0  0.00000000000E+00  0.00000000000E+00 -0.56729062392E+03  0.56729062394E+03  0.50400001928E-02 0. -1.
    10030    2    1    2    0    0  0.00000000000E+00  0.00000000000E+00 -0.34887190138E+03  0.78570934654E+03  0.70400821989E+03 0.  0.
        2    1    3    3  502    0 -0.10310587030E+03  0.12676508276E+03  0.17352640289E+03  0.23835188106E+03  0.25500000920E-02 0.  1.
       -2    1    3    3    0  502  0.10310587030E+03 -0.12676508276E+03 -0.52239830428E+03  0.54735746548E+03  0.25500000920E-02 0. -1.
</event>
<event>
 5   0  0.3717372E-02  0.6979198E+03  0.7818609E-02  0.9720796E-01
       -1   -1    0    0    0  501  0.00000000000E+00  0.00000000000E+00  0.18873456114E+03  0.18873456120E+03  0.50400001928E-02 0. -1.
        1   -1    0    0  501    0  0.00000000000E+00  0.00000000000E+00 -0.64520784918E+03  0.64520784920E+03  0.50400001928E-02 0.  1.
    10030    2    1    2    0    0  0.00000000000E+00  0.00000000000E+00 -0.45647328805E+03  0.83394241041E+03  0.69791982432E+03 0.  0.
        3    1    3    3  502    0  0.29862757048E+03  0.87591052900E+02 -0.39600293952E+02  0.31371772644E+03  0.10100000352E+00 0. -1.
       -3    1    3    3    0  502 -0.29862757048E+03 -0.87591052900E+02 -0.41687299409E+03  0.52022468396E+03  0.10100000352E+00 0.  1.
</event>
<event>
 5   0  0.5899787E-02  0.6420630E+03  0.7818609E-02  0.9821787E-01
       -2   -1    0    0    0  501  0.00000000000E+00  0.00000000000E+00  0.88451520483E+02  0.88451520520E+02  0.25500000920E-02 0. -1.
        2   -1    0    0  501    0  0.00000000000E+00  0.00000000000E+00 -0.11651719180E+04  0.11651719180E+04  0.25500000920E-02 0.  1.
    10030    2    1    2    0    0  0.00000000000E+00  0.00000000000E+00 -0.10767203975E+04  0.12536234385E+04  0.64206301185E+03 0.  0.
        2    1    3    3  502    0 -0.20822250489E+03  0.75801329312E+02 -0.84815086156E+02  0.23726789061E+03  0.25500000920E-02 0. -1.
       -2    1    3    3    0  502  0.20822250489E+03 -0.75801329312E+02 -0.99190531138E+03  0.10163555479E+04  0.25500000920E-02 0.  1.
</event>
<event>
 5   0  0.6131198E-02  0.7338862E+03  0.7818609E-02  0.9660975E-01
        2   -1    0    0  501    0  0.00000000000E+00  0.00000000000E+00  0.23549620232E+03  0.23549620233E+03  0.25500000920E-02 0. -1.
       -2   -1    0    0    0  501  0.00000000000E+00  0.00000000000E+00 -0.57175964815E+03  0.57175964815E+03  0.25500000920E-02 0.  1.
    10030    2    1    2    0    0  0.00000000000E+00  0.00000000000E+00 -0.33626344583E+03  0.80725585048E+03  0.73388616497E+03 0.  0.
        1    1    3    3  502    0 -0.17744416091E+03  0.29328993607E+03 -0.31214774979E+03  0.46361798344E+03  0.50400001928E-02 0.  1.
       -1    1    3    3    0  502  0.17744416091E+03 -0.29328993607E+03 -0.24115696032E+02  0.34363786704E+03  0.50400001928E-02 0. -1.
</event>
<event>
 5   0  0.3439015E-02  0.6224069E+03  0.7818609E-02  0.9859979E-01
        1   -1    0    0  501    0  0.00000000000E+00  0.00000000000E+00  0.41086232480E+03  0.41086232483E+03  0.50400001928E-02 0. -1.
       -1   -1    0    0    0  501  0.00000000000E+00  0.00000000000E+00 -0.23571783146E+03  0.23571783151E+03  0.50400001928E-02 0.  1.
    10030    2    1    2    0    0  0.00000000000E+00  0.00000000000E+00  0.17514449335E+03  0.64658015634E+03  0.62240686454E+03 0.  0.
        1    1    3    3  502    0 -0.29358141283E+03  0.96495655543E+02  0.49457794442E+02  0.31296570252E+03  0.50400001928E-02 0. -1.
       -1    1    3    3    0  502  0.29358141283E+03 -0.96495655543E+02  0.12568669891E+03  0.33361445383E+03  0.50400001928E-02 0.  1.
</event>
<event>
 5   0  0.5899787E-02  0.6838201E+03  0.7818609E-02  0.9745309E-01
       -2   -1    0    0    0  501  0.00000000000E+00  0.00000000000E+00  0.91794865972E+02  0.91794866008E+02  0.25500000920E-02 0. -1.
        2   -1    0    0  501    0  0.00000000000E+00  0.00000000000E+00 -0.12735187554E+04  0.12735187554E+04  0.25500000920E-02 0.  1.
    10030    2    1    2    0    0  0.00000000000E+00  0.00000000000E+00 -0.11817238895E+04  0.13653136214E+04  0.68382010352E+03 0.  0.
        2    1    3    3  502    0  0.14763136546E+03  0.26501632751E+03 -0.90575400562E+03  0.95520625659E+03  0.25500000920E-02 0.  1.
       -2    1    3    3    0  502 -0.14763136546E+03 -0.26501632751E+03 -0.27596988384E+03  0.41010736486E+03  0.25500000920E-02 0. -1.
</event>
<event>
 5   0  0.3755872E-02  0.7193760E+03  0.7818609E-02  0.9684659E-01
       -1   -1    0    0    0  501  0.00000000000E+00  0.00000000000E+00  0.16952703400E+03  0.16952703407E+03  0.50400001928E-02 0.  1.
        1   -1    0    0  501    0  0.00000000000E+00  0.00000000000E+00 -0.76315538698E+03  0.76315538699E+03  0.50400001928E-02 0. -1.
    10030    2    1    2    0    0  0.00000000000E+00  0.00000000000E+00 -0.59362835298E+03  0.93268242107E+03  0.71937603317E+03 0.  0.
        2    1    3    3  502    0  0.19696416368E+03 -0.17531332486E+03 -0.61398611610E+03  0.66821298582E+03  0.25500000920E-02 0. -1.
       -2    1    3    3    0  502 -0.19696416368E+03  0.17531332486E+03  0.20357763122E+02  0.26446943524E+03  0.25500000920E-02 0.  1.
</event>
<event>
 5   0  0.2439375E-02  0.7079188E+03  0.7818609E-02  0.9703785E-01
        3   -1    0    0  501    0  0.00000000000E+00  0.00000000000E+00  0.71587228794E+03  0.71587229507E+03  0.10100000352E+00 0. -1.
       -3   -1    0    0    0  501  0.00000000000E+00  0.00000000000E+00 -0.17501340874E+03  0.17501343788E+03  0.10100000352E+00 0.  1.
    10030    2    1    2    0    0  0.00000000000E+00  0.00000000000E+00  0.54085887920E+03  0.89088573295E+03  0.70791882442E+03 0.  0.
        2    1    3    3  502    0  0.34705496433E+03 -0.29878239954E+01  0.35790074496E+03  0.49854690713E+03  0.25500000920E-02 0. -1.
       -2    1    3    3    0  502 -0.34705496433E+03  0.29878239954E+01  0.18295813425E+03  0.39233882583E+03  0.25500000920E-02 0.  1.
</event>
<event>
 5   0  0.3717372E-02  0.7051893E+03  0.7818609E-02  0.9708399E-01
       -1   -1    0    0    0  501  0.00000000000E+00  0.00000000000E+00  0.98589321702E+03  0.98589321703E+03  0.50400001928E-02 0.  1.
        1   -1    0    0  501    0  0.00000000000E+00  0.00000000000E+00 -0.12610186149E+03  0.12610186159E+03  0.50400001928E-02 0. -1.
    10030    2    1    2    0    0  0.00000000000E+00  0.00000000000E+00  0.85979135553E+03  0.11119950786E+04  0.70518925108E+03 0.  0.
        3    1    3    3  502    0 -0.51151152386E+02 -0.33313393451E+03  0.26656692068E+03  0.42971222012E+03  0.10100000352E+00 0.  1.
       -3    1    3    3    0  502  0.51151152386E+02  0.33313393451E+03  0.59322443484E+03  0.68228285851E+03  0.10100000352E+00 0. -1.
</event>
<event>
 5   0  0.5987810E-02  0.6899907E+03  0.7818609E-02  0.9734504E-01
        2   -1    0    0  501    0  0.00000000000E+00  0.00000000000E+00  0.12138301788E+04  0.12138301788E+04  0.25500000920E-02 0.  1.
       -2   -1    0    0    0  501  0.00000000000E+00  0.00000000000E+00 -0.98054718712E+02  0.98054718745E+02  0.25500000920E-02 0. -1.
    10030    2    1    2    0    0  0.00000000000E+00  0.00000000000E+00  0.11157754601E+04  0.13118848975E+04  0.68999065723E+03 0.  0.
        5    1    3    3  502    0  0.54068532031E+02 -0.22881279196E+03  0.10378352687E+04  0.10641441795E+04  0.46999998093E+01 0.  1.
       -5    1    3    3    0  502 -0.54068532031E+02  0.22881279196E+03  0.77940191393E+02  0.24774071800E+03  0.46999998093E+01 0. -1.
</event>
<event>
 5   0  0.5899787E-02  0.7673860E+03  0.7818609E-02  0.9608462E-01
       -2   -1    0    0    0  501  0.00000000000E+00  0.00000000000E+00  0.95106887599E+03  0.95106887600E+03  0.25500000920E-02 0. -1.
        2   -1    0    0  501    0  0.00000000000E+00  0.00000000000E+00 -0.15479460207E+03  0.15479460209E+03  0.25500000920E-02 0.  1.
    10030    2    1    2    0    0  0.00000000000E+00  0.00000000000E+00  0.79627427392E+03  0.11058634781E+04  0.76738602597E+03 0.  0.
        2    1    3    3  502    0 -0.23856704801E+03 -0.25095338326E+03  0.15990768217E+03  0.38139520682E+03  0.25500000920E-02 0.  1.
       -2    1    3    3    0  502  0.23856704801E+03  0.25095338326E+03  0.63636659175E+03  0.72446827126E+03  0.25500000920E-02 0. -1.
</event>
<event>
 5   0  0.3601475E-02  0.6615576E+03  0.7818609E-02  0.9785331E-01
        1   -1    0    0  501    0  0.00000000000E+00  0.00000000000E+00  0.23975488315E+03  0.23975488321E+03  0.50400001928E-02 0. -1.
       -1   -1    0    0    0  501  0.00000000000E+00  0.00000000000E+00 -0.45636025168E+03  0.45636025171E+03  0.50400001928E-02 0.  1.
    10030    2    1    2    0    0  0.00000000000E+00  0.00000000000E+00 -0.21660536852E+03  0.69611513491E+03  0.66155755259E+03 0.  0.
        5    1    3    3  502    0  0.16999031357E+03 -0.10758076928E+03  0.16794137553E+03  0.26210059946E+03  0.46999998093E+01 0. -1.
       -5    1    3    3    0  502 -0.16999031357E+03  0.10758076928E+03 -0.38454674405E+03  0.43401453545E+03  0.46999998093E+01 0.  1.
</event>
<event>
 5   0  0.2439375E-02  0.7155615E+03  0.7818609E-02  0.9690984E-01
       -3   -1    0    0    0  501  0.00000000000E+00  0.00000000000E+00  0.12716378858E+04  0.12716378898E+04  0.10100000352E+00 0.  1.
        3   -1    0    0  501    0  0.00000000000E+00  0.00000000000E+00 -0.10066310730E+03  0.10066315797E+03  0.10100000352E+00 0. -1.
    10030    2    1    2    0    0  0.00000000000E+00  0.00000000000E+00  0.11709747785E+04  0.13723010478E+04  0.71556148154E+03 0.  0.
        5    1    3    3  502    0 -0.26387838292E+03 -0.83139548907E+02  0.15051962782E+03  0.31499560936E+03  0.46999998093E+01 0. -1.
       -5    1    3    3    0  502  0.26387838292E+03  0.83139548907E+02  0.10204551507E+04  0.10573054384E+04  0.46999998093E+01 0.  1.
</event>
<event>
 5   0  0.3601475E-02  0.6989963E+03  0.7818609E-02  0.9718950E-01
       -1   -1    0    0    0  501  0.00000000000E+00  0.00000000000E+00  0.28541187283E+03  0.28541187288E+03  0.50400001928E-02 0.  1.
        1   -1    0    0  501    0  0.00000000000E+00  0.00000000000E+00 -0.42797431052E+03  0.42797431055E+03  0.50400001928E-02 0. -1.
    10030    2    1    2    0    0  0.00000000000E+00  0.00000000000E+00 -0.14256243768E+03  0.71338618342E+03  0.69899627900E+03 0.  0.
        5    1    3    3  502    0 -0.23503598581E+03 -0.25280842043E+03 -0.15634938134E+02  0.34557279024E+03  0.46999998093E+01 0.  1.
       -5    1    3    3    0  502  0.23503598581E+03  0.25280842043E+03 -0.12692749955E+03  0.36781339318E+03  0.46999998093E+01 0. -1.
</event>
<event>
 5   0  0.3755872E-02  0.7019628E+03  0.7818609E-02  0.9713881E-01
       -1   -1    0    0    0  501  0.00000000000E+00  0.00000000000E+00  0.31646349613E+03  0.31646349617E+03  0.50400001928E-02 0. -1.
        1   -1    0    0  501    0  0.00000000000E+00  0.00000000000E+00 -0.38926435855E+03  0.38926435858E+03  0.50400001928E-02 0.  1.
    10030    2    1    2    0    0  0.00000000000E+00  0.00000000000E+00 -0.72800862416E+02  0.70572785476E+03  0.70196284760E+03 0.  0.
        2    1    3    3  502    0 -0.25895241595E+03 -0.19805204457E+03 -0.16712473221E+03  0.36634907153E+03  0.25500000920E-02 0. -1.
       -2    1    3    3    0  502  0.25895241595E+03  0.19805204457E+03  0.94323869793E+02  0.33937878323E+03  0.25500000920E-02 0.  1.
</event>
<event>
 5   0  0.3439015E-02  0.7135762E+03  0.7818609E-02  0.9694293E-01
        1   -1    0    0  501    0  0.00000000000E+00  0.00000000000E+00  0.14331050281E+04  0.14331050281E+04  0.50400001928E-02 0. -1.
       -1   -1    0    0    0  501  0.00000000000E+00  0.00000000000E+00 -0.88826520517E+02  0.88826520660E+02  0.50400001928E-02 0.  1.
    10030    2    1    2    0    0  0.00000000000E+00  0.00000000000E+00  0.13442785076E+04  0.15219315488E+04  0.71357615794E+03 0.  0.
        1    1    3    3  502    0 -0.14716398725E+03  0.17122842277E+03  0.82918915278E+02  0.24052434064E+03  0.50400001928E-02 0.  1.
       -1    1    3    3    0  502  0.14716398725E+03 -0.17122842277E+03  0.12613595923E+04  0.12814072081E+04  0.50400001928E-02 0. -1.
</event>
<event>
 5   0  0.5899787E-02  0.6708847E+03  0.7818609E-02  0.9768361E-01
       -2   -1    0    0    0  501  0.00000000000E+00  0.00000000000E+00  0.19238913701E+03  0.19238913702E+03  0.25500000920E-02 0.  1.
        2   -1    0    0  501    0  0.00000000000E+00  0.00000000000E+00 -0.58486445346E+03  0.58486445347E+03  0.25500000920E-02 0. -1.
    10030    2    1    2    0    0  0.00000000000E+00  0.00000000000E+00 -0.39247531646E+03  0.77725359049E+03  0.67088469196E+03 0.  0.
        2    1    3    3  502    0 -0.26237398473E+03  0.67051243828E+02  0.33101414016E+02  0.27282170144E+03  0.25500000920E-02 0.  1.
       -2    1    3    3    0  502  0.26237398473E+03 -0.67051243828E+02 -0.42557673047E+03  0.50443188905E+03  0.25500000920E-02 0. -1.
</event>
<event>
 5   0  0.3439015E-02  0.7010564E+03  0.7818609E-02  0.9715427E-01
        1   -1    0    0  501    0  0.00000000000E+00  0.00000000000E+00  0.12641734826E+03  0.12641734837E+03  0.50400001928E-02 0.  1.
       -1   -1    0    0    0  501  0.00000000000E+00  0.00000000000E+00 -0.97193961751E+03  0.97193961752E+03  0.50400001928E-02 0. -1.
    10030    2    1    2    0    0  0.00000000000E+00  0.00000000000E+00 -0.84552226924E+03  0.10983569659E+04  0.70105642906E+03 0.  0.
        1    1    3    3  502    0  0.19560952894E+02 -0.12726319011E+03  0.88025772803E+02  0.15597143052E+03  0.50400001928E-02 0.  1.
       -1    1    3    3    0  502 -0.19560952894E+02  0.12726319011E+03 -0.93354804204E+03  0.94238553536E+03  0.50400001928E-02 0. -1.
</event>
<event>
 5   0  0.2439375E-02  0.7003424E+03  0.7818609E-02  0.9716647E-01
        3   -1    0    0  501    0  0.00000000000E+00  0.00000000000E+00  0.33937071428E+03  0.33937072931E+03  0.10100000352E+00 0. -1.
       -3   -1    0    0    0  501  0.00000000000E+00  0.00000000000E+00 -0.36131537437E+03  0.36131538849E+03  0.10100000352E+00 0.  1.
    10030    2    1    2    0    0  0.00000000000E+00  0.00000000000E+00 -0.21944660088E+02  0.70068611780E+03  0.70034239310E+03 0.  0.
        4    1    3    3  502    0 -0.58359067311E+00 -0.19443138155E+03  0.28039963956E+03  0.34121763359E+03  0.12699999809E+01 0. -1.
       -4    1    3    3    0  502  0.58359067311E+00  0.19443138155E+03 -0.30234429964E+03  0.35946848421E+03  0.12699999809E+01 0.  1.
</event>
<event>
 5   0  0.2439375E-02  0.6246576E+03  0.7818609E-02  0.9855530E-01
       -3   -1    0    0    0  501  0.00000000000E+00  0.00000000000E+00  0.17857598130E+03  0.17857600986E+03  0.10100000352E+00 0. -1.
        3   -1    0    0  501    0  0.00000000000E+00  0.00000000000E+00 -0.54626196940E+03  0.54626197873E+03  0.10100000352E+00 0.  1.
    10030    2    1    2    0    0  0.00000000000E+00  0.00000000000E+00 -0.36768598810E+03  0.72483798859E+03  0.62465760530E+03 0.  0.
        5    1    3    3  502    0 -0.85493981410E+02 -0.26502628478E+03 -0.19826997776E+02  0.27921918330E+03  0.46999998093E+01 0. -1.
       -5    1    3    3    0  502  0.85493981410E+02  0.26502628478E+03 -0.34785899032E+03  0.44561880529E+03  0.46999998093E+01 0.  1.
</event>
<event>
 5   0  0.5987810E-02  0.6935411E+03  0.7818609E-02  0.9728342E-01
        2   -1    0    0  501    0  0.00000000000E+00  0.00000000000E+00  0.18908949431E+04  0.18908949431E+04  0.25500000920E-02 0.  1.
       -2   -1    0    0    0  501  0.00000000000E+00  0.00000000000E+00 -0.63594119276E+02  0.63594119327E+02  0.25500000920E-02 0. -1.
    10030    2    1    2    0    0  0.00000000000E+00  0.00000000000E+00  0.18273008238E+04  0.19544890625E+04  0.69354105460E+03 0.  0.
        5    1    3    3  502    0 -0.64174588006E+02 -0.24779320508E+03  0.25449787654E+03  0.36098630083E+03  0.46999998093E+01 0. -1.
       -5    1    3    3    0  502  0.64174588006E+02  0.24779320508E+03  0.15728029473E+04  0.15935027616E+04  0.46999998093E+01 0.  1.
</event>
<event>
 5   0  0.3717372E-02  0.7152333E+03  0.7818609E-02  0.9691530E-01
       -1   -1    0    0    0  501  0.00000000000E+00  0.00000000000E+00  0.24529339259E+03  0.24529339265E+03  0.50400001928E-02 0. -1.
        1   -1    0    0  501    0  0.00000000000E+00  0.00000000000E+00 -0.52137426929E+03  0.52137426932E+03  0.50400001928E-02 0.  1.
    10030    2    1    2    0    0  0.00000000000E+00  0.00000000000E+00 -0.27608087670E+03  0.76666766196E+03  0.71523328601E+03 0.  0.
        3    1    3    3  502    0 -0.51455626515E+02  0.10773268441E+03 -0.49938099493E+03  0.51345438073E+03  0.10100000352E+00 0.  1.
       -3    1    3    3    0  502  0.51455626515E+02 -0.10773268441E+03  0.22330011823E+03  0.25321328123E+03  0.10100000352E+00 0. -1.
</event>
<event>
 5   0  0.3601475E-02  0.7036198E+03  0.7818609E-02  0.9711062E-01
        1   -1    0    0  501    0  0.00000000000E+00  0.00000000000E+00  0.58005064273E+03  0.58005064276E+03  0.50400001928E-02 0. -1.
       -1   -1    0    0    0  501  0.00000000000E+00  0.00000000000E+00 -0.21337824832E+03  0.21337824838E+03  0.50400001928E-02 0.  1.
    10030    2    1    2    0    0  0.00000000000E+00  0.00000000000E+00  0.36667239441E+03  0.79342889114E+03  0.70361975560E+03 0.  0.
        5    1    3    3  502    0 -0.42769792425E+02 -0.16072836549E+03 -0.16620496000E+03  0.23517874339E+03  0.46999998093E+01 0.  1.
       -5    1    3    3    0  502  0.42769792425E+02  0.16072836549E+03  0.53287735441E+03  0.55825014775E+03  0.46999998093E+01 0. -1.
</event>
<event>
 5   0  0.3601475E-02  0.6958592E+03  0.7818609E-02  0.9724340E-01
        1   -1    0    0  501    0  0.00000000000E+00  0.00000000000E+00  0.46881193101E+03  0.46881193104E+03  0.50400001928E-02 0.  1.
       -1   -1    0    0    0  501  0.00000000000E+00  0.00000000000E+00 -0.25821659151E+03  0.25821659156E+03  0.50400001928E-02 0. -1.
    10030    2    1    2    0    0  0.00000000000E+00  0.00000000000E+00  0.21059533950E+03  0.72702852260E+03  0.69585923551E+03 0.  0.
        5    1    3    3  502    0 -0.32765921529E+03 -0.29618966053E+02 -0.12884410770E+02  0.32928094775E+03  0.46999998093E+01 0. -1.
       -5    1    3    3    0  502  0.32765921529E+03  0.29618966053E+02  0.22347975027E+03  0.39774757484E+03  0.46999998093E+01 0.  1.
</event>
<event>
 5   0  0.5899787E-02  0.7009018E+03  0.7818609E-02  0.9715691E-01
       -2   -1    0    0    0  501  0.00000000000E+00  0.00000000000E+00  0.25021245909E+03  0.25021245910E+03  0.25500000920E-02 0.  1.
        2   -1    0    0  501    0  0.00000000000E+00  0.00000000000E+00 -0.49084616011E+03  0.49084616012E+03  0.25500000920E-02 0. -1.
    10030    2    1    2    0    0  0.00000000000E+00  0.00000000000E+00 -0.24063370102E+03  0.74105861922E+03  0.70090177561E+03 0.  0.
        2    1    3    3  502    0 -0.94104110114E+02 -0.52202147093E+02  0.23231089288E+03  0.25602538674E+03  0.25500000920E-02 0.  1.
       -2    1    3    3    0  502  0.94104110114E+02  0.52202147093E+02 -0.47294459390E+03  0.48503323247E+03  0.25500000920E-02 0. -1.
</event>
<event>
 5   0  0.3601475E-02  0.6999775E+03  0.7818609E-02  0.9717271E-01
        1   -1    0    0  501    0  0.00000000000E+00  0.00000000000E+00  0.54191326093E+03  0.54191326095E+03  0.50400001928E-02 0.  1.
       -1   -1    0    0    0  501  0.00000000000E+00  0.00000000000E+00 -0.22603642633E+03  0.22603642638E+03  0.50400001928E-02 0. -1.
    10030    2    1    2    0    0  0.00000000000E+00  0.00000000000E+00  0.31587683460E+03  0.76794968734E+03  0.69997753367E+03 0.  0.
        5    1    3    3  502    0 -0.90918741534E+01  0.63678154363E+01 -0.22580862163E+03  0.22613012813E+03  0.46999998093E+01 0. -1.
       -5    1    3    3    0  502  0.90918741534E+01 -0.63678154363E+01  0.54168545623E+03  0.54181955921E+03  0.46999998093E+01 0.  1.
</event>
<event>
 5   0  0.3439015E-02  0.6948869E+03  0.7818609E-02  0.9726016E-01
        1   -1    0    0  501    0  0.00000000000E+00  0.00000000000E+00  0.66800995364E+03  0.66800995366E+03  0.50400001928E-02 0. -1.
       -1   -1    0    0    0  501  0.00000000000E+00  0.00000000000E+00 -0.18071129647E+03  0.18071129654E+03  0.50400001928E-02 0.  1.
    10030    2    1    2    0    0  0.00000000000E+00  0.00000000000E+00  0.48729865717E+03  0.84872125019E+03  0.69488688234E+03 0.  0.
        1    1    3    3  502    0  0.15596908087E+03  0.48736984785E+02  0.61814795032E+03  0.63938137006E+03  0.50400001928E-02 0. -1.
       -1    1    3    3    0  502 -0.15596908087E+03 -0.48736984785E+02 -0.13084929315E+03  0.20933988013E+03  0.50400001928E-02 0.  1.
</event>
<event>
 5   0  0.5899787E-02  0.7042266E+03  0.7818609E-02  0.9710031E-01
       -2   -1    0    0    0  501  0.00000000000E+00  0.00000000000E+00  0.83833213140E+02  0.83833213179E+02  0.25500000920E-02 0. -1.
        2   -1    0    0  501    0  0.00000000000E+00  0.00000000000E+00 -0.14789336666E+04  0.14789336666E+04  0.25500000920E-02 0.  1.
    10030    2    1    2    0    0  0.00000000000E+00  0.00000000000E+00 -0.13951004535E+04  0.15627668798E+04  0.70422655822E+03 0.  0.
        2    1    3    3  502    0 -0.23796348523E+03 -0.13825096825E+03 -0.11849693923E+04  0.12165082866E+04  0.25500000920E-02 0.  1.
       -2    1    3    3    0  502  0.23796348523E+03  0.13825096825E+03 -0.21013106118E+03  0.34625859326E+03  0.25500000920E-02 0. -1.
</event>
<event>
 5   0  0.2439375E-02  0.7076763E+03  0.7818609E-02  0.9704194E-01
        4   -1    0    0  501    0  0.00000000000E+00  0.00000000000E+00  0.10289882415E+04  0.10289890252E+04  0.12699999809E+01 0.  1.
       -4   -1    0    0    0  501  0.00000000000E+00  0.00000000000E+00 -0.12167016079E+03  0.12167678877E+03  0.12699999809E+01 0. -1.
    10030    2    1    2    0    0  0.00000000000E+00  0.00000000000E+00  0.90731808067E+03  0.11506658140E+04  0.70767627904E+03 0.  0.
        1    1    3    3  502    0 -0.29726992222E+02  0.25587970432E+03  0.59235228643E+02  0.26432353184E+03  0.50400001928E-02 0. -1.
       -1    1    3    3    0  502  0.29726992222E+02 -0.25587970432E+03  0.84808285203E+03  0.88634228212E+03  0.50400001928E-02 0.  1.
</event>
<event>
 5   0  0.3755872E-02  0.6997906E+03  0.7818609E-02  0.9717590E-01
       -1   -1    0    0    0  501  0.00000000000E+00  0.00000000000E+00  0.27850168400E+03  0.27850168404E+03  0.50400001928E-02 0. -1.
        1   -1    0    0  501    0  0.00000000000E+00  0.00000000000E+00 -0.43959055679E+03  0.43959055682E+03  0.50400001928E-02 0.  1.
    10030    2    1    2    0    0  0.00000000000E+00  0.00000000000E+00 -0.16108887279E+03  0.71809224086E+03  0.69979056971E+03 0.  0.
        2    1    3    3  502    0  0.12582277915E+03  0.32523467869E+03 -0.51200362852E+02  0.35246339545E+03  0.25500000920E-02 0.  1.
       -2    1    3    3    0  502 -0.12582277915E+03 -0.32523467869E+03 -0.10988850994E+03  0.36562884541E+03  0.25500000920E-02 0. -1.
</event>
<event>
 5   0  0.3755872E-02  0.7383319E+03  0.7818609E-02  0.9653836E-01
        1   -1    0    0  501    0  0.00000000000E+00  0.00000000000E+00  0.17271504721E+04  0.17271504721E+04  0.50400001928E-02 0.  1.
       -1   -1    0    0    0  501  0.00000000000E+00  0.00000000000E+00 -0.78906566961E+02  0.78906567122E+02  0.50400001928E-02 0. -1.
    10030    2    1    2    0    0  0.00000000000E+00  0.00000000000E+00  0.16482439052E+04  0.18060570392E+04  0.73833194305E+03 0.  0.
        2    1    3    3  502    0 -0.17827386730E+03 -0.23031018172E+03  0.26922650359E+03  0.39661979502E+03  0.25500000920E-02 0. -1.
       -2    1    3    3    0  502  0.17827386730E+03  0.23031018172E+03  0.13790174016E+04  0.14094372442E+04  0.25500000920E-02 0.  1.
</event>
<event>
 5   0  0.3749730E-02  0.6779778E+03  0.7818609E-02  0.9755652E-01
        1   -1    0    0  501    0  0.00000000000E+00  0.00000000000E+00  0.79236800782E+03  0.79236800784E+03  0.50400001928E-02 0. -1.
       -1   -1    0    0    0  501  0.00000000000E+00  0.00000000000E+00 -0.14502537778E+03  0.14502537786E+03  0.50400001928E-02 0.  1.
    10030    2    1    2    0    0  0.00000000000E+00  0.00000000000E+00  0.64734263005E+03  0.93739338570E+03  0.67797778642E+03 0.  0.
        4    1    3    3  502    0 -0.49398117042E+02 -0.32056124578E+03  0.45993011831E+03  0.56279393466E+03  0.12699999809E+01 0.  1.
       -4    1    3    3    0  502  0.49398117042E+02  0.32056124578E+03  0.18741251173E+03  0.37459945104E+03  0.12699999809E+01 0. -1.
</event>
<event>
 5   0  0.3601475E-02  0.7019069E+03  0.7818609E-02  0.9713977E-01
       -1   -1    0    0    0  501  0.00000000000E+00  0.00000000000E+00  0.18298126343E+03  0.18298126350E+03  0.50400001928E-02 0.  1.
        1   -1    0    0  501    0  0.00000000000E+00  0.00000000000E+00 -0.67311977512E+03  0.67311977514E+03  0.50400001928E-02 0. -1.
    10030    2    1    2    0    0  0.00000000000E+00  0.00000000000E+00 -0.49013851169E+03  0.85610103864E+03  0.70190685117E+03 0.  0.
        5    1    3    3  502    0  0.47511585961E+02  0.34265453027E+03 -0.31698626006E+03  0.46922474037E+03  0.46999998093E+01 0. -1.
       -5    1    3    3    0  502 -0.47511585961E+02 -0.34265453027E+03 -0.17315225164E+03  0.38687629827E+03  0.46999998093E+01 0.  1.
</event>
<event>
 5   0  0.3717372E-02  0.7033141E+03  0.7818609E-02  0.9711581E-01
        1   -1    0    0  501    0  0.00000000000E+00  0.00000000000E+00  0.71912885866E+03  0.71912885868E+03  0.50400001928E-02 0. -1.
       -1   -1    0    0    0  501  0.00000000000E+00  0.00000000000E+00 -0.17196177729E+03  0.17196177736E+03  0.50400001928E-02 0.  1.
    10030    2    1    2    0    0  0.00000000000E+00  0.00000000000E+00  0.54716708137E+03  0.89109063605E+03  0.70331408823E+03 0.  0.
        3    1    3    3  502    0 -0.33604248751E+03  0.13362376804E+02  0.14338819078E+03  0.36559990424E+03  0.10100000352E+00 0. -1.
       -3    1    3    3    0  502  0.33604248751E+03 -0.13362376804E+02  0.40377889060E+03  0.52549073181E+03  0.10100000352E+00 0.  1.
</event>
<event>
 5   0  0.5987810E-02  0.6950087E+03  0.7818609E-02  0.9725806E-01
       -2   -1    0    0    0  501  0.00000000000E+00  0.00000000000E+00  0.11463301532E+03  0.11463301535E+03  0.25500000920E-02 0. -1.
        2   -1    0    0  501    0  0.00000000000E+00  0.00000000000E+00 -0.10534424777E+04  0.10534424777E+04  0.25500000920E-02 0.  1.
    10030    2    1    2    0    0  0.00000000000E+00  0.00000000000E+00 -0.93880946237E+03  0.11680754931E+04  0.69500874155E+03 0.  0.
        5    1    3    3  502    0 -0.88271378939E+01 -0.18147583803E+03  0.28383142531E+02  0.18395404570E+03  0.46999998093E+01 0. -1.
       -5    1    3    3    0  502  0.88271378939E+01  0.18147583803E+03 -0.96719260490E+03  0.98412144735E+03  0.46999998093E+01 0.  1.
</event>
<event>
 5   0  0.3601475E-02  0.7003244E+03  0.7818609E-02  0.9716678E-01
        1   -1    0    0  501    0  0.00000000000E+00  0.00000000000E+00  0.49196119695E+03  0.49196119698E+03  0.50400001928E-02 0. -1.
       -1   -1    0    0    0  501  0.00000000000E+00  0.00000000000E+00 -0.24923421652E+03  0.24923421658E+03  0.50400001928E-02 0.  1.
    10030    2    1    2    0    0  0.00000000000E+00  0.00000000000E+00  0.24272698043E+03  0.74119541355E+03  0.70032439201E+03 0.  0.
        5    1    3    3  502    0 -0.34573045609E+03 -0.53753475943E+02  0.10746350747E+03  0.36604573468E+03  0.46999998093E+01 0. -1.
       -5    1    3    3    0  502  0.34573045609E+03  0.53753475943E+02  0.13526347296E+03  0.37514967887E+03  0.46999998093E+01 0.  1.
</event>
<event>
 5   0  0.6131198E-02  0.7054886E+03  0.7818609E-02  0.9707892E-01
        2   -1    0    0  501    0  0.00000000000E+00  0.00000000000E+00  0.46600595423E+03  0.46600595424E+03  0.25500000920E-02 0.  1.
       -2   -1    0    0    0  501  0.00000000000E+00  0.00000000000E+00 -0.26701060526E+03  0.26701060527E+03  0.25500000920E-02 0. -1.
    10030    2    1    2    0    0  0.00000000000E+00  0.00000000000E+00  0.19899534898E+03  0.73301655951E+03  0.70548857368E+03 0.  0.
        1    1    3    3  502    0 -0.27121466440E+03 -0.21627514497E+03  0.16599655655E+03  0.38456103459E+03  0.50400001928E-02 0.  1.
       -1    1    3    3    0  502  0.27121466440E+03  0.21627514497E+03  0.32998792432E+02  0.34845552492E+03  0.50400001928E-02 0. -1.
</event>
<event>
 5   0  0.3717372E-02  0.7136531E+03  0.7818609E-02  0.9694164E-01
        1   -1    0    0  501    0  0.00000000000E+00  0.00000000000E+00  0.31080576194E+03  0.31080576198E+03  0.50400001928E-02 0.  1.
       -1   -1    0    0    0  501  0.00000000000E+00  0.00000000000E+00 -0.40966160831E+03  0.40966160834E+03  0.50400001928E-02 0. -1.
    10030    2    1    2    0    0  0.00000000000E+00  0.00000000000E+00 -0.98855846373E+02  0.72046737032E+03  0.71365310434E+03 0.  0.
        3    1    3    3  502    0 -0.21753724236E+03 -0.12520322456E+03  0.20662126152E+03  0.32510099226E+03  0.10100000352E+00 0.  1.
       -3    1    3    3    0  502  0.21753724236E+03  0.12520322456E+03 -0.30547710790E+03  0.39536637806E+03  0.10100000352E+00 0. -1.
</event>
<event>
 5   0  0.3755872E-02  0.7265526E+03  0.7818609E-02  0.9672871E-01
        1   -1    0    0  501    0  0.00000000000E+00  0.00000000000E+00  0.28429916089E+03  0.28429916093E+03  0.50400001928E-02 0.  1.
       -1   -1    0    0    0  501  0.00000000000E+00  0.00000000000E+00 -0.46419296386E+03  0.46419296389E+03  0.50400001928E-02 0. -1.
    10030    2    1    2    0    0  0.00000000000E+00  0.00000000000E+00 -0.17989380297E+03  0.74849212482E+03  0.72655260000E+03 0.  0.
        2    1    3    3  502    0  0.16144956455E+03  0.23498143969E+03  0.14199024796E+03  0.31850191430E+03  0.25500000920E-02 0.  1.
       -2    1    3    3    0  502 -0.16144956455E+03 -0.23498143969E+03 -0.32188405093E+03  0.42999021052E+03  0.25500000920E-02 0. -1.
</event>
<event>
 5   0  0.2439375E-02  0.6959660E+03  0.7818609E-02  0.9724156E-01
       -3   -1    0    0    0  501  0.00000000000E+00  0.00000000000E+00  0.13613549660E+03  0.13613553407E+03  0.10100000352E+00 0. -1.
        3   -1    0    0  501    0  0.00000000000E+00  0.00000000000E+00 -0.88949711959E+03  0.88949712532E+03  0.10100000352E+00 0.  1.
    10030    2    1    2    0    0  0.00000000000E+00  0.00000000000E+00 -0.75336162298E+03  0.10256326594E+04  0.69596595967E+03 0.  0.
        2    1    3    3  502    0 -0.60274991337E+01 -0.54592288046E+02 -0.88306921341E+03  0.88477561242E+03  0.25500000920E-02 0.  1.
       -2    1    3    3    0  502  0.60274991337E+01  0.54592288046E+02  0.12970759043E+03  0.14085704697E+03  0.25500000920E-02 0. -1.
</event>
<event>
 5   0  0.6131198E-02  0.7125609E+03  0.7818609E-02  0.9695989E-01
       -2   -1    0    0    0  501  0.00000000000E+00  0.00000000000E+00  0.15364621275E+03  0.15364621278E+03  0.25500000920E-02 0.  1.
        2   -1    0    0  501    0  0.00000000000E+00  0.00000000000E+00 -0.82615608684E+03  0.82615608684E+03  0.25500000920E-02 0. -1.
    10030    2    1    2    0    0  0.00000000000E+00  0.00000000000E+00 -0.67250987408E+03  0.97980229961E+03  0.71256088554E+03 0.  0.
        1    1    3    3  502    0  0.16590691785E+03 -0.29342931471E+03 -0.49489162688E+03  0.59878509543E+03  0.50400001928E-02 0.  1.
       -1    1    3    3    0  502 -0.16590691785E+03  0.29342931471E+03 -0.17761824720E+03  0.38101720419E+03  0.50400001928E-02 0. -1.
</event>
<event>
 5   0  0.6248886E-02  0.6951816E+03  0.7818609E-02  0.9725508E-01
       -2   -1    0    0    0  501  0.00000000000E+00  0.00000000000E+00  0.57131409393E+02  0.57131409450E+02  0.25500000920E-02 0. -1.
        2   -1    0    0  501    0  0.00000000000E+00  0.00000000000E+00 -0.21147627058E+04  0.21147627058E+04  0.25500000920E-02 0.  1.
    10030    2    1    2    0    0  0.00000000000E+00  0.00000000000E+00 -0.20576312964E+04  0.21718941153E+04  0.69518162800E+03 0.  0.
        3    1    3    3  502    0 -0.11428900627E+03 -0.46395375975E+02 -0.20440874087E+04  0.20478056188E+04  0.10100000352E+00 0.  1.
       -3    1    3    3    0  502  0.11428900627E+03  0.46395375975E+02 -0.13543887772E+02  0.12408849650E+03  0.10100000352E+00 0. -1.
</event>
<event>
 5   0  0.6131198E-02  0.6959768E+03  0.7818609E-02  0.9724137E-01
        2   -1    0    0  501    0  0.00000000000E+00  0.00000000000E+00  0.31062054052E+03  0.31062054053E+03  0.25500000920E-02 0. -1.
       -2   -1    0    0    0  501  0.00000000000E+00  0.00000000000E+00 -0.38985161385E+03  0.38985161386E+03  0.25500000920E-02 0.  1.
    10030    2    1    2    0    0  0.00000000000E+00  0.00000000000E+00 -0.79231073334E+02  0.70047215439E+03  0.69597677842E+03 0.  0.
        1    1    3    3  502    0  0.15942174098E+03  0.86821111963E+02  0.25919049188E+03  0.31643784237E+03  0.50400001928E-02 0. -1.
       -1    1    3    3    0  502 -0.15942174098E+03 -0.86821111963E+02 -0.33842156522E+03  0.38403431202E+03  0.50400001928E-02 0.  1.
</event>
<event>
 5   0  0.6248886E-02  0.6635491E+03  0.7818609E-02  0.9781682E-01
       -2   -1    0    0    0  501  0.00000000000E+00  0.00000000000E+00  0.92487515084E+02  0.92487515120E+02  0.25500000920E-02 0. -1.
        2   -1    0    0  501    0  0.00000000000E+00  0.00000000000E+00 -0.11901536342E+04  0.11901536342E+04  0.25500000920E-02 0.  1.
    10030    2    1    2    0    0  0.00000000000E+00  0.00000000000E+00 -0.10976661191E+04  0.12826411494E+04  0.66354910059E+03 0.  0.
        3    1    3    3  502    0  0.11635274062E+03  0.23094331282E+03 -0.14705903168E+03  0.29748805520E+03  0.10100000352E+00 0. -1.
       -3    1    3    3    0  502 -0.11635274062E+03 -0.23094331282E+03 -0.95060708746E+03  0.98515309415E+03  0.10100000352E+00 0.  1.
</event>
<event>
 5   0  0.5899787E-02  0.7037739E+03  0.7818609E-02  0.9710800E-01
       -2   -1    0    0    0  501  0.00000000000E+00  0.00000000000E+00  0.49513853554E+03  0.49513853554E+03  0.25500000920E-02 0.  1.
        2   -1    0    0  501    0  0.00000000000E+00  0.00000000000E+00 -0.25008038851E+03  0.25008038852E+03  0.25500000920E-02 0. -1.
    10030    2    1    2    0    0  0.00000000000E+00  0.00000000000E+00  0.24505814703E+03  0.74521892407E+03  0.70377393342E+03 0.  0.
        2    1    3    3  502    0 -0.22440562987E+03 -0.21463460768E+03 -0.52743666007E+02  0.31497269063E+03  0.25500000920E-02 0. -1.
       -2    1    3    3    0  502  0.22440562987E+03  0.21463460768E+03  0.29780181303E+03  0.43024623344E+03  0.25500000920E-02 0.  1.
</event>
<event>
 5   0  0.6131198E-02  0.6947472E+03  0.7818609E-02  0.9726258E-01
        2   -1    0    0  501    0  0.00000000000E+00  0.00000000000E+00  0.33350978337E+03  0.33350978338E+03  0.25500000920E-02 0.  1.
       -2   -1    0    0    0  501  0.00000000000E+00  0.00000000000E+00 -0.36181371872E+03  0.36181371873E+03  0.25500000920E-02 0. -1.
    10030    2    1    2    0    0  0.00000000000E+00  0.00000000000E+00 -0.28303935347E+02  0.69532350211E+03  0.69474719131E+03 0.  0.
        1    1    3    3  502    0 -0.23673677049E+03  0.23376167231E+03 -0.11413276846E+03  0.35173158346E+03  0.50400001928E-02 0. -1.
       -1    1    3    3    0  502  0.23673677049E+03 -0.23376167231E+03  0.85828833113E+02  0.34359191865E+03  0.50400001928E-02 0.  1.
</event>
<event>
 5   0  0.3601475E-02  0.6487562E+03  0.7818609E-02  0.9809116E-01
        1   -1    0    0  501    0  0.00000000000E+00  0.00000000000E+00  0.51098813295E+03  0.51098813297E+03  0.50400001928E-02 0. -1.
       -1   -1    0    0    0  501  0.00000000000E+00  0.00000000000E+00 -0.20591698850E+03  0.20591698856E+03  0.50400001928E-02 0.  1.
    10030    2    1    2    0    0  0.00000000000E+00  0.00000000000E+00  0.30507114445E+03  0.71690512153E+03  0.64875615612E+03 0.  0.
        5    1    3    3  502    0 -0.18231797818E+03  0.16479415734E+02 -0.14333536411E+03  0.23254791531E+03  0.46999998093E+01 0.  1.
       -5    1    3    3    0  502  0.18231797818E+03 -0.16479415734E+02  0.44840650855E+03  0.48435720622E+03  0.46999998093E+01 0. -1.
</event>
<event>
 5   0  0.3717372E-02  0.7281101E+03  0.7818609E-02  0.9670332E-01
       -1   -1    0    0    0  501  0.00000000000E+00  0.00000000000E+00  0.18510154133E+03  0.18510154140E+03  0.50400001928E-02 0. -1.
        1   -1    0    0  501    0  0.00000000000E+00  0.00000000000E+00 -0.71601815495E+03  0.71601815497E+03  0.50400001928E-02 0.  1.
    10030    2    1    2    0    0  0.00000000000E+00  0.00000000000E+00 -0.53091661362E+03  0.90111969637E+03  0.72811005800E+03 0.  0.
        3    1    3    3  502    0  0.25965823490E+03  0.19331220680E+03 -0.47160214011E+03  0.57201450769E+03  0.10100000352E+00 0.  1.
       -3    1    3    3    0  502 -0.25965823490E+03 -0.19331220680E+03 -0.59314473517E+02  0.32910518868E+03  0.10100000352E+00 0. -1.
</event>
<event>
 5   0  0.5899787E-02  0.7025150E+03  0.7818609E-02  0.9712941E-01
        2   -1    0    0  501    0  0.00000000000E+00  0.00000000000E+00  0.11914438232E+03  0.11914438235E+03  0.25500000920E-02 0. -1.
       -2   -1    0    0    0  501  0.00000000000E+00  0.00000000000E+00 -0.10355655587E+04  0.10355655587E+04  0.25500000920E-02 0.  1.
    10030    2    1    2    0    0  0.00000000000E+00  0.00000000000E+00 -0.91642117642E+03  0.11547099411E+04  0.70251496459E+03 0.  0.
        2    1    3    3  502    0 -0.15527237060E+03  0.57145027163E+02  0.51083015583E+02  0.17316043916E+03  0.25500000920E-02 0. -1.
       -2    1    3    3    0  502  0.15527237060E+03 -0.57145027163E+02 -0.96750419200E+03  0.98154950193E+03  0.25500000920E-02 0.  1.
</event>
<event>
 5   0  0.3717372E-02  0.6827854E+03  0.7818609E-02  0.9747133E-01
       -1   -1    0    0    0  501  0.00000000000E+00  0.00000000000E+00  0.25578204265E+03  0.25578204270E+03  0.50400001928E-02 0.  1.
        1   -1    0    0  501    0  0.00000000000E+00  0.00000000000E+00 -0.45565742536E+03  0.45565742539E+03  0.50400001928E-02 0. -1.
    10030    2    1    2    0    0  0.00000000000E+00  0.00000000000E+00 -0.19987538272E+03  0.71143946809E+03  0.68278543345E+03 0.  0.
        3    1    3    3  502    0 -0.35045906639E+02 -0.27345093549E+02  0.25275370316E+03  0.25663283962E+03  0.10100000352E+00 0.  1.
       -3    1    3    3    0  502  0.35045906639E+02  0.27345093549E+02 -0.45262908587E+03  0.45480662846E+03  0.10100000352E+00 0. -1.
</event>
<event>
 5   0  0.3717372E-02  0.6074128E+03  0.7818609E-02  0.9890145E-01
       -1   -1    0    0    0  501  0.00000000000E+00  0.00000000000E+00  0.42728428182E+03  0.42728428185E+03  0.50400001928E-02 0.  1.
        1   -1    0    0  501    0  0.00000000000E+00  0.00000000000E+00 -0.21586933017E+03  0.21586933023E+03  0.50400001928E-02 0. -1.
    10030    2    1    2    0    0  0.00000000000E+00  0.00000000000E+00  0.21141495165E+03  0.64315361208E+03  0.60741278135E+03 0.  0.
        3    1    3    3  502    0 -0.16284662776E+03  0.18268392435E+03  0.29613739273E+03  0.38417418701E+03  0.10100000352E+00 0.  1.
       -3    1    3    3    0  502  0.16284662776E+03 -0.18268392435E+03 -0.84722441078E+02  0.25897942507E+03  0.10100000352E+00 0. -1.
</event>
<event>
 5   0  0.5987810E-02  0.7400336E+03  0.7818609E-02  0.9651117E-01
       -2   -1    0    0    0  501  0.00000000000E+00  0.00000000000E+00  0.12385779979E+03  0.12385779981E+03  0.25500000920E-02 0.  1.
        2   -1    0    0  501    0  0.00000000000E+00  0.00000000000E+00 -0.11054002696E+04  0.11054002696E+04  0.25500000920E-02 0. -1.
    10030    2    1    2    0    0  0.00000000000E+00  0.00000000000E+00 -0.98154246984E+03  0.12292580694E+04  0.74003363517E+03 0.  0.
        5    1    3    3  502    0 -0.18548080817E+03 -0.27474309923E+03 -0.76373265688E+03  0.83258426718E+03  0.46999998093E+01 0. -1.
       -5    1    3    3    0  502  0.18548080817E+03  0.27474309923E+03 -0.21780981296E+03  0.39667380226E+03  0.46999998093E+01 0.  1.
</event>
<event>
 5   0  0.6248886E-02  0.6669432E+03  0.7818609E-02  0.9775496E-01
        2   -1    0    0  501    0  0.00000000000E+00  0.00000000000E+00  0.43661750563E+03  0.43661750564E+03  0.25500000920E-02 0.  1.
       -2   -1    0    0    0  501  0.00000000000E+00  0.00000000000E+00 -0.25469273044E+03  0.25469273045E+03  0.25500000920E-02 0. -1.
    10030    2    1    2    0    0  0.00000000000E+00  0.00000000000E+00  0.18192477520E+03  0.69131023609E+03  0.66694319000E+03 0.  0.
        3    1    3    3  502    0 -0.13504915530E+03 -0.17803775757E+03  0.34752862053E+03  0.41317292960E+03  0.10100000352E+00 0.  1.
       -3    1    3    3    0  502  0.13504915530E+03  0.17803775757E+03 -0.16560384533E+03  0.27813730649E+03  0.10100000352E+00 0. -1.
</event>
<event>
 5   0  0.3601475E-02  0.6706339E+03  0.7818609E-02  0.9768813E-01
        1   -1    0    0  501    0  0.00000000000E+00  0.00000000000E+00  0.47433202620E+03  0.47433202623E+03  0.50400001928E-02 0. -1.
       -1   -1    0    0    0  501  0.00000000000E+00  0.00000000000E+00 -0.23704380805E+03  0.23704380811E+03  0.50400001928E-02 0.  1.
    10030    2    1    2    0    0  0.00000000000E+00  0.00000000000E+00  0.23728821815E+03  0.71137583433E+03  0.67063393830E+03 0.  0.
        5    1    3    3  502    0  0.17238195714E+01 -0.26405219626E+03  0.33780890083E+03  0.42879304726E+03  0.46999998093E+01 0. -1.
       -5    1    3    3    0  502 -0.17238195714E+01  0.26405219626E+03 -0.10052068269E+03  0.28258278707E+03  0.46999998093E+01 0.  1.
</event>
<event>
 5   0  0.5899787E-02  0.6961635E+03  0.7818609E-02  0.9723816E-01
       -2   -1    0    0    0  501  0.00000000000E+00  0.00000000000E+00  0.27280336137E+03  0.27280336138E+03  0.25500000920E-02 0. -1.
        2   -1    0    0  501    0  0.00000000000E+00  0.00000000000E+00 -0.44413270223E+03  0.44413270224E+03  0.25500000920E-02 0.  1.
    10030    2    1    2    0    0  0.00000000000E+00  0.00000000000E+00 -0.17132934086E+03  0.71693606361E+03  0.69616346950E+03 0.  0.
        2    1    3    3  502    0 -0.17670264075E+02  0.20889367407E+02 -0.44302357225E+03  0.44386764860E+03  0.25500000920E-02 0.  1.
       -2    1    3    3    0  502  0.17670264075E+02 -0.20889367407E+02  0.27169423138E+03  0.27306841501E+03  0.25500000920E-02 0. -1.
</event>
<event>
 5   0  0.3439015E-02  0.7096321E+03  0.7818609E-02  0.9700900E-01
        1   -1    0    0  501    0  0.00000000000E+00  0.00000000000E+00  0.44561793875E+03  0.44561793878E+03  0.50400001928E-02 0. -1.
       -1   -1    0    0    0  501  0.00000000000E+00  0.00000000000E+00 -0.28251651173E+03  0.28251651178E+03  0.50400001928E-02 0.  1.
    10030    2    1    2    0    0  0.00000000000E+00  0.00000000000E+00  0.16310142702E+03  0.72813445056E+03  0.70963208960E+03 0.  0.
        1    1    3    3  502    0  0.25237624374E+02  0.14805662458E+02 -0.28127647994E+03  0.28279427773E+03  0.50400001928E-02 0.  1.
       -1    1    3    3    0  502 -0.25237624374E+02 -0.14805662458E+02  0.44437790695E+03  0.44534017283E+03  0.50400001928E-02 0. -1.
</event>
<event>
 5   0  0.3601475E-02  0.6904482E+03  0.7818609E-02  0.9733708E-01
        1   -1    0    0  501    0  0.00000000000E+00  0.00000000000E+00  0.22405131126E+03  0.22405131131E+03  0.50400001928E-02 0.  1.
       -1   -1    0    0    0  501  0.00000000000E+00  0.00000000000E+00 -0.53193033691E+03  0.53193033694E+03  0.50400001928E-02 0. -1.
    10030    2    1    2    0    0  0.00000000000E+00  0.00000000000E+00 -0.30787902566E+03  0.75598164825E+03  0.69044822981E+03 0.  0.
        5    1    3    3  502    0  0.11664060966E+03 -0.66227718151E+02  0.19431632308E+03  0.23616110155E+03  0.46999998093E+01 0.  1.
       -5    1    3    3    0  502 -0.11664060966E+03  0.66227718151E+02 -0.50219534874E+03  0.51982054669E+03  0.46999998093E+01 0. -1.
</event>
<event>
 5   0  0.6131198E-02  0.7091674E+03  0.7818609E-02  0.9701682E-01
       -2   -1    0    0    0  501  0.00000000000E+00  0.00000000000E+00  0.64297967998E+02  0.64297968048E+02  0.25500000920E-02 0. -1.
        2   -1    0    0  501    0  0.00000000000E+00  0.00000000000E+00 -0.19554208338E+04  0.19554208338E+04  0.25500000920E-02 0.  1.
    10030    2    1    2    0    0  0.00000000000E+00  0.00000000000E+00 -0.18911228658E+04  0.20197188019E+04  0.70916736036E+03 0.  0.
        1    1    3    3  502    0  0.11170647030E+03  0.22558560872E+02  0.10720023415E+02  0.11446459323E+03  0.50400001928E-02 0. -1.
       -1    1    3    3    0  502 -0.11170647030E+03 -0.22558560872E+02 -0.19018428893E+04  0.19052542087E+04  0.50400001928E-02 0.  1.
</event>
<event>
 5   0  0.3755872E-02  0.7138614E+03  0.7818609E-02  0.9693817E-01
       -1   -1    0    0    0  501  0.00000000000E+00  0.00000000000E+00  0.38850177781E+03  0.38850177784E+03  0.50400001928E-02 0. -1.
        1   -1    0    0  501    0  0.00000000000E+00  0.00000000000E+00 -0.32792519231E+03  0.32792519235E+03  0.50400001928E-02 0.  1.
    10030    2    1    2    0    0  0.00000000000E+00  0.00000000000E+00  0.60576585505E+02  0.71642697019E+03  0.71386138774E+03 0.  0.
        2    1    3    3  502    0 -0.32097025062E+03  0.14114904851E+03 -0.36694100814E+02  0.35254987267E+03  0.25500000920E-02 0.  1.
       -2    1    3    3    0  502  0.32097025062E+03 -0.14114904851E+03  0.97270686319E+02  0.36387709752E+03  0.25500000920E-02 0. -1.
</event>
<event>
 5   0  0.3717372E-02  0.7358884E+03  0.7818609E-02  0.9657753E-01
       -1   -1    0    0    0  501  0.00000000000E+00  0.00000000000E+00  0.24421228603E+03  0.24421228608E+03  0.50400001928E-02 0. -1.
        1   -1    0    0  501    0  0.00000000000E+00  0.00000000000E+00 -0.55436584916E+03  0.55436584918E+03  0.50400001928E-02 0.  1.
    10030    2    1    2    0    0  0.00000000000E+00  0.00000000000E+00 -0.31015356313E+03  0.79857813526E+03  0.73588844630E+03 0.  0.
        3    1    3    3  502    0  0.23692424596E+03 -0.15223749362E+03 -0.41204807196E+03  0.49909215241E+03  0.10100000352E+00 0.  1.
       -3    1    3    3    0  502 -0.23692424596E+03  0.15223749362E+03  0.10189450883E+03  0.29948598285E+03  0.10100000352E+00 0. -1.
</event>
<event>
 5   0  0.3601475E-02  0.6929897E+03  0.7818609E-02  0.9729296E-01
       -1   -1    0    0    0  501  0.00000000000E+00  0.00000000000E+00  0.21836076686E+03  0.21836076691E+03  0.50400001928E-02 0.  1.
        1   -1    0    0  501    0  0.00000000000E+00  0.00000000000E+00 -0.54981806674E+03  0.54981806676E+03  0.50400001928E-02 0. -1.
    10030    2    1    2    0    0  0.00000000000E+00  0.00000000000E+00 -0.33145729988E+03  0.76817883367E+03  0.69298973936E+03 0.  0.
        5    1    3    3  502    0  0.24864721590E+02 -0.10474021407E+03  0.19931599435E+03  0.22657829205E+03  0.46999998093E+01 0.  1.
       -5    1    3    3    0  502 -0.24864721590E+02  0.10474021407E+03 -0.53077329423E+03  0.54160054163E+03  0.46999998093E+01 0. -1.
</event>
<event>
 5   0  0.3755872E-02  0.7050906E+03  0.7818609E-02  0.9708566E-01
       -1   -1    0    0    0  501  0.00000000000E+00  0.00000000000E+00  0.19799555304E+03  0.19799555310E+03  0.50400001928E-02 0. -1.
        1   -1    0    0  501    0  0.00000000000E+00  0.00000000000E+00 -0.62773224605E+03  0.62773224607E+03  0.50400001928E-02 0.  1.
    10030    2    1    2    0    0  0.00000000000E+00  0.00000000000E+00 -0.42973669301E+03  0.82572779918E+03  0.70509061333E+03 0.  0.
        2    1    3    3  502    0 -0.26112101044E+03 -0.22069897853E+03 -0.11415440265E+03  0.36044895459E+03  0.25500000920E-02 0. -1.
       -2    1    3    3    0  502  0.26112101044E+03  0.22069897853E+03 -0.31558229037E+03  0.46527884458E+03  0.25500000920E-02 0.  1.
</event>
<event>
 5   0  0.2439375E-02  0.6822748E+03  0.7818609E-02  0.9748034E-01
       -3   -1    0    0    0  501  0.00000000000E+00  0.00000000000E+00  0.15894927292E+03  0.15894930501E+03  0.10100000352E+00 0. -1.
        3   -1    0    0  501    0  0.00000000000E+00  0.00000000000E+00 -0.73215006657E+03  0.73215007353E+03  0.10100000352E+00 0.  1.
    10030    2    1    2    0    0  0.00000000000E+00  0.00000000000E+00 -0.57320079364E+03  0.89109937855E+03  0.68227483657E+03 0.  0.
        3    1    3    3  502    0 -0.27604719349E+03 -0.23815051287E+02 -0.54652335257E+03  0.61274545678E+03  0.10100000352E+00 0.  1.
       -3    1    3    3    0  502  0.27604719349E+03  0.23815051287E+02 -0.26677441079E+02  0.27835392177E+03  0.10100000352E+00 0. -1.
</event>
<event>
 5   0  0.6167756E-02  0.7022748E+03  0.7818609E-02  0.9713350E-01
       -2   -1    0    0    0  501  0.00000000000E+00  0.00000000000E+00  0.64374363345E+02  0.64374363396E+02  0.25500000920E-02 0. -1.
        2   -1    0    0  501    0  0.00000000000E+00  0.00000000000E+00 -0.19153196014E+04  0.19153196014E+04  0.25500000920E-02 0.  1.
    10030    2    1    2    0    0  0.00000000000E+00  0.00000000000E+00 -0.18509452381E+04  0.19796939648E+04  0.70227481799E+03 0.  0.
        4    1    3    3  502    0 -0.13513738126E+03 -0.32408636956E+03 -0.92923396604E+03  0.99336371149E+03  0.12699999809E+01 0. -1.
       -4    1    3    3    0  502  0.13513738126E+03  0.32408636956E+03 -0.92171127202E+03  0.98633025332E+03  0.12699999809E+01 0.  1.
</event>
<event>
 5   0  0.3749730E-02  0.9320330E+03  0.7818609E-02  0.9386401E-01
        1   -1    0    0  501    0  0.00000000000E+00  0.00000000000E+00  0.45555895943E+03  0.45555895946E+03  0.50400001928E-02 0.  1.
       -1   -1    0    0    0  501  0.00000000000E+00  0.00000000000E+00 -0.47671412637E+03  0.47671412640E+03  0.50400001928E-02 0. -1.
    10030    2    1    2    0    0  0.00000000000E+00  0.00000000000E+00 -0.21155166941E+02  0.93227308586E+03  0.93203302813E+03 0.  0.
        4    1    3    3  502    0 -0.37705174200E+03  0.13596900784E+03  0.22721078248E+03  0.46074064268E+03  0.12699999809E+01 0.  1.
       -4    1    3    3    0  502  0.37705174200E+03 -0.13596900784E+03 -0.24836594942E+03  0.47153244318E+03  0.12699999809E+01 0. -1.
</event>
<event>
 5   0  0.3717372E-02  0.6979139E+03  0.7818609E-02  0.9720806E-01
       -1   -1    0    0    0  501  0.00000000000E+00  0.00000000000E+00  0.80964047693E+02  0.80964047850E+02  0.50400001928E-02 0. -1.
        1   -1    0    0  501    0  0.00000000000E+00  0.00000000000E+00 -0.15040126094E+04  0.15040126094E+04  0.50400001928E-02 0.  1.
    10030    2    1    2    0    0  0.00000000000E+00  0.00000000000E+00 -0.14230485617E+04  0.15849766573E+04  0.69791388801E+03 0.  0.
        3    1    3    3  502    0  0.25779230482E+03 -0.12663915958E+03 -0.11616024149E+04  0.11965845267E+04  0.10100000352E+00 0.  1.
       -3    1    3    3    0  502 -0.25779230482E+03  0.12663915958E+03 -0.26144614682E+03  0.38839213052E+03  0.10100000352E+00 0. -1.
</event>
<event>
 5   0  0.2439375E-02  0.4971772E+03  0.7818609E-02  0.1014518E+00
       -4   -1    0    0    0  501  0.00000000000E+00  0.00000000000E+00  0.10307374486E+03  0.10308156857E+03  0.12699999809E+01 0. -1.
        4   -1    0    0  501    0  0.00000000000E+00  0.00000000000E+00 -0.59950353186E+03  0.59950487706E+03  0.12699999809E+01 0.  1.
    10030    2    1    2    0    0  0.00000000000E+00  0.00000000000E+00 -0.49642978700E+03  0.70258644563E+03  0.49717721203E+03 0.  0.
        2    1    3    3  502    0  0.94539562998E+02 -0.22733635831E+03 -0.19973853772E+03  0.31704105766E+03  0.25500000920E-02 0. -1.
       -2    1    3    3    0  502 -0.94539562998E+02  0.22733635831E+03 -0.29669124928E+03  0.38554538797E+03  0.25500000920E-02 0.  1.
</event>
<event>
 5   0  0.6131198E-02  0.7099122E+03  0.7818609E-02  0.9700430E-01
       -2   -1    0    0    0  501  0.00000000000E+00  0.00000000000E+00  0.19844736761E+03  0.19844736762E+03  0.25500000920E-02 0. -1.
        2   -1    0    0  501    0  0.00000000000E+00  0.00000000000E+00 -0.63489802617E+03  0.63489802617E+03  0.25500000920E-02 0.  1.
    10030    2    1    2    0    0  0.00000000000E+00  0.00000000000E+00 -0.43645065856E+03  0.83334539380E+03  0.70991222556E+03 0.  0.
        1    1    3    3  502    0  0.23735923936E+03  0.22241149647E+03 -0.51438291305E+02  0.32932078603E+03  0.50400001928E-02 0. -1.
       -1    1    3    3    0  502 -0.23735923936E+03 -0.22241149647E+03 -0.38501236725E+03  0.50402460777E+03  0.50400001928E-02 0.  1.
</event>
<event>
 5   0  0.6248886E-02  0.6982212E+03  0.7818609E-02  0.9720279E-01
        2   -1    0    0  501    0  0.00000000000E+00  0.00000000000E+00  0.98648909361E+03  0.98648909361E+03  0.25500000920E-02 0.  1.
       -2   -1    0    0    0  501  0.00000000000E+00  0.00000000000E+00 -0.12354746184E+03  0.12354746187E+03  0.25500000920E-02 0. -1.
    10030    2    1    2    0    0  0.00000000000E+00  0.00000000000E+00  0.86294163177E+03  0.11100365555E+04  0.69822123619E+03 0.  0.
        3    1    3    3  502    0 -0.14959001919E+03 -0.16400899350E+03  0.85984055912E+03  0.88803261263E+03  0.10100000352E+00 0.  1.
       -3    1    3    3    0  502  0.14959001919E+03  0.16400899350E+03  0.31010726512E+01  0.22200394285E+03  0.10100000352E+00 0. -1.
</event>
<event>
 5   0  0.6248886E-02  0.7116005E+03  0.7818609E-02  0.9697597E-01
        2   -1    0    0  501    0  0.00000000000E+00  0.00000000000E+00  0.75834240481E+03  0.75834240482E+03  0.25500000920E-02 0. -1.
       -2   -1    0    0    0  501  0.00000000000E+00  0.00000000000E+00 -0.16693490440E+03  0.16693490442E+03  0.25500000920E-02 0.  1.
    10030    2    1    2    0    0  0.00000000000E+00  0.00000000000E+00  0.59140750042E+03  0.92527730923E+03  0.71160049707E+03 0.  0.
        3    1    3    3  502    0 -0.25961376239E+03  0.36513961957E+02  0.60847693051E+03  0.66255321311E+03  0.10100000352E+00 0. -1.
       -3    1    3    3    0  502  0.25961376239E+03 -0.36513961957E+02 -0.17069430092E+02  0.26272409612E+03  0.10100000352E+00 0.  1.
</event>
<event>
 5   0  0.3749730E-02  0.7020385E+03  0.7818609E-02  0.9713752E-01
       -1   -1    0    0    0  501  0.00000000000E+00  0.00000000000E+00  0.11950172115E+03  0.11950172125E+03  0.50400001928E-02 0.  1.
        1   -1    0    0  501    0  0.00000000000E+00  0.00000000000E+00 -0.10310689968E+04  0.10310689968E+04  0.50400001928E-02 0. -1.
    10030    2    1    2    0    0  0.00000000000E+00  0.00000000000E+00 -0.91156727564E+03  0.11505707180E+04  0.70203851690E+03 0.  0.
        4    1    3    3  502    0 -0.18218315632E+03 -0.29569344281E+03 -0.37241546085E+03  0.50923491922E+03  0.12699999809E+01 0.  1.
       -4    1    3    3    0  502  0.18218315632E+03  0.29569344281E+03 -0.53915181479E+03  0.64133579883E+03  0.12699999809E+01 0. -1.
</event>
<event>
 5   0  0.6131198E-02  0.6966207E+03  0.7818609E-02  0.9723029E-01
       -2   -1    0    0    0  501  0.00000000000E+00  0.00000000000E+00  0.52364010724E+03  0.52364010724E+03  0.25500000920E-02 0. -1.
        2   -1    0    0  501    0  0.00000000000E+00  0.00000000000E+00 -0.23168600539E+03  0.23168600541E+03  0.25500000920E-02 0.  1.
    10030    2    1    2    0    0  0.00000000000E+00  0.00000000000E+00  0.29195410184E+03  0.75532611265E+03  0.69662065636E+03 0.  0.
        1    1    3    3  502    0 -0.24440302877E+03  0.11496425438E+03 -0.92489944413E+02  0.28548907177E+03  0.50400001928E-02 0.  1.
       -1    1    3    3    0  502  0.24440302877E+03 -0.11496425438E+03  0.38444404626E+03  0.46983704088E+03  0.50400001928E-02 0. -1.
</event>
<event>
 5   0  0.3755872E-02  0.6663496E+03  0.7818609E-02  0.9776575E-01
        1   -1    0    0  501    0  0.00000000000E+00  0.00000000000E+00  0.43390593747E+03  0.43390593750E+03  0.50400001928E-02 0. -1.
       -1   -1    0    0    0  501  0.00000000000E+00  0.00000000000E+00 -0.25582836320E+03  0.25582836325E+03  0.50400001928E-02 0.  1.
    10030    2    1    2    0    0  0.00000000000E+00  0.00000000000E+00  0.17807757428E+03  0.68973430075E+03  0.66634959531E+03 0.  0.
        2    1    3    3  502    0 -0.24229138590E+03  0.11787243019E+03  0.29189186475E+03  0.39724033807E+03  0.25500000920E-02 0. -1.
       -2    1    3    3    0  502  0.24229138590E+03 -0.11787243019E+03 -0.11381429047E+03  0.29249396267E+03  0.25500000920E-02 0.  1.
</event>
<event>
 5   0  0.3439015E-02  0.7014955E+03  0.7818609E-02  0.9714678E-01
       -1   -1    0    0    0  501  0.00000000000E+00  0.00000000000E+00  0.12917541565E+03  0.12917541575E+03  0.50400001928E-02 0.  1.
        1   -1    0    0  501    0  0.00000000000E+00  0.00000000000E+00 -0.95237936891E+03  0.95237936892E+03  0.50400001928E-02 0. -1.
    10030    2    1    2    0    0  0.00000000000E+00  0.00000000000E+00 -0.82320395326E+03  0.10815547847E+04  0.70149554780E+03 0.  0.
        1    1    3    3  502    0  0.33524658966E+03 -0.55522618122E+01 -0.57036007307E+03  0.66161296577E+03  0.50400001928E-02 0. -1.
       -1    1    3    3    0  502 -0.33524658966E+03  0.55522618122E+01 -0.25284388019E+03  0.41994181891E+03  0.50400001928E-02 0.  1.
</event>
<event>
 5   0  0.3601475E-02  0.6804057E+03  0.7818609E-02  0.9751340E-01
        1   -1    0    0  501    0  0.00000000000E+00  0.00000000000E+00  0.88060850149E+03  0.88060850150E+03  0.50400001928E-02 0. -1.
       -1   -1    0    0    0  501  0.00000000000E+00  0.00000000000E+00 -0.13142955919E+03  0.13142955928E+03  0.50400001928E-02 0.  1.
    10030    2    1    2    0    0  0.00000000000E+00  0.00000000000E+00  0.74917894230E+03  0.10120380608E+04  0.68040572373E+03 0.  0.
        5    1    3    3  502    0 -0.34555832562E+02  0.11938578368E+03  0.84557965204E+03  0.85467778071E+03  0.46999998093E+01 0. -1.
       -5    1    3    3    0  502  0.34555832562E+02 -0.11938578368E+03 -0.96400709733E+02  0.15736028007E+03  0.46999998093E+01 0.  1.
</event>
<event>
 5   0  0.5899787E-02  0.7041546E+03  0.7818609E-02  0.9710154E-01
        2   -1    0    0  501    0  0.00000000000E+00  0.00000000000E+00  0.25963071234E+03  0.25963071235E+03  0.25500000920E-02 0.  1.
       -2   -1    0    0    0  501  0.00000000000E+00  0.00000000000E+00 -0.47744127401E+03  0.47744127401E+03  0.25500000920E-02 0. -1.
    10030    2    1    2    0    0  0.00000000000E+00  0.00000000000E+00 -0.21781056166E+03  0.73707198637E+03  0.70415457984E+03 0.  0.
        2    1    3    3  502    0 -0.23678057212E+03 -0.16254444386E+03  0.10426318551E+03  0.30554303694E+03  0.25500000920E-02 0.  1.
       -2    1    3    3    0  502  0.23678057212E+03  0.16254444386E+03 -0.32207374718E+03  0.43152894943E+03  0.25500000920E-02 0. -1.
</event>
<event>
 5   0  0.6131198E-02  0.7011471E+03  0.7818609E-02  0.9715272E-01
       -2   -1    0    0    0  501  0.00000000000E+00  0.00000000000E+00  0.13630318377E+03  0.13630318380E+03  0.25500000920E-02 0.  1.
        2   -1    0    0  501    0  0.00000000000E+00  0.00000000000E+00 -0.90167975691E+03  0.90167975692E+03  0.25500000920E-02 0. -1.
    10030    2    1    2    0    0  0.00000000000E+00  0.00000000000E+00 -0.76537657314E+03  0.10379829407E+04  0.70114712186E+03 0.  0.
        1    1    3    3  502    0 -0.10794958758E+03  0.99435191505E+01  0.11086661647E+03  0.15505932318E+03  0.50400001928E-02 0.  1.
       -1    1    3    3    0  502  0.10794958758E+03 -0.99435191505E+01 -0.87624318961E+03  0.88292361753E+03  0.50400001928E-02 0. -1.
</event>
<event>
 5   0  0.5987810E-02  0.6842961E+03  0.7818609E-02  0.9744471E-01
        2   -1    0    0  501    0  0.00000000000E+00  0.00000000000E+00  0.86753909855E+03  0.86753909855E+03  0.25500000920E-02 0.  1.
       -2   -1    0    0    0  501  0.00000000000E+00  0.00000000000E+00 -0.13493949986E+03  0.13493949989E+03  0.25500000920E-02 0. -1.
    10030    2    1    2    0    0  0.00000000000E+00  0.00000000000E+00  0.73259959869E+03  0.10024785984E+04  0.68429611159E+03 0.  0.
        5    1    3    3  502    0 -0.53770761613E+02 -0.96539041848E+02  0.84062721075E+03  0.84787220668E+03  0.46999998093E+01 0.  1.
       -5    1    3    3    0  502  0.53770761613E+02  0.96539041848E+02 -0.10802761207E+03  0.15460639176E+03  0.46999998093E+01 0. -1.
</event>
<event>
 5   0  0.3601475E-02  0.7012183E+03  0.7818609E-02  0.9715151E-01
        1   -1    0    0  501    0  0.00000000000E+00  0.00000000000E+00  0.70914426968E+03  0.70914426969E+03  0.50400001928E-02 0. -1.
       -1   -1    0    0    0  501  0.00000000000E+00  0.00000000000E+00 -0.17334522740E+03  0.17334522748E+03  0.50400001928E-02 0.  1.
    10030    2    1    2    0    0  0.00000000000E+00  0.00000000000E+00  0.53579904227E+03  0.88248949717E+03  0.70121829620E+03 0.  0.
        5    1    3    3  502    0 -0.22035088760E+03 -0.24738166209E+03  0.12356832771E+03  0.35361479327E+03  0.46999998093E+01 0. -1.
       -5    1    3    3    0  502  0.22035088760E+03  0.24738166209E+03  0.41223071456E+03  0.52887470390E+03  0.46999998093E+01 0.  1.
</event>
<event>
 5   0  0.2439375E-02  0.7031549E+03  0.7818609E-02  0.9711852E-01
       -4   -1    0    0    0  501  0.00000000000E+00  0.00000000000E+00  0.19013425642E+03  0.19013849785E+03  0.12699999809E+01 0. -1.
        4   -1    0    0  501    0  0.00000000000E+00  0.00000000000E+00 -0.65009018651E+03  0.65009142703E+03  0.12699999809E+01 0.  1.
    10030    2    1    2    0    0  0.00000000000E+00  0.00000000000E+00 -0.45995593009E+03  0.84022992488E+03  0.70315493957E+03 0.  0.
        2    1    3    3  502    0  0.28967749075E+03  0.19545525861E+03 -0.18383846357E+03  0.39485742675E+03  0.25500000920E-02 0. -1.
       -2    1    3    3    0  502 -0.28967749075E+03 -0.19545525861E+03 -0.27611746652E+03  0.44537249813E+03  0.25500000920E-02 0.  1.
</event>
<event>
 5   0  0.6167756E-02  0.6994686E+03  0.7818609E-02  0.9718141E-01
        2   -1    0    0  501    0  0.00000000000E+00  0.00000000000E+00  0.34348489728E+03  0.34348489729E+03  0.25500000920E-02 0. -1.
       -2   -1    0    0    0  501  0.00000000000E+00  0.00000000000E+00 -0.35609744342E+03  0.35609744343E+03  0.25500000920E-02 0.  1.
    10030    2    1    2    0    0  0.00000000000E+00  0.00000000000E+00 -0.12612546144E+02  0.69958234072E+03  0.69946863770E+03 0.  0.
        4    1    3    3  502    0 -0.14086383577E+03 -0.17035379576E+03 -0.27736590895E+03  0.35467801779E+03  0.12699999809E+01 0.  1.
       -4    1    3    3    0  502  0.14086383577E+03  0.17035379576E+03  0.26475336281E+03  0.34490432293E+03  0.12699999809E+01 0. -1.
</event>
<event>
 5   0  0.6131198E-02  0.7069351E+03  0.7818609E-02  0.9705445E-01
        2   -1    0    0  501    0  0.00000000000E+00  0.00000000000E+00  0.72680222985E+03  0.72680222985E+03  0.25500000920E-02 0.  1.
       -2   -1    0    0    0  501  0.00000000000E+00  0.00000000000E+00 -0.17190275005E+03  0.17190275007E+03  0.25500000920E-02 0. -1.
    10030    2    1    2    0    0  0.00000000000E+00  0.00000000000E+00  0.55489947979E+03  0.89870497992E+03  0.70693508065E+03 0.  0.
        1    1    3    3  502    0 -0.26836477784E+03 -0.11459365509E+03  0.23870699327E+02  0.29278177895E+03  0.50400001928E-02 0.  1.
       -1    1    3    3    0  502  0.26836477784E+03  0.11459365509E+03  0.53102878047E+03  0.60592320097E+03  0.50400001928E-02 0. -1.
</event>
<event>
 5   0  0.3749730E-02  0.7086421E+03  0.7818609E-02  0.9702566E-01
        1   -1    0    0  501    0  0.00000000000E+00  0.00000000000E+00  0.12558875341E+03  0.12558875352E+03  0.50400001928E-02 0.  1.
       -1   -1    0    0    0  501  0.00000000000E+00  0.00000000000E+00 -0.99963900719E+03  0.99963900720E+03  0.50400001928E-02 0. -1.
    10030    2    1    2    0    0  0.00000000000E+00  0.00000000000E+00 -0.87405025378E+03  0.11252277607E+04  0.70864212926E+03 0.  0.
        4    1    3    3  502    0  0.50628864221E+02  0.70501234232E+02  0.10844299620E+03  0.13890717132E+03  0.12699999809E+01 0.  1.
       -4    1    3    3    0  502 -0.50628864221E+02 -0.70501234232E+02 -0.98249324998E+03  0.98632058940E+03  0.12699999809E+01 0. -1.
</event>
<event>
 5   0  0.3601475E-02  0.7276622E+03  0.7818609E-02  0.9671062E-01
        1   -1    0    0  501    0  0.00000000000E+00  0.00000000000E+00  0.95180624817E+03  0.95180624819E+03  0.50400001928E-02 0. -1.
       -1   -1    0    0    0  501  0.00000000000E+00  0.00000000000E+00 -0.13907563038E+03  0.13907563048E+03  0.50400001928E-02 0.  1.
    10030    2    1    2    0    0  0.00000000000E+00  0.00000000000E+00  0.81273061779E+03  0.10908818787E+04  0.72766215794E+03 0.  0.
        5    1    3    3  502    0 -0.53796438256E+02  0.18274936185E+02 -0.13233798403E+03  0.14409532288E+03  0.46999998093E+01 0.  1.
       -5    1    3    3    0  502  0.53796438256E+02 -0.18274936185E+02  0.94506860182E+03  0.94678655578E+03  0.46999998093E+01 0. -1.
</event>
<event>
 5   0  0.5987810E-02  0.6910498E+03  0.7818609E-02  0.9732662E-01
        2   -1    0    0  501    0  0.00000000000E+00  0.00000000000E+00  0.18535597791E+04  0.18535597791E+04  0.25500000920E-02 0.  1.
       -2   -1    0    0    0  501  0.00000000000E+00  0.00000000000E+00 -0.64409826339E+02  0.64409826390E+02  0.25500000920E-02 0. -1.
    10030    2    1    2    0    0  0.00000000000E+00  0.00000000000E+00  0.17891499528E+04  0.19179696055E+04  0.69104982030E+03 0.  0.
        5    1    3    3  502    0  0.25797258284E+03  0.41949538133E+02  0.15217008501E+04  0.15439900208E+04  0.46999998093E+01 0.  1.
       -5    1    3    3    0  502 -0.25797258284E+03 -0.41949538133E+02  0.26744910274E+03  0.37397958474E+03  0.46999998093E+01 0. -1.
</event>
<event>
 5   0  0.5987810E-02  0.7029329E+03  0.7818609E-02  0.9712230E-01
       -2   -1    0    0    0  501  0.00000000000E+00  0.00000000000E+00  0.82109106373E+02  0.82109106413E+02  0.25500000920E-02 0.  1.
        2   -1    0    0  501    0  0.00000000000E+00  0.00000000000E+00 -0.15044454395E+04  0.15044454395E+04  0.25500000920E-02 0. -1.
    10030    2    1    2    0    0  0.00000000000E+00  0.00000000000E+00 -0.14223363331E+04  0.15865545459E+04  0.70293291474E+03 0.  0.
        5    1    3    3  502    0  0.83556185926E+01 -0.35110971230E+03 -0.68273164859E+03  0.76778411055E+03  0.46999998093E+01 0.  1.
       -5    1    3    3    0  502 -0.83556185926E+01  0.35110971230E+03 -0.73960468451E+03  0.81877043533E+03  0.46999998093E+01 0. -1.
</event>
<event>
 5   0  0.5987810E-02  0.7159989E+03  0.7818609E-02  0.9690256E-01
        2   -1    0    0  501    0  0.00000000000E+00  0.00000000000E+00  0.30349140263E+03  0.30349140264E+03  0.25500000920E-02 0.  1.
       -2   -1    0    0    0  501  0.00000000000E+00  0.00000000000E+00 -0.42229731048E+03  0.42229731048E+03  0.25500000920E-02 0. -1.
    10030    2    1    2    0    0  0.00000000000E+00  0.00000000000E+00 -0.11880590785E+03  0.72578871312E+03  0.71599889131E+03 0.  0.
        5    1    3    3  502    0 -0.19000563385E+03 -0.78697502125E+02 -0.35640407108E+03  0.41151110510E+03  0.46999998093E+01 0. -1.
       -5    1    3    3    0  502  0.19000563385E+03  0.78697502125E+02  0.23759816323E+03  0.31427760802E+03  0.46999998093E+01 0.  1.
</event>
<event>
 5   0  0.6167756E-02  0.6998857E+03  0.7818609E-02  0.9717428E-01
       -2   -1    0    0    0  501  0.00000000000E+00  0.00000000000E+00  0.68696616431E+02  0.68696616479E+02  0.25500000920E-02 0. -1.
        2   -1    0    0  501    0  0.00000000000E+00  0.00000000000E+00 -0.17826203131E+04  0.17826203131E+04  0.25500000920E-02 0.  1.
    10030    2    1    2    0    0  0.00000000000E+00  0.00000000000E+00 -0.17139236966E+04  0.18513169295E+04  0.69988565905E+03 0.  0.
        4    1    3    3  502    0 -0.22598837995E+03 -0.18312750013E+03 -0.34232869564E+03  0.44921818523E+03  0.12699999809E+01 0. -1.
       -4    1    3    3    0  502  0.22598837995E+03  0.18312750013E+03 -0.13715950010E+04  0.14020987443E+04  0.12699999809E+01 0.  1.
</event>
<event>
 5   0  0.6167756E-02  0.7073750E+03  0.7818609E-02  0.9704702E-01
        2   -1    0    0  501    0  0.00000000000E+00  0.00000000000E+00  0.11391661218E+04  0.11391661218E+04  0.25500000920E-02 0.  1.
       -2   -1    0    0    0  501  0.00000000000E+00  0.00000000000E+00 -0.10981265095E+03  0.10981265098E+03  0.25500000920E-02 0. -1.
    10030    2    1    2    0    0  0.00000000000E+00  0.00000000000E+00  0.10293534708E+04  0.12489787727E+04  0.70737501150E+03 0.  0.
        4    1    3    3  502    0  0.13001082072E+03 -0.61658737107E+02  0.10851455824E+04  0.10946447649E+04  0.12699999809E+01 0.  1.
       -4    1    3    3    0  502 -0.13001082072E+03  0.61658737107E+02 -0.55792111594E+02  0.15433400786E+03  0.12699999809E+01 0. -1.
</event>
<event>
 5   0  0.3601475E-02  0.7101642E+03  0.7818609E-02  0.9700006E-01
        1   -1    0    0  501    0  0.00000000000E+00  0.00000000000E+00  0.14021490262E+04  0.14021490262E+04  0.50400001928E-02 0.  1.
       -1   -1    0    0    0  501  0.00000000000E+00  0.00000000000E+00 -0.89921461654E+02  0.89921461795E+02  0.50400001928E-02 0. -1.
    10030    2    1    2    0    0  0.00000000000E+00  0.00000000000E+00  0.13122275645E+04  0.14920704880E+04  0.71016417821E+03 0.  0.
        5    1    3    3  502    0  0.25450125629E+03 -0.37939908316E+02  0.11701169866E+04  0.11980843787E+04  0.46999998093E+01 0.  1.
       -5    1    3    3    0  502 -0.25450125629E+03  0.37939908316E+02  0.14211057789E+03  0.29398610927E+03  0.46999998093E+01 0. -1.
</event>
<event>
 5   0  0.6248886E-02  0.7157985E+03  0.7818609E-02  0.9690590E-01
        2   -1    0    0  501    0  0.00000000000E+00  0.00000000000E+00  0.52438090384E+03  0.52438090385E+03  0.25500000920E-02 0. -1.
       -2   -1    0    0    0  501  0.00000000000E+00  0.00000000000E+00 -0.24427256672E+03  0.24427256673E+03  0.25500000920E-02 0.  1.
    10030    2    1    2    0    0  0.00000000000E+00  0.00000000000E+00  0.28010833713E+03  0.76865347058E+03  0.71579848931E+03 0.  0.
        3    1    3    3  502    0 -0.11274566526E+03  0.23242040627E+03  0.40605692154E+03  0.48126194948E+03  0.10100000352E+00 0. -1.
       -3    1    3    3    0  502  0.11274566526E+03 -0.23242040627E+03 -0.12594858441E+03  0.28739152110E+03  0.10100000352E+00 0.  1.
</event>
<event>
 5   0  0.5899787E-02  0.6996894E+03  0.7818609E-02  0.9717764E-01
       -2   -1    0    0    0  501  0.00000000000E+00  0.00000000000E+00  0.32174398339E+03  0.32174398340E+03  0.25500000920E-02 0.  1.
        2   -1    0    0  501    0  0.00000000000E+00  0.00000000000E+00 -0.38039967608E+03  0.38039967609E+03  0.25500000920E-02 0. -1.
    10030    2    1    2    0    0  0.00000000000E+00  0.00000000000E+00 -0.58655692692E+02  0.70214365949E+03  0.69968937985E+03 0.  0.
        2    1    3    3  502    0  0.15888134838E+03  0.29798778502E+03  0.62378174048E+02  0.34341089017E+03  0.25500000920E-02 0.  1.
       -2    1    3    3    0  502 -0.15888134838E+03 -0.29798778502E+03 -0.12103386674E+03  0.35873276932E+03  0.25500000920E-02 0. -1.
</event>
<event>
 5   0  0.3439015E-02  0.7107216E+03  0.7818609E-02  0.9699071E-01
        1   -1    0    0  501    0  0.00000000000E+00  0.00000000000E+00  0.41626835108E+03  0.41626835111E+03  0.50400001928E-02 0.  1.
       -1   -1    0    0    0  501  0.00000000000E+00  0.00000000000E+00 -0.30336507810E+03  0.30336507814E+03  0.50400001928E-02 0. -1.
    10030    2    1    2    0    0  0.00000000000E+00  0.00000000000E+00  0.11290327298E+03  0.71963342925E+03  0.71072155128E+03 0.  0.
        1    1    3    3  502    0  0.28335276618E+03  0.14330715881E+03 -0.10509691874E+03  0.33447136533E+03  0.50400001928E-02 0. -1.
       -1    1    3    3    0  502 -0.28335276618E+03 -0.14330715881E+03  0.21800019172E+03  0.38516206392E+03  0.50400001928E-02 0.  1.
</event>
<event>
 5   0  0.5987810E-02  0.7533007E+03  0.7818609E-02  0.9630186E-01
       -2   -1    0    0    0  501  0.00000000000E+00  0.00000000000E+00  0.27268308023E+03  0.27268308025E+03  0.25500000920E-02 0.  1.
        2   -1    0    0  501    0  0.00000000000E+00  0.00000000000E+00 -0.52025780998E+03  0.52025780999E+03  0.25500000920E-02 0. -1.
    10030    2    1    2    0    0  0.00000000000E+00  0.00000000000E+00 -0.24757472975E+03  0.79294089023E+03  0.75330074246E+03 0.  0.
        5    1    3    3  502    0 -0.50862340444E+02 -0.19492740941E+03  0.21117099514E+03  0.29188859485E+03  0.46999998093E+01 0.  1.
       -5    1    3    3    0  502  0.50862340444E+02  0.19492740941E+03 -0.45874572488E+03  0.50105229539E+03  0.46999998093E+01 0. -1.
</event>
<event>
 5   0  0.5899787E-02  0.6997467E+03  0.7818609E-02  0.9717665E-01
       -2   -1    0    0    0  501  0.00000000000E+00  0.00000000000E+00  0.74717100802E+02  0.74717100846E+02  0.25500000920E-02 0. -1.
        2   -1    0    0  501    0  0.00000000000E+00  0.00000000000E+00 -0.16383311614E+04  0.16383311614E+04  0.25500000920E-02 0.  1.
    10030    2    1    2    0    0  0.00000000000E+00  0.00000000000E+00 -0.15636140606E+04  0.17130482622E+04  0.69974668151E+03 0.  0.
        2    1    3    3  502    0  0.42650089523E+02  0.33271057790E+03 -0.53827364717E+03  0.63423487607E+03  0.25500000920E-02 0. -1.
       -2    1    3    3    0  502 -0.42650089523E+02 -0.33271057790E+03 -0.10253404134E+04  0.10788133862E+04  0.25500000920E-02 0.  1.
</event>
<event>
 5   0  0.3439015E-02  0.6275545E+03  0.7818609E-02  0.9849833E-01
        1   -1    0    0  501    0  0.00000000000E+00  0.00000000000E+00  0.81472657516E+03  0.81472657518E+03  0.50400001928E-02 0. -1.
       -1   -1    0    0    0  501  0.00000000000E+00  0.00000000000E+00 -0.12084566073E+03  0.12084566084E+03  0.50400001928E-02 0.  1.
    10030    2    1    2    0    0  0.00000000000E+00  0.00000000000E+00  0.69388091443E+03  0.93557223601E+03  0.62755452782E+03 0.  0.
        1    1    3    3  502    0  0.23253873297E+03 -0.41925902619E+02  0.65472982240E+03  0.69606262937E+03  0.50400001928E-02 0.  1.
       -1    1    3    3    0  502 -0.23253873297E+03  0.41925902619E+02  0.39151092026E+02  0.23950960664E+03  0.50400001928E-02 0. -1.
</event>
<event>
 5   0  0.5987810E-02  0.6941542E+03  0.7818609E-02  0.9727282E-01
        2   -1    0    0  501    0  0.00000000000E+00  0.00000000000E+00  0.63909536457E+03  0.63909536458E+03  0.25500000920E-02 0. -1.
       -2   -1    0    0    0  501  0.00000000000E+00  0.00000000000E+00 -0.18848909645E+03  0.18848909647E+03  0.25500000920E-02 0.  1.
    10030    2    1    2    0    0  0.00000000000E+00  0.00000000000E+00  0.45060626812E+03  0.82758446105E+03  0.69415418409E+03 0.  0.
        5    1    3    3  502    0  0.93062763200E+02 -0.26036382026E+03 -0.24751807345E+02  0.27764138517E+03  0.46999998093E+01 0.  1.
       -5    1    3    3    0  502 -0.93062763200E+02  0.26036382026E+03  0.47535807547E+03  0.54994307588E+03  0.46999998093E+01 0. -1.
</event>
<event>
 5   0  0.5987810E-02  0.7786621E+03  0.7818609E-02  0.9591427E-01
        2   -1    0    0  501    0  0.00000000000E+00  0.00000000000E+00  0.15729774683E+04  0.15729774683E+04  0.25500000920E-02 0. -1.
       -2   -1    0    0    0  501  0.00000000000E+00  0.00000000000E+00 -0.96364168402E+02  0.96364168436E+02  0.25500000920E-02 0.  1.
    10030    2    1    2    0    0  0.00000000000E+00  0.00000000000E+00  0.14766132999E+04  0.16693416368E+04  0.77866209791E+03 0.  0.
        5    1    3    3  502    0  0.12910034241E+02 -0.28433982643E+03  0.16890819083E+03  0.33101038172E+03  0.46999998093E+01 0.  1.
       -5    1    3    3    0  502 -0.12910034241E+02  0.28433982643E+03  0.13077051091E+04  0.13383312550E+04  0.46999998093E+01 0. -1.
</event>
<event>
 5   0  0.6248886E-02  0.6664944E+03  0.7818609E-02  0.9776312E-01
       -2   -1    0    0    0  501  0.00000000000E+00  0.00000000000E+00  0.19109210509E+03  0.19109210511E+03  0.25500000920E-02 0. -1.
        2   -1    0    0  501    0  0.00000000000E+00  0.00000000000E+00 -0.58115268080E+03  0.58115268080E+03  0.25500000920E-02 0.  1.
    10030    2    1    2    0    0  0.00000000000E+00  0.00000000000E+00 -0.39006057570E+03  0.77224478591E+03  0.66649437856E+03 0.  0.
        3    1    3    3  502    0  0.13488258401E+03  0.14904163511E+03 -0.50299802966E+03  0.54167679340E+03  0.10100000352E+00 0.  1.
       -3    1    3    3    0  502 -0.13488258401E+03 -0.14904163511E+03  0.11293745395E+03  0.23056799252E+03  0.10100000352E+00 0. -1.
</event>
<event>
 5   0  0.2439375E-02  0.6915676E+03  0.7818609E-02  0.9731762E-01
       -4   -1    0    0    0  501  0.00000000000E+00  0.00000000000E+00  0.49265652524E+03  0.49265816218E+03  0.12699999809E+01 0. -1.
        4   -1    0    0  501    0  0.00000000000E+00  0.00000000000E+00 -0.24269365827E+03  0.24269698116E+03  0.12699999809E+01 0.  1.
    10030    2    1    2    0    0  0.00000000000E+00  0.00000000000E+00  0.24996286697E+03  0.73535514333E+03  0.69156760477E+03 0.  0.
        1    1    3    3  502    0  0.24035893864E+03  0.77527064703E+02 -0.12615843140E+03  0.28230978549E+03  0.50400001928E-02 0.  1.
       -1    1    3    3    0  502 -0.24035893864E+03 -0.77527064703E+02  0.37612129837E+03  0.45304535784E+03  0.50400001928E-02 0. -1.
</event>
<event>
 5   0  0.3601475E-02  0.6981098E+03  0.7818609E-02  0.9720470E-01
        1   -1    0    0  501    0  0.00000000000E+00  0.00000000000E+00  0.95124345742E+03  0.95124345743E+03  0.50400001928E-02 0.  1.
       -1   -1    0    0    0  501  0.00000000000E+00  0.00000000000E+00 -0.12808425979E+03  0.12808425989E+03  0.50400001928E-02 0. -1.
    10030    2    1    2    0    0  0.00000000000E+00  0.00000000000E+00  0.82315919763E+03  0.10793277173E+04  0.69810977413E+03 0.  0.
        5    1    3    3  502    0 -0.25066533859E+03 -0.14970404815E+03  0.11590856666E+03  0.31416763014E+03  0.46999998093E+01 0. -1.
       -5    1    3    3    0  502  0.25066533859E+03  0.14970404815E+03  0.70725063098E+03  0.76516008718E+03  0.46999998093E+01 0.  1.
</event>
<event>
 5   0  0.5899787E-02  0.6995142E+03  0.7818609E-02  0.9718063E-01
       -2   -1    0    0    0  501  0.00000000000E+00  0.00000000000E+00  0.30562128105E+03  0.30562128106E+03  0.25500000920E-02 0. -1.
        2   -1    0    0  501    0  0.00000000000E+00  0.00000000000E+00 -0.40026669148E+03  0.40026669148E+03  0.25500000920E-02 0.  1.
    10030    2    1    2    0    0  0.00000000000E+00  0.00000000000E+00 -0.94645410428E+02  0.70588797254E+03  0.69951417146E+03 0.  0.
        2    1    3    3  502    0  0.19369180522E+03 -0.87396286991E+02 -0.32765858666E+03  0.39053140182E+03  0.25500000920E-02 0.  1.
       -2    1    3    3    0  502 -0.19369180522E+03  0.87396286991E+02  0.23301317624E+03  0.31535657072E+03  0.25500000920E-02 0. -1.
</event>
<event>
 5   0  0.6131198E-02  0.7000679E+03  0.7818609E-02  0.9717116E-01
        2   -1    0    0  501    0  0.00000000000E+00  0.00000000000E+00  0.79074667600E+03  0.79074667601E+03  0.25500000920E-02 0. -1.
       -2   -1    0    0    0  501  0.00000000000E+00  0.00000000000E+00 -0.15494691762E+03  0.15494691764E+03  0.25500000920E-02 0.  1.
    10030    2    1    2    0    0  0.00000000000E+00  0.00000000000E+00  0.63579975838E+03  0.94569359364E+03  0.70006788264E+03 0.  0.
        1    1    3    3  502    0  0.32252932373E+03  0.66787005208E+02  0.15784669273E+03  0.36524135468E+03  0.50400001928E-02 0.  1.
       -1    1    3    3    0  502 -0.32252932373E+03 -0.66787005208E+02  0.47795306565E+03  0.58045223897E+03  0.50400001928E-02 0. -1.
</event>
<event>
 5   0  0.3755872E-02  0.6828979E+03  0.7818609E-02  0.9746934E-01
       -1   -1    0    0    0  501  0.00000000000E+00  0.00000000000E+00  0.23076611523E+03  0.23076611528E+03  0.50400001928E-02 0. -1.
        1   -1    0    0  501    0  0.00000000000E+00  0.00000000000E+00 -0.50521886942E+03  0.50521886945E+03  0.50400001928E-02 0.  1.
    10030    2    1    2    0    0  0.00000000000E+00  0.00000000000E+00 -0.27445275419E+03  0.73598498473E+03  0.68289793049E+03 0.  0.
        2    1    3    3  502    0  0.63558636825E+02  0.23600809651E+02  0.22343873320E+03  0.23349853540E+03  0.25500000920E-02 0. -1.
       -2    1    3    3    0  502 -0.63558636825E+02 -0.23600809651E+02 -0.49789148740E+03  0.50248644933E+03  0.25500000920E-02 0.  1.
</event>
<event>
 5   0  0.3439015E-02  0.7107347E+03  0.7818609E-02  0.9699049E-01
       -1   -1    0    0    0  501  0.00000000000E+00  0.00000000000E+00  0.10639614641E+03  0.10639614653E+03  0.50400001928E-02 0. -1.
        1   -1    0    0  501    0  0.00000000000E+00  0.00000000000E+00 -0.11869410759E+04  0.11869410760E+04  0.50400001928E-02 0.  1.
    10030    2    1    2    0    0  0.00000000000E+00  0.00000000000E+00 -0.10805449295E+04  0.12933372225E+04  0.71073470882E+03 0.  0.
        1    1    3    3  502    0  0.16959270750E+03 -0.18533539736E+03 -0.82892553765E+02  0.26454124716E+03  0.50400001928E-02 0. -1.
       -1    1    3    3    0  502 -0.16959270750E+03  0.18533539736E+03 -0.99765237577E+03  0.10287959753E+04  0.50400001928E-02 0.  1.
</event>
<event>
 5   0  0.5899787E-02  0.6997190E+03  0.7818609E-02  0.9717713E-01
        2   -1    0    0  501    0  0.00000000000E+00  0.00000000000E+00  0.59765268248E+03  0.59765268249E+03  0.25500000920E-02 0.  1.
       -2   -1    0    0    0  501  0.00000000000E+00  0.00000000000E+00 -0.20480399144E+03  0.20480399145E+03  0.25500000920E-02 0. -1.
    10030    2    1    2    0    0  0.00000000000E+00  0.00000000000E+00  0.39284869104E+03  0.80245667394E+03  0.69971895751E+03 0.  0.
        2    1    3    3  502    0  0.45039076652E+02  0.41081467457E+02 -0.19866625022E+03  0.20780876876E+03  0.25500000920E-02 0. -1.
       -2    1    3    3    0  502 -0.45039076652E+02 -0.41081467457E+02  0.59151494126E+03  0.59464790518E+03  0.25500000920E-02 0.  1.
</event>
<event>
 5   0  0.3439015E-02  0.7192274E+03  0.7818609E-02  0.9684904E-01
       -1   -1    0    0    0  501  0.00000000000E+00  0.00000000000E+00  0.32006686815E+03  0.32006686819E+03  0.50400001928E-02 0.  1.
        1   -1    0    0  501    0  0.00000000000E+00  0.00000000000E+00 -0.40404685194E+03  0.40404685197E+03  0.50400001928E-02 0. -1.
    10030    2    1    2    0    0  0.00000000000E+00  0.00000000000E+00 -0.83979983789E+02  0.72411372016E+03  0.71922739244E+03 0.  0.
        1    1    3    3  502    0 -0.16242807418E+03 -0.87117579306E+01  0.28091194434E+03  0.32460790888E+03  0.50400001928E-02 0.  1.
       -1    1    3    3    0  502  0.16242807418E+03  0.87117579306E+01 -0.36489192813E+03  0.39950581128E+03  0.50400001928E-02 0. -1.
</event>
<event>
 5   0  0.3439015E-02  0.6904605E+03  0.7818609E-02  0.9733687E-01
       -1   -1    0    0    0  501  0.00000000000E+00  0.00000000000E+00  0.24806663418E+03  0.24806663423E+03  0.50400001928E-02 0. -1.
        1   -1    0    0  501    0  0.00000000000E+00  0.00000000000E+00 -0.48045121009E+03  0.48045121011E+03  0.50400001928E-02 0.  1.
    10030    2    1    2    0    0  0.00000000000E+00  0.00000000000E+00 -0.23238457590E+03  0.72851784434E+03  0.69046046839E+03 0.  0.
        1    1    3    3  502    0 -0.13271444953E+03  0.30798364637E+03 -0.20266610339E+03  0.39184257175E+03  0.50400001928E-02 0.  1.
       -1    1    3    3    0  502  0.13271444953E+03 -0.30798364637E+03 -0.29718472518E+02  0.33667527260E+03  0.50400001928E-02 0. -1.
</event>
<event>
 5   0  0.3755872E-02  0.7442977E+03  0.7818609E-02  0.9644339E-01
       -1   -1    0    0    0  501  0.00000000000E+00  0.00000000000E+00  0.31960154714E+03  0.31960154718E+03  0.50400001928E-02 0. -1.
        1   -1    0    0  501    0  0.00000000000E+00  0.00000000000E+00 -0.43333566292E+03  0.43333566295E+03  0.50400001928E-02 0.  1.
    10030    2    1    2    0    0  0.00000000000E+00  0.00000000000E+00 -0.11373411579E+03  0.75293721013E+03  0.74429765101E+03 0.  0.
        2    1    3    3  502    0 -0.13889557364E+03 -0.94526384171E+02 -0.39278711588E+03  0.42721064604E+03  0.25500000920E-02 0.  1.
       -2    1    3    3    0  502  0.13889557364E+03  0.94526384171E+02  0.27905300010E+03  0.32572656409E+03  0.25500000920E-02 0. -1.
</event>
<event>
 5   0  0.6167756E-02  0.6808688E+03  0.7818609E-02  0.9750520E-01
       -2   -1    0    0    0  501  0.00000000000E+00  0.00000000000E+00  0.18014603120E+03  0.18014603122E+03  0.25500000920E-02 0. -1.
        2   -1    0    0  501    0  0.00000000000E+00  0.00000000000E+00 -0.64334244198E+03  0.64334244199E+03  0.25500000920E-02 0.  1.
    10030    2    1    2    0    0  0.00000000000E+00  0.00000000000E+00 -0.46319641078E+03  0.82348847320E+03  0.68086882036E+03 0.  0.
        4    1    3    3  502    0  0.62745148536E+02 -0.32436727657E+03 -0.33091373121E+03  0.46760730766E+03  0.12699999809E+01 0. -1.
       -4    1    3    3    0  502 -0.62745148536E+02  0.32436727657E+03 -0.13228267957E+03  0.35588116554E+03  0.12699999809E+01 0.  1.
</event>
<event>
 5   0  0.5987810E-02  0.4598711E+03  0.7818609E-02  0.1024819E+00
        2   -1    0    0  501    0  0.00000000000E+00  0.00000000000E+00  0.47589912123E+03  0.47589912124E+03  0.25500000920E-02 0.  1.
       -2   -1    0    0    0  501  0.00000000000E+00  0.00000000000E+00 -0.11109572689E+03  0.11109572692E+03  0.25500000920E-02 0. -1.
    10030    2    1    2    0    0  0.00000000000E+00  0.00000000000E+00  0.36480339435E+03  0.58699484816E+03  0.45987110720E+03 0.  0.
        5    1    3    3  502    0  0.10996184013E+03 -0.12775441251E+03  0.38193185068E+03  0.41750068833E+03  0.46999998093E+01 0.  1.
       -5    1    3    3    0  502 -0.10996184013E+03  0.12775441251E+03 -0.17128456329E+02  0.16949415983E+03  0.46999998093E+01 0. -1.
</event>
<event>
 5   0  0.6167756E-02  0.7177877E+03  0.7818609E-02  0.9687287E-01
       -2   -1    0    0    0  501  0.00000000000E+00  0.00000000000E+00  0.39560649961E+03  0.39560649961E+03  0.25500000920E-02 0.  1.
        2   -1    0    0  501    0  0.00000000000E+00  0.00000000000E+00 -0.32558814184E+03  0.32558814185E+03  0.25500000920E-02 0. -1.
    10030    2    1    2    0    0  0.00000000000E+00  0.00000000000E+00  0.70018357770E+02  0.72119464146E+03  0.71778767086E+03 0.  0.
        4    1    3    3  502    0 -0.11874738137E+03 -0.50951748668E+02 -0.30140261877E+03  0.32793623279E+03  0.12699999809E+01 0. -1.
       -4    1    3    3    0  502  0.11874738137E+03  0.50951748668E+02  0.37142097654E+03  0.39325840867E+03  0.12699999809E+01 0.  1.
</event>
<event>
 5   0  0.6131198E-02  0.6991595E+03  0.7818609E-02  0.9718671E-01
        2   -1    0    0  501    0  0.00000000000E+00  0.00000000000E+00  0.14392716988E+04  0.14392716988E+04  0.25500000920E-02 0. -1.
       -2   -1    0    0    0  501  0.00000000000E+00  0.00000000000E+00 -0.84908227347E+02  0.84908227385E+02  0.25500000920E-02 0.  1.
    10030    2    1    2    0    0  0.00000000000E+00  0.00000000000E+00  0.13543634714E+04  0.15241799261E+04  0.69915952012E+03 0.  0.
        1    1    3    3  502    0  0.23610683621E+02 -0.45616524561E+02  0.14310003504E+04  0.14319219024E+04  0.50400001928E-02 0. -1.
       -1    1    3    3    0  502 -0.23610683621E+02  0.45616524561E+02 -0.76636879005E+02  0.92258023733E+02  0.50400001928E-02 0.  1.
</event>
<event>
 5   0  0.5987810E-02  0.6971278E+03  0.7818609E-02  0.9722157E-01
        2   -1    0    0  501    0  0.00000000000E+00  0.00000000000E+00  0.23704581052E+03  0.23704581054E+03  0.25500000920E-02 0.  1.
       -2   -1    0    0    0  501  0.00000000000E+00  0.00000000000E+00 -0.51254561471E+03  0.51254561471E+03  0.25500000920E-02 0. -1.
    10030    2    1    2    0    0  0.00000000000E+00  0.00000000000E+00 -0.27549980418E+03  0.74959142525E+03  0.69712779510E+03 0.  0.
        5    1    3    3  502    0  0.18814509537E+03 -0.28606358276E+03 -0.20779651285E+03  0.40054017407E+03  0.46999998093E+01 0.  1.
       -5    1    3    3    0  502 -0.18814509537E+03  0.28606358276E+03 -0.67703291336E+02  0.34905125118E+03  0.46999998093E+01 0. -1.
</event>
<event>
 5   0  0.6248886E-02  0.7213680E+03  0.7818609E-02  0.9681372E-01
        2   -1    0    0  501    0  0.00000000000E+00  0.00000000000E+00  0.83263819227E+03  0.83263819227E+03  0.25500000920E-02 0. -1.
       -2   -1    0    0    0  501  0.00000000000E+00  0.00000000000E+00 -0.15624189098E+03  0.15624189100E+03  0.25500000920E-02 0.  1.
    10030    2    1    2    0    0  0.00000000000E+00  0.00000000000E+00  0.67639630129E+03  0.98888008327E+03  0.72136804939E+03 0.  0.
        3    1    3    3  502    0  0.12236062870E+03 -0.23009039244E+03  0.68002757492E+03  0.72825217130E+03  0.10100000352E+00 0. -1.
       -3    1    3    3    0  502 -0.12236062870E+03  0.23009039244E+03 -0.36312736304E+01  0.26062791197E+03  0.10100000352E+00 0.  1.
</event>
<event>
 5   0  0.6167756E-02  0.7164918E+03  0.7818609E-02  0.9689437E-01
        2   -1    0    0  501    0  0.00000000000E+00  0.00000000000E+00  0.10847224403E+04  0.10847224403E+04  0.25500000920E-02 0.  1.
       -2   -1    0    0    0  501  0.00000000000E+00  0.00000000000E+00 -0.11831609377E+03  0.11831609379E+03  0.25500000920E-02 0. -1.
    10030    2    1    2    0    0  0.00000000000E+00  0.00000000000E+00  0.96640634653E+03  0.12030385341E+04  0.71649179192E+03 0.  0.
        4    1    3    3  502    0  0.74210547445E+01  0.27457158952E+02  0.10828198704E+04  0.10831940972E+04  0.12699999809E+01 0.  1.
       -4    1    3    3    0  502 -0.74210547445E+01 -0.27457158952E+02 -0.11641352382E+03  0.11984443692E+03  0.12699999809E+01 0. -1.
</event>
<event>
 5   0  0.3717372E-02  0.7060978E+03  0.7818609E-02  0.9706861E-01
       -1   -1    0    0    0  501  0.00000000000E+00  0.00000000000E+00  0.13538845933E+03  0.13538845943E+03  0.50400001928E-02 0. -1.
        1   -1    0    0  501    0  0.00000000000E+00  0.00000000000E+00 -0.92063618168E+03  0.92063618169E+03  0.50400001928E-02 0.  1.
    10030    2    1    2    0    0  0.00000000000E+00  0.00000000000E+00 -0.78524772234E+03  0.10560246411E+04  0.70609776745E+03 0.  0.
        3    1    3    3  502    0 -0.20246845938E+03 -0.26161486837E+03 -0.57705778523E+03  0.66515525563E+03  0.10100000352E+00 0.  1.
       -3    1    3    3    0  502  0.20246845938E+03  0.26161486837E+03 -0.20818993712E+03  0.39086938549E+03  0.10100000352E+00 0. -1.
</event>
<event>
 5   0  0.3755872E-02  0.4690889E+03  0.7818609E-02  0.1022178E+00
        1   -1    0    0  501    0  0.00000000000E+00  0.00000000000E+00  0.25655216348E+03  0.25655216353E+03  0.50400001928E-02 0. -1.
       -1   -1    0    0    0  501  0.00000000000E+00  0.00000000000E+00 -0.21442462555E+03  0.21442462561E+03  0.50400001928E-02 0.  1.
    10030    2    1    2    0    0  0.00000000000E+00  0.00000000000E+00  0.42127537926E+02  0.47097678914E+03  0.46908891103E+03 0.  0.
        2    1    3    3  502    0  0.17127406526E+03  0.30704937443E+02 -0.13683805721E+03  0.22136452409E+03  0.25500000920E-02 0.  1.
       -2    1    3    3    0  502 -0.17127406526E+03 -0.30704937443E+02  0.17896559514E+03  0.24961226505E+03  0.25500000920E-02 0. -1.
</event>
<event>
 5   0  0.3717372E-02  0.7026455E+03  0.7818609E-02  0.9712719E-01
       -1   -1    0    0    0  501  0.00000000000E+00  0.00000000000E+00  0.58898519526E+02  0.58898519742E+02  0.50400001928E-02 0. -1.
        1   -1    0    0  501    0  0.00000000000E+00  0.00000000000E+00 -0.20955991420E+04  0.20955991420E+04  0.50400001928E-02 0.  1.
    10030    2    1    2    0    0  0.00000000000E+00  0.00000000000E+00 -0.20367006225E+04  0.21544976617E+04  0.70264553574E+03 0.  0.
        3    1    3    3  502    0 -0.99289702432E+02  0.74403731479E+01 -0.20514309119E+04  0.20538458074E+04  0.10100000352E+00 0.  1.
       -3    1    3    3    0  502  0.99289702432E+02 -0.74403731479E+01  0.14730289384E+02  0.10065185437E+03  0.10100000352E+00 0. -1.
</event>
<event>
 5   0  0.6167756E-02  0.7080246E+03  0.7818609E-02  0.9703607E-01
       -2   -1    0    0    0  501  0.00000000000E+00  0.00000000000E+00  0.21772306550E+03  0.21772306551E+03  0.25500000920E-02 0.  1.
        2   -1    0    0  501    0  0.00000000000E+00  0.00000000000E+00 -0.57561517145E+03  0.57561517145E+03  0.25500000920E-02 0. -1.
    10030    2    1    2    0    0  0.00000000000E+00  0.00000000000E+00 -0.35789210595E+03  0.79333823697E+03  0.70802457495E+03 0.  0.
        4    1    3    3  502    0  0.19670428946E+02  0.22306526006E+03  0.12827826252E+03  0.25807355842E+03  0.12699999809E+01 0.  1.
       -4    1    3    3    0  502 -0.19670428946E+02 -0.22306526006E+03 -0.48617036847E+03  0.53526467855E+03  0.12699999809E+01 0. -1.
</event>
<event>
 5   0  0.3439015E-02  0.8262211E+03  0.7818609E-02  0.9522820E-01
        1   -1    0    0  501    0  0.00000000000E+00  0.00000000000E+00  0.70378162981E+03  0.70378162983E+03  0.50400001928E-02 0. -1.
       -1   -1    0    0    0  501  0.00000000000E+00  0.00000000000E+00 -0.24249045185E+03  0.24249045190E+03  0.50400001928E-02 0.  1.
    10030    2    1    2    0    0  0.00000000000E+00  0.00000000000E+00  0.46129117796E+03  0.94627208173E+03  0.82622109741E+03 0.  0.
        1    1    3    3  502    0  0.22384794130E+03  0.48810183918E+02 -0.16306160193E+03  0.28121063445E+03  0.50400001928E-02 0.  1.
       -1    1    3    3    0  502 -0.22384794130E+03 -0.48810183918E+02  0.62435277989E+03  0.66506144728E+03  0.50400001928E-02 0. -1.
</event>
<event>
 5   0  0.3601475E-02  0.6723822E+03  0.7818609E-02  0.9765664E-01
        1   -1    0    0  501    0  0.00000000000E+00  0.00000000000E+00  0.12203920537E+04  0.12203920537E+04  0.50400001928E-02 0.  1.
       -1   -1    0    0    0  501  0.00000000000E+00  0.00000000000E+00 -0.92613243392E+02  0.92613243529E+02  0.50400001928E-02 0. -1.
    10030    2    1    2    0    0  0.00000000000E+00  0.00000000000E+00  0.11277788103E+04  0.13130052972E+04  0.67238223176E+03 0.  0.
        5    1    3    3  502    0 -0.11914613879E+03 -0.23988180078E+01  0.11776945491E+04  0.11837179131E+04  0.46999998093E+01 0.  1.
       -5    1    3    3    0  502  0.11914613879E+03  0.23988180078E+01 -0.49915738833E+02  0.12928738414E+03  0.46999998093E+01 0. -1.
</event>
<event>
 5   0  0.3439015E-02  0.6996859E+03  0.7818609E-02  0.9717769E-01
        1   -1    0    0  501    0  0.00000000000E+00  0.00000000000E+00  0.36943897273E+03  0.36943897276E+03  0.50400001928E-02 0. -1.
       -1   -1    0    0    0  501  0.00000000000E+00  0.00000000000E+00 -0.33128638247E+03  0.33128638251E+03  0.50400001928E-02 0.  1.
    10030    2    1    2    0    0  0.00000000000E+00  0.00000000000E+00  0.38152590258E+02  0.70072535527E+03  0.69968593195E+03 0.  0.
        1    1    3    3  502    0  0.14109686590E+03 -0.68389396045E+02 -0.29412566912E+03  0.33330968231E+03  0.50400001928E-02 0.  1.
       -1    1    3    3    0  502 -0.14109686590E+03  0.68389396045E+02  0.33227825938E+03  0.36741567296E+03  0.50400001928E-02 0. -1.
</event>
<event>
 5   0  0.3755872E-02  0.6898470E+03  0.7818609E-02  0.9734754E-01
        1   -1    0    0  501    0  0.00000000000E+00  0.00000000000E+00  0.51707692358E+03  0.51707692360E+03  0.50400001928E-02 0.  1.
       -1   -1    0    0    0  501  0.00000000000E+00  0.00000000000E+00 -0.23008610107E+03  0.23008610112E+03  0.50400001928E-02 0. -1.
    10030    2    1    2    0    0  0.00000000000E+00  0.00000000000E+00  0.28699082251E+03  0.74716302472E+03  0.68984697818E+03 0.  0.
        2    1    3    3  502    0  0.93435171338E+02  0.22845017386E+03  0.40445511068E+03  0.47381805553E+03  0.25500000920E-02 0.  1.
       -2    1    3    3    0  502 -0.93435171338E+02 -0.22845017386E+03 -0.11746428817E+03  0.27334496919E+03  0.25500000920E-02 0. -1.
</event>
<event>
 5   0  0.5987810E-02  0.6894724E+03  0.7818609E-02  0.9735407E-01
       -2   -1    0    0    0  501  0.00000000000E+00  0.00000000000E+00  0.43793410710E+03  0.43793410711E+03  0.25500000920E-02 0. -1.
        2   -1    0    0  501    0  0.00000000000E+00  0.00000000000E+00 -0.27137198992E+03  0.27137198993E+03  0.25500000920E-02 0.  1.
    10030    2    1    2    0    0  0.00000000000E+00  0.00000000000E+00  0.16656211719E+03  0.70930609704E+03  0.68947240729E+03 0.  0.
        5    1    3    3  502    0 -0.12111608897E+02 -0.16471431558E+03 -0.22798407218E+03  0.28156051568E+03  0.46999998093E+01 0.  1.
       -5    1    3    3    0  502  0.12111608897E+02  0.16471431558E+03  0.39454618936E+03  0.42774558135E+03  0.46999998093E+01 0. -1.
</event>
<event>
 5   0  0.6167756E-02  0.6595212E+03  0.7818609E-02  0.9789075E-01
        2   -1    0    0  501    0  0.00000000000E+00  0.00000000000E+00  0.76630758668E+03  0.76630758668E+03  0.25500000920E-02 0. -1.
       -2   -1    0    0    0  501  0.00000000000E+00  0.00000000000E+00 -0.14190393668E+03  0.14190393671E+03  0.25500000920E-02 0.  1.
    10030    2    1    2    0    0  0.00000000000E+00  0.00000000000E+00  0.62440365000E+03  0.90821152339E+03  0.65952123021E+03 0.  0.
        4    1    3    3  502    0  0.28000058810E+03  0.13014896319E+03  0.15278549714E+03  0.34450559211E+03  0.12699999809E+01 0.  1.
       -4    1    3    3    0  502 -0.28000058810E+03 -0.13014896319E+03  0.47161815285E+03  0.56370593128E+03  0.12699999809E+01 0. -1.
</event>
<event>
 5   0  0.3717372E-02  0.6971697E+03  0.7818609E-02  0.9722085E-01
        1   -1    0    0  501    0  0.00000000000E+00  0.00000000000E+00  0.67480191079E+03  0.67480191081E+03  0.50400001928E-02 0. -1.
       -1   -1    0    0    0  501  0.00000000000E+00  0.00000000000E+00 -0.18006974217E+03  0.18006974224E+03  0.50400001928E-02 0.  1.
    10030    2    1    2    0    0  0.00000000000E+00  0.00000000000E+00  0.49473216862E+03  0.85487165305E+03  0.69716972433E+03 0.  0.
        3    1    3    3  502    0 -0.53429197199E+02 -0.17521420944E+03 -0.11629502158E+03  0.21697751162E+03  0.10100000352E+00 0.  1.
       -3    1    3    3    0  502  0.53429197199E+02  0.17521420944E+03  0.61102719020E+03  0.63789414143E+03  0.10100000352E+00 0. -1.
</event>
<event>
 5   0  0.2439375E-02  0.7019055E+03  0.7818609E-02  0.9713979E-01
       -4   -1    0    0    0  501  0.00000000000E+00  0.00000000000E+00  0.66617677967E+03  0.66617799023E+03  0.12699999809E+01 0. -1.
        4   -1    0    0  501    0  0.00000000000E+00  0.00000000000E+00 -0.18488402814E+03  0.18488839001E+03  0.12699999809E+01 0.  1.
    10030    2    1    2    0    0  0.00000000000E+00  0.00000000000E+00  0.48129275153E+03  0.85106638024E+03  0.70190545724E+03 0.  0.
        3    1    3    3  502    0  0.13458321830E+03  0.45582707915E+02  0.62974145488E+03  0.64557318416E+03  0.10100000352E+00 0. -1.
       -3    1    3    3    0  502 -0.13458321830E+03 -0.45582707915E+02 -0.14844870335E+03  0.20549319608E+03  0.10100000352E+00 0.  1.
</event>
<event>
 5   0  0.6167756E-02  0.6951299E+03  0.7818609E-02  0.9725597E-01
        2   -1    0    0  501    0  0.00000000000E+00  0.00000000000E+00  0.12542179341E+04  0.12542179341E+04  0.25500000920E-02 0.  1.
       -2   -1    0    0    0  501  0.00000000000E+00  0.00000000000E+00 -0.96316115270E+02  0.96316115304E+02  0.25500000920E-02 0. -1.
    10030    2    1    2    0    0  0.00000000000E+00  0.00000000000E+00  0.11579018189E+04  0.13505340495E+04  0.69512991345E+03 0.  0.
        4    1    3    3  502    0  0.28277297289E+03 -0.19834794491E+03  0.65413008675E+03  0.73972308652E+03  0.12699999809E+01 0.  1.
       -4    1    3    3    0  502 -0.28277297289E+03  0.19834794491E+03  0.50377173213E+03  0.61081096293E+03  0.12699999809E+01 0. -1.
</event>
<event>
 5   0  0.3749730E-02  0.7004627E+03  0.7818609E-02  0.9716441E-01
       -1   -1    0    0    0  501  0.00000000000E+00  0.00000000000E+00  0.46627650874E+03  0.46627650877E+03  0.50400001928E-02 0. -1.
        1   -1    0    0  501    0  0.00000000000E+00  0.00000000000E+00 -0.26306710764E+03  0.26306710768E+03  0.50400001928E-02 0.  1.
    10030    2    1    2    0    0  0.00000000000E+00  0.00000000000E+00  0.20320940111E+03  0.72934361646E+03  0.70046274003E+03 0.  0.
        4    1    3    3  502    0 -0.28236818261E+02  0.24064643101E+03 -0.16171023467E+03  0.29130711553E+03  0.12699999809E+01 0.  1.
       -4    1    3    3    0  502  0.28236818261E+02 -0.24064643101E+03  0.36491963578E+03  0.43803650092E+03  0.12699999809E+01 0. -1.
</event>
<event>
 5   0  0.6131198E-02  0.7047458E+03  0.7818609E-02  0.9709150E-01
        2   -1    0    0  501    0  0.00000000000E+00  0.00000000000E+00  0.99700627798E+02  0.99700627830E+02  0.25500000920E-02 0. -1.
       -2   -1    0    0    0  501  0.00000000000E+00  0.00000000000E+00 -0.12453950023E+04  0.12453950023E+04  0.25500000920E-02 0.  1.
    10030    2    1    2    0    0  0.00000000000E+00  0.00000000000E+00 -0.11456943745E+04  0.13450956302E+04  0.70474580840E+03 0.  0.
        1    1    3    3  502    0 -0.49704942747E+02 -0.44427405447E+02 -0.12332488592E+04  0.12350494421E+04  0.50400001928E-02 0.  1.
       -1    1    3    3    0  502  0.49704942747E+02  0.44427405447E+02  0.87554484688E+02  0.11004618804E+03  0.50400001928E-02 0. -1.
</event>
<event>
 5   0  0.3749730E-02  0.6874470E+03  0.7818609E-02  0.9738944E-01
       -1   -1    0    0    0  501  0.00000000000E+00  0.00000000000E+00  0.54102034658E+03  0.54102034660E+03  0.50400001928E-02 0. -1.
        1   -1    0    0  501    0  0.00000000000E+00  0.00000000000E+00 -0.21837599045E+03  0.21837599051E+03  0.50400001928E-02 0.  1.
    10030    2    1    2    0    0  0.00000000000E+00  0.00000000000E+00  0.32264435612E+03  0.75939633711E+03  0.68744702798E+03 0.  0.
        4    1    3    3  502    0 -0.60611311874E+02 -0.19847522403E+03 -0.14135932571E+03  0.25109802378E+03  0.12699999809E+01 0.  1.
       -4    1    3    3    0  502  0.60611311874E+02  0.19847522403E+03  0.46400368183E+03  0.50829831333E+03  0.12699999809E+01 0. -1.
</event>
<event>
 5   0  0.3439015E-02  0.6941887E+03  0.7818609E-02  0.9727222E-01
        1   -1    0    0  501    0  0.00000000000E+00  0.00000000000E+00  0.10836111738E+04  0.10836111738E+04  0.50400001928E-02 0. -1.
       -1   -1    0    0    0  501  0.00000000000E+00  0.00000000000E+00 -0.11117872032E+03  0.11117872043E+03  0.50400001928E-02 0.  1.
    10030    2    1    2    0    0  0.00000000000E+00  0.00000000000E+00  0.97243245343E+03  0.11947898942E+04  0.69418874579E+03 0.  0.
        1    1    3    3  502    0  0.98895283001E+01  0.30376407923E+03  0.19768109649E+03  0.36255790508E+03  0.50400001928E-02 0.  1.
       -1    1    3    3    0  502 -0.98895283001E+01 -0.30376407923E+03  0.77475135694E+03  0.83223198912E+03  0.50400001928E-02 0. -1.
</event>
<event>
 5   0  0.6248886E-02  0.6849632E+03  0.7818609E-02  0.9743298E-01
       -2   -1    0    0    0  501  0.00000000000E+00  0.00000000000E+00  0.48596760137E+02  0.48596760204E+02  0.25500000920E-02 0. -1.
        2   -1    0    0  501    0  0.00000000000E+00  0.00000000000E+00 -0.24136101608E+04  0.24136101608E+04  0.25500000920E-02 0.  1.
    10030    2    1    2    0    0  0.00000000000E+00  0.00000000000E+00 -0.23650134007E+04  0.24622069210E+04  0.68496316436E+03 0.  0.
        3    1    3    3  502    0  0.24850460416E+03 -0.15086826474E+03 -0.18333067511E+04  0.18562137337E+04  0.10100000352E+00 0. -1.
       -3    1    3    3    0  502 -0.24850460416E+03  0.15086826474E+03 -0.53170664959E+03  0.60599318726E+03  0.10100000352E+00 0.  1.
</event>
<event>
 5   0  0.3601475E-02  0.7087206E+03  0.7818609E-02  0.9702434E-01
        1   -1    0    0  501    0  0.00000000000E+00  0.00000000000E+00  0.92761231897E+03  0.92761231898E+03  0.50400001928E-02 0. -1.
       -1   -1    0    0    0  501  0.00000000000E+00  0.00000000000E+00 -0.13537037686E+03  0.13537037695E+03  0.50400001928E-02 0.  1.
    10030    2    1    2    0    0  0.00000000000E+00  0.00000000000E+00  0.79224194211E+03  0.10629826959E+04  0.70872061987E+03 0.  0.
        5    1    3    3  502    0  0.30342929188E+03 -0.14618739251E+03  0.56116741398E+03  0.65450060765E+03  0.46999998093E+01 0. -1.
       -5    1    3    3    0  502 -0.30342929188E+03  0.14618739251E+03  0.23107452813E+03  0.40848208829E+03  0.46999998093E+01 0.  1.
</event>
<event>
 5   0  0.6248886E-02  0.6862782E+03  0.7818609E-02  0.9740990E-01
       -2   -1    0    0    0  501  0.00000000000E+00  0.00000000000E+00  0.12454346569E+03  0.12454346571E+03  0.25500000920E-02 0.  1.
        2   -1    0    0  501    0  0.00000000000E+00  0.00000000000E+00 -0.94540836913E+03  0.94540836913E+03  0.25500000920E-02 0. -1.
    10030    2    1    2    0    0  0.00000000000E+00  0.00000000000E+00 -0.82086490344E+03  0.10699518348E+04  0.68627817915E+03 0.  0.
        3    1    3    3  502    0  0.93072660641E+02  0.29856363396E+03 -0.63059563765E+03  0.70388467245E+03  0.10100000352E+00 0. -1.
       -3    1    3    3    0  502 -0.93072660641E+02 -0.29856363396E+03 -0.19026926579E+03  0.36606716240E+03  0.10100000352E+00 0.  1.
</event>
<event>
 5   0  0.6167756E-02  0.5455870E+03  0.7818609E-02  0.1002521E+00
        2   -1    0    0  501    0  0.00000000000E+00  0.00000000000E+00  0.13505774142E+04  0.13505774142E+04  0.25500000920E-02 0.  1.
       -2   -1    0    0    0  501  0.00000000000E+00  0.00000000000E+00 -0.55099615685E+02  0.55099615744E+02  0.25500000920E-02 0. -1.
    10030    2    1    2    0    0  0.00000000000E+00  0.00000000000E+00  0.12954777985E+04  0.14056770299E+04  0.54558701053E+03 0.  0.
        4    1    3    3  502    0 -0.14589748269E+03 -0.17488946329E+03  0.26090860099E+03  0.34633410285E+03  0.12699999809E+01 0. -1.
       -4    1    3    3    0  502  0.14589748269E+03  0.17488946329E+03  0.10345691975E+04  0.10593429271E+04  0.12699999809E+01 0.  1.
</event>
<event>
 5   0  0.6248886E-02  0.7181277E+03  0.7818609E-02  0.9686724E-01
       -2   -1    0    0    0  501  0.00000000000E+00  0.00000000000E+00  0.14181084520E+03  0.14181084522E+03  0.25500000920E-02 0.  1.
        2   -1    0    0  501    0  0.00000000000E+00  0.00000000000E+00 -0.90914650650E+03  0.90914650650E+03  0.25500000920E-02 0. -1.
    10030    2    1    2    0    0  0.00000000000E+00  0.00000000000E+00 -0.76733566130E+03  0.10509573517E+04  0.71812766137E+03 0.  0.
        3    1    3    3  502    0  0.15017666905E+03  0.32121842762E+03 -0.30097842855E+03  0.46510464932E+03  0.10100000352E+00 0.  1.
       -3    1    3    3    0  502 -0.15017666905E+03 -0.32121842762E+03 -0.46635723275E+03  0.58585270240E+03  0.10100000352E+00 0. -1.
</event>
<event>
 5   0  0.6131198E-02  0.6198505E+03  0.7818609E-02  0.9865057E-01
        2   -1    0    0  501    0  0.00000000000E+00  0.00000000000E+00  0.12997070831E+03  0.12997070834E+03  0.25500000920E-02 0. -1.
       -2   -1    0    0    0  501  0.00000000000E+00  0.00000000000E+00 -0.73904091516E+03  0.73904091516E+03  0.25500000920E-02 0.  1.
    10030    2    1    2    0    0  0.00000000000E+00  0.00000000000E+00 -0.60907020685E+03  0.86901162350E+03  0.61985053433E+03 0.  0.
        1    1    3    3  502    0  0.15652939399E+03 -0.22814744554E+03 -0.10875586450E+03  0.29728865800E+03  0.50400001928E-02 0.  1.
       -1    1    3    3    0  502 -0.15652939399E+03  0.22814744554E+03 -0.50031434235E+03  0.57172296550E+03  0.50400001928E-02 0. -1.
</event>
<event>
 5   0  0.2439375E-02  0.6956330E+03  0.7818609E-02  0.9724730E-01
       -4   -1    0    0    0  501  0.00000000000E+00  0.00000000000E+00  0.30693356466E+03  0.30693619209E+03  0.12699999809E+01 0.  1.
        4   -1    0    0  501    0  0.00000000000E+00  0.00000000000E+00 -0.39413957539E+03  0.39414162149E+03  0.12699999809E+01 0. -1.
    10030    2    1    2    0    0  0.00000000000E+00  0.00000000000E+00 -0.87206010735E+02  0.70107781358E+03  0.69563295809E+03 0.  0.
        5    1    3    3  502    0  0.32015894252E+03  0.13136099535E+03 -0.87381048074E+01  0.34620211445E+03  0.46999998093E+01 0. -1.
       -5    1    3    3    0  502 -0.32015894252E+03 -0.13136099535E+03 -0.78467905928E+02  0.35487569913E+03  0.46999998093E+01 0.  1.
</event>
<event>
 5   0  0.3749730E-02  0.7046521E+03  0.7818609E-02  0.9709309E-01
       -1   -1    0    0    0  501  0.00000000000E+00  0.00000000000E+00  0.46803100051E+02  0.46803100322E+02  0.50400001928E-02 0. -1.
        1   -1    0    0  501    0  0.00000000000E+00  0.00000000000E+00 -0.26522527709E+04  0.26522527709E+04  0.50400001928E-02 0.  1.
    10030    2    1    2    0    0  0.00000000000E+00  0.00000000000E+00 -0.26054496708E+04  0.26990558712E+04  0.70465211890E+03 0.  0.
        4    1    3    3  502    0  0.25073664624E+03  0.10600826971E+03 -0.44601750030E+03  0.52253214493E+03  0.12699999809E+01 0. -1.
       -4    1    3    3    0  502 -0.25073664624E+03 -0.10600826971E+03 -0.21594321705E+04  0.21765237263E+04  0.12699999809E+01 0.  1.
</event>
<event>
 5   0  0.5987810E-02  0.7006774E+03  0.7818609E-02  0.9716074E-01
        2   -1    0    0  501    0  0.00000000000E+00  0.00000000000E+00  0.54271233668E+03  0.54271233668E+03  0.25500000920E-02 0.  1.
       -2   -1    0    0    0  501  0.00000000000E+00  0.00000000000E+00 -0.22615515954E+03  0.22615515956E+03  0.25500000920E-02 0. -1.
    10030    2    1    2    0    0  0.00000000000E+00  0.00000000000E+00  0.31655717713E+03  0.76886749624E+03  0.70067737253E+03 0.  0.
        5    1    3    3  502    0 -0.20216672390E+03 -0.21326787703E+03 -0.50963252217E+02  0.29828495554E+03  0.46999998093E+01 0. -1.
       -5    1    3    3    0  502  0.20216672390E+03  0.21326787703E+03  0.36752042935E+03  0.47058254070E+03  0.46999998093E+01 0.  1.
</event>
<event>
 5   0  0.3439015E-02  0.7011552E+03  0.7818609E-02  0.9715259E-01
        1   -1    0    0  501    0  0.00000000000E+00  0.00000000000E+00  0.14012385690E+03  0.14012385699E+03  0.50400001928E-02 0. -1.
       -1   -1    0    0    0  501  0.00000000000E+00  0.00000000000E+00 -0.87711444504E+03  0.87711444506E+03  0.50400001928E-02 0.  1.
    10030    2    1    2    0    0  0.00000000000E+00  0.00000000000E+00 -0.73699058815E+03  0.10172383020E+04  0.70115521544E+03 0.  0.
        1    1    3    3  502    0 -0.62759371975E+02 -0.11686758878E+03  0.10230744918E+03  0.16752189785E+03  0.50400001928E-02 0. -1.
       -1    1    3    3    0  502  0.62759371975E+02  0.11686758878E+03 -0.83929803732E+03  0.84971640420E+03  0.50400001928E-02 0.  1.
</event>
<event>
 5   0  0.2439375E-02  0.7191191E+03  0.7818609E-02  0.9685083E-01
       -3   -1    0    0    0  501  0.00000000000E+00  0.00000000000E+00  0.34261713509E+03  0.34261714998E+03  0.10100000352E+00 0.  1.
        3   -1    0    0  501    0  0.00000000000E+00  0.00000000000E+00 -0.37733978001E+03  0.37733979353E+03  0.10100000352E+00 0. -1.
    10030    2    1    2    0    0  0.00000000000E+00  0.00000000000E+00 -0.34722644920E+02  0.71995694351E+03  0.71911914065E+03 0.  0.
        3    1    3    3  502    0 -0.62472642259E+02 -0.32040124947E+03  0.13355673691E+03  0.35269987790E+03  0.10100000352E+00 0.  1.
       -3    1    3    3    0  502  0.62472642259E+02  0.32040124947E+03 -0.16827938183E+03  0.36725706562E+03  0.10100000352E+00 0. -1.
</event>
<event>
 5   0  0.3749730E-02  0.6806685E+03  0.7818609E-02  0.9750875E-01
       -1   -1    0    0    0  501  0.00000000000E+00  0.00000000000E+00  0.39723707902E+03  0.39723707906E+03  0.50400001928E-02 0.  1.
        1   -1    0    0  501    0  0.00000000000E+00  0.00000000000E+00 -0.29158257642E+03  0.29158257646E+03  0.50400001928E-02 0. -1.
    10030    2    1    2    0    0  0.00000000000E+00  0.00000000000E+00  0.10565450261E+03  0.68881965552E+03  0.68066852719E+03 0.  0.
        4    1    3    3  502    0  0.27754158174E+03  0.61899814971E+02  0.24205546548E+03  0.37343456985E+03  0.12699999809E+01 0.  1.
       -4    1    3    3    0  502 -0.27754158174E+03 -0.61899814971E+02 -0.13640096288E+03  0.31538508567E+03  0.12699999809E+01 0. -1.
</event>
<event>
 5   0  0.3601475E-02  0.6956881E+03  0.7818609E-02  0.9724635E-01
       -1   -1    0    0    0  501  0.00000000000E+00  0.00000000000E+00  0.86061616153E+03  0.86061616154E+03  0.50400001928E-02 0.  1.
        1   -1    0    0  501    0  0.00000000000E+00  0.00000000000E+00 -0.14059169741E+03  0.14059169750E+03  0.50400001928E-02 0. -1.
    10030    2    1    2    0    0  0.00000000000E+00  0.00000000000E+00  0.72002446412E+03  0.10012078590E+04  0.69568811121E+03 0.  0.
        5    1    3    3  502    0  0.16364101094E+03 -0.56185218235E+01  0.80163438078E+03  0.81819907033E+03  0.46999998093E+01 0.  1.
       -5    1    3    3    0  502 -0.16364101094E+03  0.56185218235E+01 -0.81609916661E+02  0.18300878871E+03  0.46999998093E+01 0. -1.
</event>
<event>
 5   0  0.6167756E-02  0.7076309E+03  0.7818609E-02  0.9704271E-01
        2   -1    0    0  501    0  0.00000000000E+00  0.00000000000E+00  0.17934640993E+03  0.17934640995E+03  0.25500000920E-02 0. -1.
       -2   -1    0    0    0  501  0.00000000000E+00  0.00000000000E+00 -0.69800882693E+03  0.69800882693E+03  0.25500000920E-02 0.  1.
    10030    2    1    2    0    0  0.00000000000E+00  0.00000000000E+00 -0.51866241700E+03  0.87735523689E+03  0.70763091290E+03 0.  0.
        4    1    3    3  502    0  0.18171210727E+03  0.93112807235E+02 -0.61759057760E+03  0.65046830764E+03  0.12699999809E+01 0.  1.
       -4    1    3    3    0  502 -0.18171210727E+03 -0.93112807235E+02  0.98928160609E+02  0.22688692924E+03  0.12699999809E+01 0. -1.
</event>
<event>
 5   0  0.3439015E-02  0.7022113E+03  0.7818609E-02  0.9713458E-01
        1   -1    0    0  501    0  0.00000000000E+00  0.00000000000E+00  0.31260196294E+03  0.31260196298E+03  0.50400001928E-02 0. -1.
       -1   -1    0    0    0  501  0.00000000000E+00  0.00000000000E+00 -0.39435188221E+03  0.39435188224E+03  0.50400001928E-02 0.  1.
    10030    2    1    2    0    0  0.00000000000E+00  0.00000000000E+00 -0.81749919262E+02  0.70695384522E+03  0.70221128585E+03 0.  0.
        1    1    3    3  502    0  0.22552670091E+03 -0.24361602965E+03  0.74195319320E+02  0.34017055745E+03  0.50400001928E-02 0. -1.
       -1    1    3    3    0  502 -0.22552670091E+03  0.24361602965E+03 -0.15594523858E+03  0.36678328777E+03  0.50400001928E-02 0.  1.
</event>
<event>
 5   0  0.5899787E-02  0.7163689E+03  0.7818609E-02  0.9689642E-01
        2   -1    0    0  501    0  0.00000000000E+00  0.00000000000E+00  0.54457053629E+03  0.54457053630E+03  0.25500000920E-02 0. -1.
       -2   -1    0    0    0  501  0.00000000000E+00  0.00000000000E+00 -0.23559131203E+03  0.23559131204E+03  0.25500000920E-02 0.  1.
    10030    2    1    2    0    0  0.00000000000E+00  0.00000000000E+00  0.30897922426E+03  0.78016184833E+03  0.71636886348E+03 0.  0.
        2    1    3    3  502    0 -0.29919185249E+03  0.11995657360E+03 -0.15593236982E+02  0.32272045673E+03  0.25500000920E-02 0. -1.
       -2    1    3    3    0  502  0.29919185249E+03 -0.11995657360E+03  0.32457246125E+03  0.45744139160E+03  0.25500000920E-02 0.  1.
</event>
<event>
 5   0  0.5987810E-02  0.6958073E+03  0.7818609E-02  0.9724429E-01
       -2   -1    0    0    0  501  0.00000000000E+00  0.00000000000E+00  0.12230350863E+03  0.12230350866E+03  0.25500000920E-02 0. -1.
        2   -1    0    0  501    0  0.00000000000E+00  0.00000000000E+00 -0.98964409687E+03  0.98964409688E+03  0.25500000920E-02 0.  1.
    10030    2    1    2    0    0  0.00000000000E+00  0.00000000000E+00 -0.86734058825E+03  0.11119476055E+04  0.69580728757E+03 0.  0.
        5    1    3    3  502    0 -0.14801622467E+03 -0.96040069103E+02  0.45436775089E+02  0.18226104402E+03  0.46999998093E+01 0. -1.
       -5    1    3    3    0  502  0.14801622467E+03  0.96040069103E+02 -0.91277736334E+03  0.92968656151E+03  0.46999998093E+01 0.  1.
</event>
<event>
 5   0  0.3717372E-02  0.6869432E+03  0.7818609E-02  0.9739825E-01
       -1   -1    0    0    0  501  0.00000000000E+00  0.00000000000E+00  0.13191222120E+04  0.13191222120E+04  0.50400001928E-02 0.  1.
        1   -1    0    0  501    0  0.00000000000E+00  0.00000000000E+00 -0.89432747808E+02  0.89432747950E+02  0.50400001928E-02 0. -1.
    10030    2    1    2    0    0  0.00000000000E+00  0.00000000000E+00  0.12296894642E+04  0.14085549599E+04  0.68694315403E+03 0.  0.
        3    1    3    3  502    0  0.27250846392E+03 -0.10505116857E+03  0.24419121430E+03  0.38069143708E+03  0.10100000352E+00 0. -1.
       -3    1    3    3    0  502 -0.27250846392E+03  0.10505116857E+03  0.98549824986E+03  0.10278635228E+04  0.10100000352E+00 0.  1.
</event>
<event>
 5   0  0.2439375E-02  0.7076889E+03  0.7818609E-02  0.9704173E-01
        3   -1    0    0  501    0  0.00000000000E+00  0.00000000000E+00  0.12782786122E+04  0.12782786162E+04  0.10100000352E+00 0.  1.
       -3   -1    0    0    0  501  0.00000000000E+00  0.00000000000E+00 -0.97948798543E+02  0.97948850616E+02  0.10100000352E+00 0. -1.
    10030    2    1    2    0    0  0.00000000000E+00  0.00000000000E+00  0.11803298136E+04  0.13762274668E+04  0.70768889448E+03 0.  0.
        2    1    3    3  502    0 -0.23138066222E+03 -0.25350032214E+03  0.75752558833E+03  0.83165163449E+03  0.25500000920E-02 0. -1.
       -2    1    3    3    0  502  0.23138066222E+03  0.25350032214E+03  0.42280422531E+03  0.54457583230E+03  0.25500000920E-02 0.  1.
</event>
<event>
 5   0  0.3601475E-02  0.6523802E+03  0.7818609E-02  0.9802323E-01
        1   -1    0    0  501    0  0.00000000000E+00  0.00000000000E+00  0.87381647926E+03  0.87381647928E+03  0.50400001928E-02 0. -1.
       -1   -1    0    0    0  501  0.00000000000E+00  0.00000000000E+00 -0.12176469191E+03  0.12176469202E+03  0.50400001928E-02 0.  1.
    10030    2    1    2    0    0  0.00000000000E+00  0.00000000000E+00  0.75205178735E+03  0.99558117129E+03  0.65238024018E+03 0.  0.
        5    1    3    3  502    0  0.19436570403E+02 -0.28002430945E+03  0.62949454788E+03  0.68925820268E+03  0.46999998093E+01 0. -1.
       -5    1    3    3    0  502 -0.19436570403E+02  0.28002430945E+03  0.12255723947E+03  0.30632296861E+03  0.46999998093E+01 0.  1.
</event>
<event>
 5   0  0.5899787E-02  0.6987115E+03  0.7818609E-02  0.9719438E-01
        2   -1    0    0  501    0  0.00000000000E+00  0.00000000000E+00  0.11574933807E+04  0.11574933807E+04  0.25500000920E-02 0.  1.
       -2   -1    0    0    0  501  0.00000000000E+00  0.00000000000E+00 -0.10544287698E+03  0.10544287701E+03  0.25500000920E-02 0. -1.
    10030    2    1    2    0    0  0.00000000000E+00  0.00000000000E+00  0.10520505037E+04  0.12629362577E+04  0.69871147742E+03 0.  0.
        2    1    3    3  502    0 -0.17971298220E+03 -0.12295930235E+03  0.10198251549E+04  0.10428130669E+04  0.25500000920E-02 0.  1.
       -2    1    3    3    0  502  0.17971298220E+03  0.12295930235E+03  0.32225348819E+02  0.22012319078E+03  0.25500000920E-02 0. -1.
</event>
<event>
 5   0  0.3749730E-02  0.7162400E+03  0.7818609E-02  0.9689856E-01
        1   -1    0    0  501    0  0.00000000000E+00  0.00000000000E+00  0.65923515914E+03  0.65923515916E+03  0.50400001928E-02 0. -1.
       -1   -1    0    0    0  501  0.00000000000E+00  0.00000000000E+00 -0.19454354096E+03  0.19454354103E+03  0.50400001928E-02 0.  1.
    10030    2    1    2    0    0  0.00000000000E+00  0.00000000000E+00  0.46469161818E+03  0.85377870018E+03  0.71624002184E+03 0.  0.
        4    1    3    3  502    0 -0.52464097951E+02  0.13800260036E+02  0.65430614153E+03  0.65655241108E+03  0.12699999809E+01 0. -1.
       -4    1    3    3    0  502  0.52464097951E+02 -0.13800260036E+02 -0.18961452335E+03  0.19722628911E+03  0.12699999809E+01 0.  1.
</event>
<event>
 5   0  0.6248886E-02  0.7066364E+03  0.7818609E-02  0.9705950E-01
        2   -1    0    0  501    0  0.00000000000E+00  0.00000000000E+00  0.74501246095E+03  0.74501246095E+03  0.25500000920E-02 0. -1.
       -2   -1    0    0    0  501  0.00000000000E+00  0.00000000000E+00 -0.16755925801E+03  0.16755925803E+03  0.25500000920E-02 0.  1.
    10030    2    1    2    0    0  0.00000000000E+00  0.00000000000E+00  0.57745320294E+03  0.91257171898E+03  0.70663635676E+03 0.  0.
        3    1    3    3  502    0 -0.91183508959E+02 -0.34133496786E+03  0.28469775616E+03  0.45373650410E+03  0.10100000352E+00 0. -1.
       -3    1    3    3    0  502  0.91183508959E+02  0.34133496786E+03  0.29275544677E+03  0.45883521487E+03  0.10100000352E+00 0.  1.
</event>
<event>
 5   0  0.5987810E-02  0.7044491E+03  0.7818609E-02  0.9709654E-01
        2   -1    0    0  501    0  0.00000000000E+00  0.00000000000E+00  0.62845378672E+03  0.62845378673E+03  0.25500000920E-02 0. -1.
       -2   -1    0    0    0  501  0.00000000000E+00  0.00000000000E+00 -0.19740854646E+03  0.19740854648E+03  0.25500000920E-02 0.  1.
    10030    2    1    2    0    0  0.00000000000E+00  0.00000000000E+00  0.43104524026E+03  0.82586233320E+03  0.70444914241E+03 0.  0.
        5    1    3    3  502    0 -0.85090952727E+02 -0.13791677444E+02  0.61585871952E+03  0.62187999888E+03  0.46999998093E+01 0. -1.
       -5    1    3    3    0  502  0.85090952727E+02  0.13791677444E+02 -0.18481347926E+03  0.20398233432E+03  0.46999998093E+01 0.  1.
</event>
<event>
 5   0  0.6167756E-02  0.7302748E+03  0.7818609E-02  0.9666815E-01
       -2   -1    0    0    0  501  0.00000000000E+00  0.00000000000E+00  0.89758664119E+02  0.89758664155E+02  0.25500000920E-02 0.  1.
        2   -1    0    0  501    0  0.00000000000E+00  0.00000000000E+00 -0.14853756139E+04  0.14853756139E+04  0.25500000920E-02 0. -1.
    10030    2    1    2    0    0  0.00000000000E+00  0.00000000000E+00 -0.13956169498E+04  0.15751342780E+04  0.73027482730E+03 0.  0.
        4    1    3    3  502    0 -0.20741875105E+03 -0.28040885972E+03 -0.93083472216E+03  0.99403549221E+03  0.12699999809E+01 0. -1.
       -4    1    3    3    0  502  0.20741875105E+03  0.28040885972E+03 -0.46478222761E+03  0.58109878583E+03  0.12699999809E+01 0.  1.
</event>
<event>
 5   0  0.3749730E-02  0.7012134E+03  0.7818609E-02  0.9715159E-01
        1   -1    0    0  501    0  0.00000000000E+00  0.00000000000E+00  0.22813445668E+03  0.22813445673E+03  0.50400001928E-02 0. -1.
       -1   -1    0    0    0  501  0.00000000000E+00  0.00000000000E+00 -0.53882718778E+03  0.53882718780E+03  0.50400001928E-02 0.  1.
    10030    2    1    2    0    0  0.00000000000E+00  0.00000000000E+00 -0.31069273110E+03  0.76696164454E+03  0.70121337055E+03 0.  0.
        4    1    3    3  502    0 -0.20795256858E+03 -0.28012707592E+03 -0.11733142610E+03  0.36808114036E+03  0.12699999809E+01 0.  1.
       -4    1    3    3    0  502  0.20795256858E+03  0.28012707592E+03 -0.19336130501E+03  0.39888050418E+03  0.12699999809E+01 0. -1.
</event>
<event>
 5   0  0.6131198E-02  0.7016671E+03  0.7818609E-02  0.9714386E-01
       -2   -1    0    0    0  501  0.00000000000E+00  0.00000000000E+00  0.14220421459E+03  0.14220421461E+03  0.25500000920E-02 0.  1.
        2   -1    0    0  501    0  0.00000000000E+00  0.00000000000E+00 -0.86554518575E+03  0.86554518575E+03  0.25500000920E-02 0. -1.
    10030    2    1    2    0    0  0.00000000000E+00  0.00000000000E+00 -0.72334097116E+03  0.10077494004E+04  0.70166708158E+03 0.  0.
        1    1    3    3  502    0 -0.29841516226E+02 -0.16397582616E+03 -0.80505510459E+03  0.82212669894E+03  0.50400001928E-02 0. -1.
       -1    1    3    3    0  502  0.29841516226E+02  0.16397582616E+03  0.81714133433E+02  0.18562270142E+03  0.50400001928E-02 0.  1.
</event>
<event>
 5   0  0.3749730E-02  0.7546639E+03  0.7818609E-02  0.9628062E-01
       -1   -1    0    0    0  501  0.00000000000E+00  0.00000000000E+00  0.59185955001E+03  0.59185955003E+03  0.50400001928E-02 0.  1.
        1   -1    0    0  501    0  0.00000000000E+00  0.00000000000E+00 -0.24056282121E+03  0.24056282127E+03  0.50400001928E-02 0. -1.
    10030    2    1    2    0    0  0.00000000000E+00  0.00000000000E+00  0.35129672879E+03  0.83242237130E+03  0.75466390703E+03 0.  0.
        4    1    3    3  502    0 -0.25718692673E+02  0.29755080402E+03  0.43001711146E+03  0.52355922413E+03  0.12699999809E+01 0.  1.
       -4    1    3    3    0  502  0.25718692673E+02 -0.29755080402E+03 -0.78720382665E+02  0.30886314716E+03  0.12699999809E+01 0. -1.
</event>
<event>
 5   0  0.6167756E-02  0.7094348E+03  0.7818609E-02  0.9701232E-01
       -2   -1    0    0    0  501  0.00000000000E+00  0.00000000000E+00  0.22139334722E+03  0.22139334723E+03  0.25500000920E-02 0.  1.
        2   -1    0    0  501    0  0.00000000000E+00  0.00000000000E+00 -0.56832973624E+03  0.56832973624E+03  0.25500000920E-02 0. -1.
    10030    2    1    2    0    0  0.00000000000E+00  0.00000000000E+00 -0.34693638902E+03  0.78972308348E+03  0.70943476836E+03 0.  0.
        4    1    3    3  502    0  0.34809053922E+03  0.12640048295E+02 -0.24810899009E+03  0.42765228654E+03  0.12699999809E+01 0. -1.
       -4    1    3    3    0  502 -0.34809053922E+03 -0.12640048295E+02 -0.98827398926E+02  0.36207079694E+03  0.12699999809E+01 0.  1.
</event>
<event>
 5   0  0.3439015E-02  0.6658362E+03  0.7818609E-02  0.9777509E-01
        1   -1    0    0  501    0  0.00000000000E+00  0.00000000000E+00  0.32202522875E+03  0.32202522879E+03  0.50400001928E-02 0.  1.
       -1   -1    0    0    0  501  0.00000000000E+00  0.00000000000E+00 -0.34417946654E+03  0.34417946658E+03  0.50400001928E-02 0. -1.
    10030    2    1    2    0    0  0.00000000000E+00  0.00000000000E+00 -0.22154237788E+02  0.66620469537E+03  0.66583623052E+03 0.  0.
        1    1    3    3  502    0  0.20277831114E+03 -0.25380675311E+03  0.61747498314E+02  0.33068060869E+03  0.50400001928E-02 0.  1.
       -1    1    3    3    0  502 -0.20277831114E+03  0.25380675311E+03 -0.83901736102E+02  0.33552408667E+03  0.50400001928E-02 0. -1.
</event>
<event>
 5   0  0.5987810E-02  0.7099242E+03  0.7818609E-02  0.9700409E-01
       -2   -1    0    0    0  501  0.00000000000E+00  0.00000000000E+00  0.18025742793E+03  0.18025742795E+03  0.25500000920E-02 0. -1.
        2   -1    0    0  501    0  0.00000000000E+00  0.00000000000E+00 -0.69898966395E+03  0.69898966395E+03  0.25500000920E-02 0.  1.
    10030    2    1    2    0    0  0.00000000000E+00  0.00000000000E+00 -0.51873223601E+03  0.87924709191E+03  0.70992416211E+03 0.  0.
        5    1    3    3  502    0 -0.34724131721E+03 -0.48399793133E+02 -0.19088974000E+03  0.39922431688E+03  0.46999998093E+01 0.  1.
       -5    1    3    3    0  502  0.34724131721E+03  0.48399793133E+02 -0.32784249602E+03  0.48002277503E+03  0.46999998093E+01 0. -1.
</event>
<event>
 5   0  0.5987810E-02  0.7245760E+03  0.7818609E-02  0.9676103E-01
        2   -1    0    0  501    0  0.00000000000E+00  0.00000000000E+00  0.11501086173E+04  0.11501086173E+04  0.25500000920E-02 0.  1.
       -2   -1    0    0    0  501  0.00000000000E+00  0.00000000000E+00 -0.11412190359E+03  0.11412190362E+03  0.25500000920E-02 0. -1.
    10030    2    1    2    0    0  0.00000000000E+00  0.00000000000E+00  0.10359867137E+04  0.12642305209E+04  0.72457597189E+03 0.  0.
        5    1    3    3  502    0  0.19812342819E+03  0.24492878010E+03  0.20593741537E+03  0.37639780706E+03  0.46999998093E+01 0. -1.
       -5    1    3    3    0  502 -0.19812342819E+03 -0.24492878010E+03  0.83004929833E+03  0.88783271385E+03  0.46999998093E+01 0.  1.
</event>
<event>
 5   0  0.5899787E-02  0.7035279E+03  0.7818609E-02  0.9711218E-01
       -2   -1    0    0    0  501  0.00000000000E+00  0.00000000000E+00  0.12746958557E+03  0.12746958560E+03  0.25500000920E-02 0.  1.
        2   -1    0    0  501    0  0.00000000000E+00  0.00000000000E+00 -0.97072473456E+03  0.97072473456E+03  0.25500000920E-02 0. -1.
    10030    2    1    2    0    0  0.00000000000E+00  0.00000000000E+00 -0.84325514899E+03  0.10981943202E+04  0.70352790886E+03 0.  0.
        2    1    3    3  502    0 -0.22228517025E+03 -0.16452547338E+03 -0.76096992598E+03  0.80966323651E+03  0.25500000920E-02 0. -1.
       -2    1    3    3    0  502  0.22228517025E+03  0.16452547338E+03 -0.82285223007E+02  0.28853108365E+03  0.25500000920E-02 0.  1.
</event>
<event>
 5   0  0.5899787E-02  0.6975024E+03  0.7818609E-02  0.9721513E-01
       -2   -1    0    0    0  501  0.00000000000E+00  0.00000000000E+00  0.77949944321E+03  0.77949944321E+03  0.25500000920E-02 0.  1.
        2   -1    0    0  501    0  0.00000000000E+00  0.00000000000E+00 -0.15603268439E+03  0.15603268441E+03  0.25500000920E-02 0. -1.
    10030    2    1    2    0    0  0.00000000000E+00  0.00000000000E+00  0.62346675881E+03  0.93553212762E+03  0.69750237453E+03 0.  0.
        2    1    3    3  502    0 -0.21199257654E+03  0.23218798967E+03  0.51414937833E+03  0.60266217594E+03  0.25500000920E-02 0.  1.
       -2    1    3    3    0  502  0.21199257654E+03 -0.23218798967E+03  0.10931738048E+03  0.33286995169E+03  0.25500000920E-02 0. -1.
</event>
<event>
 5   0  0.6131198E-02  0.6928153E+03  0.7818609E-02  0.9729599E-01
       -2   -1    0    0    0  501  0.00000000000E+00  0.00000000000E+00  0.32852565300E+03  0.32852565301E+03  0.25500000920E-02 0.  1.
        2   -1    0    0  501    0  0.00000000000E+00  0.00000000000E+00 -0.36526294486E+03  0.36526294487E+03  0.25500000920E-02 0. -1.
    10030    2    1    2    0    0  0.00000000000E+00  0.00000000000E+00 -0.36737291857E+02  0.69378859788E+03  0.69281526393E+03 0.  0.
        1    1    3    3  502    0 -0.28100600404E+03 -0.12032946337E+03  0.14481639939E+03  0.33825337193E+03  0.50400001928E-02 0.  1.
       -1    1    3    3    0  502  0.28100600404E+03  0.12032946337E+03 -0.18155369125E+03  0.35553522595E+03  0.50400001928E-02 0. -1.
</event>
<event>
 5   0  0.3717372E-02  0.7016434E+03  0.7818609E-02  0.9714426E-01
        1   -1    0    0  501    0  0.00000000000E+00  0.00000000000E+00  0.25927154129E+03  0.25927154134E+03  0.50400001928E-02 0. -1.
       -1   -1    0    0    0  501  0.00000000000E+00  0.00000000000E+00 -0.47469872743E+03  0.47469872745E+03  0.50400001928E-02 0.  1.
    10030    2    1    2    0    0  0.00000000000E+00  0.00000000000E+00 -0.21542718614E+03  0.73397026879E+03  0.70164341581E+03 0.  0.
        3    1    3    3  502    0  0.21227694367E+01  0.27428933169E+03 -0.33650657408E+03  0.43413802901E+03  0.10100000352E+00 0.  1.
       -3    1    3    3    0  502 -0.21227694367E+01 -0.27428933169E+03  0.12107938794E+03  0.29983223979E+03  0.10100000352E+00 0. -1.
</event>
<event>
 5   0  0.3717372E-02  0.6956647E+03  0.7818609E-02  0.9724675E-01
        1   -1    0    0  501    0  0.00000000000E+00  0.00000000000E+00  0.71292751180E+03  0.71292751181E+03  0.50400001928E-02 0. -1.
       -1   -1    0    0    0  501  0.00000000000E+00  0.00000000000E+00 -0.16970495406E+03  0.16970495414E+03  0.50400001928E-02 0.  1.
    10030    2    1    2    0    0  0.00000000000E+00  0.00000000000E+00  0.54322255773E+03  0.88263246595E+03  0.69566466255E+03 0.  0.
        3    1    3    3  502    0  0.24526018951E+03  0.16878769777E+02 -0.40591347254E+02  0.24916886061E+03  0.10100000352E+00 0.  1.
       -3    1    3    3    0  502 -0.24526018951E+03 -0.16878769777E+02  0.58381390499E+03  0.63346360534E+03  0.10100000352E+00 0. -1.
</event>
<event>
 5   0  0.3601475E-02  0.6839278E+03  0.7818609E-02  0.9745119E-01
       -1   -1    0    0    0  501  0.00000000000E+00  0.00000000000E+00  0.13916361771E+03  0.13916361780E+03  0.50400001928E-02 0.  1.
        1   -1    0    0  501    0  0.00000000000E+00  0.00000000000E+00 -0.84030094136E+03  0.84030094138E+03  0.50400001928E-02 0. -1.
    10030    2    1    2    0    0  0.00000000000E+00  0.00000000000E+00 -0.70113732365E+03  0.97946455918E+03  0.68392782958E+03 0.  0.
        5    1    3    3  502    0  0.17262231078E+03 -0.21419364061E+03 -0.64139718294E+03  0.69791820018E+03  0.46999998093E+01 0. -1.
       -5    1    3    3    0  502 -0.17262231078E+03  0.21419364061E+03 -0.59740140709E+02  0.28154635900E+03  0.46999998093E+01 0.  1.
</event>
<event>
 5   0  0.6248886E-02  0.7161828E+03  0.7818609E-02  0.9689951E-01
        2   -1    0    0  501    0  0.00000000000E+00  0.00000000000E+00  0.86908562381E+03  0.86908562381E+03  0.25500000920E-02 0.  1.
       -2   -1    0    0    0  501  0.00000000000E+00  0.00000000000E+00 -0.14754524109E+03  0.14754524112E+03  0.25500000920E-02 0. -1.
    10030    2    1    2    0    0  0.00000000000E+00  0.00000000000E+00  0.72154038272E+03  0.10166308649E+04  0.71618279206E+03 0.  0.
        3    1    3    3  502    0  0.17815668354E+03 -0.21430158131E+03  0.67996963206E+03  0.73486303647E+03  0.10100000352E+00 0.  1.
       -3    1    3    3    0  502 -0.17815668354E+03  0.21430158131E+03  0.41570750654E+02  0.28176782846E+03  0.10100000352E+00 0. -1.
</event>
<event>
 5   0  0.3749730E-02  0.6995764E+03  0.7818609E-02  0.9717957E-01
        1   -1    0    0  501    0  0.00000000000E+00  0.00000000000E+00  0.10287660292E+04  0.10287660292E+04  0.50400001928E-02 0. -1.
       -1   -1    0    0    0  501  0.00000000000E+00  0.00000000000E+00 -0.11893063475E+03  0.11893063486E+03  0.50400001928E-02 0.  1.
    10030    2    1    2    0    0  0.00000000000E+00  0.00000000000E+00  0.90983539448E+03  0.11476966641E+04  0.69957643453E+03 0.  0.
        4    1    3    3  502    0  0.63399479473E+02  0.27360244739E+03  0.79697487674E+03  0.84501382254E+03  0.12699999809E+01 0. -1.
       -4    1    3    3    0  502 -0.63399479473E+02 -0.27360244739E+03  0.11286051774E+03  0.30268284157E+03  0.12699999809E+01 0.  1.
</event>
<event>
 5   0  0.5899787E-02  0.7106877E+03  0.7818609E-02  0.9699127E-01
       -2   -1    0    0    0  501  0.00000000000E+00  0.00000000000E+00  0.83515249733E+02  0.83515249772E+02  0.25500000920E-02 0. -1.
        2   -1    0    0  501    0  0.00000000000E+00  0.00000000000E+00 -0.15119304378E+04  0.15119304378E+04  0.25500000920E-02 0.  1.
    10030    2    1    2    0    0  0.00000000000E+00  0.00000000000E+00 -0.14284151881E+04  0.15954456876E+04  0.71068768985E+03 0.  0.
        2    1    3    3  502    0  0.27432536285E+03 -0.20886757570E+03 -0.52123246846E+03  0.62495068211E+03  0.25500000920E-02 0. -1.
       -2    1    3    3    0  502 -0.27432536285E+03  0.20886757570E+03 -0.90718271965E+03  0.97049500551E+03  0.25500000920E-02 0.  1.
</event>
<event>
 5   0  0.3749730E-02  0.6993341E+03  0.7818609E-02  0.9718372E-01
        1   -1    0    0  501    0  0.00000000000E+00  0.00000000000E+00  0.84711073671E+03  0.84711073672E+03  0.50400001928E-02 0. -1.
       -1   -1    0    0    0  501  0.00000000000E+00  0.00000000000E+00 -0.14433417567E+03  0.14433417576E+03  0.50400001928E-02 0.  1.
    10030    2    1    2    0    0  0.00000000000E+00  0.00000000000E+00  0.70277656104E+03  0.99144491248E+03  0.69933405447E+03 0.  0.
        4    1    3    3  502    0  0.30430309253E+02 -0.11752364298E+03 -0.11349497237E+03  0.16619425993E+03  0.12699999809E+01 0.  1.
       -4    1    3    3    0  502 -0.30430309253E+02  0.11752364298E+03  0.81627153341E+03  0.82525065255E+03  0.12699999809E+01 0. -1.
</event>
<event>
 5   0  0.3439015E-02  0.6777344E+03  0.7818609E-02  0.9756086E-01
       -1   -1    0    0    0  501  0.00000000000E+00  0.00000000000E+00  0.12065537049E+03  0.12065537059E+03  0.50400001928E-02 0.  1.
        1   -1    0    0  501    0  0.00000000000E+00  0.00000000000E+00 -0.95172695237E+03  0.95172695238E+03  0.50400001928E-02 0. -1.
    10030    2    1    2    0    0  0.00000000000E+00  0.00000000000E+00 -0.83107158188E+03  0.10723823230E+04  0.67773436716E+03 0.  0.
        1    1    3    3  502    0  0.20951521319E+03  0.22623119535E+03 -0.63792584042E+03  0.70853832374E+03  0.50400001928E-02 0. -1.
       -1    1    3    3    0  502 -0.20951521319E+03 -0.22623119535E+03 -0.19314574146E+03  0.36384399924E+03  0.50400001928E-02 0.  1.
</event>
<event>
 5   0  0.3755872E-02  0.6979049E+03  0.7818609E-02  0.9720822E-01
        1   -1    0    0  501    0  0.00000000000E+00  0.00000000000E+00  0.99614411014E+03  0.99614411015E+03  0.50400001928E-02 0.  1.
       -1   -1    0    0    0  501  0.00000000000E+00  0.00000000000E+00 -0.12223914149E+03  0.12223914160E+03  0.50400001928E-02 0. -1.
    10030    2    1    2    0    0  0.00000000000E+00  0.00000000000E+00  0.87390496864E+03  0.11183832517E+04  0.69790486713E+03 0.  0.
        2    1    3    3  502    0  0.42087685841E+02  0.34637746854E+03  0.44395167864E+03  0.56466079816E+03  0.25500000920E-02 0.  1.
       -2    1    3    3    0  502 -0.42087685841E+02 -0.34637746854E+03  0.42995329001E+03  0.55372245358E+03  0.25500000920E-02 0. -1.
</event>
<event>
 5   0  0.3717372E-02  0.6986128E+03  0.7818609E-02  0.9719607E-01
        1   -1    0    0  501    0  0.00000000000E+00  0.00000000000E+00  0.72663740259E+03  0.72663740260E+03  0.50400001928E-02 0. -1.
       -1   -1    0    0    0  501  0.00000000000E+00  0.00000000000E+00 -0.16791726668E+03  0.16791726675E+03  0.50400001928E-02 0.  1.
    10030    2    1    2    0    0  0.00000000000E+00  0.00000000000E+00  0.55872013591E+03  0.89455466936E+03  0.69861281565E+03 0.  0.
        3    1    3    3  502    0 -0.27328798682E+02 -0.33356381704E+03  0.40742829609E+03  0.52726607129E+03  0.10100000352E+00 0. -1.
       -3    1    3    3    0  502  0.27328798682E+02  0.33356381704E+03  0.15129183981E+03  0.36728859807E+03  0.10100000352E+00 0.  1.
</event>
<event>
 5   0  0.6167756E-02  0.7042169E+03  0.7818609E-02  0.9710048E-01
       -2   -1    0    0    0  501  0.00000000000E+00  0.00000000000E+00  0.45951946922E+03  0.45951946922E+03  0.25500000920E-02 0.  1.
        2   -1    0    0  501    0  0.00000000000E+00  0.00000000000E+00 -0.26980439561E+03  0.26980439562E+03  0.25500000920E-02 0. -1.
    10030    2    1    2    0    0  0.00000000000E+00  0.00000000000E+00  0.18971507361E+03  0.72932386484E+03  0.70421693438E+03 0.  0.
        4    1    3    3  502    0  0.42423571816E+02 -0.25446602544E+03 -0.15332339071E+03  0.30010396963E+03  0.12699999809E+01 0. -1.
       -4    1    3    3    0  502 -0.42423571816E+02  0.25446602544E+03  0.34303846431E+03  0.42921989521E+03  0.12699999809E+01 0.  1.
</event>
<event>
 5   0  0.6167756E-02  0.7005375E+03  0.7818609E-02  0.9716313E-01
        2   -1    0    0  501    0  0.00000000000E+00  0.00000000000E+00  0.11655875769E+04  0.11655875769E+04  0.25500000920E-02 0. -1.
       -2   -1    0    0    0  501  0.00000000000E+00  0.00000000000E+00 -0.10525867715E+03  0.10525867718E+03  0.25500000920E-02 0.  1.
    10030    2    1    2    0    0  0.00000000000E+00  0.00000000000E+00  0.10603288997E+04  0.12708462540E+04  0.70053752636E+03 0.  0.
        4    1    3    3  502    0 -0.12352299207E+03  0.30772241852E+03  0.32543942912E+03  0.46461107537E+03  0.12699999809E+01 0.  1.
       -4    1    3    3    0  502  0.12352299207E+03 -0.30772241852E+03  0.73488947059E+03  0.80623517867E+03  0.12699999809E+01 0. -1.
</event>
<event>
 5   0  0.3755872E-02  0.6741362E+03  0.7818609E-02  0.9762514E-01
       -1   -1    0    0    0  501  0.00000000000E+00  0.00000000000E+00  0.74692929556E+03  0.74692929557E+03  0.50400001928E-02 0. -1.
        1   -1    0    0  501    0  0.00000000000E+00  0.00000000000E+00 -0.15210933646E+03  0.15210933654E+03  0.50400001928E-02 0.  1.
    10030    2    1    2    0    0  0.00000000000E+00  0.00000000000E+00  0.59481995910E+03  0.89903863211E+03  0.67413624609E+03 0.  0.
        2    1    3    3  502    0 -0.14068585760E+03 -0.24276253702E+03  0.54650981498E+03  0.61432820038E+03  0.25500000920E-02 0. -1.
       -2    1    3    3    0  502  0.14068585760E+03  0.24276253702E+03  0.48310144116E+02  0.28471043173E+03  0.25500000920E-02 0.  1.
</event>
<event>
 5   0  0.6167756E-02  0.6242318E+03  0.7818609E-02  0.9856370E-01
       -2   -1    0    0    0  501  0.00000000000E+00  0.00000000000E+00  0.98694020056E+02  0.98694020089E+02  0.25500000920E-02 0. -1.
        2   -1    0    0  501    0  0.00000000000E+00  0.00000000000E+00 -0.98705401472E+03  0.98705401472E+03  0.25500000920E-02 0.  1.
    10030    2    1    2    0    0  0.00000000000E+00  0.00000000000E+00 -0.88835999466E+03  0.10857480348E+04  0.62423177985E+03 0.  0.
        4    1    3    3  502    0  0.10935783078E+03 -0.10806610638E+03  0.28257704160E+02  0.15632507555E+03  0.12699999809E+01 0. -1.
       -4    1    3    3    0  502 -0.10935783078E+03  0.10806610638E+03 -0.91661769882E+03  0.92942295926E+03  0.12699999809E+01 0.  1.
</event>
<event>
 5   0  0.6131198E-02  0.7753276E+03  0.7818609E-02  0.9596432E-01
       -2   -1    0    0    0  501  0.00000000000E+00  0.00000000000E+00  0.14799149820E+03  0.14799149822E+03  0.25500000920E-02 0. -1.
        2   -1    0    0  501    0  0.00000000000E+00  0.00000000000E+00 -0.10154856213E+04  0.10154856213E+04  0.25500000920E-02 0.  1.
    10030    2    1    2    0    0  0.00000000000E+00  0.00000000000E+00 -0.86749412312E+03  0.11634771195E+04  0.77532764303E+03 0.  0.
        1    1    3    3  502    0  0.23211246900E+03 -0.30117941133E+03 -0.54702201520E+03  0.66619690874E+03  0.50400001928E-02 0. -1.
       -1    1    3    3    0  502 -0.23211246900E+03  0.30117941133E+03 -0.32047210792E+03  0.49728021080E+03  0.50400001928E-02 0.  1.
</event>
<event>
 5   0  0.2439375E-02  0.7096086E+03  0.7818609E-02  0.9700940E-01
        3   -1    0    0  501    0  0.00000000000E+00  0.00000000000E+00  0.67174095463E+03  0.67174096223E+03  0.10100000352E+00 0.  1.
       -3   -1    0    0    0  501  0.00000000000E+00  0.00000000000E+00 -0.18740270857E+03  0.18740273579E+03  0.10100000352E+00 0. -1.
    10030    2    1    2    0    0  0.00000000000E+00  0.00000000000E+00  0.48433824606E+03  0.85914369801E+03  0.70960859440E+03 0.  0.
        1    1    3    3  502    0  0.95962824241E+02 -0.14174367036E+02 -0.17103604945E+03  0.19662936341E+03  0.50400001928E-02 0. -1.
       -1    1    3    3    0  502 -0.95962824241E+02  0.14174367036E+02  0.65537429551E+03  0.66251433461E+03  0.50400001928E-02 0.  1.
</event>
<event>
 5   0  0.6167756E-02  0.6888336E+03  0.7818609E-02  0.9736521E-01
        2   -1    0    0  501    0  0.00000000000E+00  0.00000000000E+00  0.15725053347E+04  0.15725053347E+04  0.25500000920E-02 0. -1.
       -2   -1    0    0    0  501  0.00000000000E+00  0.00000000000E+00 -0.75435622763E+02  0.75435622806E+02  0.25500000920E-02 0.  1.
    10030    2    1    2    0    0  0.00000000000E+00  0.00000000000E+00  0.14970697120E+04  0.16479409575E+04  0.68883356266E+03 0.  0.
        4    1    3    3  502    0  0.34414256134E+03 -0.13670274608E+02  0.74716591988E+03  0.82272687064E+03  0.12699999809E+01 0.  1.
       -4    1    3    3    0  502 -0.34414256134E+03  0.13670274608E+02  0.74990379208E+03  0.82521408690E+03  0.12699999809E+01 0. -1.
</event>
<event>
 5   0  0.3717372E-02  0.8030473E+03  0.7818609E-02  0.9555617E-01
        1   -1    0    0  501    0  0.00000000000E+00  0.00000000000E+00  0.26730479414E+03  0.26730479419E+03  0.50400001928E-02 0. -1.
       -1   -1    0    0    0  501  0.00000000000E+00  0.00000000000E+00 -0.60313642658E+03  0.60313642660E+03  0.50400001928E-02 0.  1.
    10030    2    1    2    0    0  0.00000000000E+00  0.00000000000E+00 -0.33583163244E+03  0.87044122079E+03  0.80304734201E+03 0.  0.
        3    1    3    3  502    0 -0.27428790877E+01  0.26291243913E+03 -0.49684799544E+03  0.56212846824E+03  0.10100000352E+00 0.  1.
       -3    1    3    3    0  502  0.27428790877E+01 -0.26291243913E+03  0.16101636300E+03  0.30831275255E+03  0.10100000352E+00 0. -1.
</event>
<event>
 5   0  0.5987810E-02  0.6867007E+03  0.7818609E-02  0.9740250E-01
        2   -1    0    0  501    0  0.00000000000E+00  0.00000000000E+00  0.45382795474E+03  0.45382795475E+03  0.25500000920E-02 0.  1.
       -2   -1    0    0    0  501  0.00000000000E+00  0.00000000000E+00 -0.25976685694E+03  0.25976685696E+03  0.25500000920E-02 0. -1.
    10030    2    1    2    0    0  0.00000000000E+00  0.00000000000E+00  0.19406109780E+03  0.71359481171E+03  0.68670069580E+03 0.  0.
        5    1    3    3  502    0  0.39707629366E+02 -0.12042970265E+03 -0.23450578171E+03  0.26663657057E+03  0.46999998093E+01 0. -1.
       -5    1    3    3    0  502 -0.39707629366E+02  0.12042970265E+03  0.42856687951E+03  0.44695824114E+03  0.46999998093E+01 0.  1.
</event>
<event>
 5   0  0.3717372E-02  0.6971174E+03  0.7818609E-02  0.9722175E-01
        1   -1    0    0  501    0  0.00000000000E+00  0.00000000000E+00  0.87741767701E+03  0.87741767703E+03  0.50400001928E-02 0.  1.
       -1   -1    0    0    0  501  0.00000000000E+00  0.00000000000E+00 -0.13846675337E+03  0.13846675346E+03  0.50400001928E-02 0. -1.
    10030    2    1    2    0    0  0.00000000000E+00  0.00000000000E+00  0.73895092365E+03  0.10158844305E+04  0.69711742809E+03 0.  0.
        3    1    3    3  502    0 -0.14552955839E+02 -0.87118009189E+02 -0.12188815314E+03  0.15052597160E+03  0.10100000352E+00 0. -1.
       -3    1    3    3    0  502  0.14552955839E+02  0.87118009189E+02  0.86083907679E+03  0.86535845889E+03  0.10100000352E+00 0.  1.
</event>
<event>
 5   0  0.3717372E-02  0.5980321E+03  0.7818609E-02  0.9909497E-01
       -1   -1    0    0    0  501  0.00000000000E+00  0.00000000000E+00  0.74633770606E+02  0.74633770776E+02  0.50400001928E-02 0.  1.
        1   -1    0    0  501    0  0.00000000000E+00  0.00000000000E+00 -0.11979912876E+04  0.11979912876E+04  0.50400001928E-02 0. -1.
    10030    2    1    2    0    0  0.00000000000E+00  0.00000000000E+00 -0.11233575170E+04  0.12726250584E+04  0.59803212978E+03 0.  0.
        3    1    3    3  502    0  0.27984264881E+03 -0.34210566027E+02 -0.77371688881E+03  0.82348048256E+03  0.10100000352E+00 0. -1.
       -3    1    3    3    0  502 -0.27984264881E+03  0.34210566027E+02 -0.34964062819E+03  0.44914457584E+03  0.10100000352E+00 0.  1.
</event>
<event>
 5   0  0.6248886E-02  0.7085262E+03  0.7818609E-02  0.9702761E-01
        2   -1    0    0  501    0  0.00000000000E+00  0.00000000000E+00  0.68298267582E+03  0.68298267582E+03  0.25500000920E-02 0. -1.
       -2   -1    0    0    0  501  0.00000000000E+00  0.00000000000E+00 -0.18375628285E+03  0.18375628287E+03  0.25500000920E-02 0.  1.
    10030    2    1    2    0    0  0.00000000000E+00  0.00000000000E+00  0.49922639297E+03  0.86673895870E+03  0.70852623881E+03 0.  0.
        3    1    3    3  502    0  0.16568608012E+03  0.34143152545E+02 -0.13115442764E+03  0.21405402613E+03  0.10100000352E+00 0.  1.
       -3    1    3    3    0  502 -0.16568608012E+03 -0.34143152545E+02  0.63038082060E+03  0.65268493257E+03  0.10100000352E+00 0. -1.
</event>
<event>
 5   0  0.2439375E-02  0.5859347E+03  0.7818609E-02  0.9935024E-01
       -3   -1    0    0    0  501  0.00000000000E+00  0.00000000000E+00  0.41359102253E+03  0.41359103486E+03  0.10100000352E+00 0. -1.
        3   -1    0    0  501    0  0.00000000000E+00  0.00000000000E+00 -0.20752351753E+03  0.20752354211E+03  0.10100000352E+00 0.  1.
    10030    2    1    2    0    0  0.00000000000E+00  0.00000000000E+00  0.20606750500E+03  0.62111457697E+03  0.58593472427E+03 0.  0.
        5    1    3    3  502    0  0.67581558952E+02  0.17302484392E+02  0.40461695579E+03  0.41061370409E+03  0.46999998093E+01 0. -1.
       -5    1    3    3    0  502 -0.67581558952E+02 -0.17302484392E+02 -0.19854945079E+03  0.21050087288E+03  0.46999998093E+01 0.  1.
</event>
<event>
 5   0  0.3439015E-02  0.6957392E+03  0.7818609E-02  0.9724547E-01
       -1   -1    0    0    0  501  0.00000000000E+00  0.00000000000E+00  0.32929817548E+03  0.32929817552E+03  0.50400001928E-02 0. -1.
        1   -1    0    0  501    0  0.00000000000E+00  0.00000000000E+00 -0.36748836361E+03  0.36748836364E+03  0.50400001928E-02 0.  1.
    10030    2    1    2    0    0  0.00000000000E+00  0.00000000000E+00 -0.38190188122E+02  0.69678653916E+03  0.69573916857E+03 0.  0.
        1    1    3    3  502    0 -0.13355084945E+03 -0.18310098283E+03  0.24521781471E+03  0.33390653779E+03  0.50400001928E-02 0. -1.
       -1    1    3    3    0  502  0.13355084945E+03  0.18310098283E+03 -0.28340800283E+03  0.36288000137E+03  0.50400001928E-02 0.  1.
</event>
<event>
 5   0  0.3749730E-02  0.6784282E+03  0.7818609E-02  0.9754851E-01
        1   -1    0    0  501    0  0.00000000000E+00  0.00000000000E+00  0.40795186068E+03  0.40795186071E+03  0.50400001928E-02 0.  1.
       -1   -1    0    0    0  501  0.00000000000E+00  0.00000000000E+00 -0.28205829545E+03  0.28205829550E+03  0.50400001928E-02 0. -1.
    10030    2    1    2    0    0  0.00000000000E+00  0.00000000000E+00  0.12589356523E+03  0.69001015621E+03  0.67842820247E+03 0.  0.
        4    1    3    3  502    0 -0.67041784715E+02  0.32575334565E+03  0.13083013497E+03  0.35739051500E+03  0.12699999809E+01 0.  1.
       -4    1    3    3    0  502  0.67041784715E+02 -0.32575334565E+03 -0.49365697353E+01  0.33261964121E+03  0.12699999809E+01 0. -1.
</event>
<event>
 5   0  0.3601475E-02  0.7138502E+03  0.7818609E-02  0.9693835E-01
       -1   -1    0    0    0  501  0.00000000000E+00  0.00000000000E+00  0.35903995065E+03  0.35903995069E+03  0.50400001928E-02 0. -1.
        1   -1    0    0  501    0  0.00000000000E+00  0.00000000000E+00 -0.35482270233E+03  0.35482270237E+03  0.50400001928E-02 0.  1.
    10030    2    1    2    0    0  0.00000000000E+00  0.00000000000E+00  0.42172483215E+01  0.71386265305E+03  0.71385019594E+03 0.  0.
        5    1    3    3  502    0 -0.81510248555E+02  0.28608952428E+03 -0.19508076727E+03  0.35576640128E+03  0.46999998093E+01 0.  1.
       -5    1    3    3    0  502  0.81510248555E+02 -0.28608952428E+03  0.19929801559E+03  0.35809625178E+03  0.46999998093E+01 0. -1.
</event>
<event>
 5   0  0.2439375E-02  0.7087555E+03  0.7818609E-02  0.9702375E-01
        3   -1    0    0  501    0  0.00000000000E+00  0.00000000000E+00  0.15787555923E+04  0.15787555955E+04  0.10100000352E+00 0.  1.
       -3   -1    0    0    0  501  0.00000000000E+00  0.00000000000E+00 -0.79545894511E+02  0.79545958631E+02  0.10100000352E+00 0. -1.
    10030    2    1    2    0    0  0.00000000000E+00  0.00000000000E+00  0.14992096978E+04  0.16583015541E+04  0.70875547729E+03 0.  0.
        3    1    3    3  502    0 -0.26072845711E+03  0.12757189722E+03  0.12252663094E+04  0.12591788819E+04  0.10100000352E+00 0.  1.
       -3    1    3    3    0  502  0.26072845711E+03 -0.12757189722E+03  0.27394338833E+03  0.39912267227E+03  0.10100000352E+00 0. -1.
</event>
<event>
 5   0  0.3749730E-02  0.6968727E+03  0.7818609E-02  0.9722595E-01
       -1   -1    0    0    0  501  0.00000000000E+00  0.00000000000E+00  0.26803910841E+03  0.26803910846E+03  0.50400001928E-02 0. -1.
        1   -1    0    0  501    0  0.00000000000E+00  0.00000000000E+00 -0.45294841940E+03  0.45294841943E+03  0.50400001928E-02 0.  1.
    10030    2    1    2    0    0  0.00000000000E+00  0.00000000000E+00 -0.18490931098E+03  0.72098752789E+03  0.69687270149E+03 0.  0.
        4    1    3    3  502    0 -0.88585127831E+02  0.13570287137E+03  0.22667288142E+03  0.27864816928E+03  0.12699999809E+01 0. -1.
       -4    1    3    3    0  502  0.88585127831E+02 -0.13570287137E+03 -0.41158219240E+03  0.44233935861E+03  0.12699999809E+01 0.  1.
</event>
<event>
 5   0  0.3439015E-02  0.7037199E+03  0.7818609E-02  0.9710892E-01
        1   -1    0    0  501    0  0.00000000000E+00  0.00000000000E+00  0.61557076639E+03  0.61557076641E+03  0.50400001928E-02 0.  1.
       -1   -1    0    0    0  501  0.00000000000E+00  0.00000000000E+00 -0.20112297430E+03  0.20112297437E+03  0.50400001928E-02 0. -1.
    10030    2    1    2    0    0  0.00000000000E+00  0.00000000000E+00  0.41444779208E+03  0.81669374077E+03  0.70371989730E+03 0.  0.
        1    1    3    3  502    0  0.32614744496E+03 -0.75165421798E+02  0.33320203936E+03  0.47227703263E+03  0.50400001928E-02 0.  1.
       -1    1    3    3    0  502 -0.32614744496E+03  0.75165421798E+02  0.81245752726E+02  0.34441670815E+03  0.50400001928E-02 0. -1.
</event>
<event>
 5   0  0.6167756E-02  0.6248469E+03  0.7818609E-02  0.9855157E-01
        2   -1    0    0  501    0  0.00000000000E+00  0.00000000000E+00  0.18052756197E+04  0.18052756197E+04  0.25500000920E-02 0.  1.
       -2   -1    0    0    0  501  0.00000000000E+00  0.00000000000E+00 -0.54068422651E+02  0.54068422711E+02  0.25500000920E-02 0. -1.
    10030    2    1    2    0    0  0.00000000000E+00  0.00000000000E+00  0.17512071970E+04  0.18593440424E+04  0.62484687808E+03 0.  0.
        4    1    3    3  502    0 -0.79403534320E+02 -0.28562806468E+03  0.58225412054E+03  0.65338333801E+03  0.12699999809E+01 0. -1.
       -4    1    3    3    0  502  0.79403534320E+02  0.28562806468E+03  0.11689530765E+04  0.12059607044E+04  0.12699999809E+01 0.  1.
</event>
<event>
 5   0  0.3749730E-02  0.4843651E+03  0.7818609E-02  0.1017942E+00
        1   -1    0    0  501    0  0.00000000000E+00  0.00000000000E+00  0.67303718995E+03  0.67303718997E+03  0.50400001928E-02 0. -1.
       -1   -1    0    0    0  501  0.00000000000E+00  0.00000000000E+00 -0.87145849322E+02  0.87145849468E+02  0.50400001928E-02 0.  1.
    10030    2    1    2    0    0  0.00000000000E+00  0.00000000000E+00  0.58589134063E+03  0.76018303944E+03  0.48436514163E+03 0.  0.
        4    1    3    3  502    0 -0.13927405218E+02 -0.13651165894E+03 -0.20241125183E+02  0.13871092852E+03  0.12699999809E+01 0.  1.
       -4    1    3    3    0  502  0.13927405218E+02  0.13651165894E+03  0.60613246581E+03  0.62147211092E+03  0.12699999809E+01 0. -1.
</event>
<event>
 5   0  0.3749730E-02  0.7204575E+03  0.7818609E-02  0.9682873E-01
        1   -1    0    0  501    0  0.00000000000E+00  0.00000000000E+00  0.47295555676E+03  0.47295555678E+03  0.50400001928E-02 0. -1.
       -1   -1    0    0    0  501  0.00000000000E+00  0.00000000000E+00 -0.27436990217E+03  0.27436990222E+03  0.50400001928E-02 0.  1.
    10030    2    1    2    0    0  0.00000000000E+00  0.00000000000E+00  0.19858565458E+03  0.74732545900E+03  0.72045754869E+03 0.  0.
        4    1    3    3  502    0  0.12327119123E+03 -0.31791316133E+03 -0.21223425737E+02  0.34163812937E+03  0.12699999809E+01 0.  1.
       -4    1    3    3    0  502 -0.12327119123E+03  0.31791316133E+03  0.21980908032E+03  0.40568732964E+03  0.12699999809E+01 0. -1.
</event>
<event>
 5   0  0.3717372E-02  0.7029454E+03  0.7818609E-02  0.9712208E-01
       -1   -1    0    0    0  501  0.00000000000E+00  0.00000000000E+00  0.16179409204E+03  0.16179409211E+03  0.50400001928E-02 0. -1.
        1   -1    0    0  501    0  0.00000000000E+00  0.00000000000E+00 -0.76352019302E+03  0.76352019304E+03  0.50400001928E-02 0.  1.
    10030    2    1    2    0    0  0.00000000000E+00  0.00000000000E+00 -0.60172610098E+03  0.92531428515E+03  0.70294539311E+03 0.  0.
        3    1    3    3  502    0  0.37770281580E+02  0.14943242408E+03 -0.71666028727E+03  0.73304748897E+03  0.10100000352E+00 0.  1.
       -3    1    3    3    0  502 -0.37770281580E+02 -0.14943242408E+03  0.11493418628E+03  0.19226679618E+03  0.10100000352E+00 0. -1.
</event>
<event>
 5   0  0.3717372E-02  0.7094283E+03  0.7818609E-02  0.9701243E-01
       -1   -1    0    0    0  501  0.00000000000E+00  0.00000000000E+00  0.11292050228E+03  0.11292050239E+03  0.50400001928E-02 0.  1.
        1   -1    0    0  501    0  0.00000000000E+00  0.00000000000E+00 -0.11142541621E+04  0.11142541621E+04  0.50400001928E-02 0. -1.
    10030    2    1    2    0    0  0.00000000000E+00  0.00000000000E+00 -0.10013336598E+04  0.12271746645E+04  0.70942833244E+03 0.  0.
        3    1    3    3  502    0 -0.43982935643E+02  0.17735078084E+03  0.25246893689E+02  0.18445924736E+03  0.10100000352E+00 0.  1.
       -3    1    3    3    0  502  0.43982935643E+02 -0.17735078084E+03 -0.10265805535E+04  0.10427154171E+04  0.10100000352E+00 0. -1.
</event>
<event>
 5   0  0.2439375E-02  0.6924940E+03  0.7818609E-02  0.9730155E-01
       -3   -1    0    0    0  501  0.00000000000E+00  0.00000000000E+00  0.81545107750E+03  0.81545108376E+03  0.10100000352E+00 0.  1.
        3   -1    0    0  501    0  0.00000000000E+00  0.00000000000E+00 -0.14701919240E+03  0.14701922709E+03  0.10100000352E+00 0. -1.
    10030    2    1    2    0    0  0.00000000000E+00  0.00000000000E+00  0.66843188510E+03  0.96247031085E+03  0.69249398138E+03 0.  0.
        1    1    3    3  502    0  0.27185997477E+03 -0.89682825311E+01  0.63197949919E+03  0.68803078666E+03  0.50400001928E-02 0.  1.
       -1    1    3    3    0  502 -0.27185997477E+03  0.89682825311E+01  0.36452385915E+02  0.27443952419E+03  0.50400001928E-02 0. -1.
</event>
<event>
 5   0  0.6167756E-02  0.6983172E+03  0.7818609E-02  0.9720114E-01
        2   -1    0    0  501    0  0.00000000000E+00  0.00000000000E+00  0.20404429949E+04  0.20404429949E+04  0.25500000920E-02 0.  1.
       -2   -1    0    0    0  501  0.00000000000E+00  0.00000000000E+00 -0.59747672852E+02  0.59747672907E+02  0.25500000920E-02 0. -1.
    10030    2    1    2    0    0  0.00000000000E+00  0.00000000000E+00  0.19806953220E+04  0.21001906678E+04  0.69831717891E+03 0.  0.
        4    1    3    3  502    0 -0.30352744300E+03  0.68770783804E+02  0.14663677470E+04  0.14990311243E+04  0.12699999809E+01 0.  1.
       -4    1    3    3    0  502  0.30352744300E+03 -0.68770783804E+02  0.51432757500E+03  0.60115954343E+03  0.12699999809E+01 0. -1.
</event>
<event>
 5   0  0.3755872E-02  0.7282842E+03  0.7818609E-02  0.9670049E-01
       -1   -1    0    0    0  501  0.00000000000E+00  0.00000000000E+00  0.72027447644E+03  0.72027447646E+03  0.50400001928E-02 0. -1.
        1   -1    0    0  501    0  0.00000000000E+00  0.00000000000E+00 -0.18409576660E+03  0.18409576667E+03  0.50400001928E-02 0.  1.
    10030    2    1    2    0    0  0.00000000000E+00  0.00000000000E+00  0.53617870984E+03  0.90437024313E+03  0.72828423557E+03 0.  0.
        2    1    3    3  502    0 -0.11008753993E+03 -0.23575467197E+03  0.58443913462E+03  0.63974106785E+03  0.25500000920E-02 0. -1.
       -2    1    3    3    0  502  0.11008753993E+03  0.23575467197E+03 -0.48260424780E+02  0.26462917528E+03  0.25500000920E-02 0.  1.
</event>
<event>
 5   0  0.3749730E-02  0.7099353E+03  0.7818609E-02  0.9700391E-01
        1   -1    0    0  501    0  0.00000000000E+00  0.00000000000E+00  0.11006879993E+04  0.11006879994E+04  0.50400001928E-02 0.  1.
       -1   -1    0    0    0  501  0.00000000000E+00  0.00000000000E+00 -0.11447570016E+03  0.11447570028E+03  0.50400001928E-02 0. -1.
    10030    2    1    2    0    0  0.00000000000E+00  0.00000000000E+00  0.98621229918E+03  0.12151636996E+04  0.70993529131E+03 0.  0.
        4    1    3    3  502    0  0.21033783527E+03 -0.28043506389E+03  0.39758133046E+03  0.53005505113E+03  0.12699999809E+01 0.  1.
       -4    1    3    3    0  502 -0.21033783527E+03  0.28043506389E+03  0.58863096873E+03  0.68510864850E+03  0.12699999809E+01 0. -1.
</event>
<event>
 5   0  0.6167756E-02  0.6941953E+03  0.7818609E-02  0.9727211E-01
        2   -1    0    0  501    0  0.00000000000E+00  0.00000000000E+00  0.44351080544E+03  0.44351080545E+03  0.25500000920E-02 0.  1.
       -2   -1    0    0    0  501  0.00000000000E+00  0.00000000000E+00 -0.27164337367E+03  0.27164337368E+03  0.25500000920E-02 0. -1.
    10030    2    1    2    0    0  0.00000000000E+00  0.00000000000E+00  0.17186743177E+03  0.71515417913E+03  0.69419527932E+03 0.  0.
        4    1    3    3  502    0 -0.24064521698E+03 -0.19476110016E+03 -0.75754369299E+02  0.31871985184E+03  0.12699999809E+01 0. -1.
       -4    1    3    3    0  502  0.24064521698E+03  0.19476110016E+03  0.24762180107E+03  0.39643432729E+03  0.12699999809E+01 0.  1.
</event>
<event>
 5   0  0.5987810E-02  0.8466424E+03  0.7818609E-02  0.9494855E-01
        2   -1    0    0  501    0  0.00000000000E+00  0.00000000000E+00  0.88612834037E+03  0.88612834038E+03  0.25500000920E-02 0. -1.
       -2   -1    0    0    0  501  0.00000000000E+00  0.00000000000E+00 -0.20222896860E+03  0.20222896861E+03  0.25500000920E-02 0.  1.
    10030    2    1    2    0    0  0.00000000000E+00  0.00000000000E+00  0.68389937178E+03  0.10883573090E+04  0.84664235738E+03 0.  0.
        5    1    3    3  502    0  0.36641439774E+03 -0.86851310159E+02  0.59047367699E+03  0.70034556768E+03  0.46999998093E+01 0. -1.
       -5    1    3    3    0  502 -0.36641439774E+03  0.86851310159E+02  0.93425694787E+02  0.38801174131E+03  0.46999998093E+01 0.  1.
</event>
<event>
 5   0  0.3749730E-02  0.7059085E+03  0.7818609E-02  0.9707181E-01
       -1   -1    0    0    0  501  0.00000000000E+00  0.00000000000E+00  0.35171533312E+03  0.35171533315E+03  0.50400001928E-02 0.  1.
        1   -1    0    0  501    0  0.00000000000E+00  0.00000000000E+00 -0.35419750692E+03  0.35419750695E+03  0.50400001928E-02 0. -1.
    10030    2    1    2    0    0  0.00000000000E+00  0.00000000000E+00 -0.24821738007E+01  0.70591284011E+03  0.70590847611E+03 0.  0.
        4    1    3    3  502    0  0.33055779772E+03 -0.64815696621E+02 -0.10662460749E+03  0.35332697602E+03  0.12699999809E+01 0. -1.
       -4    1    3    3    0  502 -0.33055779772E+03  0.64815696621E+02  0.10414243369E+03  0.35258586409E+03  0.12699999809E+01 0.  1.
</event>
<event>
 5   0  0.6167756E-02  0.6938536E+03  0.7818609E-02  0.9727802E-01
       -2   -1    0    0    0  501  0.00000000000E+00  0.00000000000E+00  0.25367654921E+03  0.25367654922E+03  0.25500000920E-02 0.  1.
        2   -1    0    0  501    0  0.00000000000E+00  0.00000000000E+00 -0.47445533348E+03  0.47445533349E+03  0.25500000920E-02 0. -1.
    10030    2    1    2    0    0  0.00000000000E+00  0.00000000000E+00 -0.22077878427E+03  0.72813188271E+03  0.69385356311E+03 0.  0.
        4    1    3    3  502    0  0.29575486699E+03 -0.10201637066E+03  0.46945096776E+02  0.31636013694E+03  0.12699999809E+01 0.  1.
       -4    1    3    3    0  502 -0.29575486699E+03  0.10201637066E+03 -0.26772388105E+03  0.41177174577E+03  0.12699999809E+01 0. -1.
</event>
<event>
 5   0  0.6248886E-02  0.7027447E+03  0.7818609E-02  0.9712550E-01
        2   -1    0    0  501    0  0.00000000000E+00  0.00000000000E+00  0.13050833819E+04  0.13050833819E+04  0.25500000920E-02 0.  1.
       -2   -1    0    0    0  501  0.00000000000E+00  0.00000000000E+00 -0.94601248688E+02  0.94601248722E+02  0.25500000920E-02 0. -1.
    10030    2    1    2    0    0  0.00000000000E+00  0.00000000000E+00  0.12104821332E+04  0.13996846306E+04  0.70274466940E+03 0.  0.
        3    1    3    3  502    0 -0.16172887067E+03 -0.30718536034E+03  0.49718235179E+03  0.60639044711E+03  0.10100000352E+00 0.  1.
       -3    1    3    3    0  502  0.16172887067E+03  0.30718536034E+03  0.71329978141E+03  0.79329418350E+03  0.10100000352E+00 0. -1.
</event>
<event>
 5   0  0.3601475E-02  0.7216215E+03  0.7818609E-02  0.9680955E-01
       -1   -1    0    0    0  501  0.00000000000E+00  0.00000000000E+00  0.16565492280E+03  0.16565492288E+03  0.50400001928E-02 0. -1.
        1   -1    0    0  501    0  0.00000000000E+00  0.00000000000E+00 -0.78587702524E+03  0.78587702525E+03  0.50400001928E-02 0.  1.
    10030    2    1    2    0    0  0.00000000000E+00  0.00000000000E+00 -0.62022210243E+03  0.95153194813E+03  0.72162150187E+03 0.  0.
        5    1    3    3  502    0 -0.14014621873E+03  0.16204276404E+03  0.72655188276E+02  0.22627347698E+03  0.46999998093E+01 0. -1.
       -5    1    3    3    0  502  0.14014621873E+03 -0.16204276404E+03 -0.69287729071E+03  0.72525847115E+03  0.46999998093E+01 0.  1.
</event>
<event>
 5   0  0.5899787E-02  0.6970546E+03  0.7818609E-02  0.9722283E-01
       -2   -1    0    0    0  501  0.00000000000E+00  0.00000000000E+00  0.93121432634E+02  0.93121432669E+02  0.25500000920E-02 0.  1.
        2   -1    0    0  501    0  0.00000000000E+00  0.00000000000E+00 -0.13044394734E+04  0.13044394734E+04  0.25500000920E-02 0. -1.
    10030    2    1    2    0    0  0.00000000000E+00  0.00000000000E+00 -0.12113180408E+04  0.13975609061E+04  0.69705458200E+03 0.  0.
        2    1    3    3  502    0  0.34742815750E+03 -0.22896825361E+02 -0.63676378803E+03  0.72574011257E+03  0.25500000920E-02 0.  1.
       -2    1    3    3    0  502 -0.34742815750E+03  0.22896825361E+02 -0.57455425273E+03  0.67182079349E+03  0.25500000920E-02 0. -1.
</event>
<event>
 5   0  0.3601475E-02  0.6940507E+03  0.7818609E-02  0.9727461E-01
       -1   -1    0    0    0  501  0.00000000000E+00  0.00000000000E+00  0.25293297333E+03  0.25293297338E+03  0.50400001928E-02 0.  1.
        1   -1    0    0  501    0  0.00000000000E+00  0.00000000000E+00 -0.47612062097E+03  0.47612062099E+03  0.50400001928E-02 0. -1.
    10030    2    1    2    0    0  0.00000000000E+00  0.00000000000E+00 -0.22318764764E+03  0.72905359437E+03  0.69405073115E+03 0.  0.
        5    1    3    3  502    0  0.10415550125E+03  0.29159391454E+03 -0.27611028359E+03  0.41489077857E+03  0.46999998093E+01 0. -1.
       -5    1    3    3    0  502 -0.10415550125E+03 -0.29159391454E+03  0.52922635950E+02  0.31416281580E+03  0.46999998093E+01 0.  1.
</event>
<event>
 5   0  0.5899787E-02  0.7059040E+03  0.7818609E-02  0.9707189E-01
       -2   -1    0    0    0  501  0.00000000000E+00  0.00000000000E+00  0.21161060367E+03  0.21161060368E+03  0.25500000920E-02 0.  1.
        2   -1    0    0  501    0  0.00000000000E+00  0.00000000000E+00 -0.58869976661E+03  0.58869976661E+03  0.25500000920E-02 0. -1.
    10030    2    1    2    0    0  0.00000000000E+00  0.00000000000E+00 -0.37708916294E+03  0.80031037029E+03  0.70590399630E+03 0.  0.
        2    1    3    3  502    0  0.96390365266E+02 -0.12835886245E+03  0.16783177766E+03  0.23223825199E+03  0.25500000920E-02 0.  1.
       -2    1    3    3    0  502 -0.96390365266E+02  0.12835886245E+03 -0.54492094060E+03  0.56807211831E+03  0.25500000920E-02 0. -1.
</event>
<event>
 5   0  0.3717372E-02  0.7068151E+03  0.7818609E-02  0.9705648E-01
        1   -1    0    0  501    0  0.00000000000E+00  0.00000000000E+00  0.91870308103E+03  0.91870308104E+03  0.50400001928E-02 0.  1.
       -1   -1    0    0    0  501  0.00000000000E+00  0.00000000000E+00 -0.13594912928E+03  0.13594912938E+03  0.50400001928E-02 0. -1.
    10030    2    1    2    0    0  0.00000000000E+00  0.00000000000E+00  0.78275395174E+03  0.10546522104E+04  0.70681506490E+03 0.  0.
        3    1    3    3  502    0 -0.21218566230E+03  0.14402038413E+03  0.75421739729E+03  0.79662319757E+03  0.10100000352E+00 0.  1.
       -3    1    3    3    0  502  0.21218566230E+03 -0.14402038413E+03  0.28536554454E+02  0.25802901285E+03  0.10100000352E+00 0. -1.
</event>
<event>
 5   0  0.6248886E-02  0.7982906E+03  0.7818609E-02  0.9562495E-01
       -2   -1    0    0    0  501  0.00000000000E+00  0.00000000000E+00  0.43729621256E+03  0.43729621256E+03  0.25500000920E-02 0. -1.
        2   -1    0    0  501    0  0.00000000000E+00  0.00000000000E+00 -0.36432278173E+03  0.36432278173E+03  0.25500000920E-02 0.  1.
    10030    2    1    2    0    0  0.00000000000E+00  0.00000000000E+00  0.72973430832E+02  0.80161899430E+03  0.79829060524E+03 0.  0.
        3    1    3    3  502    0  0.32301958632E+03 -0.22704472547E+03 -0.22289386576E+02  0.39545895800E+03  0.10100000352E+00 0.  1.
       -3    1    3    3    0  502 -0.32301958632E+03  0.22704472547E+03  0.95262817408E+02  0.40616003630E+03  0.10100000352E+00 0. -1.
</event>
<event>
 5   0  0.3755872E-02  0.7037764E+03  0.7818609E-02  0.9710796E-01
       -1   -1    0    0    0  501  0.00000000000E+00  0.00000000000E+00  0.18341722345E+03  0.18341722352E+03  0.50400001928E-02 0. -1.
        1   -1    0    0  501    0  0.00000000000E+00  0.00000000000E+00 -0.67510188397E+03  0.67510188399E+03  0.50400001928E-02 0.  1.
    10030    2    1    2    0    0  0.00000000000E+00  0.00000000000E+00 -0.49168466052E+03  0.85851910751E+03  0.70377642229E+03 0.  0.
        2    1    3    3  502    0 -0.75204916416E+02  0.10584173347E+03 -0.64481237025E+03  0.65775469959E+03  0.25500000920E-02 0.  1.
       -2    1    3    3    0  502  0.75204916416E+02 -0.10584173347E+03  0.15312770972E+03  0.20076440793E+03  0.25500000920E-02 0. -1.
</event>
<event>
 5   0  0.3439015E-02  0.5855314E+03  0.7818609E-02  0.9935887E-01
        1   -1    0    0  501    0  0.00000000000E+00  0.00000000000E+00  0.77332075374E+03  0.77332075375E+03  0.50400001928E-02 0. -1.
       -1   -1    0    0    0  501  0.00000000000E+00  0.00000000000E+00 -0.11083595174E+03  0.11083595185E+03  0.50400001928E-02 0.  1.
    10030    2    1    2    0    0  0.00000000000E+00  0.00000000000E+00  0.66248480200E+03  0.88415670560E+03  0.58553135457E+03 0.  0.
        1    1    3    3  502    0  0.76213465991E+02 -0.14445231121E+03 -0.35651436262E+02  0.16717053432E+03  0.50400001928E-02 0.  1.
       -1    1    3    3    0  502 -0.76213465991E+02  0.14445231121E+03  0.69813623826E+03  0.71698617128E+03  0.50400001928E-02 0. -1.
</event>
<event>
 5   0  0.5899787E-02  0.6779236E+03  0.7818609E-02  0.9755749E-01
        2   -1    0    0  501    0  0.00000000000E+00  0.00000000000E+00  0.11307296676E+04  0.11307296676E+04  0.25500000920E-02 0.  1.
       -2   -1    0    0    0  501  0.00000000000E+00  0.00000000000E+00 -0.10161147453E+03  0.10161147457E+03  0.25500000920E-02 0. -1.
    10030    2    1    2    0    0  0.00000000000E+00  0.00000000000E+00  0.10291181930E+04  0.12323411421E+04  0.67792362060E+03 0.  0.
        2    1    3    3  502    0  0.13859891186E+03 -0.27265995120E+03  0.78012221173E+03  0.83794019632E+03  0.25500000920E-02 0.  1.
       -2    1    3    3    0  502 -0.13859891186E+03  0.27265995120E+03  0.24899598130E+03  0.39440094582E+03  0.25500000920E-02 0. -1.
</event>
<event>
 5   0  0.3717372E-02  0.6909631E+03  0.7818609E-02  0.9732812E-01
       -1   -1    0    0    0  501  0.00000000000E+00  0.00000000000E+00  0.27406771004E+03  0.27406771008E+03  0.50400001928E-02 0. -1.
        1   -1    0    0  501    0  0.00000000000E+00  0.00000000000E+00 -0.43550370873E+03  0.43550370876E+03  0.50400001928E-02 0.  1.
    10030    2    1    2    0    0  0.00000000000E+00  0.00000000000E+00 -0.16143599869E+03  0.70957141884E+03  0.69096310811E+03 0.  0.
        3    1    3    3  502    0 -0.11115338951E+03  0.31654239722E+03  0.39856228630E+01  0.33551462059E+03  0.10100000352E+00 0.  1.
       -3    1    3    3    0  502  0.11115338951E+03 -0.31654239722E+03 -0.16542162155E+03  0.37405679825E+03  0.10100000352E+00 0. -1.
</event>
<event>
 5   0  0.6167756E-02  0.4551980E+03  0.7818609E-02  0.1026183E+00
       -2   -1    0    0    0  501  0.00000000000E+00  0.00000000000E+00  0.48743032928E+02  0.48743032994E+02  0.25500000920E-02 0. -1.
        2   -1    0    0  501    0  0.00000000000E+00  0.00000000000E+00 -0.10627427128E+04  0.10627427128E+04  0.25500000920E-02 0.  1.
    10030    2    1    2    0    0  0.00000000000E+00  0.00000000000E+00 -0.10139996799E+04  0.11114857458E+04  0.45519799246E+03 0.  0.
        4    1    3    3  502    0  0.13638904210E+03 -0.96167392642E+02 -0.12912127608E+03  0.21100723933E+03  0.12699999809E+01 0. -1.
       -4    1    3    3    0  502 -0.13638904210E+03  0.96167392642E+02 -0.88487840382E+03  0.90047850650E+03  0.12699999809E+01 0.  1.
</event>
<event>
 5   0  0.6248886E-02  0.7096850E+03  0.7818609E-02  0.9700811E-01
        2   -1    0    0  501    0  0.00000000000E+00  0.00000000000E+00  0.74814793285E+03  0.74814793286E+03  0.25500000920E-02 0.  1.
       -2   -1    0    0    0  501  0.00000000000E+00  0.00000000000E+00 -0.16829988781E+03  0.16829988783E+03  0.25500000920E-02 0. -1.
    10030    2    1    2    0    0  0.00000000000E+00  0.00000000000E+00  0.57984804505E+03  0.91644782068E+03  0.70968503767E+03 0.  0.
        3    1    3    3  502    0  0.11505488711E+03 -0.18928067609E+03  0.64790464025E+03  0.68472274276E+03  0.10100000352E+00 0.  1.
       -3    1    3    3    0  502 -0.11505488711E+03  0.18928067609E+03 -0.68056595206E+02  0.23172507793E+03  0.10100000352E+00 0. -1.
</event>
<event>
 5   0  0.5987810E-02  0.6984609E+03  0.7818609E-02  0.9719868E-01
       -2   -1    0    0    0  501  0.00000000000E+00  0.00000000000E+00  0.44196075118E+03  0.44196075119E+03  0.25500000920E-02 0. -1.
        2   -1    0    0  501    0  0.00000000000E+00  0.00000000000E+00 -0.27595641375E+03  0.27595641377E+03  0.25500000920E-02 0.  1.
    10030    2    1    2    0    0  0.00000000000E+00  0.00000000000E+00  0.16600433743E+03  0.71791716495E+03  0.69846089059E+03 0.  0.
        5    1    3    3  502    0  0.27858821509E+03  0.20514614760E+01  0.29939992561E+03  0.40899634172E+03  0.46999998093E+01 0. -1.
       -5    1    3    3    0  502 -0.27858821509E+03 -0.20514614760E+01 -0.13339558819E+03  0.30892082324E+03  0.46999998093E+01 0.  1.
</event>
<event>
 5   0  0.3749730E-02  0.7002429E+03  0.7818609E-02  0.9716817E-01
        1   -1    0    0  501    0  0.00000000000E+00  0.00000000000E+00  0.10215070214E+04  0.10215070215E+04  0.50400001928E-02 0. -1.
       -1   -1    0    0    0  501  0.00000000000E+00  0.00000000000E+00 -0.12000410304E+03  0.12000410315E+03  0.50400001928E-02 0.  1.
    10030    2    1    2    0    0  0.00000000000E+00  0.00000000000E+00  0.90150291840E+03  0.11415111246E+04  0.70024291193E+03 0.  0.
        4    1    3    3  502    0  0.13300514534E+03 -0.15677749838E+03  0.91273520834E+03  0.93560500540E+03  0.12699999809E+01 0. -1.
       -4    1    3    3    0  502 -0.13300514534E+03  0.15677749838E+03 -0.11232289945E+02  0.20590611920E+03  0.12699999809E+01 0.  1.
</event>
<event>
 5   0  0.3439015E-02  0.6638010E+03  0.7818609E-02  0.9781222E-01
       -1   -1    0    0    0  501  0.00000000000E+00  0.00000000000E+00  0.16656175137E+03  0.16656175145E+03  0.50400001928E-02 0. -1.
        1   -1    0    0  501    0  0.00000000000E+00  0.00000000000E+00 -0.66136396454E+03  0.66136396456E+03  0.50400001928E-02 0.  1.
    10030    2    1    2    0    0  0.00000000000E+00  0.00000000000E+00 -0.49480221317E+03  0.82792571601E+03  0.66380099509E+03 0.  0.
        1    1    3    3  502    0 -0.12046653526E+03 -0.13801341511E+03 -0.59259438770E+03  0.62026445749E+03  0.50400001928E-02 0.  1.
       -1    1    3    3    0  502  0.12046653526E+03  0.13801341511E+03  0.97792174527E+02  0.20766125852E+03  0.50400001928E-02 0. -1.
</event>
<event>
 5   0  0.3601475E-02  0.6849822E+03  0.7818609E-02  0.9743265E-01
        1   -1    0    0  501    0  0.00000000000E+00  0.00000000000E+00  0.12635695401E+03  0.12635695411E+03  0.50400001928E-02 0.  1.
       -1   -1    0    0    0  501  0.00000000000E+00  0.00000000000E+00 -0.92832374349E+03  0.92832374351E+03  0.50400001928E-02 0. -1.
    10030    2    1    2    0    0  0.00000000000E+00  0.00000000000E+00 -0.80196678949E+03  0.10546806976E+04  0.68498222056E+03 0.  0.
        5    1    3    3  502    0 -0.30134298868E+03  0.15685318876E+03 -0.46752264926E+03  0.57793601482E+03  0.46999998093E+01 0.  1.
       -5    1    3    3    0  502  0.30134298868E+03 -0.15685318876E+03 -0.33444414022E+03  0.47674468280E+03  0.46999998093E+01 0. -1.
</event>
<event>
 5   0  0.5899787E-02  0.6872232E+03  0.7818609E-02  0.9739335E-01
       -2   -1    0    0    0  501  0.00000000000E+00  0.00000000000E+00  0.20732509549E+03  0.20732509551E+03  0.25500000920E-02 0.  1.
        2   -1    0    0  501    0  0.00000000000E+00  0.00000000000E+00 -0.56948696857E+03  0.56948696857E+03  0.25500000920E-02 0. -1.
    10030    2    1    2    0    0  0.00000000000E+00  0.00000000000E+00 -0.36216187308E+03  0.77681206408E+03  0.68722322471E+03 0.  0.
        2    1    3    3  502    0  0.30861652394E+03  0.73658124792E+02 -0.31978909810E+02  0.31889234684E+03  0.25500000920E-02 0. -1.
       -2    1    3    3    0  502 -0.30861652394E+03 -0.73658124792E+02 -0.33018296327E+03  0.45791971724E+03  0.25500000920E-02 0.  1.
</event>
<event>
 5   0  0.6131198E-02  0.7001227E+03  0.7818609E-02  0.9717022E-01
        2   -1    0    0  501    0  0.00000000000E+00  0.00000000000E+00  0.11376772274E+04  0.11376772274E+04  0.25500000920E-02 0. -1.
       -2   -1    0    0    0  501  0.00000000000E+00  0.00000000000E+00 -0.10771328823E+03  0.10771328826E+03  0.25500000920E-02 0.  1.
    10030    2    1    2    0    0  0.00000000000E+00  0.00000000000E+00  0.10299639392E+04  0.12453905157E+04  0.70012271817E+03 0.  0.
        1    1    3    3  502    0  0.25401113526E+03 -0.22682090879E+03  0.37075975877E+03  0.50342048056E+03  0.50400001928E-02 0.  1.
       -1    1    3    3    0  502 -0.25401113526E+03  0.22682090879E+03  0.65920418040E+03  0.74197003509E+03  0.50400001928E-02 0. -1.
</event>
<event>
 5   0  0.5987810E-02  0.7075277E+03  0.7818609E-02  0.9704445E-01
       -2   -1    0    0    0  501  0.00000000000E+00  0.00000000000E+00  0.11927445772E+03  0.11927445774E+03  0.25500000920E-02 0.  1.
        2   -1    0    0  501    0  0.00000000000E+00  0.00000000000E+00 -0.10492511274E+04  0.10492511274E+04  0.25500000920E-02 0. -1.
    10030    2    1    2    0    0  0.00000000000E+00  0.00000000000E+00 -0.92997666970E+03  0.11685255852E+04  0.70752769345E+03 0.  0.
        5    1    3    3  502    0  0.76044895222E+02  0.22281278846E+03 -0.90100812411E+03  0.93127122499E+03  0.46999998093E+01 0. -1.
       -5    1    3    3    0  502 -0.76044895222E+02 -0.22281278846E+03 -0.28968545593E+02  0.23725436018E+03  0.46999998093E+01 0.  1.
</event>
<event>
 5   0  0.6167756E-02  0.6943944E+03  0.7818609E-02  0.9726867E-01
       -2   -1    0    0    0  501  0.00000000000E+00  0.00000000000E+00  0.18545791521E+03  0.18545791522E+03  0.25500000920E-02 0. -1.
        2   -1    0    0  501    0  0.00000000000E+00  0.00000000000E+00 -0.64999049798E+03  0.64999049799E+03  0.25500000920E-02 0.  1.
    10030    2    1    2    0    0  0.00000000000E+00  0.00000000000E+00 -0.46453258278E+03  0.83544841321E+03  0.69439436250E+03 0.  0.
        4    1    3    3  502    0 -0.14940805192E+03 -0.87831120894E+02  0.12968906846E+03  0.21646694703E+03  0.12699999809E+01 0. -1.
       -4    1    3    3    0  502  0.14940805192E+03  0.87831120894E+02 -0.59422165124E+03  0.61898146619E+03  0.12699999809E+01 0.  1.
</event>
<event>
 5   0  0.5899787E-02  0.6724131E+03  0.7818609E-02  0.9765608E-01
        2   -1    0    0  501    0  0.00000000000E+00  0.00000000000E+00  0.75492772907E+03  0.75492772907E+03  0.25500000920E-02 0. -1.
       -2   -1    0    0    0  501  0.00000000000E+00  0.00000000000E+00 -0.14972938030E+03  0.14972938032E+03  0.25500000920E-02 0.  1.
    10030    2    1    2    0    0  0.00000000000E+00  0.00000000000E+00  0.60519834877E+03  0.90465710939E+03  0.67241314994E+03 0.  0.
        2    1    3    3  502    0 -0.59650868829E+00  0.16211018341E+03  0.69887222939E+03  0.71742766911E+03  0.25500000920E-02 0. -1.
       -2    1    3    3    0  502  0.59650868829E+00 -0.16211018341E+03 -0.93673880620E+02  0.18722944028E+03  0.25500000920E-02 0.  1.
</event>
<event>
 5   0  0.5987810E-02  0.7300213E+03  0.7818609E-02  0.9667226E-01
       -2   -1    0    0    0  501  0.00000000000E+00  0.00000000000E+00  0.74648206790E+02  0.74648206834E+02  0.25500000920E-02 0. -1.
        2   -1    0    0  501    0  0.00000000000E+00  0.00000000000E+00 -0.17848086667E+04  0.17848086667E+04  0.25500000920E-02 0.  1.
    10030    2    1    2    0    0  0.00000000000E+00  0.00000000000E+00 -0.17101604599E+04  0.18594568735E+04  0.73002127770E+03 0.  0.
        5    1    3    3  502    0 -0.35630065238E+03  0.42985161525E+02 -0.10242830472E+04  0.10853459032E+04  0.46999998093E+01 0.  1.
       -5    1    3    3    0  502  0.35630065238E+03 -0.42985161525E+02 -0.68587741271E+03  0.77411097025E+03  0.46999998093E+01 0. -1.
</event>
<event>
 5   0  0.5987810E-02  0.6842451E+03  0.7818609E-02  0.9744561E-01
        2   -1    0    0  501    0  0.00000000000E+00  0.00000000000E+00  0.13580156868E+03  0.13580156871E+03  0.25500000920E-02 0.  1.
       -2   -1    0    0    0  501  0.00000000000E+00  0.00000000000E+00 -0.86190333502E+03  0.86190333502E+03  0.25500000920E-02 0. -1.
    10030    2    1    2    0    0  0.00000000000E+00  0.00000000000E+00 -0.72610176633E+03  0.99770490373E+03  0.68424505833E+03 0.  0.
        5    1    3    3  502    0  0.17094215819E+01 -0.30215108498E+03 -0.12917280125E+03  0.32864251529E+03  0.46999998093E+01 0.  1.
       -5    1    3    3    0  502 -0.17094215819E+01  0.30215108498E+03 -0.59692896508E+03  0.66906238844E+03  0.46999998093E+01 0. -1.
</event>
<event>
 5   0  0.2439375E-02  0.6942879E+03  0.7818609E-02  0.9727051E-01
       -4   -1    0    0    0  501  0.00000000000E+00  0.00000000000E+00  0.62903721554E+03  0.62903849758E+03  0.12699999809E+01 0. -1.
        4   -1    0    0  501    0  0.00000000000E+00  0.00000000000E+00 -0.19157318579E+03  0.19157739536E+03  0.12699999809E+01 0.  1.
    10030    2    1    2    0    0  0.00000000000E+00  0.00000000000E+00  0.43746402975E+03  0.82061589294E+03  0.69428788440E+03 0.  0.
        5    1    3    3  502    0  0.99589747283E+02 -0.32757891557E+03  0.28622520389E+03  0.44628804715E+03  0.46999998093E+01 0. -1.
       -5    1    3    3    0  502 -0.99589747283E+02  0.32757891557E+03  0.15123882586E+03  0.37432784579E+03  0.46999998093E+01 0.  1.
</event>
<event>
 5   0  0.3755872E-02  0.6401837E+03  0.7818609E-02  0.9825375E-01
        1   -1    0    0  501    0  0.00000000000E+00  0.00000000000E+00  0.64671443454E+03  0.64671443456E+03  0.50400001928E-02 0. -1.
       -1   -1    0    0    0  501  0.00000000000E+00  0.00000000000E+00 -0.15842973700E+03  0.15842973708E+03  0.50400001928E-02 0.  1.
    10030    2    1    2    0    0  0.00000000000E+00  0.00000000000E+00  0.48828469754E+03  0.80514417163E+03  0.64018371681E+03 0.  0.
        2    1    3    3  502    0 -0.94412240812E+02 -0.10735538053E+03 -0.11604526738E+03  0.18413406266E+03  0.25500000920E-02 0.  1.
       -2    1    3    3    0  502  0.94412240812E+02  0.10735538053E+03  0.60432996492E+03  0.62101010897E+03  0.25500000920E-02 0. -1.
</event>
<event>
 5   0  0.2439375E-02  0.6871620E+03  0.7818609E-02  0.9739442E-01
        4   -1    0    0  501    0  0.00000000000E+00  0.00000000000E+00  0.18759321709E+03  0.18759751597E+03  0.12699999809E+01 0.  1.
       -4   -1    0    0    0  501  0.00000000000E+00  0.00000000000E+00 -0.62926389005E+03  0.62926517162E+03  0.12699999809E+01 0. -1.
    10030    2    1    2    0    0  0.00000000000E+00  0.00000000000E+00 -0.44167067295E+03  0.81686268760E+03  0.68716203842E+03 0.  0.
        4    1    3    3  502    0  0.30924785917E+03 -0.73126360240E+01 -0.39858636141E+03  0.50453980363E+03  0.12699999809E+01 0. -1.
       -4    1    3    3    0  502 -0.30924785917E+03  0.73126360240E+01 -0.43084311542E+02  0.31232288396E+03  0.12699999809E+01 0.  1.
</event>
<event>
 5   0  0.3717372E-02  0.6922577E+03  0.7818609E-02  0.9730565E-01
        1   -1    0    0  501    0  0.00000000000E+00  0.00000000000E+00  0.15348448547E+03  0.15348448556E+03  0.50400001928E-02 0.  1.
       -1   -1    0    0    0  501  0.00000000000E+00  0.00000000000E+00 -0.78056860961E+03  0.78056860962E+03  0.50400001928E-02 0. -1.
    10030    2    1    2    0    0  0.00000000000E+00  0.00000000000E+00 -0.62708412414E+03  0.93405309518E+03  0.69225767303E+03 0.  0.
        3    1    3    3  502    0  0.32335453309E+03 -0.25441546691E+02 -0.47657534382E+03  0.57648026411E+03  0.10100000352E+00 0. -1.
       -3    1    3    3    0  502 -0.32335453309E+03  0.25441546691E+02 -0.15050878032E+03  0.35757283107E+03  0.10100000352E+00 0.  1.
</event>
<event>
 5   0  0.6248886E-02  0.6925304E+03  0.7818609E-02  0.9730092E-01
        2   -1    0    0  501    0  0.00000000000E+00  0.00000000000E+00  0.33152586773E+03  0.33152586774E+03  0.25500000920E-02 0. -1.
       -2   -1    0    0    0  501  0.00000000000E+00  0.00000000000E+00 -0.36165977933E+03  0.36165977934E+03  0.25500000920E-02 0.  1.
    10030    2    1    2    0    0  0.00000000000E+00  0.00000000000E+00 -0.30133911602E+02  0.69318564708E+03  0.69253035217E+03 0.  0.
        3    1    3    3  502    0  0.57921062210E+02 -0.33462690809E+03  0.52595417052E+02  0.34365142974E+03  0.10100000352E+00 0. -1.
       -3    1    3    3    0  502 -0.57921062210E+02  0.33462690809E+03 -0.82729328654E+02  0.34953421733E+03  0.10100000352E+00 0.  1.
</event>
<event>
 5   0  0.3439015E-02  0.6966348E+03  0.7818609E-02  0.9723004E-01
        1   -1    0    0  501    0  0.00000000000E+00  0.00000000000E+00  0.17128474586E+03  0.17128474593E+03  0.50400001928E-02 0. -1.
       -1   -1    0    0    0  501  0.00000000000E+00  0.00000000000E+00 -0.70832358650E+03  0.70832358652E+03  0.50400001928E-02 0.  1.
    10030    2    1    2    0    0  0.00000000000E+00  0.00000000000E+00 -0.53703884064E+03  0.87960833245E+03  0.69663484134E+03 0.  0.
        1    1    3    3  502    0  0.20748046171E+03 -0.27846348410E+03 -0.23428843446E+03  0.41890467235E+03  0.50400001928E-02 0.  1.
       -1    1    3    3    0  502 -0.20748046171E+03  0.27846348410E+03 -0.30275040618E+03  0.46070366010E+03  0.50400001928E-02 0. -1.
</event>
<event>
 5   0  0.3755872E-02  0.6357431E+03  0.7818609E-02  0.9833905E-01
       -1   -1    0    0    0  501  0.00000000000E+00  0.00000000000E+00  0.61460608591E+02  0.61460608797E+02  0.50400001928E-02 0. -1.
        1   -1    0    0  501    0  0.00000000000E+00  0.00000000000E+00 -0.16440175326E+04  0.16440175326E+04  0.50400001928E-02 0.  1.
    10030    2    1    2    0    0  0.00000000000E+00  0.00000000000E+00 -0.15825569240E+04  0.17054781414E+04  0.63574308732E+03 0.  0.
        2    1    3    3  502    0 -0.50734997436E+02  0.26023490791E+03 -0.32088711535E+03  0.41625087155E+03  0.25500000920E-02 0. -1.
       -2    1    3    3    0  502  0.50734997436E+02 -0.26023490791E+03 -0.12616698086E+04  0.12892272698E+04  0.25500000920E-02 0.  1.
</event>
<event>
 5   0  0.3601475E-02  0.7008923E+03  0.7818609E-02  0.9715707E-01
       -1   -1    0    0    0  501  0.00000000000E+00  0.00000000000E+00  0.16420899168E+03  0.16420899176E+03  0.50400001928E-02 0. -1.
        1   -1    0    0  501    0  0.00000000000E+00  0.00000000000E+00 -0.74790374826E+03  0.74790374828E+03  0.50400001928E-02 0.  1.
    10030    2    1    2    0    0  0.00000000000E+00  0.00000000000E+00 -0.58369475658E+03  0.91211274004E+03  0.70089234672E+03 0.  0.
        5    1    3    3  502    0  0.30136886668E+03 -0.12834674481E+03 -0.45383576530E+03  0.55971874417E+03  0.46999998093E+01 0.  1.
       -5    1    3    3    0  502 -0.30136886668E+03  0.12834674481E+03 -0.12985899127E+03  0.35239399587E+03  0.46999998093E+01 0. -1.
</event>
<event>
 5   0  0.5899787E-02  0.7003619E+03  0.7818609E-02  0.9716614E-01
        2   -1    0    0  501    0  0.00000000000E+00  0.00000000000E+00  0.87163060840E+03  0.87163060840E+03  0.25500000920E-02 0. -1.
       -2   -1    0    0    0  501  0.00000000000E+00  0.00000000000E+00 -0.14068652421E+03  0.14068652423E+03  0.25500000920E-02 0.  1.
    10030    2    1    2    0    0  0.00000000000E+00  0.00000000000E+00  0.73094408419E+03  0.10123171326E+04  0.70036185135E+03 0.  0.
        2    1    3    3  502    0  0.82975714587E+02  0.11767679820E+03 -0.95917939866E+02  0.17301170261E+03  0.25500000920E-02 0.  1.
       -2    1    3    3    0  502 -0.82975714587E+02 -0.11767679820E+03  0.82686202405E+03  0.83930543003E+03  0.25500000920E-02 0. -1.
</event>
<event>
 5   0  0.6167756E-02  0.7160423E+03  0.7818609E-02  0.9690184E-01
       -2   -1    0    0    0  501  0.00000000000E+00  0.00000000000E+00  0.96479052891E+02  0.96479052924E+02  0.25500000920E-02 0.  1.
        2   -1    0    0  501    0  0.00000000000E+00  0.00000000000E+00 -0.13285696579E+04  0.13285696579E+04  0.25500000920E-02 0. -1.
    10030    2    1    2    0    0  0.00000000000E+00  0.00000000000E+00 -0.12320906050E+04  0.14250487108E+04  0.71604229572E+03 0.  0.
        4    1    3    3  502    0  0.20560317887E+03  0.24669673761E+03 -0.30108443602E+03  0.44021062916E+03  0.12699999809E+01 0.  1.
       -4    1    3    3    0  502 -0.20560317887E+03 -0.24669673761E+03 -0.93100616895E+03  0.98483808163E+03  0.12699999809E+01 0. -1.
</event>
<event>
 5   0  0.3717372E-02  0.6918121E+03  0.7818609E-02  0.9731338E-01
        1   -1    0    0  501    0  0.00000000000E+00  0.00000000000E+00  0.33503018605E+03  0.33503018609E+03  0.50400001928E-02 0.  1.
       -1   -1    0    0    0  501  0.00000000000E+00  0.00000000000E+00 -0.35713496482E+03  0.35713496486E+03  0.50400001928E-02 0. -1.
    10030    2    1    2    0    0  0.00000000000E+00  0.00000000000E+00 -0.22104778771E+02  0.69216515095E+03  0.69181209511E+03 0.  0.
        3    1    3    3  502    0  0.28213600132E+03  0.16698106088E+03 -0.12141546227E+03  0.34960709749E+03  0.10100000352E+00 0.  1.
       -3    1    3    3    0  502 -0.28213600132E+03 -0.16698106088E+03  0.99310683498E+02  0.34255805346E+03  0.10100000352E+00 0. -1.
</event>
<event>
 5   0  0.5899787E-02  0.7088010E+03  0.7818609E-02  0.9702299E-01
        2   -1    0    0  501    0  0.00000000000E+00  0.00000000000E+00  0.35358846628E+03  0.35358846629E+03  0.25500000920E-02 0. -1.
       -2   -1    0    0    0  501  0.00000000000E+00  0.00000000000E+00 -0.35521444570E+03  0.35521444571E+03  0.25500000920E-02 0.  1.
    10030    2    1    2    0    0  0.00000000000E+00  0.00000000000E+00 -0.16259794196E+01  0.70880291201E+03  0.70880104702E+03 0.  0.
        2    1    3    3  502    0 -0.28087626822E+03 -0.21529641548E+03 -0.19673221934E+02  0.35444472099E+03  0.25500000920E-02 0.  1.
       -2    1    3    3    0  502  0.28087626822E+03  0.21529641548E+03  0.18047242514E+02  0.35435819102E+03  0.25500000920E-02 0. -1.
</event>
<event>
 5   0  0.3601475E-02  0.7062371E+03  0.7818609E-02  0.9706625E-01
       -1   -1    0    0    0  501  0.00000000000E+00  0.00000000000E+00  0.19149756921E+03  0.19149756928E+03  0.50400001928E-02 0. -1.
        1   -1    0    0  501    0  0.00000000000E+00  0.00000000000E+00 -0.65114506315E+03  0.65114506317E+03  0.50400001928E-02 0.  1.
    10030    2    1    2    0    0  0.00000000000E+00  0.00000000000E+00 -0.45964749394E+03  0.84264263245E+03  0.70623706171E+03 0.  0.
        5    1    3    3  502    0 -0.33305261932E+03  0.41615543356E+02 -0.36060620636E+03  0.49266096532E+03  0.46999998093E+01 0.  1.
       -5    1    3    3    0  502  0.33305261932E+03 -0.41615543356E+02 -0.99041287578E+02  0.34998166713E+03  0.46999998093E+01 0. -1.
</event>
<event>
 5   0  0.3601475E-02  0.6992275E+03  0.7818609E-02  0.9718554E-01
       -1   -1    0    0    0  501  0.00000000000E+00  0.00000000000E+00  0.26701118520E+03  0.26701118525E+03  0.50400001928E-02 0. -1.
        1   -1    0    0  501    0  0.00000000000E+00  0.00000000000E+00 -0.45777025273E+03  0.45777025276E+03  0.50400001928E-02 0.  1.
    10030    2    1    2    0    0  0.00000000000E+00  0.00000000000E+00 -0.19075906753E+03  0.72478143801E+03  0.69922751022E+03 0.  0.
        5    1    3    3  502    0 -0.21360258078E+03 -0.26180233276E+03 -0.24298299273E+01  0.33792679388E+03  0.46999998093E+01 0. -1.
       -5    1    3    3    0  502  0.21360258078E+03  0.26180233276E+03 -0.18832923760E+03  0.38685464413E+03  0.46999998093E+01 0.  1.
</event>
<event>
 5   0  0.3749730E-02  0.6887799E+03  0.7818609E-02  0.9736615E-01
        1   -1    0    0  501    0  0.00000000000E+00  0.00000000000E+00  0.23788715904E+03  0.23788715909E+03  0.50400001928E-02 0.  1.
       -1   -1    0    0    0  501  0.00000000000E+00  0.00000000000E+00 -0.49857440523E+03  0.49857440526E+03  0.50400001928E-02 0. -1.
    10030    2    1    2    0    0  0.00000000000E+00  0.00000000000E+00 -0.26068724619E+03  0.73646156435E+03  0.68877993252E+03 0.  0.
        4    1    3    3  502    0  0.27287115665E+01  0.31334556663E+03  0.22409651157E+02  0.31416030201E+03  0.12699999809E+01 0.  1.
       -4    1    3    3    0  502 -0.27287115665E+01 -0.31334556663E+03 -0.28309689735E+03  0.42230126235E+03  0.12699999809E+01 0. -1.
</event>
<event>
 5   0  0.3755872E-02  0.7166794E+03  0.7818609E-02  0.9689126E-01
        1   -1    0    0  501    0  0.00000000000E+00  0.00000000000E+00  0.45477802716E+03  0.45477802719E+03  0.50400001928E-02 0. -1.
       -1   -1    0    0    0  501  0.00000000000E+00  0.00000000000E+00 -0.28235167933E+03  0.28235167938E+03  0.50400001928E-02 0.  1.
    10030    2    1    2    0    0  0.00000000000E+00  0.00000000000E+00  0.17242634783E+03  0.73712970657E+03  0.71667939756E+03 0.  0.
        2    1    3    3  502    0  0.10991657228E+03 -0.19974784107E+03  0.37055512692E+03  0.43507695293E+03  0.25500000920E-02 0. -1.
       -2    1    3    3    0  502 -0.10991657228E+03  0.19974784107E+03 -0.19812877909E+03  0.30205275364E+03  0.25500000920E-02 0.  1.
</event>
<event>
 5   0  0.3601475E-02  0.6919311E+03  0.7818609E-02  0.9731131E-01
       -1   -1    0    0    0  501  0.00000000000E+00  0.00000000000E+00  0.19070612150E+04  0.19070612150E+04  0.50400001928E-02 0.  1.
        1   -1    0    0  501    0  0.00000000000E+00  0.00000000000E+00 -0.62762622192E+02  0.62762622395E+02  0.50400001928E-02 0. -1.
    10030    2    1    2    0    0  0.00000000000E+00  0.00000000000E+00  0.18442985928E+04  0.19698238374E+04  0.69193110275E+03 0.  0.
        5    1    3    3  502    0 -0.18532860782E+03 -0.29122927435E+03  0.85792840413E+03  0.92478344477E+03  0.46999998093E+01 0.  1.
       -5    1    3    3    0  502  0.18532860782E+03  0.29122927435E+03  0.98637018865E+03  0.10450403926E+04  0.46999998093E+01 0. -1.
</event>
<event>
 5   0  0.3439015E-02  0.7336697E+03  0.7818609E-02  0.9661324E-01
        1   -1    0    0  501    0  0.00000000000E+00  0.00000000000E+00  0.86465955420E+03  0.86465955422E+03  0.50400001928E-02 0. -1.
       -1   -1    0    0    0  501  0.00000000000E+00  0.00000000000E+00 -0.15563099080E+03  0.15563099088E+03  0.50400001928E-02 0.  1.
    10030    2    1    2    0    0  0.00000000000E+00  0.00000000000E+00  0.70902856340E+03  0.10202905451E+04  0.73366974362E+03 0.  0.
        1    1    3    3  502    0  0.27948033483E+03 -0.13904028682E+03  0.86557678691E+02  0.32393470126E+03  0.50400001928E-02 0.  1.
       -1    1    3    3    0  502 -0.27948033483E+03  0.13904028682E+03  0.62247088471E+03  0.69635584384E+03  0.50400001928E-02 0. -1.
</event>
<event>
 5   0  0.6248886E-02  0.6851810E+03  0.7818609E-02  0.9742916E-01
       -2   -1    0    0    0  501  0.00000000000E+00  0.00000000000E+00  0.31400915070E+03  0.31400915071E+03  0.25500000920E-02 0.  1.
        2   -1    0    0  501    0  0.00000000000E+00  0.00000000000E+00 -0.37377336504E+03  0.37377336504E+03  0.25500000920E-02 0. -1.
    10030    2    1    2    0    0  0.00000000000E+00  0.00000000000E+00 -0.59764214340E+02  0.68778251575E+03  0.68518101817E+03 0.  0.
        3    1    3    3  502    0 -0.10254430690E+03  0.32258804142E+03  0.23137631991E+02  0.33928415754E+03  0.10100000352E+00 0.  1.
       -3    1    3    3    0  502  0.10254430690E+03 -0.32258804142E+03 -0.82901846331E+02  0.34849835821E+03  0.10100000352E+00 0. -1.
</event>
<event>
 5   0  0.6248886E-02  0.7045779E+03  0.7818609E-02  0.9709435E-01
        2   -1    0    0  501    0  0.00000000000E+00  0.00000000000E+00  0.41111866712E+03  0.41111866712E+03  0.25500000920E-02 0.  1.
       -2   -1    0    0    0  501  0.00000000000E+00  0.00000000000E+00 -0.30187754302E+03  0.30187754303E+03  0.25500000920E-02 0. -1.
    10030    2    1    2    0    0  0.00000000000E+00  0.00000000000E+00  0.10924112409E+03  0.71299621016E+03  0.70457786830E+03 0.  0.
        3    1    3    3  502    0  0.18423142329E+03 -0.22491477357E+03 -0.14670271018E+03  0.32565252659E+03  0.10100000352E+00 0. -1.
       -3    1    3    3    0  502 -0.18423142329E+03  0.22491477357E+03  0.25594383427E+03  0.38734368357E+03  0.10100000352E+00 0.  1.
</event>
<event>
 5   0  0.3601475E-02  0.7014385E+03  0.7818609E-02  0.9714775E-01
       -1   -1    0    0    0  501  0.00000000000E+00  0.00000000000E+00  0.26596000375E+03  0.26596000380E+03  0.50400001928E-02 0. -1.
        1   -1    0    0  501    0  0.00000000000E+00  0.00000000000E+00 -0.46249052976E+03  0.46249052978E+03  0.50400001928E-02 0.  1.
    10030    2    1    2    0    0  0.00000000000E+00  0.00000000000E+00 -0.19653052601E+03  0.72845053358E+03  0.70143847358E+03 0.  0.
        5    1    3    3  502    0 -0.24129138439E+02 -0.94533918583E+02  0.25154910582E+03  0.26984795668E+03  0.46999998093E+01 0. -1.
       -5    1    3    3    0  502  0.24129138439E+02  0.94533918583E+02 -0.44807963183E+03  0.45860257690E+03  0.46999998093E+01 0.  1.
</event>
<event>
 5   0  0.3439015E-02  0.6996015E+03  0.7818609E-02  0.9717914E-01
       -1   -1    0    0    0  501  0.00000000000E+00  0.00000000000E+00  0.15399779773E+03  0.15399779782E+03  0.50400001928E-02 0.  1.
        1   -1    0    0  501    0  0.00000000000E+00  0.00000000000E+00 -0.79456047536E+03  0.79456047538E+03  0.50400001928E-02 0. -1.
    10030    2    1    2    0    0  0.00000000000E+00  0.00000000000E+00 -0.64056267763E+03  0.94855827319E+03  0.69960149634E+03 0.  0.
        1    1    3    3  502    0  0.67821918465E+02  0.20742658623E+03 -0.69094089026E+03  0.72458603020E+03  0.50400001928E-02 0. -1.
       -1    1    3    3    0  502 -0.67821918465E+02 -0.20742658623E+03  0.50378212636E+02  0.22397224299E+03  0.50400001928E-02 0.  1.
</event>
<event>
 5   0  0.3717372E-02  0.7070181E+03  0.7818609E-02  0.9705305E-01
       -1   -1    0    0    0  501  0.00000000000E+00  0.00000000000E+00  0.81582483474E+02  0.81582483630E+02  0.50400001928E-02 0.  1.
        1   -1    0    0  501    0  0.00000000000E+00  0.00000000000E+00 -0.15318074554E+04  0.15318074554E+04  0.50400001928E-02 0. -1.
    10030    2    1    2    0    0  0.00000000000E+00  0.00000000000E+00 -0.14502249719E+04  0.16133899390E+04  0.70701812295E+03 0.  0.
        3    1    3    3  502    0  0.36798995692E+02  0.95790923465E+01  0.76902020352E+02  0.85789603271E+02  0.10100000352E+00 0.  1.
       -3    1    3    3    0  502 -0.36798995692E+02 -0.95790923465E+01 -0.15271269922E+04  0.15276003357E+04  0.10100000352E+00 0. -1.
</event>
<event>
 5   0  0.5899787E-02  0.7097700E+03  0.7818609E-02  0.9700669E-01
        2   -1    0    0  501    0  0.00000000000E+00  0.00000000000E+00  0.39822185933E+03  0.39822185933E+03  0.25500000920E-02 0.  1.
       -2   -1    0    0    0  501  0.00000000000E+00  0.00000000000E+00 -0.31626430963E+03  0.31626430964E+03  0.25500000920E-02 0. -1.
    10030    2    1    2    0    0  0.00000000000E+00  0.00000000000E+00  0.81957549700E+02  0.71448616897E+03  0.70976999493E+03 0.  0.
        2    1    3    3  502    0 -0.21086711545E+03 -0.27666371433E+03  0.11169948568E+03  0.36535534253E+03  0.25500000920E-02 0.  1.
       -2    1    3    3    0  502  0.21086711545E+03  0.27666371433E+03 -0.29741935979E+02  0.34913082644E+03  0.25500000920E-02 0. -1.
</event>
<event>
 5   0  0.5899787E-02  0.6441154E+03  0.7818609E-02  0.9817884E-01
       -2   -1    0    0    0  501  0.00000000000E+00  0.00000000000E+00  0.21188812523E+03  0.21188812524E+03  0.25500000920E-02 0.  1.
        2   -1    0    0  501    0  0.00000000000E+00  0.00000000000E+00 -0.48950903025E+03  0.48950903026E+03  0.25500000920E-02 0. -1.
    10030    2    1    2    0    0  0.00000000000E+00  0.00000000000E+00 -0.27762090502E+03  0.70139715551E+03  0.64411536455E+03 0.  0.
        2    1    3    3  502    0 -0.19845879323E+03  0.24960025203E+03 -0.89688051024E+02  0.33125537720E+03  0.25500000920E-02 0.  1.
       -2    1    3    3    0  502  0.19845879323E+03 -0.24960025203E+03 -0.18793285400E+03  0.37014177830E+03  0.25500000920E-02 0. -1.
</event>
<event>
 5   0  0.3749730E-02  0.6545643E+03  0.7818609E-02  0.9798252E-01
       -1   -1    0    0    0  501  0.00000000000E+00  0.00000000000E+00  0.11806794028E+03  0.11806794038E+03  0.50400001928E-02 0.  1.
        1   -1    0    0  501    0  0.00000000000E+00  0.00000000000E+00 -0.90722013978E+03  0.90722013979E+03  0.50400001928E-02 0. -1.
    10030    2    1    2    0    0  0.00000000000E+00  0.00000000000E+00 -0.78915219950E+03  0.10252880802E+04  0.65456432333E+03 0.  0.
        4    1    3    3  502    0 -0.21118534380E+03  0.22105216098E+03 -0.57757105294E+03  0.65349310739E+03  0.12699999809E+01 0. -1.
       -4    1    3    3    0  502  0.21118534380E+03 -0.22105216098E+03 -0.21158114656E+03  0.37179497278E+03  0.12699999809E+01 0.  1.
</event>
<event>
 5   0  0.6131198E-02  0.6955128E+03  0.7818609E-02  0.9724937E-01
       -2   -1    0    0    0  501  0.00000000000E+00  0.00000000000E+00  0.14483701471E+03  0.14483701473E+03  0.25500000920E-02 0. -1.
        2   -1    0    0  501    0  0.00000000000E+00  0.00000000000E+00 -0.83496955265E+03  0.83496955266E+03  0.25500000920E-02 0.  1.
    10030    2    1    2    0    0  0.00000000000E+00  0.00000000000E+00 -0.69013253794E+03  0.97980656739E+03  0.69551275299E+03 0.  0.
        1    1    3    3  502    0  0.55093349333E+02 -0.20823551872E+03  0.39544777475E+02  0.21900022340E+03  0.50400001928E-02 0. -1.
       -1    1    3    3    0  502 -0.55093349333E+02  0.20823551872E+03 -0.72967731542E+03  0.76080634399E+03  0.50400001928E-02 0.  1.
</event>
<event>
 5   0  0.3601475E-02  0.5187569E+03  0.7818609E-02  0.1008996E+00
       -1   -1    0    0    0  501  0.00000000000E+00  0.00000000000E+00  0.16755674241E+03  0.16755674249E+03  0.50400001928E-02 0.  1.
        1   -1    0    0  501    0  0.00000000000E+00  0.00000000000E+00 -0.40151872815E+03  0.40151872818E+03  0.50400001928E-02 0. -1.
    10030    2    1    2    0    0  0.00000000000E+00  0.00000000000E+00 -0.23396198574E+03  0.56907547067E+03  0.51875686073E+03 0.  0.
        5    1    3    3  502    0 -0.25003463582E+03  0.11519356736E+02 -0.42537984322E+02  0.25393224450E+03  0.46999998093E+01 0.  1.
       -5    1    3    3    0  502  0.25003463582E+03 -0.11519356736E+02 -0.19142400142E+03  0.31514322617E+03  0.46999998093E+01 0. -1.
</event>
<event>
 5   0  0.5987810E-02  0.6290123E+03  0.7818609E-02  0.9846978E-01
       -2   -1    0    0    0  501  0.00000000000E+00  0.00000000000E+00  0.79735987826E+02  0.79735987867E+02  0.25500000920E-02 0. -1.
        2   -1    0    0  501    0  0.00000000000E+00  0.00000000000E+00 -0.12405202014E+04  0.12405202015E+04  0.25500000920E-02 0.  1.
    10030    2    1    2    0    0  0.00000000000E+00  0.00000000000E+00 -0.11607842136E+04  0.13202561893E+04  0.62901225333E+03 0.  0.
        5    1    3    3  502    0  0.22987839321E+03 -0.20919670093E+03 -0.68071767805E+03  0.74833547461E+03  0.46999998093E+01 0.  1.
       -5    1    3    3    0  502 -0.22987839321E+03  0.20919670093E+03 -0.48006653557E+03  0.57192071471E+03  0.46999998093E+01 0. -1.
</event>
<event>
 5   0  0.5987810E-02  0.6902549E+03  0.7818609E-02  0.9734044E-01
       -2   -1    0    0    0  501  0.00000000000E+00  0.00000000000E+00  0.17530247191E+03  0.17530247193E+03  0.25500000920E-02 0. -1.
        2   -1    0    0  501    0  0.00000000000E+00  0.00000000000E+00 -0.67947109679E+03  0.67947109679E+03  0.25500000920E-02 0.  1.
    10030    2    1    2    0    0  0.00000000000E+00  0.00000000000E+00 -0.50416862488E+03  0.85477356872E+03  0.69025491775E+03 0.  0.
        5    1    3    3  502    0  0.33358005580E+03 -0.69952899167E+02 -0.18514709644E+03  0.38790539961E+03  0.46999998093E+01 0. -1.
       -5    1    3    3    0  502 -0.33358005580E+03  0.69952899167E+02 -0.31902152844E+03  0.46686816912E+03  0.46999998093E+01 0.  1.
</event>
<event>
 5   0  0.2439375E-02  0.6981383E+03  0.7818609E-02  0.9720421E-01
       -3   -1    0    0    0  501  0.00000000000E+00  0.00000000000E+00  0.15352723230E+03  0.15352726553E+03  0.10100000352E+00 0. -1.
        3   -1    0    0  501    0  0.00000000000E+00  0.00000000000E+00 -0.79366536167E+03  0.79366536809E+03  0.10100000352E+00 0.  1.
    10030    2    1    2    0    0  0.00000000000E+00  0.00000000000E+00 -0.64013812936E+03  0.94719263362E+03  0.69813828180E+03 0.  0.
        1    1    3    3  502    0 -0.12479469153E+02 -0.15233123092E+03 -0.74585382641E+03  0.76135305309E+03  0.50400001928E-02 0.  1.
       -1    1    3    3    0  502  0.12479469153E+02  0.15233123092E+03  0.10571569704E+03  0.18583958053E+03  0.50400001928E-02 0. -1.
</event>
<event>
 5   0  0.5899787E-02  0.6891726E+03  0.7818609E-02  0.9735930E-01
        2   -1    0    0  501    0  0.00000000000E+00  0.00000000000E+00  0.10087170062E+04  0.10087170062E+04  0.25500000920E-02 0. -1.
       -2   -1    0    0    0  501  0.00000000000E+00  0.00000000000E+00 -0.11771360844E+03  0.11771360847E+03  0.25500000920E-02 0.  1.
    10030    2    1    2    0    0  0.00000000000E+00  0.00000000000E+00  0.89100339779E+03  0.11264306147E+04  0.68917260166E+03 0.  0.
        2    1    3    3  502    0 -0.75435556268E+02  0.19096013693E+02 -0.10316500517E+03  0.12922151209E+03  0.25500000920E-02 0.  1.
       -2    1    3    3    0  502  0.75435556268E+02 -0.19096013693E+02  0.99416840296E+03  0.99720910262E+03  0.25500000920E-02 0. -1.
</event>
<event>
 5   0  0.3601475E-02  0.6858084E+03  0.7818609E-02  0.9741814E-01
        1   -1    0    0  501    0  0.00000000000E+00  0.00000000000E+00  0.25350030887E+03  0.25350030892E+03  0.50400001928E-02 0.  1.
       -1   -1    0    0    0  501  0.00000000000E+00  0.00000000000E+00 -0.46383888173E+03  0.46383888176E+03  0.50400001928E-02 0. -1.
    10030    2    1    2    0    0  0.00000000000E+00  0.00000000000E+00 -0.21033857286E+03  0.71733919068E+03  0.68580842752E+03 0.  0.
        5    1    3    3  502    0 -0.34050813458E+03  0.22465904906E+02 -0.70309818329E+02  0.34844808386E+03  0.46999998093E+01 0.  1.
       -5    1    3    3    0  502  0.34050813458E+03 -0.22465904906E+02 -0.14002875453E+03  0.36889110682E+03  0.46999998093E+01 0. -1.
</event>
<event>
 5   0  0.6248886E-02  0.7032759E+03  0.7818609E-02  0.9711646E-01
       -2   -1    0    0    0  501  0.00000000000E+00  0.00000000000E+00  0.16582956077E+03  0.16582956079E+03  0.25500000920E-02 0.  1.
        2   -1    0    0  501    0  0.00000000000E+00  0.00000000000E+00 -0.74564067110E+03  0.74564067111E+03  0.25500000920E-02 0. -1.
    10030    2    1    2    0    0  0.00000000000E+00  0.00000000000E+00 -0.57981111033E+03  0.91147023190E+03  0.70327594866E+03 0.  0.
        3    1    3    3  502    0  0.34136788263E+03  0.64213346422E+02 -0.36081974851E+03  0.50084557128E+03  0.10100000352E+00 0. -1.
       -3    1    3    3    0  502 -0.34136788263E+03 -0.64213346422E+02 -0.21899136182E+03  0.41062466062E+03  0.10100000352E+00 0.  1.
</event>
<event>
 5   0  0.3717372E-02  0.7199545E+03  0.7818609E-02  0.9683703E-01
       -1   -1    0    0    0  501  0.00000000000E+00  0.00000000000E+00  0.47749392794E+03  0.47749392796E+03  0.50400001928E-02 0. -1.
        1   -1    0    0  501    0  0.00000000000E+00  0.00000000000E+00 -0.27138278593E+03  0.27138278597E+03  0.50400001928E-02 0.  1.
    10030    2    1    2    0    0  0.00000000000E+00  0.00000000000E+00  0.20611114201E+03  0.74887671394E+03  0.71995453316E+03 0.  0.
        3    1    3    3  502    0  0.26241133285E+03  0.23818840374E+03  0.37349948804E+02  0.35635439124E+03  0.10100000352E+00 0. -1.
       -3    1    3    3    0  502 -0.26241133285E+03 -0.23818840374E+03  0.16876119321E+03  0.39252232270E+03  0.10100000352E+00 0.  1.
</event>
<event>
 5   0  0.6167756E-02  0.7043016E+03  0.7818609E-02  0.9709904E-01
       -2   -1    0    0    0  501  0.00000000000E+00  0.00000000000E+00  0.62147150494E+02  0.62147150546E+02  0.25500000920E-02 0. -1.
        2   -1    0    0  501    0  0.00000000000E+00  0.00000000000E+00 -0.19954285492E+04  0.19954285492E+04  0.25500000920E-02 0.  1.
    10030    2    1    2    0    0  0.00000000000E+00  0.00000000000E+00 -0.19332813987E+04  0.20575756998E+04  0.70430163539E+03 0.  0.
        4    1    3    3  502    0  0.11383869265E+03 -0.28567916483E+03 -0.46540491072E+03  0.55783077809E+03  0.12699999809E+01 0. -1.
       -4    1    3    3    0  502 -0.11383869265E+03  0.28567916483E+03 -0.14678764880E+04  0.14997449217E+04  0.12699999809E+01 0.  1.
</event>
<event>
 5   0  0.3755872E-02  0.6903562E+03  0.7818609E-02  0.9733868E-01
       -1   -1    0    0    0  501  0.00000000000E+00  0.00000000000E+00  0.31425670375E+03  0.31425670379E+03  0.50400001928E-02 0. -1.
        1   -1    0    0  501    0  0.00000000000E+00  0.00000000000E+00 -0.37914205236E+03  0.37914205239E+03  0.50400001928E-02 0.  1.
    10030    2    1    2    0    0  0.00000000000E+00  0.00000000000E+00 -0.64885348609E+02  0.69339875618E+03  0.69035623167E+03 0.  0.
        2    1    3    3  502    0 -0.42447132248E+02 -0.12179170138E+03  0.28914484318E+03  0.31660656642E+03  0.25500000920E-02 0. -1.
       -2    1    3    3    0  502  0.42447132248E+02  0.12179170138E+03 -0.35403019179E+03  0.37679218976E+03  0.25500000920E-02 0.  1.
</event>
<event>
 5   0  0.3439015E-02  0.6921167E+03  0.7818609E-02  0.9730810E-01
       -1   -1    0    0    0  501  0.00000000000E+00  0.00000000000E+00  0.10773260272E+03  0.10773260284E+03  0.50400001928E-02 0. -1.
        1   -1    0    0  501    0  0.00000000000E+00  0.00000000000E+00 -0.11116074769E+04  0.11116074769E+04  0.50400001928E-02 0.  1.
    10030    2    1    2    0    0  0.00000000000E+00  0.00000000000E+00 -0.10038748742E+04  0.12193400797E+04  0.69211665713E+03 0.  0.
        1    1    3    3  502    0 -0.11485400738E+02 -0.33698537197E+03 -0.36473175440E+03  0.49670948053E+03  0.50400001928E-02 0.  1.
       -1    1    3    3    0  502  0.11485400738E+02  0.33698537197E+03 -0.63914311976E+03  0.72263059921E+03  0.50400001928E-02 0. -1.
</event>
<event>
 5   0  0.5987810E-02  0.6528680E+03  0.7818609E-02  0.9801412E-01
        2   -1    0    0  501    0  0.00000000000E+00  0.00000000000E+00  0.15848922672E+04  0.15848922672E+04  0.25500000920E-02 0. -1.
       -2   -1    0    0    0  501  0.00000000000E+00  0.00000000000E+00 -0.67234326623E+02  0.67234326671E+02  0.25500000920E-02 0.  1.
    10030    2    1    2    0    0  0.00000000000E+00  0.00000000000E+00  0.15176579406E+04  0.16521265939E+04  0.65286802464E+03 0.  0.
        5    1    3    3  502    0  0.18412740249E+03 -0.13027431950E+03  0.13558647421E+04  0.13745055793E+04  0.46999998093E+01 0. -1.
       -5    1    3    3    0  502 -0.18412740249E+03  0.13027431950E+03  0.16179319853E+03  0.27762101462E+03  0.46999998093E+01 0.  1.
</event>
<event>
 5   0  0.3601475E-02  0.6978015E+03  0.7818609E-02  0.9720999E-01
        1   -1    0    0  501    0  0.00000000000E+00  0.00000000000E+00  0.22930274423E+03  0.22930274428E+03  0.50400001928E-02 0.  1.
       -1   -1    0    0    0  501  0.00000000000E+00  0.00000000000E+00 -0.53087774153E+03  0.53087774155E+03  0.50400001928E-02 0. -1.
    10030    2    1    2    0    0  0.00000000000E+00  0.00000000000E+00 -0.30157499730E+03  0.76018048583E+03  0.69780147036E+03 0.  0.
        5    1    3    3  502    0  0.29439662557E+03  0.90573667183E+02  0.27675898210E+02  0.30929113740E+03  0.46999998093E+01 0.  1.
       -5    1    3    3    0  502 -0.29439662557E+03 -0.90573667183E+02 -0.32925089551E+03  0.45088934843E+03  0.46999998093E+01 0. -1.
</event>
<event>
 5   0  0.6248886E-02  0.7031052E+03  0.7818609E-02  0.9711937E-01
        2   -1    0    0  501    0  0.00000000000E+00  0.00000000000E+00  0.16083634833E+04  0.16083634833E+04  0.25500000920E-02 0.  1.
       -2   -1    0    0    0  501  0.00000000000E+00  0.00000000000E+00 -0.76841612250E+02  0.76841612292E+02  0.25500000920E-02 0. -1.
    10030    2    1    2    0    0  0.00000000000E+00  0.00000000000E+00  0.15315218711E+04  0.16852050956E+04  0.70310523588E+03 0.  0.
        3    1    3    3  502    0 -0.32222878834E+03 -0.31296683504E+02  0.10942048694E+04  0.11410938528E+04  0.10100000352E+00 0.  1.
       -3    1    3    3    0  502  0.32222878834E+03  0.31296683504E+02  0.43731700172E+03  0.54411124288E+03  0.10100000352E+00 0. -1.
</event>
<event>
 5   0  0.6131198E-02  0.7212552E+03  0.7818609E-02  0.9681558E-01
       -2   -1    0    0    0  501  0.00000000000E+00  0.00000000000E+00  0.64107096140E+02  0.64107096190E+02  0.25500000920E-02 0. -1.
        2   -1    0    0  501    0  0.00000000000E+00  0.00000000000E+00 -0.20286721934E+04  0.20286721934E+04  0.25500000920E-02 0.  1.
    10030    2    1    2    0    0  0.00000000000E+00  0.00000000000E+00 -0.19645650972E+04  0.20927792896E+04  0.72125524855E+03 0.  0.
        1    1    3    3  502    0  0.45266253005E+02 -0.96475519962E+02  0.17376677970E+02  0.10797457375E+03  0.50400001928E-02 0. -1.
       -1    1    3    3    0  502 -0.45266253005E+02  0.96475519962E+02 -0.19819417752E+04  0.19848047158E+04  0.50400001928E-02 0.  1.
</event>
<event>
 5   0  0.3755872E-02  0.7107481E+03  0.7818609E-02  0.9699026E-01
        1   -1    0    0  501    0  0.00000000000E+00  0.00000000000E+00  0.12998586218E+04  0.12998586218E+04  0.50400001928E-02 0. -1.
       -1   -1    0    0    0  501  0.00000000000E+00  0.00000000000E+00 -0.97157258251E+02  0.97157258382E+02  0.50400001928E-02 0.  1.
    10030    2    1    2    0    0  0.00000000000E+00  0.00000000000E+00  0.12027013635E+04  0.13970158802E+04  0.71074805636E+03 0.  0.
        2    1    3    3  502    0  0.13806929966E+03  0.27739028314E+03  0.94339262741E+03  0.99297439552E+03  0.25500000920E-02 0.  1.
       -2    1    3    3    0  502 -0.13806929966E+03 -0.27739028314E+03  0.25930873613E+03  0.40404148467E+03  0.25500000920E-02 0. -1.
</event>
<event>
 5   0  0.2439375E-02  0.7104046E+03  0.7818609E-02  0.9699602E-01
       -4   -1    0    0    0  501  0.00000000000E+00  0.00000000000E+00  0.18589825339E+04  0.18589829677E+04  0.12699999809E+01 0.  1.
        4   -1    0    0  501    0  0.00000000000E+00  0.00000000000E+00 -0.67863369836E+02  0.67875252231E+02  0.12699999809E+01 0. -1.
    10030    2    1    2    0    0  0.00000000000E+00  0.00000000000E+00  0.17911191641E+04  0.19268582199E+04  0.71040463110E+03 0.  0.
        5    1    3    3  502    0 -0.34174330310E+03 -0.95581995437E+02  0.93598998761E+03  0.10010113636E+04  0.46999998093E+01 0. -1.
       -5    1    3    3    0  502  0.34174330310E+03  0.95581995437E+02  0.85512917645E+03  0.92584685638E+03  0.46999998093E+01 0.  1.
</event>
<event>
 5   0  0.6248886E-02  0.6984521E+03  0.7818609E-02  0.9719883E-01
       -2   -1    0    0    0  501  0.00000000000E+00  0.00000000000E+00  0.20942745100E+03  0.20942745102E+03  0.25500000920E-02 0. -1.
        2   -1    0    0  501    0  0.00000000000E+00  0.00000000000E+00 -0.58234410665E+03  0.58234410665E+03  0.25500000920E-02 0.  1.
    10030    2    1    2    0    0  0.00000000000E+00  0.00000000000E+00 -0.37291665565E+03  0.79177155767E+03  0.69845212254E+03 0.  0.
        3    1    3    3  502    0 -0.70335175041E+02  0.27769094791E+03 -0.41289520541E+03  0.50253533234E+03  0.10100000352E+00 0.  1.
       -3    1    3    3    0  502  0.70335175041E+02 -0.27769094791E+03  0.39978549762E+02  0.28923622533E+03  0.10100000352E+00 0. -1.
</event>
<event>
 5   0  0.6248886E-02  0.6936092E+03  0.7818609E-02  0.9728224E-01
       -2   -1    0    0    0  501  0.00000000000E+00  0.00000000000E+00  0.69889432180E+03  0.69889432181E+03  0.25500000920E-02 0.  1.
        2   -1    0    0  501    0  0.00000000000E+00  0.00000000000E+00 -0.17209099612E+03  0.17209099614E+03  0.25500000920E-02 0. -1.
    10030    2    1    2    0    0  0.00000000000E+00  0.00000000000E+00  0.52680332569E+03  0.87098531795E+03  0.69360916958E+03 0.  0.
        3    1    3    3  502    0 -0.87108407793E+02  0.26558985923E+02  0.68361181558E+03  0.68965091100E+03  0.10100000352E+00 0.  1.
       -3    1    3    3    0  502  0.87108407793E+02 -0.26558985923E+02 -0.15680848989E+03  0.18133440695E+03  0.10100000352E+00 0. -1.
</event>
<event>
 5   0  0.3749730E-02  0.6951930E+03  0.7818609E-02  0.9725488E-01
        1   -1    0    0  501    0  0.00000000000E+00  0.00000000000E+00  0.97121282521E+03  0.97121282522E+03  0.50400001928E-02 0. -1.
       -1   -1    0    0    0  501  0.00000000000E+00  0.00000000000E+00 -0.12440459968E+03  0.12440459978E+03  0.50400001928E-02 0.  1.
    10030    2    1    2    0    0  0.00000000000E+00  0.00000000000E+00  0.84680822552E+03  0.10956174250E+04  0.69519304596E+03 0.  0.
        4    1    3    3  502    0 -0.33622981351E+03 -0.87983732027E+02  0.41475692370E+03  0.54112525652E+03  0.12699999809E+01 0.  1.
       -4    1    3    3    0  502  0.33622981351E+03  0.87983732027E+02  0.43205130183E+03  0.55449216848E+03  0.12699999809E+01 0. -1.
</event>
<event>
 5   0  0.3749730E-02  0.7094828E+03  0.7818609E-02  0.9701151E-01
       -1   -1    0    0    0  501  0.00000000000E+00  0.00000000000E+00  0.43092516885E+03  0.43092516888E+03  0.50400001928E-02 0.  1.
        1   -1    0    0  501    0  0.00000000000E+00  0.00000000000E+00 -0.29202625266E+03  0.29202625270E+03  0.50400001928E-02 0. -1.
    10030    2    1    2    0    0  0.00000000000E+00  0.00000000000E+00  0.13889891620E+03  0.72295142158E+03  0.70948280391E+03 0.  0.
        4    1    3    3  502    0 -0.14459868427E+03  0.14296960163E+02 -0.26030895382E+03  0.29812002097E+03  0.12699999809E+01 0. -1.
       -4    1    3    3    0  502  0.14459868427E+03 -0.14296960163E+02  0.39920787002E+03  0.42483140061E+03  0.12699999809E+01 0.  1.
</event>
<event>
 5   0  0.3439015E-02  0.6908573E+03  0.7818609E-02  0.9732996E-01
        1   -1    0    0  501    0  0.00000000000E+00  0.00000000000E+00  0.76476886120E+03  0.76476886122E+03  0.50400001928E-02 0. -1.
       -1   -1    0    0    0  501  0.00000000000E+00  0.00000000000E+00 -0.15602223147E+03  0.15602223155E+03  0.50400001928E-02 0.  1.
    10030    2    1    2    0    0  0.00000000000E+00  0.00000000000E+00  0.60874662973E+03  0.92079109277E+03  0.69085727709E+03 0.  0.
        1    1    3    3  502    0 -0.22710085945E+02 -0.33225155442E+03  0.18211549970E+03  0.37956935950E+03  0.50400001928E-02 0.  1.
       -1    1    3    3    0  502  0.22710085945E+02  0.33225155442E+03  0.42663113003E+03  0.54122173326E+03  0.50400001928E-02 0. -1.
</event>
<event>
 5   0  0.3439015E-02  0.7334597E+03  0.7818609E-02  0.9661663E-01
        1   -1    0    0  501    0  0.00000000000E+00  0.00000000000E+00  0.10282668914E+04  0.10282668914E+04  0.50400001928E-02 0.  1.
       -1   -1    0    0    0  501  0.00000000000E+00  0.00000000000E+00 -0.13079363761E+03  0.13079363771E+03  0.50400001928E-02 0. -1.
    10030    2    1    2    0    0  0.00000000000E+00  0.00000000000E+00  0.89747325375E+03  0.11590605291E+04  0.73345965728E+03 0.  0.
        1    1    3    3  502    0 -0.13063053722E+03 -0.30652407902E+03  0.69082896998E+03  0.76698501554E+03  0.50400001928E-02 0.  1.
       -1    1    3    3    0  502  0.13063053722E+03  0.30652407902E+03  0.20664428377E+03  0.39207551354E+03  0.50400001928E-02 0. -1.
</event>
<event>
 5   0  0.3755872E-02  0.6728370E+03  0.7818609E-02  0.9764846E-01
        1   -1    0    0  501    0  0.00000000000E+00  0.00000000000E+00  0.14474711243E+03  0.14474711252E+03  0.50400001928E-02 0. -1.
       -1   -1    0    0    0  501  0.00000000000E+00  0.00000000000E+00 -0.78189745437E+03  0.78189745438E+03  0.50400001928E-02 0.  1.
    10030    2    1    2    0    0  0.00000000000E+00  0.00000000000E+00 -0.63715034193E+03  0.92664456690E+03  0.67283697516E+03 0.  0.
        2    1    3    3  502    0 -0.54316102450E+01 -0.76692649416E+02 -0.76963551628E+03  0.77346628420E+03  0.25500000920E-02 0.  1.
       -2    1    3    3    0  502  0.54316102450E+01  0.76692649416E+02  0.13248517435E+03  0.15317828270E+03  0.25500000920E-02 0. -1.
</event>
<event>
 5   0  0.3601475E-02  0.4706032E+03  0.7818609E-02  0.1021750E+00
        1   -1    0    0  501    0  0.00000000000E+00  0.00000000000E+00  0.12756682668E+04  0.12756682668E+04  0.50400001928E-02 0.  1.
       -1   -1    0    0    0  501  0.00000000000E+00  0.00000000000E+00 -0.43402222658E+02  0.43402222950E+02  0.50400001928E-02 0. -1.
    10030    2    1    2    0    0  0.00000000000E+00  0.00000000000E+00  0.12322660441E+04  0.13190704898E+04  0.47060318041E+03 0.  0.
        5    1    3    3  502    0  0.17987081620E+03 -0.11283916932E+03  0.90002710554E+03  0.92474702993E+03  0.46999998093E+01 0.  1.
       -5    1    3    3    0  502 -0.17987081620E+03  0.11283916932E+03  0.33223893860E+03  0.39432345983E+03  0.46999998093E+01 0. -1.
</event>
<event>
 5   0  0.2439375E-02  0.6877493E+03  0.7818609E-02  0.9738415E-01
        3   -1    0    0  501    0  0.00000000000E+00  0.00000000000E+00  0.32791357317E+03  0.32791358873E+03  0.10100000352E+00 0. -1.
       -3   -1    0    0    0  501  0.00000000000E+00  0.00000000000E+00 -0.36061259815E+03  0.36061261230E+03  0.10100000352E+00 0.  1.
    10030    2    1    2    0    0  0.00000000000E+00  0.00000000000E+00 -0.32699024982E+02  0.68852620102E+03  0.68774930262E+03 0.  0.
        1    1    3    3  502    0 -0.16168455918E+03  0.26038446992E+03  0.13973621824E+03  0.33685038157E+03  0.50400001928E-02 0. -1.
       -1    1    3    3    0  502  0.16168455918E+03 -0.26038446992E+03 -0.17243524322E+03  0.35167581945E+03  0.50400001928E-02 0.  1.
</event>
<event>
 5   0  0.3755872E-02  0.6529001E+03  0.7818609E-02  0.9801353E-01
       -1   -1    0    0    0  501  0.00000000000E+00  0.00000000000E+00  0.11393588128E+03  0.11393588139E+03  0.50400001928E-02 0.  1.
        1   -1    0    0  501    0  0.00000000000E+00  0.00000000000E+00 -0.93534730088E+03  0.93534730089E+03  0.50400001928E-02 0. -1.
    10030    2    1    2    0    0  0.00000000000E+00  0.00000000000E+00 -0.82141141960E+03  0.10492831823E+04  0.65290005082E+03 0.  0.
        2    1    3    3  502    0  0.20957365414E+03 -0.23417726996E+03 -0.55272844400E+03  0.63582139244E+03  0.25500000920E-02 0. -1.
       -2    1    3    3    0  502 -0.20957365414E+03  0.23417726996E+03 -0.26868297560E+03  0.41346178984E+03  0.25500000920E-02 0.  1.
</event>
<event>
 5   0  0.6131198E-02  0.6673528E+03  0.7818609E-02  0.9774752E-01
       -2   -1    0    0    0  501  0.00000000000E+00  0.00000000000E+00  0.97339423104E+03  0.97339423105E+03  0.25500000920E-02 0. -1.
        2   -1    0    0  501    0  0.00000000000E+00  0.00000000000E+00 -0.11438319671E+03  0.11438319674E+03  0.25500000920E-02 0.  1.
    10030    2    1    2    0    0  0.00000000000E+00  0.00000000000E+00  0.85901103434E+03  0.10877774278E+04  0.66735281170E+03 0.  0.
        1    1    3    3  502    0  0.12791373673E+03  0.30813390228E+03  0.43865642099E+03  0.55111512543E+03  0.50400001928E-02 0.  1.
       -1    1    3    3    0  502 -0.12791373673E+03 -0.30813390228E+03  0.42035461335E+03  0.53666230235E+03  0.50400001928E-02 0. -1.
</event>
<event>
 5   0  0.6131198E-02  0.7119655E+03  0.7818609E-02  0.9696986E-01
        2   -1    0    0  501    0  0.00000000000E+00  0.00000000000E+00  0.55250694107E+03  0.55250694108E+03  0.25500000920E-02 0.  1.
       -2   -1    0    0    0  501  0.00000000000E+00  0.00000000000E+00 -0.22936128541E+03  0.22936128542E+03  0.25500000920E-02 0. -1.
    10030    2    1    2    0    0  0.00000000000E+00  0.00000000000E+00  0.32314565566E+03  0.78186822650E+03  0.71196545481E+03 0.  0.
        1    1    3    3  502    0  0.24233537293E+03 -0.23676602225E+03  0.41578477144E+02  0.34134052214E+03  0.50400001928E-02 0. -1.
       -1    1    3    3    0  502 -0.24233537293E+03  0.23676602225E+03  0.28156717852E+03  0.44052770436E+03  0.50400001928E-02 0.  1.
</event>
<event>
 5   0  0.5899787E-02  0.7166026E+03  0.7818609E-02  0.9689253E-01
       -2   -1    0    0    0  501  0.00000000000E+00  0.00000000000E+00  0.43053663793E+03  0.43053663793E+03  0.25500000920E-02 0.  1.
        2   -1    0    0  501    0  0.00000000000E+00  0.00000000000E+00 -0.29818560194E+03  0.29818560195E+03  0.25500000920E-02 0. -1.
    10030    2    1    2    0    0  0.00000000000E+00  0.00000000000E+00  0.13235103599E+03  0.72872223988E+03  0.71660261384E+03 0.  0.
        2    1    3    3  502    0 -0.10613099859E+03  0.83685396065E+02  0.40362014984E+03  0.42564804680E+03  0.25500000920E-02 0.  1.
       -2    1    3    3    0  502  0.10613099859E+03 -0.83685396065E+02 -0.27126911385E+03  0.30307419308E+03  0.25500000920E-02 0. -1.
</event>
<event>
 5   0  0.3755872E-02  0.6944898E+03  0.7818609E-02  0.9726702E-01
        1   -1    0    0  501    0  0.00000000000E+00  0.00000000000E+00  0.66836524518E+03  0.66836524520E+03  0.50400001928E-02 0. -1.
       -1   -1    0    0    0  501  0.00000000000E+00  0.00000000000E+00 -0.18040887763E+03  0.18040887770E+03  0.50400001928E-02 0.  1.
    10030    2    1    2    0    0  0.00000000000E+00  0.00000000000E+00  0.48795636755E+03  0.84877412291E+03  0.69448980920E+03 0.  0.
        2    1    3    3  502    0 -0.16532515191E+03  0.10548168997E+02 -0.12900009294E+03  0.20996355328E+03  0.25500000920E-02 0.  1.
       -2    1    3    3    0  502  0.16532515191E+03 -0.10548168997E+02  0.61695646049E+03  0.63881056963E+03  0.25500000920E-02 0. -1.
</event>
<event>
 5   0  0.3749730E-02  0.7198605E+03  0.7818609E-02  0.9683858E-01
        1   -1    0    0  501    0  0.00000000000E+00  0.00000000000E+00  0.60021652784E+03  0.60021652786E+03  0.50400001928E-02 0. -1.
       -1   -1    0    0    0  501  0.00000000000E+00  0.00000000000E+00 -0.21583841103E+03  0.21583841109E+03  0.50400001928E-02 0.  1.
    10030    2    1    2    0    0  0.00000000000E+00  0.00000000000E+00  0.38437811681E+03  0.81605493895E+03  0.71986049114E+03 0.  0.
        4    1    3    3  502    0 -0.26544355299E+03 -0.23806911026E+03  0.24785230791E+03  0.43424596777E+03  0.12699999809E+01 0.  1.
       -4    1    3    3    0  502  0.26544355299E+03  0.23806911026E+03  0.13652580890E+03  0.38180897119E+03  0.12699999809E+01 0. -1.
</event>
<event>
 5   0  0.3439015E-02  0.7283165E+03  0.7818609E-02  0.9669996E-01
        1   -1    0    0  501    0  0.00000000000E+00  0.00000000000E+00  0.93775525857E+03  0.93775525858E+03  0.50400001928E-02 0.  1.
       -1   -1    0    0    0  501  0.00000000000E+00  0.00000000000E+00 -0.14141349245E+03  0.14141349254E+03  0.50400001928E-02 0. -1.
    10030    2    1    2    0    0  0.00000000000E+00  0.00000000000E+00  0.79634176612E+03  0.10791687511E+04  0.72831654171E+03 0.  0.
        1    1    3    3  502    0 -0.46155113841E+02 -0.33929784466E+03  0.21454434420E+03  0.40408241434E+03  0.50400001928E-02 0. -1.
       -1    1    3    3    0  502  0.46155113841E+02  0.33929784466E+03  0.58179742192E+03  0.67508633678E+03  0.50400001928E-02 0.  1.
</event>
<event>
 5   0  0.3755872E-02  0.6961567E+03  0.7818609E-02  0.9723827E-01
        1   -1    0    0  501    0  0.00000000000E+00  0.00000000000E+00  0.58781911631E+03  0.58781911634E+03  0.50400001928E-02 0.  1.
       -1   -1    0    0    0  501  0.00000000000E+00  0.00000000000E+00 -0.20611532329E+03  0.20611532335E+03  0.50400001928E-02 0. -1.
    10030    2    1    2    0    0  0.00000000000E+00  0.00000000000E+00  0.38170379302E+03  0.79393443969E+03  0.69615666980E+03 0.  0.
        2    1    3    3  502    0  0.31705835761E+03 -0.14352809011E+03  0.18437913683E+03  0.39385527911E+03  0.25500000920E-02 0. -1.
       -2    1    3    3    0  502 -0.31705835761E+03  0.14352809011E+03  0.19732465619E+03  0.40007916057E+03  0.25500000920E-02 0.  1.
</event>
<event>
 5   0  0.2439375E-02  0.7017293E+03  0.7818609E-02  0.9714279E-01
       -4   -1    0    0    0  501  0.00000000000E+00  0.00000000000E+00  0.53352432414E+03  0.53352583569E+03  0.12699999809E+01 0.  1.
        4   -1    0    0  501    0  0.00000000000E+00  0.00000000000E+00 -0.23073754340E+03  0.23074103847E+03  0.12699999809E+01 0. -1.
    10030    2    1    2    0    0  0.00000000000E+00  0.00000000000E+00  0.30278678074E+03  0.76426687417E+03  0.70172930704E+03 0.  0.
        3    1    3    3  502    0  0.26156309707E+03  0.10506075222E+03  0.37894628641E+03  0.47228520366E+03  0.10100000352E+00 0.  1.
       -3    1    3    3    0  502 -0.26156309707E+03 -0.10506075222E+03 -0.76159505668E+02  0.29198167051E+03  0.10100000352E+00 0. -1.
</event>
<event>
 5   0  0.6248886E-02  0.6957215E+03  0.7818609E-02  0.9724577E-01
       -2   -1    0    0    0  501  0.00000000000E+00  0.00000000000E+00  0.91380227435E+02  0.91380227470E+02  0.25500000920E-02 0. -1.
        2   -1    0    0  501    0  0.00000000000E+00  0.00000000000E+00 -0.13242153804E+04  0.13242153804E+04  0.25500000920E-02 0.  1.
    10030    2    1    2    0    0  0.00000000000E+00  0.00000000000E+00 -0.12328351530E+04  0.14155956079E+04  0.69572150366E+03 0.  0.
        3    1    3    3  502    0 -0.22092365432E+03 -0.21022720422E+03 -0.95691713982E+03  0.10043371750E+04  0.10100000352E+00 0.  1.
       -3    1    3    3    0  502  0.22092365432E+03  0.21022720422E+03 -0.27591801318E+03  0.41125843290E+03  0.10100000352E+00 0. -1.
</event>
<event>
 5   0  0.6131198E-02  0.6841423E+03  0.7818609E-02  0.9744742E-01
        2   -1    0    0  501    0  0.00000000000E+00  0.00000000000E+00  0.50716123898E+03  0.50716123899E+03  0.25500000920E-02 0.  1.
       -2   -1    0    0    0  501  0.00000000000E+00  0.00000000000E+00 -0.23072083230E+03  0.23072083231E+03  0.25500000920E-02 0. -1.
    10030    2    1    2    0    0  0.00000000000E+00  0.00000000000E+00  0.27644040669E+03  0.73788207130E+03  0.68414227519E+03 0.  0.
        1    1    3    3  502    0  0.31485981789E+03 -0.78906071543E+02  0.25463269393E+03  0.41255385332E+03  0.50400001928E-02 0. -1.
       -1    1    3    3    0  502 -0.31485981789E+03  0.78906071543E+02  0.21807712759E+02  0.32532821798E+03  0.50400001928E-02 0.  1.
</event>
<event>
 5   0  0.6248886E-02  0.6412831E+03  0.7818609E-02  0.9823275E-01
        2   -1    0    0  501    0  0.00000000000E+00  0.00000000000E+00  0.18789333461E+04  0.18789333461E+04  0.25500000920E-02 0.  1.
       -2   -1    0    0    0  501  0.00000000000E+00  0.00000000000E+00 -0.54717751303E+02  0.54717751363E+02  0.25500000920E-02 0. -1.
    10030    2    1    2    0    0  0.00000000000E+00  0.00000000000E+00  0.18242155948E+04  0.19336510975E+04  0.64128311254E+03 0.  0.
        3    1    3    3  502    0  0.30929539438E+03 -0.81573000393E+02  0.97907169723E+03  0.10299996087E+04  0.10100000352E+00 0.  1.
       -3    1    3    3    0  502 -0.30929539438E+03  0.81573000393E+02  0.84514389761E+03  0.90365148882E+03  0.10100000352E+00 0. -1.
</event>
<event>
 5   0  0.3749730E-02  0.6900869E+03  0.7818609E-02  0.9734337E-01
       -1   -1    0    0    0  501  0.00000000000E+00  0.00000000000E+00  0.16692950499E+03  0.16692950507E+03  0.50400001928E-02 0.  1.
        1   -1    0    0  501    0  0.00000000000E+00  0.00000000000E+00 -0.71320522480E+03  0.71320522481E+03  0.50400001928E-02 0. -1.
    10030    2    1    2    0    0  0.00000000000E+00  0.00000000000E+00 -0.54627571980E+03  0.88013472988E+03  0.69008693706E+03 0.  0.
        4    1    3    3  502    0 -0.30511827860E+02 -0.22516828020E+03 -0.60430333978E+03  0.64561278288E+03  0.12699999809E+01 0. -1.
       -4    1    3    3    0  502  0.30511827860E+02  0.22516828020E+03  0.58027619973E+02  0.23452194701E+03  0.12699999809E+01 0.  1.
</event>
<event>
 5   0  0.5899787E-02  0.7219309E+03  0.7818609E-02  0.9680445E-01
       -2   -1    0    0    0  501  0.00000000000E+00  0.00000000000E+00  0.20843545790E+03  0.20843545791E+03  0.25500000920E-02 0.  1.
        2   -1    0    0  501    0  0.00000000000E+00  0.00000000000E+00 -0.62511456991E+03  0.62511456992E+03  0.25500000920E-02 0. -1.
    10030    2    1    2    0    0  0.00000000000E+00  0.00000000000E+00 -0.41667911202E+03  0.83355002784E+03  0.72193085993E+03 0.  0.
        2    1    3    3  502    0 -0.29075871231E+03  0.15254138817E+03 -0.35199577369E+02  0.33022494476E+03  0.25500000920E-02 0. -1.
       -2    1    3    3    0  502  0.29075871231E+03 -0.15254138817E+03 -0.38147953465E+03  0.50332508307E+03  0.25500000920E-02 0.  1.
</event>
<event>
 5   0  0.5899787E-02  0.7011031E+03  0.7818609E-02  0.9715348E-01
       -2   -1    0    0    0  501  0.00000000000E+00  0.00000000000E+00  0.35257086570E+03  0.35257086571E+03  0.25500000920E-02 0.  1.
        2   -1    0    0  501    0  0.00000000000E+00  0.00000000000E+00 -0.34854377008E+03  0.34854377008E+03  0.25500000920E-02 0. -1.
    10030    2    1    2    0    0  0.00000000000E+00  0.00000000000E+00  0.40270956279E+01  0.70111463580E+03  0.70110307019E+03 0.  0.
        2    1    3    3  502    0 -0.26529355265E+03 -0.20085493336E+03  0.11230138354E+03  0.35119079442E+03  0.25500000920E-02 0. -1.
       -2    1    3    3    0  502  0.26529355265E+03  0.20085493336E+03 -0.10827428791E+03  0.34992384138E+03  0.25500000920E-02 0.  1.
</event>
<event>
 5   0  0.3749730E-02  0.4772003E+03  0.7818609E-02  0.1019907E+00
        1   -1    0    0  501    0  0.00000000000E+00  0.00000000000E+00  0.52885301029E+03  0.52885301032E+03  0.50400001928E-02 0. -1.
       -1   -1    0    0    0  501  0.00000000000E+00  0.00000000000E+00 -0.10764811958E+03  0.10764811970E+03  0.50400001928E-02 0.  1.
    10030    2    1    2    0    0  0.00000000000E+00  0.00000000000E+00  0.42120489071E+03  0.63650113002E+03  0.47720030234E+03 0.  0.
        4    1    3    3  502    0  0.23380694028E+02  0.13020653670E+03 -0.54248150280E+02  0.14298557186E+03  0.12699999809E+01 0.  1.
       -4    1    3    3    0  502 -0.23380694028E+02 -0.13020653670E+03  0.47545304099E+03  0.49351555815E+03  0.12699999809E+01 0. -1.
</event>
<event>
 5   0  0.3755872E-02  0.6822425E+03  0.7818609E-02  0.9748091E-01
       -1   -1    0    0    0  501  0.00000000000E+00  0.00000000000E+00  0.12240952257E+04  0.12240952257E+04  0.50400001928E-02 0.  1.
        1   -1    0    0  501    0  0.00000000000E+00  0.00000000000E+00 -0.95060984610E+02  0.95060984744E+02  0.50400001928E-02 0. -1.
    10030    2    1    2    0    0  0.00000000000E+00  0.00000000000E+00  0.11290342411E+04  0.13191562104E+04  0.68224247158E+03 0.  0.
        2    1    3    3  502    0 -0.70021481171E+02 -0.22653177105E+03  0.10387086546E+04  0.10654272947E+04  0.25500000920E-02 0. -1.
       -2    1    3    3    0  502  0.70021481171E+02  0.22653177105E+03  0.90325586515E+02  0.25372891579E+03  0.25500000920E-02 0.  1.
</event>
<event>
 5   0  0.3601475E-02  0.5014202E+03  0.7818609E-02  0.1013409E+00
        1   -1    0    0  501    0  0.00000000000E+00  0.00000000000E+00  0.16859798065E+04  0.16859798065E+04  0.50400001928E-02 0. -1.
       -1   -1    0    0    0  501  0.00000000000E+00  0.00000000000E+00 -0.37281319389E+02  0.37281319730E+02  0.50400001928E-02 0.  1.
    10030    2    1    2    0    0  0.00000000000E+00  0.00000000000E+00  0.16486984871E+04  0.17232611262E+04  0.50142019086E+03 0.  0.
        5    1    3    3  502    0  0.88137545699E+02 -0.23304292386E+03  0.72983953903E+03  0.77121013612E+03  0.46999998093E+01 0. -1.
       -5    1    3    3    0  502 -0.88137545699E+02  0.23304292386E+03  0.91885894809E+03  0.95205099013E+03  0.46999998093E+01 0.  1.
</event>
<event>
 5   0  0.6167756E-02  0.6832570E+03  0.7818609E-02  0.9746301E-01
       -2   -1    0    0    0  501  0.00000000000E+00  0.00000000000E+00  0.10719026046E+03  0.10719026049E+03  0.25500000920E-02 0.  1.
        2   -1    0    0  501    0  0.00000000000E+00  0.00000000000E+00 -0.10888119435E+04  0.10888119435E+04  0.25500000920E-02 0. -1.
    10030    2    1    2    0    0  0.00000000000E+00  0.00000000000E+00 -0.98162168301E+03  0.11960022040E+04  0.68325701117E+03 0.  0.
        4    1    3    3  502    0 -0.99451442663E+02 -0.32600852696E+03 -0.53134686882E+03  0.63127114380E+03  0.12699999809E+01 0.  1.
       -4    1    3    3    0  502  0.99451442663E+02  0.32600852696E+03 -0.45027481419E+03  0.56473106015E+03  0.12699999809E+01 0. -1.
</event>
<event>
 5   0  0.3601475E-02  0.6994917E+03  0.7818609E-02  0.9718102E-01
       -1   -1    0    0    0  501  0.00000000000E+00  0.00000000000E+00  0.20764212926E+03  0.20764212933E+03  0.50400001928E-02 0.  1.
        1   -1    0    0  501    0  0.00000000000E+00  0.00000000000E+00 -0.58910085094E+03  0.58910085096E+03  0.50400001928E-02 0. -1.
    10030    2    1    2    0    0  0.00000000000E+00  0.00000000000E+00 -0.38145872168E+03  0.79674298029E+03  0.69949168708E+03 0.  0.
        5    1    3    3  502    0  0.13928579427E+03 -0.22911513327E+03 -0.44645595448E+03  0.52080638059E+03  0.46999998093E+01 0. -1.
       -5    1    3    3    0  502 -0.13928579427E+03  0.22911513327E+03  0.64997232802E+02  0.27593659969E+03  0.46999998093E+01 0.  1.
</event>
<event>
 5   0  0.6131198E-02  0.6936417E+03  0.7818609E-02  0.9728168E-01
       -2   -1    0    0    0  501  0.00000000000E+00  0.00000000000E+00  0.11089899645E+03  0.11089899648E+03  0.25500000920E-02 0. -1.
        2   -1    0    0  501    0  0.00000000000E+00  0.00000000000E+00 -0.10846328453E+04  0.10846328454E+04  0.25500000920E-02 0.  1.
    10030    2    1    2    0    0  0.00000000000E+00  0.00000000000E+00 -0.97373384890E+03  0.11955318418E+04  0.69364167718E+03 0.  0.
        1    1    3    3  502    0  0.31562240982E+03 -0.35158425711E+01 -0.73457305335E+03  0.79951700261E+03  0.50400001928E-02 0. -1.
       -1    1    3    3    0  502 -0.31562240982E+03  0.35158425711E+01 -0.23916079556E+03  0.39601483922E+03  0.50400001928E-02 0.  1.
</event>
<event>
 5   0  0.3601475E-02  0.7114423E+03  0.7818609E-02  0.9697862E-01
       -1   -1    0    0    0  501  0.00000000000E+00  0.00000000000E+00  0.18631467786E+03  0.18631467793E+03  0.50400001928E-02 0.  1.
        1   -1    0    0  501    0  0.00000000000E+00  0.00000000000E+00 -0.67916026964E+03  0.67916026966E+03  0.50400001928E-02 0. -1.
    10030    2    1    2    0    0  0.00000000000E+00  0.00000000000E+00 -0.49284559178E+03  0.86547494758E+03  0.71144227283E+03 0.  0.
        5    1    3    3  502    0 -0.34115605186E+03  0.75316816356E+02 -0.16522273602E+03  0.38649801687E+03  0.46999998093E+01 0.  1.
       -5    1    3    3    0  502  0.34115605186E+03 -0.75316816356E+02 -0.32762285575E+03  0.47897693072E+03  0.46999998093E+01 0. -1.
</event>
<event>
 5   0  0.3439015E-02  0.6641438E+03  0.7818609E-02  0.9780595E-01
        1   -1    0    0  501    0  0.00000000000E+00  0.00000000000E+00  0.76604383975E+03  0.76604383976E+03  0.50400001928E-02 0.  1.
       -1   -1    0    0    0  501  0.00000000000E+00  0.00000000000E+00 -0.14394964990E+03  0.14394964999E+03  0.50400001928E-02 0. -1.
    10030    2    1    2    0    0  0.00000000000E+00  0.00000000000E+00  0.62209418985E+03  0.90999348975E+03  0.66414378741E+03 0.  0.
        1    1    3    3  502    0 -0.52297962818E+02 -0.32791145136E+03  0.31553861993E+03  0.45806726312E+03  0.50400001928E-02 0. -1.
       -1    1    3    3    0  502  0.52297962818E+02  0.32791145136E+03  0.30655556992E+03  0.45192622664E+03  0.50400001928E-02 0.  1.
</event>
<event>
 5   0  0.3439015E-02  0.7069140E+03  0.7818609E-02  0.9705481E-01
       -1   -1    0    0    0  501  0.00000000000E+00  0.00000000000E+00  0.64700618328E+02  0.64700618524E+02  0.50400001928E-02 0.  1.
        1   -1    0    0  501    0  0.00000000000E+00  0.00000000000E+00 -0.19309218841E+04  0.19309218841E+04  0.50400001928E-02 0. -1.
    10030    2    1    2    0    0  0.00000000000E+00  0.00000000000E+00 -0.18662212658E+04  0.19956225026E+04  0.70691396944E+03 0.  0.
        1    1    3    3  502    0 -0.31731683769E+02  0.18178117235E+03 -0.17841453782E+04  0.17936627400E+04  0.50400001928E-02 0. -1.
       -1    1    3    3    0  502  0.31731683769E+02 -0.18178117235E+03 -0.82075887607E+02  0.20195976264E+03  0.50400001928E-02 0.  1.
</event>
<event>
 5   0  0.3601475E-02  0.7070690E+03  0.7818609E-02  0.9705219E-01
       -1   -1    0    0    0  501  0.00000000000E+00  0.00000000000E+00  0.20694242880E+03  0.20694242886E+03  0.50400001928E-02 0.  1.
        1   -1    0    0  501    0  0.00000000000E+00  0.00000000000E+00 -0.60396810789E+03  0.60396810792E+03  0.50400001928E-02 0. -1.
    10030    2    1    2    0    0  0.00000000000E+00  0.00000000000E+00 -0.39702567909E+03  0.81091053678E+03  0.70706895618E+03 0.  0.
        5    1    3    3  502    0 -0.28565092891E+03  0.20767545154E+03 -0.21624255649E+03  0.41413582264E+03  0.46999998093E+01 0. -1.
       -5    1    3    3    0  502  0.28565092891E+03 -0.20767545154E+03 -0.18078312261E+03  0.39677471414E+03  0.46999998093E+01 0.  1.
</event>
<event>
 5   0  0.6167756E-02  0.7028694E+03  0.7818609E-02  0.9712338E-01
        2   -1    0    0  501    0  0.00000000000E+00  0.00000000000E+00  0.13125600456E+04  0.13125600456E+04  0.25500000920E-02 0.  1.
       -2   -1    0    0    0  501  0.00000000000E+00  0.00000000000E+00 -0.94095769223E+02  0.94095769258E+02  0.25500000920E-02 0. -1.
    10030    2    1    2    0    0  0.00000000000E+00  0.00000000000E+00  0.12184642763E+04  0.14066558148E+04  0.70286939659E+03 0.  0.
        4    1    3    3  502    0 -0.19723121986E+03 -0.10265725379E+03  0.11538888472E+04  0.11751169092E+04  0.12699999809E+01 0.  1.
       -4    1    3    3    0  502  0.19723121986E+03  0.10265725379E+03  0.64575429142E+02  0.23153890556E+03  0.12699999809E+01 0. -1.
</event>
<event>
 5   0  0.6248886E-02  0.7124590E+03  0.7818609E-02  0.9696160E-01
       -2   -1    0    0    0  501  0.00000000000E+00  0.00000000000E+00  0.65596908582E+02  0.65596908632E+02  0.25500000920E-02 0. -1.
        2   -1    0    0  501    0  0.00000000000E+00  0.00000000000E+00 -0.19345339132E+04  0.19345339132E+04  0.25500000920E-02 0.  1.
    10030    2    1    2    0    0  0.00000000000E+00  0.00000000000E+00 -0.18689370046E+04  0.20001308218E+04  0.71245896528E+03 0.  0.
        3    1    3    3  502    0  0.16848937204E+03  0.10983826763E+03 -0.10905455494E+03  0.22879252540E+03  0.10100000352E+00 0. -1.
       -3    1    3    3    0  502 -0.16848937204E+03 -0.10983826763E+03 -0.17598824496E+04  0.17713382964E+04  0.10100000352E+00 0.  1.
</event>
<event>
 5   0  0.5899787E-02  0.7273946E+03  0.7818609E-02  0.9671498E-01
        2   -1    0    0  501    0  0.00000000000E+00  0.00000000000E+00  0.30589907958E+03  0.30589907960E+03  0.25500000920E-02 0. -1.
       -2   -1    0    0    0  501  0.00000000000E+00  0.00000000000E+00 -0.43241623088E+03  0.43241623089E+03  0.25500000920E-02 0.  1.
    10030    2    1    2    0    0  0.00000000000E+00  0.00000000000E+00 -0.12651715130E+03  0.73831531049E+03  0.72739460276E+03 0.  0.
        2    1    3    3  502    0 -0.67837413587E+02 -0.79940301137E+01  0.29932990096E+03  0.30702476906E+03  0.25500000920E-02 0. -1.
       -2    1    3    3    0  502  0.67837413587E+02  0.79940301137E+01 -0.42584705226E+03  0.43129054143E+03  0.25500000920E-02 0.  1.
</event>
<event>
 5   0  0.6131198E-02  0.7095623E+03  0.7818609E-02  0.9701018E-01
       -2   -1    0    0    0  501  0.00000000000E+00  0.00000000000E+00  0.16459724239E+03  0.16459724241E+03  0.25500000920E-02 0. -1.
        2   -1    0    0  501    0  0.00000000000E+00  0.00000000000E+00 -0.76471312733E+03  0.76471312734E+03  0.25500000920E-02 0.  1.
    10030    2    1    2    0    0  0.00000000000E+00  0.00000000000E+00 -0.60011588494E+03  0.92931036975E+03  0.70956232141E+03 0.  0.
        1    1    3    3  502    0  0.19134093396E+03  0.23333591153E+03 -0.55692993265E+02  0.30685291287E+03  0.50400001928E-02 0. -1.
       -1    1    3    3    0  502 -0.19134093396E+03 -0.23333591153E+03 -0.54442289168E+03  0.62245745688E+03  0.50400001928E-02 0.  1.
</event>
<event>
 5   0  0.5987810E-02  0.6926232E+03  0.7818609E-02  0.9729931E-01
        2   -1    0    0  501    0  0.00000000000E+00  0.00000000000E+00  0.23621548557E+03  0.23621548559E+03  0.25500000920E-02 0. -1.
       -2   -1    0    0    0  501  0.00000000000E+00  0.00000000000E+00 -0.50772170514E+03  0.50772170515E+03  0.25500000920E-02 0.  1.
    10030    2    1    2    0    0  0.00000000000E+00  0.00000000000E+00 -0.27150621957E+03  0.74393719074E+03  0.69262321395E+03 0.  0.
        5    1    3    3  502    0  0.14668339745E+03  0.98045038790E+02  0.18428281434E+03  0.25516875666E+03  0.46999998093E+01 0. -1.
       -5    1    3    3    0  502 -0.14668339745E+03 -0.98045038790E+02 -0.45578903391E+03  0.48876843407E+03  0.46999998093E+01 0.  1.
</event>
<event>
 5   0  0.6248886E-02  0.6978291E+03  0.7818609E-02  0.9720952E-01
        2   -1    0    0  501    0  0.00000000000E+00  0.00000000000E+00  0.10123973134E+04  0.10123973134E+04  0.25500000920E-02 0. -1.
       -2   -1    0    0    0  501  0.00000000000E+00  0.00000000000E+00 -0.12025057224E+03  0.12025057227E+03  0.25500000920E-02 0.  1.
    10030    2    1    2    0    0  0.00000000000E+00  0.00000000000E+00  0.89214674120E+03  0.11326478857E+04  0.69782908020E+03 0.  0.
        3    1    3    3  502    0  0.26381843480E+03  0.14354697773E+03  0.15783928675E+03  0.33929213372E+03  0.10100000352E+00 0.  1.
       -3    1    3    3    0  502 -0.26381843480E+03 -0.14354697773E+03  0.73430745445E+03  0.79335575200E+03  0.10100000352E+00 0. -1.
</event>
<event>
 5   0  0.3439015E-02  0.7166164E+03  0.7818609E-02  0.9689230E-01
        1   -1    0    0  501    0  0.00000000000E+00  0.00000000000E+00  0.40262181786E+03  0.40262181789E+03  0.50400001928E-02 0. -1.
       -1   -1    0    0    0  501  0.00000000000E+00  0.00000000000E+00 -0.31887186407E+03  0.31887186411E+03  0.50400001928E-02 0.  1.
    10030    2    1    2    0    0  0.00000000000E+00  0.00000000000E+00  0.83749953792E+02  0.72149368201E+03  0.71661640954E+03 0.  0.
        1    1    3    3  502    0 -0.27121858005E+03  0.34479454264E+02 -0.19129663216E+03  0.33368061441E+03  0.50400001928E-02 0.  1.
       -1    1    3    3    0  502  0.27121858005E+03 -0.34479454264E+02  0.27504658595E+03  0.38781306760E+03  0.50400001928E-02 0. -1.
</event>
<event>
 5   0  0.3717372E-02  0.7092458E+03  0.7818609E-02  0.9701550E-01
        1   -1    0    0  501    0  0.00000000000E+00  0.00000000000E+00  0.13015530442E+04  0.13015530442E+04  0.50400001928E-02 0. -1.
       -1   -1    0    0    0  501  0.00000000000E+00  0.00000000000E+00 -0.96621031918E+02  0.96621032050E+02  0.50400001928E-02 0.  1.
    10030    2    1    2    0    0  0.00000000000E+00  0.00000000000E+00  0.12049320123E+04  0.13981740762E+04  0.70924579188E+03 0.  0.
        3    1    3    3  502    0  0.43056375257E+02 -0.30871173303E+03  0.93585562253E+03  0.98639877432E+03  0.10100000352E+00 0. -1.
       -3    1    3    3    0  502 -0.43056375257E+02  0.30871173303E+03  0.26907638973E+03  0.41177530192E+03  0.10100000352E+00 0.  1.
</event>
<event>
 5   0  0.3601475E-02  0.7095981E+03  0.7818609E-02  0.9700957E-01
        1   -1    0    0  501    0  0.00000000000E+00  0.00000000000E+00  0.10436508946E+04  0.10436508946E+04  0.50400001928E-02 0. -1.
       -1   -1    0    0    0  501  0.00000000000E+00  0.00000000000E+00 -0.12061731697E+03  0.12061731707E+03  0.50400001928E-02 0.  1.
    10030    2    1    2    0    0  0.00000000000E+00  0.00000000000E+00  0.92303357765E+03  0.11642682117E+04  0.70959811394E+03 0.  0.
        5    1    3    3  502    0 -0.22383733884E+03  0.20989144175E+03  0.75365527625E+03  0.81374193514E+03  0.46999998093E+01 0. -1.
       -5    1    3    3    0  502  0.22383733884E+03 -0.20989144175E+03  0.16937830140E+03  0.35052627657E+03  0.46999998093E+01 0.  1.
</event>
<event>
 5   0  0.3717372E-02  0.7010034E+03  0.7818609E-02  0.9715518E-01
       -1   -1    0    0    0  501  0.00000000000E+00  0.00000000000E+00  0.17009370294E+03  0.17009370301E+03  0.50400001928E-02 0.  1.
        1   -1    0    0  501    0  0.00000000000E+00  0.00000000000E+00 -0.72225741861E+03  0.72225741863E+03  0.50400001928E-02 0. -1.
    10030    2    1    2    0    0  0.00000000000E+00  0.00000000000E+00 -0.55216371567E+03  0.89235112165E+03  0.70100339186E+03 0.  0.
        3    1    3    3  502    0  0.28169836098E+03  0.11155109964E+03 -0.51759206221E+02  0.30737052565E+03  0.10100000352E+00 0.  1.
       -3    1    3    3    0  502 -0.28169836098E+03 -0.11155109964E+03 -0.50040450945E+03  0.58498059600E+03  0.10100000352E+00 0. -1.
</event>
<event>
 5   0  0.5899787E-02  0.7047959E+03  0.7818609E-02  0.9709066E-01
        2   -1    0    0  501    0  0.00000000000E+00  0.00000000000E+00  0.64717063417E+03  0.64717063418E+03  0.25500000920E-02 0. -1.
       -2   -1    0    0    0  501  0.00000000000E+00  0.00000000000E+00 -0.19188805679E+03  0.19188805680E+03  0.25500000920E-02 0.  1.
    10030    2    1    2    0    0  0.00000000000E+00  0.00000000000E+00  0.45528257738E+03  0.83905869098E+03  0.70479590070E+03 0.  0.
        2    1    3    3  502    0 -0.22299695619E+03 -0.36911124523E+02 -0.94221339774E+02  0.24488310366E+03  0.25500000920E-02 0.  1.
       -2    1    3    3    0  502  0.22299695619E+03  0.36911124523E+02  0.54950391716E+03  0.59417558732E+03  0.25500000920E-02 0. -1.
</event>
<event>
 5   0  0.6248886E-02  0.8645409E+03  0.7818609E-02  0.9471026E-01
       -2   -1    0    0    0  501  0.00000000000E+00  0.00000000000E+00  0.96215001575E+02  0.96215001609E+02  0.25500000920E-02 0.  1.
        2   -1    0    0  501    0  0.00000000000E+00  0.00000000000E+00 -0.19420853520E+04  0.19420853520E+04  0.25500000920E-02 0. -1.
    10030    2    1    2    0    0  0.00000000000E+00  0.00000000000E+00 -0.18458703504E+04  0.20383003536E+04  0.86454090762E+03 0.  0.
        3    1    3    3  502    0  0.24630561411E+03  0.27023551064E+02 -0.17580323549E+04  0.17754082626E+04  0.10100000352E+00 0. -1.
       -3    1    3    3    0  502 -0.24630561411E+03 -0.27023551064E+02 -0.87837995523E+02  0.26289209100E+03  0.10100000352E+00 0.  1.
</event>
<event>
 5   0  0.3717372E-02  0.6842548E+03  0.7818609E-02  0.9744544E-01
       -1   -1    0    0    0  501  0.00000000000E+00  0.00000000000E+00  0.59796105956E+02  0.59796106169E+02  0.50400001928E-02 0. -1.
        1   -1    0    0  501    0  0.00000000000E+00  0.00000000000E+00 -0.19575048905E+04  0.19575048905E+04  0.50400001928E-02 0.  1.
    10030    2    1    2    0    0  0.00000000000E+00  0.00000000000E+00 -0.18977087846E+04  0.20173009967E+04  0.68425483576E+03 0.  0.
        3    1    3    3  502    0 -0.34028244508E+03 -0.27133944613E+02 -0.10162616559E+04  0.10720616385E+04  0.10100000352E+00 0.  1.
       -3    1    3    3    0  502  0.34028244508E+03  0.27133944613E+02 -0.88144712872E+03  0.94523935821E+03  0.10100000352E+00 0. -1.
</event>
<event>
 5   0  0.3755872E-02  0.6881187E+03  0.7818609E-02  0.9737769E-01
       -1   -1    0    0    0  501  0.00000000000E+00  0.00000000000E+00  0.15766599598E+03  0.15766599606E+03  0.50400001928E-02 0.  1.
        1   -1    0    0  501    0  0.00000000000E+00  0.00000000000E+00 -0.75080761415E+03  0.75080761417E+03  0.50400001928E-02 0. -1.
    10030    2    1    2    0    0  0.00000000000E+00  0.00000000000E+00 -0.59314161817E+03  0.90847361023E+03  0.68811868256E+03 0.  0.
        2    1    3    3  502    0 -0.17094114411E+03  0.26592366429E+03 -0.11728908346E+03  0.33718392472E+03  0.25500000920E-02 0.  1.
       -2    1    3    3    0  502  0.17094114411E+03 -0.26592366429E+03 -0.47585253471E+03  0.57128968552E+03  0.25500000920E-02 0. -1.
</event>
<event>
 5   0  0.5899787E-02  0.7257965E+03  0.7818609E-02  0.9674106E-01
       -2   -1    0    0    0  501  0.00000000000E+00  0.00000000000E+00  0.27080569047E+03  0.27080569049E+03  0.25500000920E-02 0. -1.
        2   -1    0    0  501    0  0.00000000000E+00  0.00000000000E+00 -0.48630865991E+03  0.48630865992E+03  0.25500000920E-02 0.  1.
    10030    2    1    2    0    0  0.00000000000E+00  0.00000000000E+00 -0.21550296944E+03  0.75711435041E+03  0.72579653468E+03 0.  0.
        2    1    3    3  502    0 -0.34278406858E+03 -0.39194037623E+01  0.16461627803E+02  0.34320149270E+03  0.25500000920E-02 0. -1.
       -2    1    3    3    0  502  0.34278406858E+03  0.39194037623E+01 -0.23196459724E+03  0.41391285771E+03  0.25500000920E-02 0.  1.
</event>
<event>
 5   0  0.3755872E-02  0.7158313E+03  0.7818609E-02  0.9690535E-01
        1   -1    0    0  501    0  0.00000000000E+00  0.00000000000E+00  0.45866772117E+03  0.45866772120E+03  0.50400001928E-02 0.  1.
       -1   -1    0    0    0  501  0.00000000000E+00  0.00000000000E+00 -0.27929505554E+03  0.27929505558E+03  0.50400001928E-02 0. -1.
    10030    2    1    2    0    0  0.00000000000E+00  0.00000000000E+00  0.17937266563E+03  0.73796277678E+03  0.71583133959E+03 0.  0.
        2    1    3    3  502    0 -0.35365730335E+03 -0.34108554728E+02  0.45144688932E+02  0.35815488921E+03  0.25500000920E-02 0. -1.
       -2    1    3    3    0  502  0.35365730335E+03  0.34108554728E+02  0.13422797670E+03  0.37980788757E+03  0.25500000920E-02 0.  1.
</event>
<event>
 5   0  0.3601475E-02  0.7025252E+03  0.7818609E-02  0.9712924E-01
        1   -1    0    0  501    0  0.00000000000E+00  0.00000000000E+00  0.85591393809E+03  0.85591393811E+03  0.50400001928E-02 0.  1.
       -1   -1    0    0    0  501  0.00000000000E+00  0.00000000000E+00 -0.14415632185E+03  0.14415632193E+03  0.50400001928E-02 0. -1.
    10030    2    1    2    0    0  0.00000000000E+00  0.00000000000E+00  0.71175761625E+03  0.10000702600E+04  0.70252517445E+03 0.  0.
        5    1    3    3  502    0  0.48816878359E+02 -0.34471060407E+03  0.42195953734E+03  0.54706528799E+03  0.46999998093E+01 0. -1.
       -5    1    3    3    0  502 -0.48816878359E+02  0.34471060407E+03  0.28979807891E+03  0.45300497205E+03  0.46999998093E+01 0.  1.
</event>
<event>
 5   0  0.6131198E-02  0.7046486E+03  0.7818609E-02  0.9709315E-01
        2   -1    0    0  501    0  0.00000000000E+00  0.00000000000E+00  0.17259018800E+03  0.17259018802E+03  0.25500000920E-02 0.  1.
       -2   -1    0    0    0  501  0.00000000000E+00  0.00000000000E+00 -0.71923215424E+03  0.71923215424E+03  0.25500000920E-02 0. -1.
    10030    2    1    2    0    0  0.00000000000E+00  0.00000000000E+00 -0.54664196624E+03  0.89182234226E+03  0.70464860100E+03 0.  0.
        1    1    3    3  502    0 -0.18389099766E+03 -0.20487739550E+03  0.49494169058E+01  0.27534549744E+03  0.50400001928E-02 0.  1.
       -1    1    3    3    0  502  0.18389099766E+03  0.20487739550E+03 -0.55159138315E+03  0.61647684482E+03  0.50400001928E-02 0. -1.
</event>
<event>
 5   0  0.3755872E-02  0.6546293E+03  0.7818609E-02  0.9798131E-01
        1   -1    0    0  501    0  0.00000000000E+00  0.00000000000E+00  0.70264308058E+03  0.70264308059E+03  0.50400001928E-02 0.  1.
       -1   -1    0    0    0  501  0.00000000000E+00  0.00000000000E+00 -0.15247412097E+03  0.15247412106E+03  0.50400001928E-02 0. -1.
    10030    2    1    2    0    0  0.00000000000E+00  0.00000000000E+00  0.55016895960E+03  0.85511720165E+03  0.65462931835E+03 0.  0.
        2    1    3    3  502    0  0.16947474454E+03  0.16493607745E+03 -0.20515607095E+02  0.23737415365E+03  0.25500000920E-02 0. -1.
       -2    1    3    3    0  502 -0.16947474454E+03 -0.16493607745E+03  0.57068456670E+03  0.61774304800E+03  0.25500000920E-02 0.  1.
</event>
<event>
 5   0  0.3439015E-02  0.6944582E+03  0.7818609E-02  0.9726757E-01
        1   -1    0    0  501    0  0.00000000000E+00  0.00000000000E+00  0.34774040065E+03  0.34774040069E+03  0.50400001928E-02 0.  1.
       -1   -1    0    0    0  501  0.00000000000E+00  0.00000000000E+00 -0.34671859626E+03  0.34671859630E+03  0.50400001928E-02 0. -1.
    10030    2    1    2    0    0  0.00000000000E+00  0.00000000000E+00  0.10218043917E+01  0.69445899698E+03  0.69445824526E+03 0.  0.
        1    1    3    3  502    0 -0.14508357619E+03 -0.28664930613E+03 -0.13121241524E+03  0.34703568509E+03  0.50400001928E-02 0. -1.
       -1    1    3    3    0  502  0.14508357619E+03  0.28664930613E+03  0.13223421963E+03  0.34742331190E+03  0.50400001928E-02 0.  1.
</event>
<event>
 5   0  0.3755872E-02  0.6925852E+03  0.7818609E-02  0.9729997E-01
        1   -1    0    0  501    0  0.00000000000E+00  0.00000000000E+00  0.62991888273E+02  0.62991888475E+02  0.50400001928E-02 0. -1.
       -1   -1    0    0    0  501  0.00000000000E+00  0.00000000000E+00 -0.19037142581E+04  0.19037142581E+04  0.50400001928E-02 0.  1.
    10030    2    1    2    0    0  0.00000000000E+00  0.00000000000E+00 -0.18407223698E+04  0.19667061466E+04  0.69258517470E+03 0.  0.
        2    1    3    3  502    0  0.24029600857E+03 -0.23325817573E+03 -0.11706221724E+04  0.12175827770E+04  0.25500000920E-02 0.  1.
       -2    1    3    3    0  502 -0.24029600857E+03  0.23325817573E+03 -0.67010019740E+03  0.74912336958E+03  0.25500000920E-02 0. -1.
</event>
<event>
 5   0  0.6131198E-02  0.7022865E+03  0.7818609E-02  0.9713330E-01
       -2   -1    0    0    0  501  0.00000000000E+00  0.00000000000E+00  0.21743247001E+03  0.21743247002E+03  0.25500000920E-02 0.  1.
        2   -1    0    0  501    0  0.00000000000E+00  0.00000000000E+00 -0.56707993035E+03  0.56707993035E+03  0.25500000920E-02 0. -1.
    10030    2    1    2    0    0  0.00000000000E+00  0.00000000000E+00 -0.34964746034E+03  0.78451240037E+03  0.70228652260E+03 0.  0.
        1    1    3    3  502    0 -0.20089200728E+03  0.22003347388E+03  0.32753219083E+02  0.29974172483E+03  0.50400001928E-02 0. -1.
       -1    1    3    3    0  502  0.20089200728E+03 -0.22003347388E+03 -0.38240067942E+03  0.48477067554E+03  0.50400001928E-02 0.  1.
</event>
<event>
 5   0  0.5987810E-02  0.7214572E+03  0.7818609E-02  0.9681225E-01
        2   -1    0    0  501    0  0.00000000000E+00  0.00000000000E+00  0.10801679454E+04  0.10801679454E+04  0.25500000920E-02 0. -1.
       -2   -1    0    0    0  501  0.00000000000E+00  0.00000000000E+00 -0.12046749779E+03  0.12046749781E+03  0.25500000920E-02 0.  1.
    10030    2    1    2    0    0  0.00000000000E+00  0.00000000000E+00  0.95970044764E+03  0.12006354432E+04  0.72145721867E+03 0.  0.
        5    1    3    3  502    0 -0.19035791509E+03 -0.24599919896E+03  0.17593185741E+03  0.35738753500E+03  0.46999998093E+01 0.  1.
       -5    1    3    3    0  502  0.19035791509E+03  0.24599919896E+03  0.78376859023E+03  0.84324790824E+03  0.46999998093E+01 0. -1.
</event>
<event>
 5   0  0.3717372E-02  0.6987724E+03  0.7818609E-02  0.9719334E-01
        1   -1    0    0  501    0  0.00000000000E+00  0.00000000000E+00  0.32076960904E+03  0.32076960908E+03  0.50400001928E-02 0.  1.
       -1   -1    0    0    0  501  0.00000000000E+00  0.00000000000E+00 -0.38055577558E+03  0.38055577561E+03  0.50400001928E-02 0. -1.
    10030    2    1    2    0    0  0.00000000000E+00  0.00000000000E+00 -0.59786166539E+02  0.70132538468E+03  0.69877243040E+03 0.  0.
        3    1    3    3  502    0 -0.19802077188E+03  0.72883118353E+02 -0.30938227342E+03  0.37448841951E+03  0.10100000352E+00 0. -1.
       -3    1    3    3    0  502  0.19802077188E+03 -0.72883118353E+02  0.24959610688E+03  0.32683696518E+03  0.10100000352E+00 0.  1.
</event>
<event>
 5   0  0.6167756E-02  0.7157828E+03  0.7818609E-02  0.9690616E-01
        2   -1    0    0  501    0  0.00000000000E+00  0.00000000000E+00  0.63545366544E+03  0.63545366545E+03  0.25500000920E-02 0. -1.
       -2   -1    0    0    0  501  0.00000000000E+00  0.00000000000E+00 -0.20156660470E+03  0.20156660472E+03  0.25500000920E-02 0.  1.
    10030    2    1    2    0    0  0.00000000000E+00  0.00000000000E+00  0.43388706074E+03  0.83702027017E+03  0.71578275418E+03 0.  0.
        4    1    3    3  502    0  0.21701327514E+02 -0.40376332080E+02  0.63200408067E+03  0.63366550063E+03  0.12699999809E+01 0. -1.
       -4    1    3    3    0  502 -0.21701327514E+02  0.40376332080E+02 -0.19811701993E+03  0.20335476953E+03  0.12699999809E+01 0.  1.
</event>
<event>
 5   0  0.3749730E-02  0.6851938E+03  0.7818609E-02  0.9742893E-01
        1   -1    0    0  501    0  0.00000000000E+00  0.00000000000E+00  0.60753052044E+03  0.60753052046E+03  0.50400001928E-02 0. -1.
       -1   -1    0    0    0  501  0.00000000000E+00  0.00000000000E+00 -0.19319626948E+03  0.19319626955E+03  0.50400001928E-02 0.  1.
    10030    2    1    2    0    0  0.00000000000E+00  0.00000000000E+00  0.41433425096E+03  0.80072679001E+03  0.68519378334E+03 0.  0.
        4    1    3    3  502    0  0.33328706103E+02 -0.24847621430E+03  0.48003223954E+03  0.54155682585E+03  0.12699999809E+01 0. -1.
       -4    1    3    3    0  502 -0.33328706103E+02  0.24847621430E+03 -0.65697988585E+02  0.25916996417E+03  0.12699999809E+01 0.  1.
</event>
<event>
 5   0  0.3601475E-02  0.7080679E+03  0.7818609E-02  0.9703534E-01
        1   -1    0    0  501    0  0.00000000000E+00  0.00000000000E+00  0.51322212356E+03  0.51322212358E+03  0.50400001928E-02 0.  1.
       -1   -1    0    0    0  501  0.00000000000E+00  0.00000000000E+00 -0.24422182817E+03  0.24422182823E+03  0.50400001928E-02 0. -1.
    10030    2    1    2    0    0  0.00000000000E+00  0.00000000000E+00  0.26900029538E+03  0.75744395181E+03  0.70806792133E+03 0.  0.
        5    1    3    3  502    0 -0.26506039060E+03  0.13390246111E+03  0.34063164001E+03  0.45192796321E+03  0.46999998093E+01 0.  1.
       -5    1    3    3    0  502  0.26506039060E+03 -0.13390246111E+03 -0.71631344625E+02  0.30551598860E+03  0.46999998093E+01 0. -1.
</event>
<event>
 5   0  0.3755872E-02  0.5637837E+03  0.7818609E-02  0.9983529E-01
       -1   -1    0    0    0  501  0.00000000000E+00  0.00000000000E+00  0.10124177437E+03  0.10124177449E+03  0.50400001928E-02 0. -1.
        1   -1    0    0  501    0  0.00000000000E+00  0.00000000000E+00 -0.78488380178E+03  0.78488380179E+03  0.50400001928E-02 0.  1.
    10030    2    1    2    0    0  0.00000000000E+00  0.00000000000E+00 -0.68364202741E+03  0.88612557629E+03  0.56378374871E+03 0.  0.
        2    1    3    3  502    0  0.11418275570E+03 -0.25770225790E+03 -0.34788262084E+03  0.44773929168E+03  0.25500000920E-02 0. -1.
       -2    1    3    3    0  502 -0.11418275570E+03  0.25770225790E+03 -0.33575940657E+03  0.43838628461E+03  0.25500000920E-02 0.  1.
</event>
<event>
 5   0  0.3755872E-02  0.6978026E+03  0.7818609E-02  0.9720997E-01
        1   -1    0    0  501    0  0.00000000000E+00  0.00000000000E+00  0.36425285859E+03  0.36425285863E+03  0.50400001928E-02 0. -1.
       -1   -1    0    0    0  501  0.00000000000E+00  0.00000000000E+00 -0.33419676544E+03  0.33419676548E+03  0.50400001928E-02 0.  1.
    10030    2    1    2    0    0  0.00000000000E+00  0.00000000000E+00  0.30056093146E+02  0.69844962411E+03  0.69780262874E+03 0.  0.
        2    1    3    3  502    0  0.27378551737E+03 -0.29034336779E+02 -0.19948497684E+03  0.33999376204E+03  0.25500000920E-02 0. -1.
       -2    1    3    3    0  502 -0.27378551737E+03  0.29034336779E+02  0.22954106998E+03  0.35845586207E+03  0.25500000920E-02 0.  1.
</event>
<event>
 5   0  0.3601475E-02  0.8279578E+03  0.7818609E-02  0.9520408E-01
       -1   -1    0    0    0  501  0.00000000000E+00  0.00000000000E+00  0.38674253636E+03  0.38674253639E+03  0.50400001928E-02 0. -1.
        1   -1    0    0  501    0  0.00000000000E+00  0.00000000000E+00 -0.44313335455E+03  0.44313335457E+03  0.50400001928E-02 0.  1.
    10030    2    1    2    0    0  0.00000000000E+00  0.00000000000E+00 -0.56390818188E+02  0.82987589096E+03  0.82795777068E+03 0.  0.
        5    1    3    3  502    0 -0.39559776050E+03 -0.41435519834E+02 -0.14309927836E+03  0.42274576744E+03  0.46999998093E+01 0. -1.
       -5    1    3    3    0  502  0.39559776050E+03  0.41435519834E+02  0.86708460175E+02  0.40713012353E+03  0.46999998093E+01 0.  1.
</event>
<event>
 5   0  0.3601475E-02  0.7049970E+03  0.7818609E-02  0.9708725E-01
        1   -1    0    0  501    0  0.00000000000E+00  0.00000000000E+00  0.52475160684E+03  0.52475160686E+03  0.50400001928E-02 0. -1.
       -1   -1    0    0    0  501  0.00000000000E+00  0.00000000000E+00 -0.23678860877E+03  0.23678860882E+03  0.50400001928E-02 0.  1.
    10030    2    1    2    0    0  0.00000000000E+00  0.00000000000E+00  0.28796299807E+03  0.76154021568E+03  0.70499702967E+03 0.  0.
        5    1    3    3  502    0  0.17485024780E+03 -0.17765072598E+03  0.41316837662E+03  0.48255837682E+03  0.46999998093E+01 0. -1.
       -5    1    3    3    0  502 -0.17485024780E+03  0.17765072598E+03 -0.12520537856E+03  0.27898183886E+03  0.46999998093E+01 0.  1.
</event>
<event>
 5   0  0.3755872E-02  0.7052788E+03  0.7818609E-02  0.9708247E-01
       -1   -1    0    0    0  501  0.00000000000E+00  0.00000000000E+00  0.13560081942E+03  0.13560081952E+03  0.50400001928E-02 0.  1.
        1   -1    0    0  501    0  0.00000000000E+00  0.00000000000E+00 -0.91706337733E+03  0.91706337735E+03  0.50400001928E-02 0. -1.
    10030    2    1    2    0    0  0.00000000000E+00  0.00000000000E+00 -0.78146255791E+03  0.10526641969E+04  0.70527879732E+03 0.  0.
        2    1    3    3  502    0  0.31457036388E+03 -0.12867334726E+03 -0.25037437464E+03  0.42213584497E+03  0.25500000920E-02 0.  1.
       -2    1    3    3    0  502 -0.31457036388E+03  0.12867334726E+03 -0.53108818327E+03  0.63052835190E+03  0.25500000920E-02 0. -1.
</event>
<event>
 5   0  0.2439375E-02  0.6849957E+03  0.7818609E-02  0.9743241E-01
        4   -1    0    0  501    0  0.00000000000E+00  0.00000000000E+00  0.21179728581E+03  0.21180109342E+03  0.12699999809E+01 0.  1.
       -4   -1    0    0    0  501  0.00000000000E+00  0.00000000000E+00 -0.55384447731E+03  0.55384593340E+03  0.12699999809E+01 0. -1.
    10030    2    1    2    0    0  0.00000000000E+00  0.00000000000E+00 -0.34204719150E+03  0.76564702683E+03  0.68499568500E+03 0.  0.
        5    1    3    3  502    0  0.32389465722E+03  0.61349050859E+02 -0.67301021662E+02  0.33648621448E+03  0.46999998093E+01 0.  1.
       -5    1    3    3    0  502 -0.32389465722E+03 -0.61349050859E+02 -0.27474616984E+03  0.42916081235E+03  0.46999998093E+01 0. -1.
</event>
<event>
 5   0  0.2439375E-02  0.6868744E+03  0.7818609E-02  0.9739946E-01
       -3   -1    0    0    0  501  0.00000000000E+00  0.00000000000E+00  0.16672546487E+03  0.16672549546E+03  0.10100000352E+00 0. -1.
        3   -1    0    0  501    0  0.00000000000E+00  0.00000000000E+00 -0.70744508143E+03  0.70744508864E+03  0.10100000352E+00 0.  1.
    10030    2    1    2    0    0  0.00000000000E+00  0.00000000000E+00 -0.54071961656E+03  0.87417058410E+03  0.68687444732E+03 0.  0.
        3    1    3    3  502    0 -0.11380353993E+03 -0.31805572740E+03 -0.19151095973E+03  0.38831321035E+03  0.10100000352E+00 0.  1.
       -3    1    3    3    0  502  0.11380353993E+03  0.31805572740E+03 -0.34920865682E+03  0.48585737376E+03  0.10100000352E+00 0. -1.
</event>
<event>
 5   0  0.2439375E-02  0.7117548E+03  0.7818609E-02  0.9697338E-01
        4   -1    0    0  501    0  0.00000000000E+00  0.00000000000E+00  0.52831608786E+03  0.52831761431E+03  0.12699999809E+01 0. -1.
       -4   -1    0    0    0  501  0.00000000000E+00  0.00000000000E+00 -0.23971793442E+03  0.23972129856E+03  0.12699999809E+01 0.  1.
    10030    2    1    2    0    0  0.00000000000E+00  0.00000000000E+00  0.28859815345E+03  0.76803891287E+03  0.71175478749E+03 0.  0.
        2    1    3    3  502    0 -0.23357898142E+03 -0.65752790996E+02 -0.13660576917E+03  0.27846670584E+03  0.25500000920E-02 0.  1.
       -2    1    3    3    0  502  0.23357898142E+03  0.65752790996E+02  0.42520392261E+03  0.48957220703E+03  0.25500000920E-02 0. -1.
</event>
<event>
 5   0  0.6131198E-02  0.6686256E+03  0.7818609E-02  0.9772444E-01
       -2   -1    0    0    0  501  0.00000000000E+00  0.00000000000E+00  0.52584548772E+02  0.52584548833E+02  0.25500000920E-02 0.  1.
        2   -1    0    0  501    0  0.00000000000E+00  0.00000000000E+00 -0.21254350400E+04  0.21254350400E+04  0.25500000920E-02 0. -1.
    10030    2    1    2    0    0  0.00000000000E+00  0.00000000000E+00 -0.20728504912E+04  0.21780195888E+04  0.66862558309E+03 0.  0.
        1    1    3    3  502    0  0.92195590571E+02  0.19557590880E+03 -0.20583688495E+03  0.29852769764E+03  0.50400001928E-02 0.  1.
       -1    1    3    3    0  502 -0.92195590571E+02 -0.19557590880E+03 -0.18670136063E+04  0.18794918912E+04  0.50400001928E-02 0. -1.
</event>
<event>
 5   0  0.3601475E-02  0.6765989E+03  0.7818609E-02  0.9758110E-01
        1   -1    0    0  501    0  0.00000000000E+00  0.00000000000E+00  0.64723997323E+03  0.64723997325E+03  0.50400001928E-02 0. -1.
       -1   -1    0    0    0  501  0.00000000000E+00  0.00000000000E+00 -0.17682240688E+03  0.17682240696E+03  0.50400001928E-02 0.  1.
    10030    2    1    2    0    0  0.00000000000E+00  0.00000000000E+00  0.47041756634E+03  0.82406238020E+03  0.67659893567E+03 0.  0.
        5    1    3    3  502    0  0.43364093025E+02 -0.18570886352E+03 -0.10506815604E+03  0.21778345659E+03  0.46999998093E+01 0.  1.
       -5    1    3    3    0  502 -0.43364093025E+02  0.18570886352E+03  0.57548572238E+03  0.60627892361E+03  0.46999998093E+01 0. -1.
</event>
<event>
 5   0  0.3755872E-02  0.5062684E+03  0.7818609E-02  0.1012156E+00
       -1   -1    0    0    0  501  0.00000000000E+00  0.00000000000E+00  0.12798830213E+03  0.12798830223E+03  0.50400001928E-02 0.  1.
        1   -1    0    0  501    0  0.00000000000E+00  0.00000000000E+00 -0.50064661792E+03  0.50064661795E+03  0.50400001928E-02 0. -1.
    10030    2    1    2    0    0  0.00000000000E+00  0.00000000000E+00 -0.37265831579E+03  0.62863492017E+03  0.50626835032E+03 0.  0.
        2    1    3    3  502    0  0.20492533764E+03  0.14836925136E+03 -0.19664963495E+03  0.32043549692E+03  0.25500000920E-02 0.  1.
       -2    1    3    3    0  502 -0.20492533764E+03 -0.14836925136E+03 -0.17600868084E+03  0.30819942325E+03  0.25500000920E-02 0. -1.
</event>
<event>
 5   0  0.3439015E-02  0.6936168E+03  0.7818609E-02  0.9728211E-01
       -1   -1    0    0    0  501  0.00000000000E+00  0.00000000000E+00  0.23134397297E+03  0.23134397302E+03  0.50400001928E-02 0. -1.
        1   -1    0    0  501    0  0.00000000000E+00  0.00000000000E+00 -0.51990150322E+03  0.51990150325E+03  0.50400001928E-02 0.  1.
    10030    2    1    2    0    0  0.00000000000E+00  0.00000000000E+00 -0.28855753026E+03  0.75124547627E+03  0.69361683756E+03 0.  0.
        1    1    3    3  502    0 -0.27803105892E+03 -0.18394560859E+03 -0.24781857612E+03  0.41539295052E+03  0.50400001928E-02 0.  1.
       -1    1    3    3    0  502  0.27803105892E+03  0.18394560859E+03 -0.40738954141E+02  0.33585252575E+03  0.50400001928E-02 0. -1.
</event>
<event>
 5   0  0.5987810E-02  0.7088345E+03  0.7818609E-02  0.9702242E-01
       -2   -1    0    0    0  501  0.00000000000E+00  0.00000000000E+00  0.16508083291E+03  0.16508083293E+03  0.25500000920E-02 0. -1.
        2   -1    0    0  501    0  0.00000000000E+00  0.00000000000E+00 -0.76090959319E+03  0.76090959320E+03  0.25500000920E-02 0.  1.
    10030    2    1    2    0    0  0.00000000000E+00  0.00000000000E+00 -0.59582876029E+03  0.92599042612E+03  0.70883450656E+03 0.  0.
        5    1    3    3  502    0  0.13323666085E+03  0.15043035250E+03  0.83416822042E+02  0.21762756017E+03  0.46999998093E+01 0. -1.
       -5    1    3    3    0  502 -0.13323666085E+03 -0.15043035250E+03 -0.67924558233E+03  0.70836286595E+03  0.46999998093E+01 0.  1.
</event>
<event>
 5   0  0.5987810E-02  0.7083906E+03  0.7818609E-02  0.9702990E-01
        2   -1    0    0  501    0  0.00000000000E+00  0.00000000000E+00  0.15140100961E+04  0.15140100961E+04  0.25500000920E-02 0.  1.
       -2   -1    0    0    0  501  0.00000000000E+00  0.00000000000E+00 -0.82862275350E+02  0.82862275389E+02  0.25500000920E-02 0. -1.
    10030    2    1    2    0    0  0.00000000000E+00  0.00000000000E+00  0.14311478207E+04  0.15968723715E+04  0.70839063093E+03 0.  0.
        5    1    3    3  502    0 -0.29729546813E+02 -0.10805590379E+03 -0.41766445760E+02  0.11969315055E+03  0.46999998093E+01 0. -1.
       -5    1    3    3    0  502  0.29729546813E+02  0.10805590379E+03  0.14729142665E+04  0.14771792209E+04  0.46999998093E+01 0.  1.
</event>
<event>
 5   0  0.6167756E-02  0.6996712E+03  0.7818609E-02  0.9717795E-01
        2   -1    0    0  501    0  0.00000000000E+00  0.00000000000E+00  0.15371301608E+04  0.15371301608E+04  0.25500000920E-02 0. -1.
       -2   -1    0    0    0  501  0.00000000000E+00  0.00000000000E+00 -0.79619115940E+02  0.79619115981E+02  0.25500000920E-02 0.  1.
    10030    2    1    2    0    0  0.00000000000E+00  0.00000000000E+00  0.14575110448E+04  0.16167492767E+04  0.69967119283E+03 0.  0.
        4    1    3    3  502    0  0.31743819098E+03  0.14701400865E+03  0.73289410155E+03  0.81210559708E+03  0.12699999809E+01 0. -1.
       -4    1    3    3    0  502 -0.31743819098E+03 -0.14701400865E+03  0.72461694327E+03  0.80464367965E+03  0.12699999809E+01 0.  1.
</event>
<event>
 5   0  0.3601475E-02  0.6803347E+03  0.7818609E-02  0.9751466E-01
       -1   -1    0    0    0  501  0.00000000000E+00  0.00000000000E+00  0.18029588056E+03  0.18029588063E+03  0.50400001928E-02 0.  1.
        1   -1    0    0  501    0  0.00000000000E+00  0.00000000000E+00 -0.64179966306E+03  0.64179966308E+03  0.50400001928E-02 0. -1.
    10030    2    1    2    0    0  0.00000000000E+00  0.00000000000E+00 -0.46150378250E+03  0.82209554371E+03  0.68033472771E+03 0.  0.
        5    1    3    3  502    0  0.16947091791E+03 -0.28239083069E+03 -0.12802791178E+03  0.35338111079E+03  0.46999998093E+01 0. -1.
       -5    1    3    3    0  502 -0.16947091791E+03  0.28239083069E+03 -0.33347587072E+03  0.46871443291E+03  0.46999998093E+01 0.  1.
</event>
<event>
 5   0  0.5899787E-02  0.6982019E+03  0.7818609E-02  0.9720312E-01
       -2   -1    0    0    0  501  0.00000000000E+00  0.00000000000E+00  0.84829354403E+02  0.84829354442E+02  0.25500000920E-02 0. -1.
        2   -1    0    0  501    0  0.00000000000E+00  0.00000000000E+00 -0.14366662741E+04  0.14366662741E+04  0.25500000920E-02 0.  1.
    10030    2    1    2    0    0  0.00000000000E+00  0.00000000000E+00 -0.13518369196E+04  0.15214956285E+04  0.69820189788E+03 0.  0.
        2    1    3    3  502    0  0.30319878479E+03  0.12764227067E+03 -0.93051165151E+03  0.98695186608E+03  0.25500000920E-02 0.  1.
       -2    1    3    3    0  502 -0.30319878479E+03 -0.12764227067E+03 -0.42132526814E+03  0.53454376242E+03  0.25500000920E-02 0. -1.
</event>
<event>
 5   0  0.3755872E-02  0.6757278E+03  0.7818609E-02  0.9759665E-01
        1   -1    0    0  501    0  0.00000000000E+00  0.00000000000E+00  0.87372212595E+03  0.87372212597E+03  0.50400001928E-02 0. -1.
       -1   -1    0    0    0  501  0.00000000000E+00  0.00000000000E+00 -0.13065025436E+03  0.13065025445E+03  0.50400001928E-02 0.  1.
    10030    2    1    2    0    0  0.00000000000E+00  0.00000000000E+00  0.74307187160E+03  0.10043723804E+04  0.67572780925E+03 0.  0.
        2    1    3    3  502    0  0.22609663374E+03 -0.10733755783E+03  0.70887984293E+03  0.75176570208E+03  0.25500000920E-02 0. -1.
       -2    1    3    3    0  502 -0.22609663374E+03  0.10733755783E+03  0.34192028666E+02  0.25260667834E+03  0.25500000920E-02 0.  1.
</event>
<event>
 5   0  0.5899787E-02  0.6989797E+03  0.7818609E-02  0.9718979E-01
        2   -1    0    0  501    0  0.00000000000E+00  0.00000000000E+00  0.14542965119E+04  0.14542965119E+04  0.25500000920E-02 0.  1.
       -2   -1    0    0    0  501  0.00000000000E+00  0.00000000000E+00 -0.83987792312E+02  0.83987792351E+02  0.25500000920E-02 0. -1.
    10030    2    1    2    0    0  0.00000000000E+00  0.00000000000E+00  0.13703087196E+04  0.15382843043E+04  0.69897969480E+03 0.  0.
        2    1    3    3  502    0 -0.17791040536E+03  0.20143036244E+03  0.11768491826E+04  0.12071455181E+04  0.25500000920E-02 0.  1.
       -2    1    3    3    0  502  0.17791040536E+03 -0.20143036244E+03  0.19345953701E+03  0.33113878618E+03  0.25500000920E-02 0. -1.
</event>
<event>
 5   0  0.3601475E-02  0.7157647E+03  0.7818609E-02  0.9690646E-01
       -1   -1    0    0    0  501  0.00000000000E+00  0.00000000000E+00  0.24217883958E+03  0.24217883963E+03  0.50400001928E-02 0. -1.
        1   -1    0    0  501    0  0.00000000000E+00  0.00000000000E+00 -0.52886440099E+03  0.52886440102E+03  0.50400001928E-02 0.  1.
    10030    2    1    2    0    0  0.00000000000E+00  0.00000000000E+00 -0.28668556141E+03  0.77104324065E+03  0.71576467350E+03 0.  0.
        5    1    3    3  502    0 -0.10944558357E+03 -0.33838631748E+03 -0.10060454984E+03  0.36963089842E+03  0.46999998093E+01 0. -1.
       -5    1    3    3    0  502  0.10944558357E+03  0.33838631748E+03 -0.18608101157E+03  0.40141234222E+03  0.46999998093E+01 0.  1.
</event>
<event>
 5   0  0.6167756E-02  0.6840786E+03  0.7818609E-02  0.9744854E-01
       -2   -1    0    0    0  501  0.00000000000E+00  0.00000000000E+00  0.11228490420E+03  0.11228490423E+03  0.25500000920E-02 0. -1.
        2   -1    0    0  501    0  0.00000000000E+00  0.00000000000E+00 -0.10419111931E+04  0.10419111931E+04  0.25500000920E-02 0.  1.
    10030    2    1    2    0    0  0.00000000000E+00  0.00000000000E+00 -0.92962628889E+03  0.11541960973E+04  0.68407864611E+03 0.  0.
        4    1    3    3  502    0 -0.16190982287E+03  0.11509458212E+03 -0.93460134797E+03  0.95548042685E+03  0.12699999809E+01 0.  1.
       -4    1    3    3    0  502  0.16190982287E+03 -0.11509458212E+03  0.49750590796E+01  0.19871567046E+03  0.12699999809E+01 0. -1.
</event>
<event>
 5   0  0.3439015E-02  0.7064246E+03  0.7818609E-02  0.9706308E-01
        1   -1    0    0  501    0  0.00000000000E+00  0.00000000000E+00  0.30885848501E+03  0.30885848505E+03  0.50400001928E-02 0. -1.
       -1   -1    0    0    0  501  0.00000000000E+00  0.00000000000E+00 -0.40393562047E+03  0.40393562050E+03  0.50400001928E-02 0.  1.
    10030    2    1    2    0    0  0.00000000000E+00  0.00000000000E+00 -0.95077135459E+02  0.71279410556E+03  0.70642464229E+03 0.  0.
        1    1    3    3  502    0  0.33078427759E+03 -0.19654284978E+02  0.75852285481E+02  0.33993837450E+03  0.50400001928E-02 0. -1.
       -1    1    3    3    0  502 -0.33078427759E+03  0.19654284978E+02 -0.17092942094E+03  0.37285573106E+03  0.50400001928E-02 0.  1.
</event>
<event>
 5   0  0.3601475E-02  0.6823808E+03  0.7818609E-02  0.9747847E-01
        1   -1    0    0  501    0  0.00000000000E+00  0.00000000000E+00  0.51317828268E+03  0.51317828270E+03  0.50400001928E-02 0. -1.
       -1   -1    0    0    0  501  0.00000000000E+00  0.00000000000E+00 -0.22684297171E+03  0.22684297177E+03  0.50400001928E-02 0.  1.
    10030    2    1    2    0    0  0.00000000000E+00  0.00000000000E+00  0.28633531096E+03  0.74002125447E+03  0.68238079308E+03 0.  0.
        5    1    3    3  502    0 -0.25946797297E+03  0.56165605512E+01  0.38330758914E+03  0.46292761059E+03  0.46999998093E+01 0. -1.
       -5    1    3    3    0  502  0.25946797297E+03 -0.56165605512E+01 -0.96972278178E+02  0.27709364389E+03  0.46999998093E+01 0.  1.
</event>
<event>
 5   0  0.3749730E-02  0.6824295E+03  0.7818609E-02  0.9747761E-01
       -1   -1    0    0    0  501  0.00000000000E+00  0.00000000000E+00  0.68199427807E+03  0.68199427809E+03  0.50400001928E-02 0.  1.
        1   -1    0    0  501    0  0.00000000000E+00  0.00000000000E+00 -0.17071624079E+03  0.17071624086E+03  0.50400001928E-02 0. -1.
    10030    2    1    2    0    0  0.00000000000E+00  0.00000000000E+00  0.51127803728E+03  0.85271051895E+03  0.68242948187E+03 0.  0.
        4    1    3    3  502    0  0.77269059144E+02  0.31933954362E+03  0.37068758060E+03  0.49533740716E+03  0.12699999809E+01 0.  1.
       -4    1    3    3    0  502 -0.77269059144E+02 -0.31933954362E+03  0.14059045668E+03  0.35737311179E+03  0.12699999809E+01 0. -1.
</event>
<event>
 5   0  0.5899787E-02  0.6734216E+03  0.7818609E-02  0.9763796E-01
        2   -1    0    0  501    0  0.00000000000E+00  0.00000000000E+00  0.19257312030E+03  0.19257312031E+03  0.25500000920E-02 0.  1.
       -2   -1    0    0    0  501  0.00000000000E+00  0.00000000000E+00 -0.58873298438E+03  0.58873298439E+03  0.25500000920E-02 0. -1.
    10030    2    1    2    0    0  0.00000000000E+00  0.00000000000E+00 -0.39615986409E+03  0.78130610470E+03  0.67342155544E+03 0.  0.
        2    1    3    3  502    0 -0.81410478889E+01 -0.84432200063E+02  0.17997392428E+03  0.19896152014E+03  0.25500000920E-02 0.  1.
       -2    1    3    3    0  502  0.81410478889E+01  0.84432200063E+02 -0.57613378837E+03  0.58234458457E+03  0.25500000920E-02 0. -1.
</event>
<event>
 5   0  0.6248886E-02  0.6919632E+03  0.7818609E-02  0.9731076E-01
        2   -1    0    0  501    0  0.00000000000E+00  0.00000000000E+00  0.34004821534E+03  0.34004821535E+03  0.25500000920E-02 0.  1.
       -2   -1    0    0    0  501  0.00000000000E+00  0.00000000000E+00 -0.35201855315E+03  0.35201855316E+03  0.25500000920E-02 0. -1.
    10030    2    1    2    0    0  0.00000000000E+00  0.00000000000E+00 -0.11970337813E+02  0.69206676851E+03  0.69196323825E+03 0.  0.
        3    1    3    3  502    0  0.47800208705E+02  0.31101853057E+03 -0.14983256963E+03  0.34852144185E+03  0.10100000352E+00 0. -1.
       -3    1    3    3    0  502 -0.47800208705E+02 -0.31101853057E+03  0.13786223182E+03  0.34354532666E+03  0.10100000352E+00 0.  1.
</event>
<event>
 5   0  0.3717372E-02  0.7293996E+03  0.7818609E-02  0.9668235E-01
       -1   -1    0    0    0  501  0.00000000000E+00  0.00000000000E+00  0.14884772314E+03  0.14884772322E+03  0.50400001928E-02 0.  1.
        1   -1    0    0  501    0  0.00000000000E+00  0.00000000000E+00 -0.89357052429E+03  0.89357052430E+03  0.50400001928E-02 0. -1.
    10030    2    1    2    0    0  0.00000000000E+00  0.00000000000E+00 -0.74472280115E+03  0.10424182475E+04  0.72939958337E+03 0.  0.
        3    1    3    3  502    0 -0.11063920029E+03  0.22487443732E+03  0.62850242187E+01  0.25069714185E+03  0.10100000352E+00 0.  1.
       -3    1    3    3    0  502  0.11063920029E+03 -0.22487443732E+03 -0.75100782537E+03  0.79172110567E+03  0.10100000352E+00 0. -1.
</event>
<event>
 5   0  0.5987810E-02  0.7140962E+03  0.7818609E-02  0.9693425E-01
        2   -1    0    0  501    0  0.00000000000E+00  0.00000000000E+00  0.10526363772E+04  0.10526363772E+04  0.25500000920E-02 0.  1.
       -2   -1    0    0    0  501  0.00000000000E+00  0.00000000000E+00 -0.12110862956E+03  0.12110862959E+03  0.25500000920E-02 0. -1.
    10030    2    1    2    0    0  0.00000000000E+00  0.00000000000E+00  0.93152774767E+03  0.11737450068E+04  0.71409620946E+03 0.  0.
        5    1    3    3  502    0 -0.18464676552E+02 -0.15145064496E+03 -0.64772903283E+02  0.16581875991E+03  0.46999998093E+01 0. -1.
       -5    1    3    3    0  502  0.18464676552E+02  0.15145064496E+03  0.99630065096E+03  0.10079262469E+04  0.46999998093E+01 0.  1.
</event>
<event>
 5   0  0.5987810E-02  0.7097145E+03  0.7818609E-02  0.9700762E-01
       -2   -1    0    0    0  501  0.00000000000E+00  0.00000000000E+00  0.25007698043E+03  0.25007698044E+03  0.25500000920E-02 0.  1.
        2   -1    0    0  501    0  0.00000000000E+00  0.00000000000E+00 -0.50353966107E+03  0.50353966108E+03  0.25500000920E-02 0. -1.
    10030    2    1    2    0    0  0.00000000000E+00  0.00000000000E+00 -0.25346268065E+03  0.75361664152E+03  0.70971452845E+03 0.  0.
        5    1    3    3  502    0  0.20095824988E+03 -0.27719731421E+03 -0.22565543816E+03  0.41007930449E+03  0.46999998093E+01 0. -1.
       -5    1    3    3    0  502 -0.20095824988E+03  0.27719731421E+03 -0.27807242484E+02  0.34353733703E+03  0.46999998093E+01 0.  1.
</event>
<event>
 5   0  0.5987810E-02  0.6959433E+03  0.7818609E-02  0.9724195E-01
        2   -1    0    0  501    0  0.00000000000E+00  0.00000000000E+00  0.89160513924E+03  0.89160513924E+03  0.25500000920E-02 0. -1.
       -2   -1    0    0    0  501  0.00000000000E+00  0.00000000000E+00 -0.13580482830E+03  0.13580482832E+03  0.25500000920E-02 0.  1.
    10030    2    1    2    0    0  0.00000000000E+00  0.00000000000E+00  0.75580031094E+03  0.10274099676E+04  0.69594333923E+03 0.  0.
        5    1    3    3  502    0 -0.83211746551E+02 -0.86981599639E-01 -0.12085224998E+03  0.14680449126E+03  0.46999998093E+01 0.  1.
       -5    1    3    3    0  502  0.83211746551E+02  0.86981599639E-01  0.87665256092E+03  0.88060547630E+03  0.46999998093E+01 0. -1.
</event>
<event>
 5   0  0.3749730E-02  0.7059672E+03  0.7818609E-02  0.9707082E-01
        1   -1    0    0  501    0  0.00000000000E+00  0.00000000000E+00  0.98576642828E+02  0.98576642957E+02  0.50400001928E-02 0. -1.
       -1   -1    0    0    0  501  0.00000000000E+00  0.00000000000E+00 -0.12639648033E+04  0.12639648033E+04  0.50400001928E-02 0.  1.
    10030    2    1    2    0    0  0.00000000000E+00  0.00000000000E+00 -0.11653881605E+04  0.13625414462E+04  0.70596715803E+03 0.  0.
        4    1    3    3  502    0  0.35903913757E+02 -0.17279164686E+03  0.73090224261E+01  0.17663827150E+03  0.12699999809E+01 0. -1.
       -4    1    3    3    0  502 -0.35903913757E+02  0.17279164686E+03 -0.11726971829E+04  0.11859031748E+04  0.12699999809E+01 0.  1.
</event>
<event>
 5   0  0.6167756E-02  0.7016711E+03  0.7818609E-02  0.9714379E-01
       -2   -1    0    0    0  501  0.00000000000E+00  0.00000000000E+00  0.12950046068E+03  0.12950046070E+03  0.25500000920E-02 0. -1.
        2   -1    0    0  501    0  0.00000000000E+00  0.00000000000E+00 -0.95046451902E+03  0.95046451902E+03  0.25500000920E-02 0.  1.
    10030    2    1    2    0    0  0.00000000000E+00  0.00000000000E+00 -0.82096405834E+03  0.10799649797E+04  0.70167112834E+03 0.  0.
        4    1    3    3  502    0 -0.92377931462E+02 -0.13423697192E+03  0.67717196466E+02  0.17646664968E+03  0.12699999809E+01 0. -1.
       -4    1    3    3    0  502  0.92377931462E+02  0.13423697192E+03 -0.88868125481E+03  0.90349833005E+03  0.12699999809E+01 0.  1.
</event>
<event>
 5   0  0.3439015E-02  0.7124956E+03  0.7818609E-02  0.9696098E-01
        1   -1    0    0  501    0  0.00000000000E+00  0.00000000000E+00  0.61907219958E+03  0.61907219960E+03  0.50400001928E-02 0. -1.
       -1   -1    0    0    0  501  0.00000000000E+00  0.00000000000E+00 -0.20500436802E+03  0.20500436808E+03  0.50400001928E-02 0.  1.
    10030    2    1    2    0    0  0.00000000000E+00  0.00000000000E+00  0.41406783157E+03  0.82407656768E+03  0.71249562824E+03 0.  0.
        1    1    3    3  502    0 -0.78569870473E+02  0.19528723701E+03  0.53944929198E+03  0.57906464935E+03  0.50400001928E-02 0. -1.
       -1    1    3    3    0  502  0.78569870473E+02 -0.19528723701E+03 -0.12538146042E+03  0.24501191833E+03  0.50400001928E-02 0.  1.
</event>
<event>
 5   0  0.2439375E-02  0.6473643E+03  0.7818609E-02  0.9811737E-01
        3   -1    0    0  501    0  0.00000000000E+00  0.00000000000E+00  0.76204518262E+03  0.76204518932E+03  0.10100000352E+00 0.  1.
       -3   -1    0    0    0  501  0.00000000000E+00  0.00000000000E+00 -0.13748543930E+03  0.13748547640E+03  0.10100000352E+00 0. -1.
    10030    2    1    2    0    0  0.00000000000E+00  0.00000000000E+00  0.62455974332E+03  0.89953066571E+03  0.64736430669E+03 0.  0.
        4    1    3    3  502    0 -0.40200524877E+02 -0.32113320476E+03  0.31935229373E+03  0.45467583816E+03  0.12699999809E+01 0.  1.
       -4    1    3    3    0  502  0.40200524877E+02  0.32113320476E+03  0.30520744960E+03  0.44485482755E+03  0.12699999809E+01 0. -1.
</event>
<event>
 5   0  0.3439015E-02  0.6783790E+03  0.7818609E-02  0.9754939E-01
        1   -1    0    0  501    0  0.00000000000E+00  0.00000000000E+00  0.88532592008E+03  0.88532592010E+03  0.50400001928E-02 0. -1.
       -1   -1    0    0    0  501  0.00000000000E+00  0.00000000000E+00 -0.12995158095E+03  0.12995158104E+03  0.50400001928E-02 0.  1.
    10030    2    1    2    0    0  0.00000000000E+00  0.00000000000E+00  0.75537433914E+03  0.10152775011E+04  0.67837895906E+03 0.  0.
        1    1    3    3  502    0 -0.17579165074E+03  0.18217406868E+03  0.39836661155E+02  0.25627535068E+03  0.50400001928E-02 0.  1.
       -1    1    3    3    0  502  0.17579165074E+03 -0.18217406868E+03  0.71553767798E+03  0.75900215046E+03  0.50400001928E-02 0. -1.
</event>
<event>
 5   0  0.3755872E-02  0.7066134E+03  0.7818609E-02  0.9705989E-01
       -1   -1    0    0    0  501  0.00000000000E+00  0.00000000000E+00  0.29647209473E+03  0.29647209477E+03  0.50400001928E-02 0.  1.
        1   -1    0    0  501    0  0.00000000000E+00  0.00000000000E+00 -0.42103665239E+03  0.42103665242E+03  0.50400001928E-02 0. -1.
    10030    2    1    2    0    0  0.00000000000E+00  0.00000000000E+00 -0.12456455766E+03  0.71750874719E+03  0.70661338316E+03 0.  0.
        2    1    3    3  502    0  0.31173390414E+03 -0.61364694325E+02  0.94638471320E+02  0.33151182930E+03  0.25500000920E-02 0.  1.
       -2    1    3    3    0  502 -0.31173390414E+03  0.61364694325E+02 -0.21920302898E+03  0.38599691789E+03  0.25500000920E-02 0. -1.
</event>
<event>
 5   0  0.6167756E-02  0.6866445E+03  0.7818609E-02  0.9740348E-01
       -2   -1    0    0    0  501  0.00000000000E+00  0.00000000000E+00  0.15842808098E+03  0.15842808100E+03  0.25500000920E-02 0. -1.
        2   -1    0    0  501    0  0.00000000000E+00  0.00000000000E+00 -0.74399788018E+03  0.74399788019E+03  0.25500000920E-02 0.  1.
    10030    2    1    2    0    0  0.00000000000E+00  0.00000000000E+00 -0.58556979920E+03  0.90242596119E+03  0.68664446819E+03 0.  0.
        4    1    3    3  502    0 -0.11767225651E+03  0.52359818085E+01 -0.71660794247E+03  0.72622498688E+03  0.12699999809E+01 0.  1.
       -4    1    3    3    0  502  0.11767225651E+03 -0.52359818085E+01  0.13103814326E+03  0.17620097431E+03  0.12699999809E+01 0. -1.
</event>
<event>
 5   0  0.3749730E-02  0.7071443E+03  0.7818609E-02  0.9705092E-01
        1   -1    0    0  501    0  0.00000000000E+00  0.00000000000E+00  0.92152161620E+03  0.92152161621E+03  0.50400001928E-02 0. -1.
       -1   -1    0    0    0  501  0.00000000000E+00  0.00000000000E+00 -0.13565962592E+03  0.13565962602E+03  0.50400001928E-02 0.  1.
    10030    2    1    2    0    0  0.00000000000E+00  0.00000000000E+00  0.78586199028E+03  0.10571812422E+04  0.70714433545E+03 0.  0.
        4    1    3    3  502    0 -0.32648503916E+03 -0.12782176466E+03  0.32473568259E+03  0.47789722825E+03  0.12699999809E+01 0.  1.
       -4    1    3    3    0  502  0.32648503916E+03  0.12782176466E+03  0.46112630769E+03  0.57928401398E+03  0.12699999809E+01 0. -1.
</event>
<event>
 5   0  0.3439015E-02  0.7081702E+03  0.7818609E-02  0.9703361E-01
        1   -1    0    0  501    0  0.00000000000E+00  0.00000000000E+00  0.23618823028E+03  0.23618823033E+03  0.50400001928E-02 0. -1.
       -1   -1    0    0    0  501  0.00000000000E+00  0.00000000000E+00 -0.53083191215E+03  0.53083191217E+03  0.50400001928E-02 0.  1.
    10030    2    1    2    0    0  0.00000000000E+00  0.00000000000E+00 -0.29464368187E+03  0.76702014250E+03  0.70817017711E+03 0.  0.
        1    1    3    3  502    0 -0.14290076684E+03 -0.18418657077E+03  0.14134232798E+03  0.27262240502E+03  0.50400001928E-02 0. -1.
       -1    1    3    3    0  502  0.14290076684E+03  0.18418657077E+03 -0.43598600985E+03  0.49439773748E+03  0.50400001928E-02 0.  1.
</event>
<event>
 5   0  0.6131198E-02  0.7010157E+03  0.7818609E-02  0.9715497E-01
        2   -1    0    0  501    0  0.00000000000E+00  0.00000000000E+00  0.57385889290E+03  0.57385889290E+03  0.25500000920E-02 0.  1.
       -2   -1    0    0    0  501  0.00000000000E+00  0.00000000000E+00 -0.21408702967E+03  0.21408702968E+03  0.25500000920E-02 0. -1.
    10030    2    1    2    0    0  0.00000000000E+00  0.00000000000E+00  0.35977186323E+03  0.78794592259E+03  0.70101567982E+03 0.  0.
        1    1    3    3  502    0  0.24288778324E+03  0.13697018030E+02  0.46351360028E+03  0.52347582677E+03  0.50400001928E-02 0.  1.
       -1    1    3    3    0  502 -0.24288778324E+03 -0.13697018030E+02 -0.10374173704E+03  0.26447009581E+03  0.50400001928E-02 0. -1.
</event>
<event>
 5   0  0.2439375E-02  0.7006773E+03  0.7818609E-02  0.9716075E-01
        3   -1    0    0  501    0  0.00000000000E+00  0.00000000000E+00  0.47128744612E+03  0.47128745695E+03  0.10100000352E+00 0.  1.
       -3   -1    0    0    0  501  0.00000000000E+00  0.00000000000E+00 -0.26042953693E+03  0.26042955651E+03  0.10100000352E+00 0. -1.
    10030    2    1    2    0    0  0.00000000000E+00  0.00000000000E+00  0.21085790919E+03  0.73171701346E+03  0.70067733652E+03 0.  0.
        5    1    3    3  502    0  0.14040191395E+03 -0.20034405270E+03  0.36726434882E+03  0.44131126068E+03  0.46999998093E+01 0.  1.
       -5    1    3    3    0  502 -0.14040191395E+03  0.20034405270E+03 -0.15640643962E+03  0.29040575278E+03  0.46999998093E+01 0. -1.
</event>
<event>
 5   0  0.5987810E-02  0.7125626E+03  0.7818609E-02  0.9695986E-01
        2   -1    0    0  501    0  0.00000000000E+00  0.00000000000E+00  0.13671259784E+04  0.13671259784E+04  0.25500000920E-02 0. -1.
       -2   -1    0    0    0  501  0.00000000000E+00  0.00000000000E+00 -0.92849061588E+02  0.92849061623E+02  0.25500000920E-02 0.  1.
    10030    2    1    2    0    0  0.00000000000E+00  0.00000000000E+00  0.12742769168E+04  0.14599750400E+04  0.71256259849E+03 0.  0.
        5    1    3    3  502    0 -0.52439604955E+02  0.14651434008E+03  0.12937419851E+04  0.13030758912E+04  0.46999998093E+01 0. -1.
       -5    1    3    3    0  502  0.52439604955E+02 -0.14651434008E+03 -0.19465068368E+02  0.15689914882E+03  0.46999998093E+01 0.  1.
</event>
<event>
 5   0  0.3749730E-02  0.6978319E+03  0.7818609E-02  0.9720947E-01
       -1   -1    0    0    0  501  0.00000000000E+00  0.00000000000E+00  0.14273409512E+03  0.14273409521E+03  0.50400001928E-02 0. -1.
        1   -1    0    0  501    0  0.00000000000E+00  0.00000000000E+00 -0.85293094901E+03  0.85293094903E+03  0.50400001928E-02 0.  1.
    10030    2    1    2    0    0  0.00000000000E+00  0.00000000000E+00 -0.71019685390E+03  0.99566504423E+03  0.69783186300E+03 0.  0.
        4    1    3    3  502    0 -0.23007397619E+03  0.13112444305E+03 -0.30951230387E+02  0.26662191517E+03  0.12699999809E+01 0. -1.
       -4    1    3    3    0  502  0.23007397619E+03 -0.13112444305E+03 -0.67924562351E+03  0.72904312907E+03  0.12699999809E+01 0.  1.
</event>
<event>
 5   0  0.6167756E-02  0.6951109E+03  0.7818609E-02  0.9725630E-01
       -2   -1    0    0    0  501  0.00000000000E+00  0.00000000000E+00  0.18333363130E+03  0.18333363132E+03  0.25500000920E-02 0. -1.
        2   -1    0    0  501    0  0.00000000000E+00  0.00000000000E+00 -0.65887964963E+03  0.65887964963E+03  0.25500000920E-02 0.  1.
    10030    2    1    2    0    0  0.00000000000E+00  0.00000000000E+00 -0.47554601833E+03  0.84221328095E+03  0.69511092285E+03 0.  0.
        4    1    3    3  502    0 -0.79036925148E+02 -0.33460082804E+03 -0.29941880774E+03  0.45591422986E+03  0.12699999809E+01 0. -1.
       -4    1    3    3    0  502  0.79036925148E+02  0.33460082804E+03 -0.17612721059E+03  0.38629905109E+03  0.12699999809E+01 0.  1.
</event>
<event>
 5   0  0.5899787E-02  0.7354364E+03  0.7818609E-02  0.9658479E-01
        2   -1    0    0  501    0  0.00000000000E+00  0.00000000000E+00  0.14768968065E+04  0.14768968065E+04  0.25500000920E-02 0.  1.
       -2   -1    0    0    0  501  0.00000000000E+00  0.00000000000E+00 -0.91554588387E+02  0.91554588422E+02  0.25500000920E-02 0. -1.
    10030    2    1    2    0    0  0.00000000000E+00  0.00000000000E+00  0.13853422181E+04  0.15684513949E+04  0.73543641257E+03 0.  0.
        2    1    3    3  502    0 -0.83847385957E+02 -0.20798789840E+03  0.13141833254E+04  0.13331793438E+04  0.25500000920E-02 0.  1.
       -2    1    3    3    0  502  0.83847385957E+02  0.20798789840E+03  0.71158892712E+02  0.23527205111E+03  0.25500000920E-02 0. -1.
</event>
<event>
 5   0  0.3439015E-02  0.6975174E+03  0.7818609E-02  0.9721487E-01
        1   -1    0    0  501    0  0.00000000000E+00  0.00000000000E+00  0.13826843495E+04  0.13826843495E+04  0.50400001928E-02 0. -1.
       -1   -1    0    0    0  501  0.00000000000E+00  0.00000000000E+00 -0.87968462622E+02  0.87968462766E+02  0.50400001928E-02 0.  1.
    10030    2    1    2    0    0  0.00000000000E+00  0.00000000000E+00  0.12947158869E+04  0.14706528123E+04  0.69751735929E+03 0.  0.
        1    1    3    3  502    0  0.95133830978E+02 -0.30764389723E+03  0.36497729983E+03  0.48672748301E+03  0.50400001928E-02 0. -1.
       -1    1    3    3    0  502 -0.95133830978E+02  0.30764389723E+03  0.92973858703E+03  0.98392532925E+03  0.50400001928E-02 0.  1.
</event>
<event>
 5   0  0.5899787E-02  0.6843567E+03  0.7818609E-02  0.9744365E-01
       -2   -1    0    0    0  501  0.00000000000E+00  0.00000000000E+00  0.20373801905E+03  0.20373801907E+03  0.25500000920E-02 0. -1.
        2   -1    0    0  501    0  0.00000000000E+00  0.00000000000E+00 -0.57468907032E+03  0.57468907032E+03  0.25500000920E-02 0.  1.
    10030    2    1    2    0    0  0.00000000000E+00  0.00000000000E+00 -0.37095105126E+03  0.77842708939E+03  0.68435666948E+03 0.  0.
        2    1    3    3  502    0  0.12915254870E+03 -0.24781838746E+03 -0.41008155164E+03  0.49624712896E+03  0.25500000920E-02 0. -1.
       -2    1    3    3    0  502 -0.12915254870E+03  0.24781838746E+03  0.39130500379E+02  0.28217996043E+03  0.25500000920E-02 0.  1.
</event>
<event>
 5   0  0.3755872E-02  0.7045473E+03  0.7818609E-02  0.9709487E-01
        1   -1    0    0  501    0  0.00000000000E+00  0.00000000000E+00  0.11487334147E+04  0.11487334147E+04  0.50400001928E-02 0. -1.
       -1   -1    0    0    0  501  0.00000000000E+00  0.00000000000E+00 -0.10802917181E+03  0.10802917193E+03  0.50400001928E-02 0.  1.
    10030    2    1    2    0    0  0.00000000000E+00  0.00000000000E+00  0.10407042429E+04  0.12567625867E+04  0.70454728587E+03 0.  0.
        2    1    3    3  502    0 -0.64164060887E+02 -0.25628970503E+03  0.10470561426E+03  0.28419131809E+03  0.25500000920E-02 0.  1.
       -2    1    3    3    0  502  0.64164060887E+02  0.25628970503E+03  0.93599862866E+03  0.97257126858E+03  0.25500000920E-02 0. -1.
</event>
<event>
 5   0  0.3749730E-02  0.7006770E+03  0.7818609E-02  0.9716075E-01
        1   -1    0    0  501    0  0.00000000000E+00  0.00000000000E+00  0.47986264684E+03  0.47986264686E+03  0.50400001928E-02 0.  1.
       -1   -1    0    0    0  501  0.00000000000E+00  0.00000000000E+00 -0.25577540146E+03  0.25577540151E+03  0.50400001928E-02 0. -1.
    10030    2    1    2    0    0  0.00000000000E+00  0.00000000000E+00  0.22408724538E+03  0.73563804837E+03  0.70067699026E+03 0.  0.
        4    1    3    3  502    0 -0.13095379240E+03  0.27697505223E+03 -0.66350296316E+02  0.31347735169E+03  0.12699999809E+01 0. -1.
       -4    1    3    3    0  502  0.13095379240E+03 -0.27697505223E+03  0.29043754169E+03  0.42216069668E+03  0.12699999809E+01 0.  1.
</event>
<event>
 5   0  0.6131198E-02  0.6640858E+03  0.7818609E-02  0.9780701E-01
        2   -1    0    0  501    0  0.00000000000E+00  0.00000000000E+00  0.29396457042E+03  0.29396457043E+03  0.25500000920E-02 0.  1.
       -2   -1    0    0    0  501  0.00000000000E+00  0.00000000000E+00 -0.37505364169E+03  0.37505364170E+03  0.25500000920E-02 0. -1.
    10030    2    1    2    0    0  0.00000000000E+00  0.00000000000E+00 -0.81089071270E+02  0.66901821213E+03  0.66408578563E+03 0.  0.
        1    1    3    3  502    0 -0.14395361870E+03  0.14437856942E+03 -0.30456868638E+03  0.36651043695E+03  0.50400001928E-02 0. -1.
       -1    1    3    3    0  502  0.14395361870E+03 -0.14437856942E+03  0.22347961511E+03  0.30250777517E+03  0.50400001928E-02 0.  1.
</event>
<event>
 5   0  0.5899787E-02  0.6894221E+03  0.7818609E-02  0.9735495E-01
        2   -1    0    0  501    0  0.00000000000E+00  0.00000000000E+00  0.10424058713E+04  0.10424058713E+04  0.25500000920E-02 0. -1.
       -2   -1    0    0    0  501  0.00000000000E+00  0.00000000000E+00 -0.11399179318E+03  0.11399179321E+03  0.25500000920E-02 0.  1.
    10030    2    1    2    0    0  0.00000000000E+00  0.00000000000E+00  0.92841407812E+03  0.11563976645E+04  0.68942211891E+03 0.  0.
        2    1    3    3  502    0  0.22653332569E+02  0.92727341037E+02  0.10197957034E+04  0.10242532938E+04  0.25500000920E-02 0. -1.
       -2    1    3    3    0  502 -0.22653332569E+02 -0.92727341037E+02 -0.91381625289E+02  0.13214437067E+03  0.25500000920E-02 0.  1.
</event>
<event>
 5   0  0.3439015E-02  0.7070742E+03  0.7818609E-02  0.9705210E-01
        1   -1    0    0  501    0  0.00000000000E+00  0.00000000000E+00  0.33807443742E+03  0.33807443746E+03  0.50400001928E-02 0.  1.
       -1   -1    0    0    0  501  0.00000000000E+00  0.00000000000E+00 -0.36970699317E+03  0.36970699320E+03  0.50400001928E-02 0. -1.
    10030    2    1    2    0    0  0.00000000000E+00  0.00000000000E+00 -0.31632555743E+02  0.70778143066E+03  0.70707420757E+03 0.  0.
        1    1    3    3  502    0  0.36724989024E+02 -0.23430816335E+02 -0.36701011643E+03  0.36958646291E+03  0.50400001928E-02 0. -1.
       -1    1    3    3    0  502 -0.36724989024E+02  0.23430816335E+02  0.33537756069E+03  0.33819496775E+03  0.50400001928E-02 0.  1.
</event>
<event>
 5   0  0.3755872E-02  0.6970914E+03  0.7818609E-02  0.9722219E-01
        1   -1    0    0  501    0  0.00000000000E+00  0.00000000000E+00  0.13670464754E+04  0.13670464754E+04  0.50400001928E-02 0. -1.
       -1   -1    0    0    0  501  0.00000000000E+00  0.00000000000E+00 -0.88866101451E+02  0.88866101594E+02  0.50400001928E-02 0.  1.
    10030    2    1    2    0    0  0.00000000000E+00  0.00000000000E+00  0.12781803740E+04  0.14559125770E+04  0.69709135953E+03 0.  0.
        2    1    3    3  502    0  0.57526830088E+02 -0.33566321498E+03  0.48412907868E+03  0.59191223581E+03  0.25500000920E-02 0. -1.
       -2    1    3    3    0  502 -0.57526830088E+02  0.33566321498E+03  0.79405129529E+03  0.86400034122E+03  0.25500000920E-02 0.  1.
</event>
<event>
 5   0  0.6131198E-02  0.6458560E+03  0.7818609E-02  0.9814586E-01
       -2   -1    0    0    0  501  0.00000000000E+00  0.00000000000E+00  0.49131015515E+02  0.49131015581E+02  0.25500000920E-02 0. -1.
        2   -1    0    0  501    0  0.00000000000E+00  0.00000000000E+00 -0.21225391639E+04  0.21225391639E+04  0.25500000920E-02 0.  1.
    10030    2    1    2    0    0  0.00000000000E+00  0.00000000000E+00 -0.20734081484E+04  0.21716701795E+04  0.64585603556E+03 0.  0.
        1    1    3    3  502    0 -0.83636735672E+02  0.12747657822E+03 -0.19938984821E+04  0.19997191149E+04  0.50400001928E-02 0.  1.
       -1    1    3    3    0  502  0.83636735672E+02 -0.12747657822E+03 -0.79509666267E+02  0.17195106456E+03  0.50400001928E-02 0. -1.
</event>
<event>
 5   0  0.3755872E-02  0.7214405E+03  0.7818609E-02  0.9681253E-01
       -1   -1    0    0    0  501  0.00000000000E+00  0.00000000000E+00  0.19913799289E+03  0.19913799295E+03  0.50400001928E-02 0.  1.
        1   -1    0    0  501    0  0.00000000000E+00  0.00000000000E+00 -0.65341181029E+03  0.65341181031E+03  0.50400001928E-02 0. -1.
    10030    2    1    2    0    0  0.00000000000E+00  0.00000000000E+00 -0.45427381740E+03  0.85254980326E+03  0.72144054908E+03 0.  0.
        2    1    3    3  502    0  0.45921308545E+02  0.10115783031E+03  0.17841856854E+03  0.21017815970E+03  0.25500000920E-02 0.  1.
       -2    1    3    3    0  502 -0.45921308545E+02 -0.10115783031E+03 -0.63269238593E+03  0.64237164355E+03  0.25500000920E-02 0. -1.
</event>
<event>
 5   0  0.3439015E-02  0.7019484E+03  0.7818609E-02  0.9713906E-01
       -1   -1    0    0    0  501  0.00000000000E+00  0.00000000000E+00  0.19616263753E+03  0.19616263759E+03  0.50400001928E-02 0. -1.
        1   -1    0    0  501    0  0.00000000000E+00  0.00000000000E+00 -0.62796308960E+03  0.62796308962E+03  0.50400001928E-02 0.  1.
    10030    2    1    2    0    0  0.00000000000E+00  0.00000000000E+00 -0.43180045207E+03  0.82412572721E+03  0.70194841965E+03 0.  0.
        1    1    3    3  502    0  0.32836150563E+03  0.10002296668E+02 -0.70860189377E+02  0.33606917559E+03  0.50400001928E-02 0.  1.
       -1    1    3    3    0  502 -0.32836150563E+03 -0.10002296668E+02 -0.36094026269E+03  0.48805655162E+03  0.50400001928E-02 0. -1.
</event>
<event>
 5   0  0.2439375E-02  0.6831064E+03  0.7818609E-02  0.9746567E-01
        3   -1    0    0  501    0  0.00000000000E+00  0.00000000000E+00  0.14630611465E+04  0.14630611500E+04  0.10100000352E+00 0. -1.
       -3   -1    0    0    0  501  0.00000000000E+00  0.00000000000E+00 -0.79735931886E+02  0.79735995854E+02  0.10100000352E+00 0.  1.
    10030    2    1    2    0    0  0.00000000000E+00  0.00000000000E+00  0.13833252146E+04  0.15427971459E+04  0.68310642204E+03 0.  0.
        3    1    3    3  502    0  0.45226681428E+02  0.81119276640E+02  0.14339947515E+04  0.14369992162E+04  0.10100000352E+00 0. -1.
       -3    1    3    3    0  502 -0.45226681428E+02 -0.81119276640E+02 -0.50669536876E+02  0.10579792968E+03  0.10100000352E+00 0.  1.
</event>
<event>
 5   0  0.6167756E-02  0.7912790E+03  0.7818609E-02  0.9572727E-01
        2   -1    0    0  501    0  0.00000000000E+00  0.00000000000E+00  0.87160205685E+03  0.87160205685E+03  0.25500000920E-02 0.  1.
       -2   -1    0    0    0  501  0.00000000000E+00  0.00000000000E+00 -0.17958951909E+03  0.17958951910E+03  0.25500000920E-02 0. -1.
    10030    2    1    2    0    0  0.00000000000E+00  0.00000000000E+00  0.69201253776E+03  0.10511915760E+04  0.79127895014E+03 0.  0.
        4    1    3    3  502    0  0.18819476902E+03 -0.28381490185E+03  0.61355665259E+03  0.70172754573E+03  0.12699999809E+01 0.  1.
       -4    1    3    3    0  502 -0.18819476902E+03  0.28381490185E+03  0.78455885169E+02  0.34946403022E+03  0.12699999809E+01 0. -1.
</event>
<event>
 5   0  0.6167756E-02  0.7429931E+03  0.7818609E-02  0.9646408E-01
       -2   -1    0    0    0  501  0.00000000000E+00  0.00000000000E+00  0.60345699298E+03  0.60345699299E+03  0.25500000920E-02 0.  1.
        2   -1    0    0  501    0  0.00000000000E+00  0.00000000000E+00 -0.22869848773E+03  0.22869848774E+03  0.25500000920E-02 0. -1.
    10030    2    1    2    0    0  0.00000000000E+00  0.00000000000E+00  0.37475850525E+03  0.83215548073E+03  0.74299314051E+03 0.  0.
        4    1    3    3  502    0  0.36837915646E+03  0.23631157251E+02  0.23418490333E+03  0.43715651242E+03  0.12699999809E+01 0. -1.
       -4    1    3    3    0  502 -0.36837915646E+03 -0.23631157251E+02  0.14057360192E+03  0.39499896831E+03  0.12699999809E+01 0.  1.
</event>
<event>
 5   0  0.6167756E-02  0.6950984E+03  0.7818609E-02  0.9725652E-01
        2   -1    0    0  501    0  0.00000000000E+00  0.00000000000E+00  0.57369585132E+03  0.57369585132E+03  0.25500000920E-02 0. -1.
       -2   -1    0    0    0  501  0.00000000000E+00  0.00000000000E+00 -0.21054786669E+03  0.21054786670E+03  0.25500000920E-02 0.  1.
    10030    2    1    2    0    0  0.00000000000E+00  0.00000000000E+00  0.36314798463E+03  0.78424371803E+03  0.69509837471E+03 0.  0.
        4    1    3    3  502    0  0.30611946436E+03  0.11683633753E+03  0.31231929750E+03  0.45266412794E+03  0.12699999809E+01 0. -1.
       -4    1    3    3    0  502 -0.30611946436E+03 -0.11683633753E+03  0.50828687128E+02  0.33157959009E+03  0.12699999809E+01 0.  1.
</event>
<event>
 5   0  0.6248886E-02  0.6538119E+03  0.7818609E-02  0.9799653E-01
        2   -1    0    0  501    0  0.00000000000E+00  0.00000000000E+00  0.23045415487E+03  0.23045415489E+03  0.25500000920E-02 0. -1.
       -2   -1    0    0    0  501  0.00000000000E+00  0.00000000000E+00 -0.46372556908E+03  0.46372556909E+03  0.25500000920E-02 0.  1.
    10030    2    1    2    0    0  0.00000000000E+00  0.00000000000E+00 -0.23327141421E+03  0.69417972398E+03  0.65381185099E+03 0.  0.
        3    1    3    3  502    0 -0.13889693279E+03  0.23886287383E+03  0.68849322691E+02  0.28475967037E+03  0.10100000352E+00 0. -1.
       -3    1    3    3    0  502  0.13889693279E+03 -0.23886287383E+03 -0.30212073690E+03  0.40942005361E+03  0.10100000352E+00 0.  1.
</event>
<event>
 5   0  0.3439015E-02  0.6982658E+03  0.7818609E-02  0.9720202E-01
       -1   -1    0    0    0  501  0.00000000000E+00  0.00000000000E+00  0.15519187505E+03  0.15519187513E+03  0.50400001928E-02 0. -1.
        1   -1    0    0  501    0  0.00000000000E+00  0.00000000000E+00 -0.78543926872E+03  0.78543926873E+03  0.50400001928E-02 0.  1.
    10030    2    1    2    0    0  0.00000000000E+00  0.00000000000E+00 -0.63024739367E+03  0.94063114386E+03  0.69826583160E+03 0.  0.
        1    1    3    3  502    0  0.53272005996E+02 -0.32688033896E+03 -0.16630079377E+03  0.37060034627E+03  0.50400001928E-02 0. -1.
       -1    1    3    3    0  502 -0.53272005996E+02  0.32688033896E+03 -0.46394659990E+03  0.57003079759E+03  0.50400001928E-02 0.  1.
</event>
<event>
 5   0  0.5899787E-02  0.7062889E+03  0.7818609E-02  0.9706537E-01
        2   -1    0    0  501    0  0.00000000000E+00  0.00000000000E+00  0.50979495405E+03  0.50979495405E+03  0.25500000920E-02 0. -1.
       -2   -1    0    0    0  501  0.00000000000E+00  0.00000000000E+00 -0.24462974824E+03  0.24462974825E+03  0.25500000920E-02 0.  1.
    10030    2    1    2    0    0  0.00000000000E+00  0.00000000000E+00  0.26516520581E+03  0.75442470231E+03  0.70628892465E+03 0.  0.
        2    1    3    3  502    0  0.68647621372E+02  0.15004531029E+03  0.46608750688E+03  0.49443265986E+03  0.25500000920E-02 0. -1.
       -2    1    3    3    0  502 -0.68647621372E+02 -0.15004531029E+03 -0.20092230107E+03  0.25999204245E+03  0.25500000920E-02 0.  1.
</event>
<event>
 5   0  0.6131198E-02  0.7160001E+03  0.7818609E-02  0.9690255E-01
       -2   -1    0    0    0  501  0.00000000000E+00  0.00000000000E+00  0.23057682962E+03  0.23057682963E+03  0.25500000920E-02 0. -1.
        2   -1    0    0  501    0  0.00000000000E+00  0.00000000000E+00 -0.55584087130E+03  0.55584087130E+03  0.25500000920E-02 0.  1.
    10030    2    1    2    0    0  0.00000000000E+00  0.00000000000E+00 -0.32526404168E+03  0.78641770094E+03  0.71600007230E+03 0.  0.
        1    1    3    3  502    0 -0.54863398482E+02 -0.33820141425E+03 -0.48626624278E+02  0.34605597482E+03  0.50400001928E-02 0.  1.
       -1    1    3    3    0  502  0.54863398482E+02  0.33820141425E+03 -0.27663741740E+03  0.44036172612E+03  0.50400001928E-02 0. -1.
</event>
<event>
 5   0  0.3755872E-02  0.6894850E+03  0.7818609E-02  0.9735385E-01
        1   -1    0    0  501    0  0.00000000000E+00  0.00000000000E+00  0.81273147522E+03  0.81273147524E+03  0.50400001928E-02 0.  1.
       -1   -1    0    0    0  501  0.00000000000E+00  0.00000000000E+00 -0.14623206834E+03  0.14623206843E+03  0.50400001928E-02 0. -1.
    10030    2    1    2    0    0  0.00000000000E+00  0.00000000000E+00  0.66649940689E+03  0.95896354367E+03  0.68948503878E+03 0.  0.
        2    1    3    3  502    0  0.18770362731E+03  0.24698134356E+03  0.12409133387E+03  0.33411239863E+03  0.25500000920E-02 0. -1.
       -2    1    3    3    0  502 -0.18770362731E+03 -0.24698134356E+03  0.54240807302E+03  0.62485114504E+03  0.25500000920E-02 0.  1.
</event>
<event>
 5   0  0.3755872E-02  0.7060267E+03  0.7818609E-02  0.9706981E-01
        1   -1    0    0  501    0  0.00000000000E+00  0.00000000000E+00  0.89956857117E+03  0.89956857119E+03  0.50400001928E-02 0.  1.
       -1   -1    0    0    0  501  0.00000000000E+00  0.00000000000E+00 -0.13853132446E+03  0.13853132455E+03  0.50400001928E-02 0. -1.
    10030    2    1    2    0    0  0.00000000000E+00  0.00000000000E+00  0.76103724671E+03  0.10380998957E+04  0.70602670109E+03 0.  0.
        2    1    3    3  502    0  0.61604415800E+02 -0.12252653947E+03 -0.97761734958E+02  0.16841975463E+03  0.25500000920E-02 0. -1.
       -2    1    3    3    0  502 -0.61604415800E+02  0.12252653947E+03  0.85879898167E+03  0.86968014111E+03  0.25500000920E-02 0.  1.
</event>
<event>
 5   0  0.6167756E-02  0.7065200E+03  0.7818609E-02  0.9706147E-01
        2   -1    0    0  501    0  0.00000000000E+00  0.00000000000E+00  0.13832607597E+04  0.13832607597E+04  0.25500000920E-02 0. -1.
       -2   -1    0    0    0  501  0.00000000000E+00  0.00000000000E+00 -0.90216280014E+02  0.90216280050E+02  0.25500000920E-02 0.  1.
    10030    2    1    2    0    0  0.00000000000E+00  0.00000000000E+00  0.12930444797E+04  0.14734770398E+04  0.70652003528E+03 0.  0.
        4    1    3    3  502    0 -0.49131752831E+02 -0.21939284494E+03  0.12147850231E+04  0.12354154826E+04  0.12699999809E+01 0. -1.
       -4    1    3    3    0  502  0.49131752831E+02  0.21939284494E+03  0.78259456678E+02  0.23806155718E+03  0.12699999809E+01 0.  1.
</event>
<event>
 5   0  0.6167756E-02  0.6984982E+03  0.7818609E-02  0.9719804E-01
       -2   -1    0    0    0  501  0.00000000000E+00  0.00000000000E+00  0.22917901476E+03  0.22917901477E+03  0.25500000920E-02 0. -1.
        2   -1    0    0  501    0  0.00000000000E+00  0.00000000000E+00 -0.53222557127E+03  0.53222557127E+03  0.25500000920E-02 0.  1.
    10030    2    1    2    0    0  0.00000000000E+00  0.00000000000E+00 -0.30304655651E+03  0.76140458605E+03  0.69849819487E+03 0.  0.
        4    1    3    3  502    0 -0.24011414612E+03  0.54200362761E+02  0.11854066349E+03  0.27321417293E+03  0.12699999809E+01 0. -1.
       -4    1    3    3    0  502  0.24011414612E+03 -0.54200362761E+02 -0.42158722000E+03  0.48819041312E+03  0.12699999809E+01 0.  1.
</event>
<event>
 5   0  0.6167756E-02  0.7010525E+03  0.7818609E-02  0.9715434E-01
       -2   -1    0    0    0  501  0.00000000000E+00  0.00000000000E+00  0.21871059945E+03  0.21871059946E+03  0.25500000920E-02 0. -1.
        2   -1    0    0  501    0  0.00000000000E+00  0.00000000000E+00 -0.56178637709E+03  0.56178637709E+03  0.25500000920E-02 0.  1.
    10030    2    1    2    0    0  0.00000000000E+00  0.00000000000E+00 -0.34307577764E+03  0.78049697655E+03  0.70105245253E+03 0.  0.
        4    1    3    3  502    0 -0.34264766111E+03  0.34662558097E+02 -0.98888972549E+02  0.35831488162E+03  0.12699999809E+01 0. -1.
       -4    1    3    3    0  502  0.34264766111E+03 -0.34662558097E+02 -0.24418680509E+03  0.42218209493E+03  0.12699999809E+01 0.  1.
</event>
<event>
 5   0  0.3717372E-02  0.7149367E+03  0.7818609E-02  0.9692024E-01
        1   -1    0    0  501    0  0.00000000000E+00  0.00000000000E+00  0.53778161568E+03  0.53778161570E+03  0.50400001928E-02 0.  1.
       -1   -1    0    0    0  501  0.00000000000E+00  0.00000000000E+00 -0.23761249551E+03  0.23761249556E+03  0.50400001928E-02 0. -1.
    10030    2    1    2    0    0  0.00000000000E+00  0.00000000000E+00  0.30016912017E+03  0.77539411126E+03  0.71493672942E+03 0.  0.
        3    1    3    3  502    0 -0.21697517652E+03  0.24541382470E+03 -0.51158325177E+01  0.32761616951E+03  0.10100000352E+00 0. -1.
       -3    1    3    3    0  502  0.21697517652E+03 -0.24541382470E+03  0.30528495269E+03  0.44777794175E+03  0.10100000352E+00 0.  1.
</event>
<event>
 5   0  0.2439375E-02  0.6585554E+03  0.7818609E-02  0.9790857E-01
        3   -1    0    0  501    0  0.00000000000E+00  0.00000000000E+00  0.66049654709E+03  0.66049655481E+03  0.10100000352E+00 0. -1.
       -3   -1    0    0    0  501  0.00000000000E+00  0.00000000000E+00 -0.16415497959E+03  0.16415501067E+03  0.10100000352E+00 0.  1.
    10030    2    1    2    0    0  0.00000000000E+00  0.00000000000E+00  0.49634156750E+03  0.82465156548E+03  0.65855542882E+03 0.  0.
        2    1    3    3  502    0 -0.46585518145E+02  0.78261400986E+02 -0.14806853053E+03  0.17383712815E+03  0.25500000920E-02 0.  1.
       -2    1    3    3    0  502  0.46585518145E+02 -0.78261400986E+02  0.64441009803E+03  0.65081443732E+03  0.25500000920E-02 0. -1.
</event>
<event>
 5   0  0.3717372E-02  0.7354100E+03  0.7818609E-02  0.9658522E-01
        1   -1    0    0  501    0  0.00000000000E+00  0.00000000000E+00  0.45439996078E+03  0.45439996080E+03  0.50400001928E-02 0.  1.
       -1   -1    0    0    0  501  0.00000000000E+00  0.00000000000E+00 -0.29755059995E+03  0.29755059999E+03  0.50400001928E-02 0. -1.
    10030    2    1    2    0    0  0.00000000000E+00  0.00000000000E+00  0.15684936083E+03  0.75195056079E+03  0.73541003793E+03 0.  0.
        3    1    3    3  502    0 -0.12576655772E+03  0.56005516486E+02 -0.27020315040E+03  0.30325500425E+03  0.10100000352E+00 0. -1.
       -3    1    3    3    0  502  0.12576655772E+03 -0.56005516486E+02  0.42705251122E+03  0.44869555654E+03  0.10100000352E+00 0.  1.
</event>
<event>
 5   0  0.5899787E-02  0.7104464E+03  0.7818609E-02  0.9699532E-01
        2   -1    0    0  501    0  0.00000000000E+00  0.00000000000E+00  0.28662213294E+03  0.28662213296E+03  0.25500000920E-02 0. -1.
       -2   -1    0    0    0  501  0.00000000000E+00  0.00000000000E+00 -0.44024348297E+03  0.44024348298E+03  0.25500000920E-02 0.  1.
    10030    2    1    2    0    0  0.00000000000E+00  0.00000000000E+00 -0.15362135003E+03  0.72686561593E+03  0.71044641208E+03 0.  0.
        2    1    3    3  502    0 -0.95511399449E+02  0.24390062850E+03  0.16867967521E+03  0.31154899589E+03  0.25500000920E-02 0. -1.
       -2    1    3    3    0  502  0.95511399449E+02 -0.24390062850E+03 -0.32230102524E+03  0.41531662004E+03  0.25500000920E-02 0.  1.
</event>
<event>
 5   0  0.3755872E-02  0.7077617E+03  0.7818609E-02  0.9704050E-01
       -1   -1    0    0    0  501  0.00000000000E+00  0.00000000000E+00  0.21522084946E+03  0.21522084952E+03  0.50400001928E-02 0. -1.
        1   -1    0    0  501    0  0.00000000000E+00  0.00000000000E+00 -0.58187508022E+03  0.58187508024E+03  0.50400001928E-02 0.  1.
    10030    2    1    2    0    0  0.00000000000E+00  0.00000000000E+00 -0.36665423076E+03  0.79709592976E+03  0.70776168044E+03 0.  0.
        2    1    3    3  502    0 -0.28437161709E+03 -0.97120109596E+02 -0.39381931076E+03  0.49537176123E+03  0.25500000920E-02 0.  1.
       -2    1    3    3    0  502  0.28437161709E+03  0.97120109596E+02  0.27165079997E+02  0.30172416853E+03  0.25500000920E-02 0. -1.
</event>
<event>
 5   0  0.3755872E-02  0.7083835E+03  0.7818609E-02  0.9703002E-01
       -1   -1    0    0    0  501  0.00000000000E+00  0.00000000000E+00  0.20223048892E+03  0.20223048898E+03  0.50400001928E-02 0. -1.
        1   -1    0    0  501    0  0.00000000000E+00  0.00000000000E+00 -0.62034069314E+03  0.62034069316E+03  0.50400001928E-02 0.  1.
    10030    2    1    2    0    0  0.00000000000E+00  0.00000000000E+00 -0.41811020422E+03  0.82257118215E+03  0.70838351676E+03 0.  0.
        2    1    3    3  502    0 -0.90641746140E+02 -0.84270460571E+02  0.17630475248E+03  0.21540845485E+03  0.25500000920E-02 0. -1.
       -2    1    3    3    0  502  0.90641746140E+02  0.84270460571E+02 -0.59441495670E+03  0.60716272730E+03  0.25500000920E-02 0.  1.
</event>
<event>
 5   0  0.3439015E-02  0.7035820E+03  0.7818609E-02  0.9711126E-01
        1   -1    0    0  501    0  0.00000000000E+00  0.00000000000E+00  0.29829221100E+03  0.29829221104E+03  0.50400001928E-02 0.  1.
       -1   -1    0    0    0  501  0.00000000000E+00  0.00000000000E+00 -0.41488483029E+03  0.41488483032E+03  0.50400001928E-02 0. -1.
    10030    2    1    2    0    0  0.00000000000E+00  0.00000000000E+00 -0.11659261929E+03  0.71317704136E+03  0.70358201616E+03 0.  0.
        1    1    3    3  502    0  0.31954639802E+02 -0.10226297272E+03 -0.39794515980E+03  0.41211547511E+03  0.50400001928E-02 0. -1.
       -1    1    3    3    0  502 -0.31954639802E+02  0.10226297272E+03  0.28135254051E+03  0.30106156625E+03  0.50400001928E-02 0.  1.
</event>
<event>
 5   0  0.5899787E-02  0.7016977E+03  0.7818609E-02  0.9714333E-01
       -2   -1    0    0    0  501  0.00000000000E+00  0.00000000000E+00  0.16927403744E+03  0.16927403746E+03  0.25500000920E-02 0. -1.
        2   -1    0    0  501    0  0.00000000000E+00  0.00000000000E+00 -0.72719313913E+03  0.72719313913E+03  0.25500000920E-02 0.  1.
    10030    2    1    2    0    0  0.00000000000E+00  0.00000000000E+00 -0.55791910168E+03  0.89646717659E+03  0.70169770891E+03 0.  0.
        2    1    3    3  502    0 -0.30331804933E+03  0.79782530625E+02 -0.47985833799E+03  0.57326356573E+03  0.25500000920E-02 0.  1.
       -2    1    3    3    0  502  0.30331804933E+03 -0.79782530625E+02 -0.78060763689E+02  0.32320361087E+03  0.25500000920E-02 0. -1.
</event>
<event>
 5   0  0.6167756E-02  0.8058265E+03  0.7818609E-02  0.9551622E-01
       -2   -1    0    0    0  501  0.00000000000E+00  0.00000000000E+00  0.39858219369E+03  0.39858219370E+03  0.25500000920E-02 0.  1.
        2   -1    0    0  501    0  0.00000000000E+00  0.00000000000E+00 -0.40729135675E+03  0.40729135675E+03  0.25500000920E-02 0. -1.
    10030    2    1    2    0    0  0.00000000000E+00  0.00000000000E+00 -0.87091630582E+01  0.80587355045E+03  0.80582648864E+03 0.  0.
        4    1    3    3  502    0 -0.22135259996E+03 -0.10464942835E+03 -0.32435607052E+03  0.40639506610E+03  0.12699999809E+01 0. -1.
       -4    1    3    3    0  502  0.22135259996E+03  0.10464942835E+03  0.31564690746E+03  0.39947848435E+03  0.12699999809E+01 0.  1.
</event>
<event>
 5   0  0.3439015E-02  0.7151190E+03  0.7818609E-02  0.9691720E-01
        1   -1    0    0  501    0  0.00000000000E+00  0.00000000000E+00  0.31413795168E+03  0.31413795172E+03  0.50400001928E-02 0.  1.
       -1   -1    0    0    0  501  0.00000000000E+00  0.00000000000E+00 -0.40698298784E+03  0.40698298787E+03  0.50400001928E-02 0. -1.
    10030    2    1    2    0    0  0.00000000000E+00  0.00000000000E+00 -0.92845036156E+02  0.72112093959E+03  0.71511901722E+03 0.  0.
        1    1    3    3  502    0 -0.16422604261E+02 -0.35009813498E+03  0.24955717860E+02  0.35137045113E+03  0.50400001928E-02 0. -1.
       -1    1    3    3    0  502  0.16422604261E+02  0.35009813498E+03 -0.11780075402E+03  0.36975048846E+03  0.50400001928E-02 0.  1.
</event>
<event>
 5   0  0.6131198E-02  0.6845477E+03  0.7818609E-02  0.9744029E-01
       -2   -1    0    0    0  501  0.00000000000E+00  0.00000000000E+00  0.48499113872E+03  0.48499113873E+03  0.25500000920E-02 0.  1.
        2   -1    0    0  501    0  0.00000000000E+00  0.00000000000E+00 -0.24155365269E+03  0.24155365270E+03  0.25500000920E-02 0. -1.
    10030    2    1    2    0    0  0.00000000000E+00  0.00000000000E+00  0.24343748603E+03  0.72654479143E+03  0.68454767865E+03 0.  0.
        1    1    3    3  502    0 -0.12809917758E+03  0.29152939406E+03 -0.11490614556E+02  0.31863901384E+03  0.50400001928E-02 0. -1.
       -1    1    3    3    0  502  0.12809917758E+03 -0.29152939406E+03  0.25492810058E+03  0.40790577759E+03  0.50400001928E-02 0.  1.
</event>
<event>
 5   0  0.3755872E-02  0.7158111E+03  0.7818609E-02  0.9690569E-01
       -1   -1    0    0    0  501  0.00000000000E+00  0.00000000000E+00  0.14770625162E+03  0.14770625170E+03  0.50400001928E-02 0. -1.
        1   -1    0    0  501    0  0.00000000000E+00  0.00000000000E+00 -0.86723746146E+03  0.86723746147E+03  0.50400001928E-02 0.  1.
    10030    2    1    2    0    0  0.00000000000E+00  0.00000000000E+00 -0.71953120984E+03  0.10149437132E+04  0.71581113359E+03 0.  0.
        2    1    3    3  502    0 -0.90604542832E+02 -0.15845033698E+03 -0.79628492477E+03  0.81693657887E+03  0.25500000920E-02 0.  1.
       -2    1    3    3    0  502  0.90604542832E+02  0.15845033698E+03  0.76753714932E+02  0.19800713430E+03  0.25500000920E-02 0. -1.
</event>
<event>
 5   0  0.3749730E-02  0.6831164E+03  0.7818609E-02  0.9746549E-01
        1   -1    0    0  501    0  0.00000000000E+00  0.00000000000E+00  0.13883669187E+04  0.13883669187E+04  0.50400001928E-02 0.  1.
       -1   -1    0    0    0  501  0.00000000000E+00  0.00000000000E+00 -0.84028210564E+02  0.84028210715E+02  0.50400001928E-02 0. -1.
    10030    2    1    2    0    0  0.00000000000E+00  0.00000000000E+00  0.13043387081E+04  0.14723951294E+04  0.68311635290E+03 0.  0.
        4    1    3    3  502    0 -0.17036968353E+03 -0.95573041097E+02  0.12560699504E+04  0.12711700785E+04  0.12699999809E+01 0.  1.
       -4    1    3    3    0  502  0.17036968353E+03  0.95573041097E+02  0.48268757733E+02  0.20122505093E+03  0.12699999809E+01 0. -1.
</event>
<event>
 5   0  0.3439015E-02  0.6993493E+03  0.7818609E-02  0.9718346E-01
        1   -1    0    0  501    0  0.00000000000E+00  0.00000000000E+00  0.33198523306E+03  0.33198523310E+03  0.50400001928E-02 0.  1.
       -1   -1    0    0    0  501  0.00000000000E+00  0.00000000000E+00 -0.36830661171E+03  0.36830661175E+03  0.50400001928E-02 0. -1.
    10030    2    1    2    0    0  0.00000000000E+00  0.00000000000E+00 -0.36321378650E+02  0.70029184485E+03  0.69934928713E+03 0.  0.
        1    1    3    3  502    0  0.59538295986E+02  0.68913400397E+02  0.31990133178E+03  0.33261197745E+03  0.50400001928E-02 0.  1.
       -1    1    3    3    0  502 -0.59538295986E+02 -0.68913400397E+02 -0.35622271043E+03  0.36767986740E+03  0.50400001928E-02 0. -1.
</event>
<event>
 5   0  0.3439015E-02  0.7012063E+03  0.7818609E-02  0.9715171E-01
        1   -1    0    0  501    0  0.00000000000E+00  0.00000000000E+00  0.11226255749E+03  0.11226255760E+03  0.50400001928E-02 0. -1.
       -1   -1    0    0    0  501  0.00000000000E+00  0.00000000000E+00 -0.10949560627E+04  0.10949560627E+04  0.50400001928E-02 0.  1.
    10030    2    1    2    0    0  0.00000000000E+00  0.00000000000E+00 -0.98269350516E+03  0.12072186203E+04  0.70120629777E+03 0.  0.
        1    1    3    3  502    0  0.21166544749E+03 -0.18872214214E+03 -0.84628789603E+03  0.89253656036E+03  0.50400001928E-02 0.  1.
       -1    1    3    3    0  502 -0.21166544749E+03  0.18872214214E+03 -0.13640560913E+03  0.31468205990E+03  0.50400001928E-02 0. -1.
</event>
<event>
 5   0  0.3439015E-02  0.6924248E+03  0.7818609E-02  0.9730275E-01
        1   -1    0    0  501    0  0.00000000000E+00  0.00000000000E+00  0.10450582275E+04  0.10450582275E+04  0.50400001928E-02 0.  1.
       -1   -1    0    0    0  501  0.00000000000E+00  0.00000000000E+00 -0.11469507536E+03  0.11469507547E+03  0.50400001928E-02 0. -1.
    10030    2    1    2    0    0  0.00000000000E+00  0.00000000000E+00  0.93036315217E+03  0.11597533030E+04  0.69242481824E+03 0.  0.
        1    1    3    3  502    0 -0.17468758866E+03  0.29517242241E+03  0.38625553856E+03  0.51656156814E+03  0.50400001928E-02 0. -1.
       -1    1    3    3    0  502  0.17468758866E+03 -0.29517242241E+03  0.54410761361E+03  0.64319173487E+03  0.50400001928E-02 0.  1.
</event>
<event>
 5   0  0.2439375E-02  0.7227703E+03  0.7818609E-02  0.9679065E-01
       -3   -1    0    0    0  501  0.00000000000E+00  0.00000000000E+00  0.23514408670E+03  0.23514410839E+03  0.10100000352E+00 0.  1.
        3   -1    0    0  501    0  0.00000000000E+00  0.00000000000E+00 -0.55540072864E+03  0.55540073782E+03  0.10100000352E+00 0. -1.
    10030    2    1    2    0    0  0.00000000000E+00  0.00000000000E+00 -0.32025664194E+03  0.79054484621E+03  0.72277025199E+03 0.  0.
        3    1    3    3  502    0 -0.19444572404E+03 -0.16711367803E+03 -0.43869233991E+03  0.50812114724E+03  0.10100000352E+00 0. -1.
       -3    1    3    3    0  502  0.19444572404E+03  0.16711367803E+03  0.11843569796E+03  0.28242369896E+03  0.10100000352E+00 0.  1.
</event>
<event>
 5   0  0.3755872E-02  0.7010053E+03  0.7818609E-02  0.9715515E-01
       -1   -1    0    0    0  501  0.00000000000E+00  0.00000000000E+00  0.18783442656E+03  0.18783442662E+03  0.50400001928E-02 0. -1.
        1   -1    0    0  501    0  0.00000000000E+00  0.00000000000E+00 -0.65404465757E+03  0.65404465758E+03  0.50400001928E-02 0.  1.
    10030    2    1    2    0    0  0.00000000000E+00  0.00000000000E+00 -0.46621023101E+03  0.84187908421E+03  0.70100528738E+03 0.  0.
        2    1    3    3  502    0  0.32468645570E+03 -0.58589662838E+02 -0.91015495286E+02  0.34225409201E+03  0.25500000920E-02 0.  1.
       -2    1    3    3    0  502 -0.32468645570E+03  0.58589662838E+02 -0.37519473572E+03  0.49962499220E+03  0.25500000920E-02 0. -1.
</event>
<event>
 5   0  0.3749730E-02  0.6910540E+03  0.7818609E-02  0.9732654E-01
        1   -1    0    0  501    0  0.00000000000E+00  0.00000000000E+00  0.75505546124E+03  0.75505546125E+03  0.50400001928E-02 0.  1.
       -1   -1    0    0    0  501  0.00000000000E+00  0.00000000000E+00 -0.15811940877E+03  0.15811940885E+03  0.50400001928E-02 0. -1.
    10030    2    1    2    0    0  0.00000000000E+00  0.00000000000E+00  0.59693605247E+03  0.91317487010E+03  0.69105404466E+03 0.  0.
        4    1    3    3  502    0  0.25569560595E+02  0.16892198628E+03 -0.98396688651E+02  0.19715973503E+03  0.12699999809E+01 0. -1.
       -4    1    3    3    0  502 -0.25569560595E+02 -0.16892198628E+03  0.69533274112E+03  0.71601513507E+03  0.12699999809E+01 0.  1.
</event>
<event>
 5   0  0.5899787E-02  0.7063283E+03  0.7818609E-02  0.9706471E-01
        2   -1    0    0  501    0  0.00000000000E+00  0.00000000000E+00  0.24269454993E+03  0.24269454995E+03  0.25500000920E-02 0.  1.
       -2   -1    0    0    0  501  0.00000000000E+00  0.00000000000E+00 -0.51391729596E+03  0.51391729597E+03  0.25500000920E-02 0. -1.
    10030    2    1    2    0    0  0.00000000000E+00  0.00000000000E+00 -0.27122274603E+03  0.75661184591E+03  0.70632832834E+03 0.  0.
        2    1    3    3  502    0 -0.20721542967E+03  0.21666036682E+03  0.64345625597E+02  0.30662731186E+03  0.25500000920E-02 0.  1.
       -2    1    3    3    0  502  0.20721542967E+03 -0.21666036682E+03 -0.33556837162E+03  0.44998453405E+03  0.25500000920E-02 0. -1.
</event>
<event>
 5   0  0.2439375E-02  0.6388264E+03  0.7818609E-02  0.9827975E-01
       -4   -1    0    0    0  501  0.00000000000E+00  0.00000000000E+00  0.56601055760E+03  0.56601198240E+03  0.12699999809E+01 0. -1.
        4   -1    0    0  501    0  0.00000000000E+00  0.00000000000E+00 -0.18024853884E+03  0.18025301288E+03  0.12699999809E+01 0.  1.
    10030    2    1    2    0    0  0.00000000000E+00  0.00000000000E+00  0.38576201876E+03  0.74626499528E+03  0.63882635204E+03 0.  0.
        5    1    3    3  502    0 -0.19122018458E+03 -0.73125736873E+02 -0.93478697273E+02  0.22510639535E+03  0.46999998093E+01 0.  1.
       -5    1    3    3    0  502  0.19122018458E+03  0.73125736873E+02  0.47924071604E+03  0.52115859994E+03  0.46999998093E+01 0. -1.
</event>
<event>
 5   0  0.3717372E-02  0.6928804E+03  0.7818609E-02  0.9729486E-01
        1   -1    0    0  501    0  0.00000000000E+00  0.00000000000E+00  0.59133727375E+03  0.59133727377E+03  0.50400001928E-02 0.  1.
       -1   -1    0    0    0  501  0.00000000000E+00  0.00000000000E+00 -0.20296507456E+03  0.20296507462E+03  0.50400001928E-02 0. -1.
    10030    2    1    2    0    0  0.00000000000E+00  0.00000000000E+00  0.38837219919E+03  0.79430234838E+03  0.69288040494E+03 0.  0.
        3    1    3    3  502    0  0.65445492193E+02  0.33448151500E+02 -0.19392468314E+03  0.20738535199E+03  0.10100000352E+00 0. -1.
       -3    1    3    3    0  502 -0.65445492193E+02 -0.33448151500E+02  0.58229688233E+03  0.58691699640E+03  0.10100000352E+00 0.  1.
</event>
<event>
 5   0  0.6131198E-02  0.7203377E+03  0.7818609E-02  0.9683070E-01
        2   -1    0    0  501    0  0.00000000000E+00  0.00000000000E+00  0.32939024236E+03  0.32939024237E+03  0.25500000920E-02 0. -1.
       -2   -1    0    0    0  501  0.00000000000E+00  0.00000000000E+00 -0.39382349198E+03  0.39382349199E+03  0.25500000920E-02 0.  1.
    10030    2    1    2    0    0  0.00000000000E+00  0.00000000000E+00 -0.64433249623E+02  0.72321373436E+03  0.72033774156E+03 0.  0.
        1    1    3    3  502    0  0.30284086899E+03  0.36045072605E+02  0.16014629657E+03  0.34446868584E+03  0.50400001928E-02 0. -1.
       -1    1    3    3    0  502 -0.30284086899E+03 -0.36045072605E+02 -0.22457954620E+03  0.37874504853E+03  0.50400001928E-02 0.  1.
</event>
<event>
 5   0  0.6131198E-02  0.6981381E+03  0.7818609E-02  0.9720422E-01
       -2   -1    0    0    0  501  0.00000000000E+00  0.00000000000E+00  0.10396766864E+03  0.10396766867E+03  0.25500000920E-02 0. -1.
        2   -1    0    0  501    0  0.00000000000E+00  0.00000000000E+00 -0.11719911767E+04  0.11719911767E+04  0.25500000920E-02 0.  1.
    10030    2    1    2    0    0  0.00000000000E+00  0.00000000000E+00 -0.10680235080E+04  0.12759588453E+04  0.69813806751E+03 0.  0.
        1    1    3    3  502    0  0.23164473652E+03 -0.25830917516E+03 -0.60399647978E+03  0.69655915868E+03  0.50400001928E-02 0. -1.
       -1    1    3    3    0  502 -0.23164473652E+03  0.25830917516E+03 -0.46402702823E+03  0.57939968665E+03  0.50400001928E-02 0.  1.
</event>
<event>
 5   0  0.5899787E-02  0.6860188E+03  0.7818609E-02  0.9741445E-01
        2   -1    0    0  501    0  0.00000000000E+00  0.00000000000E+00  0.37044139340E+03  0.37044139341E+03  0.25500000920E-02 0. -1.
       -2   -1    0    0    0  501  0.00000000000E+00  0.00000000000E+00 -0.31760881743E+03  0.31760881744E+03  0.25500000920E-02 0.  1.
    10030    2    1    2    0    0  0.00000000000E+00  0.00000000000E+00  0.52832575969E+02  0.68805021084E+03  0.68601881283E+03 0.  0.
        2    1    3    3  502    0  0.41467238690E+02 -0.27870662513E+03 -0.16976080389E+03  0.32896146479E+03  0.25500000920E-02 0. -1.
       -2    1    3    3    0  502 -0.41467238690E+02  0.27870662513E+03  0.22259337986E+03  0.35908874605E+03  0.25500000920E-02 0.  1.
</event>
<event>
 5   0  0.5987810E-02  0.6952501E+03  0.7818609E-02  0.9725390E-01
       -2   -1    0    0    0  501  0.00000000000E+00  0.00000000000E+00  0.10124187696E+03  0.10124187699E+03  0.25500000920E-02 0.  1.
        2   -1    0    0  501    0  0.00000000000E+00  0.00000000000E+00 -0.11936087635E+04  0.11936087635E+04  0.25500000920E-02 0. -1.
    10030    2    1    2    0    0  0.00000000000E+00  0.00000000000E+00 -0.10923668866E+04  0.12948506405E+04  0.69525014662E+03 0.  0.
        5    1    3    3  502    0  0.18165300439E+03 -0.12106178083E+03 -0.42407762283E+02  0.22242813914E+03  0.46999998093E+01 0.  1.
       -5    1    3    3    0  502 -0.18165300439E+03  0.12106178083E+03 -0.10499591243E+04  0.10724225014E+04  0.46999998093E+01 0. -1.
</event>
<event>
 5   0  0.3755872E-02  0.7257170E+03  0.7818609E-02  0.9674236E-01
       -1   -1    0    0    0  501  0.00000000000E+00  0.00000000000E+00  0.20003609939E+03  0.20003609946E+03  0.50400001928E-02 0. -1.
        1   -1    0    0  501    0  0.00000000000E+00  0.00000000000E+00 -0.65821266504E+03  0.65821266506E+03  0.50400001928E-02 0.  1.
    10030    2    1    2    0    0  0.00000000000E+00  0.00000000000E+00 -0.45817656565E+03  0.85824876452E+03  0.72571700854E+03 0.  0.
        2    1    3    3  502    0  0.25403246551E+03  0.87677562659E+02  0.59254331285E+02  0.27519252226E+03  0.25500000920E-02 0. -1.
       -2    1    3    3    0  502 -0.25403246551E+03 -0.87677562659E+02 -0.51743089694E+03  0.58305624226E+03  0.25500000920E-02 0.  1.
</event>
<event>
 5   0  0.6131198E-02  0.7084664E+03  0.7818609E-02  0.9702862E-01
        2   -1    0    0  501    0  0.00000000000E+00  0.00000000000E+00  0.60718151309E+03  0.60718151310E+03  0.25500000920E-02 0. -1.
       -2   -1    0    0    0  501  0.00000000000E+00  0.00000000000E+00 -0.20666170588E+03  0.20666170589E+03  0.25500000920E-02 0.  1.
    10030    2    1    2    0    0  0.00000000000E+00  0.00000000000E+00  0.40051980721E+03  0.81384321899E+03  0.70846642061E+03 0.  0.
        1    1    3    3  502    0  0.84985447402E+02  0.33825907851E+03  0.12908035333E+03  0.37189174245E+03  0.50400001928E-02 0.  1.
       -1    1    3    3    0  502 -0.84985447402E+02 -0.33825907851E+03  0.27143945388E+03  0.44195147654E+03  0.50400001928E-02 0. -1.
</event>
<event>
 5   0  0.3439015E-02  0.6893406E+03  0.7818609E-02  0.9735637E-01
        1   -1    0    0  501    0  0.00000000000E+00  0.00000000000E+00  0.82959926420E+03  0.82959926422E+03  0.50400001928E-02 0.  1.
       -1   -1    0    0    0  501  0.00000000000E+00  0.00000000000E+00 -0.14319880945E+03  0.14319880954E+03  0.50400001928E-02 0. -1.
    10030    2    1    2    0    0  0.00000000000E+00  0.00000000000E+00  0.68640045475E+03  0.97279807376E+03  0.68934063280E+03 0.  0.
        1    1    3    3  502    0  0.14806633933E+03 -0.27543721505E+03  0.54774319603E+03  0.63072332214E+03  0.50400001928E-02 0.  1.
       -1    1    3    3    0  502 -0.14806633933E+03  0.27543721505E+03  0.13865725872E+03  0.34207475162E+03  0.50400001928E-02 0. -1.
</event>
<event>
 5   0  0.2439375E-02  0.6832074E+03  0.7818609E-02  0.9746389E-01
        4   -1    0    0  501    0  0.00000000000E+00  0.00000000000E+00  0.83347036359E+02  0.83356711606E+02  0.12699999809E+01 0.  1.
       -4   -1    0    0    0  501  0.00000000000E+00  0.00000000000E+00 -0.13999954315E+04  0.13999960075E+04  0.12699999809E+01 0. -1.
    10030    2    1    2    0    0  0.00000000000E+00  0.00000000000E+00 -0.13166483951E+04  0.14833527191E+04  0.68320735722E+03 0.  0.
        1    1    3    3  502    0  0.11127292492E+03  0.29102664740E+02 -0.13566972325E+04  0.13615638103E+04  0.50400001928E-02 0. -1.
       -1    1    3    3    0  502 -0.11127292492E+03 -0.29102664740E+02  0.40048837345E+02  0.12178890882E+03  0.50400001928E-02 0.  1.
</event>
<event>
 5   0  0.3439015E-02  0.6993370E+03  0.7818609E-02  0.9718367E-01
        1   -1    0    0  501    0  0.00000000000E+00  0.00000000000E+00  0.10485363959E+04  0.10485363959E+04  0.50400001928E-02 0.  1.
       -1   -1    0    0    0  501  0.00000000000E+00  0.00000000000E+00 -0.11660832635E+03  0.11660832646E+03  0.50400001928E-02 0. -1.
    10030    2    1    2    0    0  0.00000000000E+00  0.00000000000E+00  0.93192806959E+03  0.11651447224E+04  0.69933704125E+03 0.  0.
        1    1    3    3  502    0  0.56119144580E+02 -0.13687567534E+02 -0.10860411084E+03  0.12301040936E+03  0.50400001928E-02 0. -1.
       -1    1    3    3    0  502 -0.56119144580E+02  0.13687567534E+02  0.10405321804E+04  0.10421343130E+04  0.50400001928E-02 0.  1.
</event>
<event>
 5   0  0.3601475E-02  0.6947524E+03  0.7818609E-02  0.9726249E-01
        1   -1    0    0  501    0  0.00000000000E+00  0.00000000000E+00  0.75889848679E+03  0.75889848680E+03  0.50400001928E-02 0.  1.
       -1   -1    0    0    0  501  0.00000000000E+00  0.00000000000E+00 -0.15900708243E+03  0.15900708251E+03  0.50400001928E-02 0. -1.
    10030    2    1    2    0    0  0.00000000000E+00  0.00000000000E+00  0.59989140435E+03  0.91790556932E+03  0.69475242869E+03 0.  0.
        5    1    3    3  502    0 -0.63034540854E+02  0.57712230979E+02  0.74474835633E+03  0.74965075815E+03  0.46999998093E+01 0.  1.
       -5    1    3    3    0  502  0.63034540854E+02 -0.57712230979E+02 -0.14485695198E+03  0.16825481116E+03  0.46999998093E+01 0. -1.
</event>
<event>
 5   0  0.2439375E-02  0.7026007E+03  0.7818609E-02  0.9712795E-01
        4   -1    0    0  501    0  0.00000000000E+00  0.00000000000E+00  0.20398337147E+03  0.20398732494E+03  0.12699999809E+01 0. -1.
       -4   -1    0    0    0  501  0.00000000000E+00  0.00000000000E+00 -0.60499923738E+03  0.60500057036E+03  0.12699999809E+01 0.  1.
    10030    2    1    2    0    0  0.00000000000E+00  0.00000000000E+00 -0.40101586591E+03  0.80898789530E+03  0.70260066185E+03 0.  0.
        3    1    3    3  502    0 -0.12145593869E+03 -0.17550324873E+03 -0.52179098392E+03  0.56375418088E+03  0.10100000352E+00 0.  1.
       -3    1    3    3    0  502  0.12145593869E+03  0.17550324873E+03  0.12077511801E+03  0.24523371442E+03  0.10100000352E+00 0. -1.
</event>
<event>
 5   0  0.6131198E-02  0.7037706E+03  0.7818609E-02  0.9710806E-01
        2   -1    0    0  501    0  0.00000000000E+00  0.00000000000E+00  0.13637172448E+04  0.13637172448E+04  0.25500000920E-02 0.  1.
       -2   -1    0    0    0  501  0.00000000000E+00  0.00000000000E+00 -0.90798352690E+02  0.90798352726E+02  0.25500000920E-02 0. -1.
    10030    2    1    2    0    0  0.00000000000E+00  0.00000000000E+00  0.12729188921E+04  0.14545155976E+04  0.70377064273E+03 0.  0.
        1    1    3    3  502    0  0.15977918747E+03  0.38677296300E+02  0.12794733039E+04  0.12899911850E+04  0.50400001928E-02 0.  1.
       -1    1    3    3    0  502 -0.15977918747E+03 -0.38677296300E+02 -0.65544117237E+01  0.16452441258E+03  0.50400001928E-02 0. -1.
</event>
<event>
 5   0  0.6248886E-02  0.6804367E+03  0.7818609E-02  0.9751286E-01
       -2   -1    0    0    0  501  0.00000000000E+00  0.00000000000E+00  0.32409800019E+03  0.32409800020E+03  0.25500000920E-02 0. -1.
        2   -1    0    0  501    0  0.00000000000E+00  0.00000000000E+00 -0.35714049596E+03  0.35714049597E+03  0.25500000920E-02 0.  1.
    10030    2    1    2    0    0  0.00000000000E+00  0.00000000000E+00 -0.33042495768E+02  0.68123849617E+03  0.68043668488E+03 0.  0.
        3    1    3    3  502    0 -0.22866682362E+03 -0.23792950792E+03 -0.99380740856E+02  0.34463822890E+03  0.10100000352E+00 0.  1.
       -3    1    3    3    0  502  0.22866682362E+03  0.23792950792E+03  0.66338245089E+02  0.33660026727E+03  0.10100000352E+00 0. -1.
</event>
<event>
 5   0  0.3439015E-02  0.7020326E+03  0.7818609E-02  0.9713763E-01
        1   -1    0    0  501    0  0.00000000000E+00  0.00000000000E+00  0.14904067602E+04  0.14904067602E+04  0.50400001928E-02 0. -1.
       -1   -1    0    0    0  501  0.00000000000E+00  0.00000000000E+00 -0.82670342390E+02  0.82670342543E+02  0.50400001928E-02 0.  1.
    10030    2    1    2    0    0  0.00000000000E+00  0.00000000000E+00  0.14077364178E+04  0.15730771027E+04  0.70203258411E+03 0.  0.
        1    1    3    3  502    0 -0.17744420819E+03 -0.15598436339E+03  0.12215871045E+03  0.26597052319E+03  0.50400001928E-02 0.  1.
       -1    1    3    3    0  502  0.17744420819E+03  0.15598436339E+03  0.12855777073E+04  0.13071065795E+04  0.50400001928E-02 0. -1.
</event>
<event>
 5   0  0.3755872E-02  0.6752273E+03  0.7818609E-02  0.9760561E-01
        1   -1    0    0  501    0  0.00000000000E+00  0.00000000000E+00  0.31318631337E+03  0.31318631341E+03  0.50400001928E-02 0. -1.
       -1   -1    0    0    0  501  0.00000000000E+00  0.00000000000E+00 -0.36394617181E+03  0.36394617184E+03  0.50400001928E-02 0.  1.
    10030    2    1    2    0    0  0.00000000000E+00  0.00000000000E+00 -0.50759858439E+02  0.67713248525E+03  0.67522725015E+03 0.  0.
        2    1    3    3  502    0 -0.44409161635E+02 -0.19654236600E+03  0.24627533111E+03  0.31820215899E+03  0.25500000920E-02 0. -1.
       -2    1    3    3    0  502  0.44409161635E+02  0.19654236600E+03 -0.29703518955E+03  0.35893032625E+03  0.25500000920E-02 0.  1.
</event>
<event>
 5   0  0.3601475E-02  0.6903214E+03  0.7818609E-02  0.9733929E-01
        1   -1    0    0  501    0  0.00000000000E+00  0.00000000000E+00  0.69529317266E+03  0.69529317268E+03  0.50400001928E-02 0.  1.
       -1   -1    0    0    0  501  0.00000000000E+00  0.00000000000E+00 -0.17134627199E+03  0.17134627207E+03  0.50400001928E-02 0. -1.
    10030    2    1    2    0    0  0.00000000000E+00  0.00000000000E+00  0.52394690067E+03  0.86663944475E+03  0.69032135449E+03 0.  0.
        5    1    3    3  502    0  0.30592554295E+03  0.59594860849E+02  0.75884691702E+02  0.32081546362E+03  0.46999998093E+01 0. -1.
       -5    1    3    3    0  502 -0.30592554295E+03 -0.59594860849E+02  0.44806220897E+03  0.54582398113E+03  0.46999998093E+01 0.  1.
</event>
<event>
 5   0  0.3749730E-02  0.6883826E+03  0.7818609E-02  0.9737308E-01
        1   -1    0    0  501    0  0.00000000000E+00  0.00000000000E+00  0.42790979970E+03  0.42790979973E+03  0.50400001928E-02 0. -1.
       -1   -1    0    0    0  501  0.00000000000E+00  0.00000000000E+00 -0.27685193536E+03  0.27685193541E+03  0.50400001928E-02 0.  1.
    10030    2    1    2    0    0  0.00000000000E+00  0.00000000000E+00  0.15105786434E+03  0.70476173514E+03  0.68838261522E+03 0.  0.
        4    1    3    3  502    0  0.15784543178E+03 -0.93203775551E+02  0.37377447676E+03  0.41630649345E+03  0.12699999809E+01 0. -1.
       -4    1    3    3    0  502 -0.15784543178E+03  0.93203775551E+02 -0.22271661242E+03  0.28845524169E+03  0.12699999809E+01 0.  1.
</event>
<event>
 5   0  0.3755872E-02  0.6946973E+03  0.7818609E-02  0.9726344E-01
       -1   -1    0    0    0  501  0.00000000000E+00  0.00000000000E+00  0.11251989328E+03  0.11251989339E+03  0.50400001928E-02 0. -1.
        1   -1    0    0  501    0  0.00000000000E+00  0.00000000000E+00 -0.10722643591E+04  0.10722643591E+04  0.50400001928E-02 0.  1.
    10030    2    1    2    0    0  0.00000000000E+00  0.00000000000E+00 -0.95974446582E+03  0.11847842525E+04  0.69469726163E+03 0.  0.
        2    1    3    3  502    0  0.23587900628E+03 -0.17844058847E+03 -0.16925627227E+03  0.34077505033E+03  0.25500000920E-02 0. -1.
       -2    1    3    3    0  502 -0.23587900628E+03  0.17844058847E+03 -0.79048819355E+03  0.84400920218E+03  0.25500000920E-02 0.  1.
</event>
<event>
 5   0  0.3717372E-02  0.7018263E+03  0.7818609E-02  0.9714114E-01
        1   -1    0    0  501    0  0.00000000000E+00  0.00000000000E+00  0.96945590768E+03  0.96945590770E+03  0.50400001928E-02 0.  1.
       -1   -1    0    0    0  501  0.00000000000E+00  0.00000000000E+00 -0.12701972783E+03  0.12701972793E+03  0.50400001928E-02 0. -1.
    10030    2    1    2    0    0  0.00000000000E+00  0.00000000000E+00  0.84243617986E+03  0.10964756356E+04  0.70182626225E+03 0.  0.
        3    1    3    3  502    0 -0.32010816080E+03  0.53613969774E+02  0.21280043234E+03  0.38810788007E+03  0.10100000352E+00 0. -1.
       -3    1    3    3    0  502  0.32010816080E+03 -0.53613969774E+02  0.62963574752E+03  0.70836775556E+03  0.10100000352E+00 0.  1.
</event>
<event>
 5   0  0.6131198E-02  0.6983781E+03  0.7818609E-02  0.9720010E-01
        2   -1    0    0  501    0  0.00000000000E+00  0.00000000000E+00  0.10043182184E+03  0.10043182187E+03  0.25500000920E-02 0. -1.
       -2   -1    0    0    0  501  0.00000000000E+00  0.00000000000E+00 -0.12140873013E+04  0.12140873013E+04  0.25500000920E-02 0.  1.
    10030    2    1    2    0    0  0.00000000000E+00  0.00000000000E+00 -0.11136554795E+04  0.13145191232E+04  0.69837811983E+03 0.  0.
        1    1    3    3  502    0 -0.14820441648E+03 -0.16169529496E+03 -0.10682414543E+04  0.10905272680E+04  0.50400001928E-02 0.  1.
       -1    1    3    3    0  502  0.14820441648E+03  0.16169529496E+03 -0.45414025117E+02  0.22399185516E+03  0.50400001928E-02 0. -1.
</event>
<event>
 5   0  0.3601475E-02  0.6851527E+03  0.7818609E-02  0.9742965E-01
       -1   -1    0    0    0  501  0.00000000000E+00  0.00000000000E+00  0.63739735365E+03  0.63739735367E+03  0.50400001928E-02 0.  1.
        1   -1    0    0  501    0  0.00000000000E+00  0.00000000000E+00 -0.18412148185E+03  0.18412148192E+03  0.50400001928E-02 0. -1.
    10030    2    1    2    0    0  0.00000000000E+00  0.00000000000E+00  0.45327587180E+03  0.82151883558E+03  0.68515267004E+03 0.  0.
        5    1    3    3  502    0  0.65336298287E+02  0.30945622413E+03  0.38436612121E+03  0.49778649204E+03  0.46999998093E+01 0.  1.
       -5    1    3    3    0  502 -0.65336298287E+02 -0.30945622413E+03  0.68909750591E+02  0.32373234354E+03  0.46999998093E+01 0. -1.
</event>
<event>
 5   0  0.5899787E-02  0.7021004E+03  0.7818609E-02  0.9713647E-01
       -2   -1    0    0    0  501  0.00000000000E+00  0.00000000000E+00  0.31867702436E+03  0.31867702437E+03  0.25500000920E-02 0.  1.
        2   -1    0    0  501    0  0.00000000000E+00  0.00000000000E+00 -0.38671203961E+03  0.38671203962E+03  0.25500000920E-02 0. -1.
    10030    2    1    2    0    0  0.00000000000E+00  0.00000000000E+00 -0.68035015252E+02  0.70538906399E+03  0.70210039759E+03 0.  0.
        2    1    3    3  502    0 -0.10637343338E+03  0.19654929015E+03  0.23797054249E+03  0.32646119201E+03  0.25500000920E-02 0.  1.
       -2    1    3    3    0  502  0.10637343338E+03 -0.19654929015E+03 -0.30600555775E+03  0.37892787198E+03  0.25500000920E-02 0. -1.
</event>
<event>
 5   0  0.3755872E-02  0.6381841E+03  0.7818609E-02  0.9829207E-01
        1   -1    0    0  501    0  0.00000000000E+00  0.00000000000E+00  0.28891629293E+03  0.28891629297E+03  0.50400001928E-02 0.  1.
       -1   -1    0    0    0  501  0.00000000000E+00  0.00000000000E+00 -0.35241955132E+03  0.35241955136E+03  0.50400001928E-02 0. -1.
    10030    2    1    2    0    0  0.00000000000E+00  0.00000000000E+00 -0.63503258393E+02  0.64133584434E+03  0.63818414380E+03 0.  0.
        2    1    3    3  502    0  0.14719712662E+03 -0.28202712771E+03 -0.56641980941E+02  0.32313249428E+03  0.25500000920E-02 0.  1.
       -2    1    3    3    0  502 -0.14719712662E+03  0.28202712771E+03 -0.68612774524E+01  0.31820335005E+03  0.25500000920E-02 0. -1.
</event>
<event>
 5   0  0.6248886E-02  0.7032608E+03  0.7818609E-02  0.9711672E-01
       -2   -1    0    0    0  501  0.00000000000E+00  0.00000000000E+00  0.27176467740E+03  0.27176467742E+03  0.25500000920E-02 0.  1.
        2   -1    0    0  501    0  0.00000000000E+00  0.00000000000E+00 -0.45496692463E+03  0.45496692464E+03  0.25500000920E-02 0. -1.
    10030    2    1    2    0    0  0.00000000000E+00  0.00000000000E+00 -0.18320224722E+03  0.72673160205E+03  0.70326080371E+03 0.  0.
        3    1    3    3  502    0 -0.23338959360E+03  0.43832587897E+02  0.17638358472E+03  0.29580935976E+03  0.10100000352E+00 0.  1.
       -3    1    3    3    0  502  0.23338959360E+03 -0.43832587897E+02 -0.35958583195E+03  0.43092224229E+03  0.10100000352E+00 0. -1.
</event>
<event>
 5   0  0.3439015E-02  0.7018129E+03  0.7818609E-02  0.9714137E-01
        1   -1    0    0  501    0  0.00000000000E+00  0.00000000000E+00  0.27634888871E+03  0.27634888875E+03  0.50400001928E-02 0.  1.
       -1   -1    0    0    0  501  0.00000000000E+00  0.00000000000E+00 -0.44557924410E+03  0.44557924413E+03  0.50400001928E-02 0. -1.
    10030    2    1    2    0    0  0.00000000000E+00  0.00000000000E+00 -0.16923035539E+03  0.72192813288E+03  0.70181287809E+03 0.  0.
        1    1    3    3  502    0 -0.19683007560E+03  0.29048948298E+03 -0.87720059206E+02  0.36169189540E+03  0.50400001928E-02 0.  1.
       -1    1    3    3    0  502  0.19683007560E+03 -0.29048948298E+03 -0.81510296186E+02  0.36023623748E+03  0.50400001928E-02 0. -1.
</event>
<event>
 5   0  0.6248886E-02  0.6870784E+03  0.7818609E-02  0.9739589E-01
       -2   -1    0    0    0  501  0.00000000000E+00  0.00000000000E+00  0.82171976859E+02  0.82171976898E+02  0.25500000920E-02 0. -1.
        2   -1    0    0  501    0  0.00000000000E+00  0.00000000000E+00 -0.14362461337E+04  0.14362461337E+04  0.25500000920E-02 0.  1.
    10030    2    1    2    0    0  0.00000000000E+00  0.00000000000E+00 -0.13540741569E+04  0.15184181106E+04  0.68707840628E+03 0.  0.
        3    1    3    3  502    0  0.26422872876E+03  0.21428100045E+03 -0.78270026982E+03  0.85343593247E+03  0.10100000352E+00 0.  1.
       -3    1    3    3    0  502 -0.26422872876E+03 -0.21428100045E+03 -0.57137388704E+03  0.66498217815E+03  0.10100000352E+00 0. -1.
</event>
<event>
 5   0  0.3717372E-02  0.7012418E+03  0.7818609E-02  0.9715111E-01
        1   -1    0    0  501    0  0.00000000000E+00  0.00000000000E+00  0.59204577608E+03  0.59204577610E+03  0.50400001928E-02 0. -1.
       -1   -1    0    0    0  501  0.00000000000E+00  0.00000000000E+00 -0.20764446206E+03  0.20764446212E+03  0.50400001928E-02 0.  1.
    10030    2    1    2    0    0  0.00000000000E+00  0.00000000000E+00  0.38440131402E+03  0.79969023822E+03  0.70124183196E+03 0.  0.
        3    1    3    3  502    0  0.23150598451E+03  0.47284673823E+00 -0.10809232584E+03  0.25549795607E+03  0.10100000352E+00 0.  1.
       -3    1    3    3    0  502 -0.23150598451E+03 -0.47284673823E+00  0.49249363986E+03  0.54419228215E+03  0.10100000352E+00 0. -1.
</event>
<event>
 5   0  0.3601475E-02  0.6775582E+03  0.7818609E-02  0.9756400E-01
       -1   -1    0    0    0  501  0.00000000000E+00  0.00000000000E+00  0.38200430325E+03  0.38200430329E+03  0.50400001928E-02 0. -1.
        1   -1    0    0  501    0  0.00000000000E+00  0.00000000000E+00 -0.30044495645E+03  0.30044495650E+03  0.50400001928E-02 0.  1.
    10030    2    1    2    0    0  0.00000000000E+00  0.00000000000E+00  0.81559346801E+02  0.68244925978E+03  0.67755816365E+03 0.  0.
        5    1    3    3  502    0 -0.55713268128E+02 -0.80462644564E+02 -0.28586210111E+03  0.30218775003E+03  0.46999998093E+01 0.  1.
       -5    1    3    3    0  502  0.55713268128E+02  0.80462644564E+02  0.36742144791E+03  0.38026150976E+03  0.46999998093E+01 0. -1.
</event>
<event>
 5   0  0.3717372E-02  0.6984650E+03  0.7818609E-02  0.9719861E-01
        1   -1    0    0  501    0  0.00000000000E+00  0.00000000000E+00  0.25548820764E+03  0.25548820769E+03  0.50400001928E-02 0. -1.
       -1   -1    0    0    0  501  0.00000000000E+00  0.00000000000E+00 -0.47737369725E+03  0.47737369728E+03  0.50400001928E-02 0.  1.
    10030    2    1    2    0    0  0.00000000000E+00  0.00000000000E+00 -0.22188548961E+03  0.73286190497E+03  0.69846503224E+03 0.  0.
        3    1    3    3  502    0  0.12353801297E+03  0.13064293033E+03 -0.42507618344E+03  0.46153980091E+03  0.10100000352E+00 0.  1.
       -3    1    3    3    0  502 -0.12353801297E+03 -0.13064293033E+03  0.20319069383E+03  0.27132210406E+03  0.10100000352E+00 0. -1.
</event>
<event>
 5   0  0.5987810E-02  0.6998341E+03  0.7818609E-02  0.9717516E-01
        2   -1    0    0  501    0  0.00000000000E+00  0.00000000000E+00  0.34570514584E+03  0.34570514585E+03  0.25500000920E-02 0. -1.
       -2   -1    0    0    0  501  0.00000000000E+00  0.00000000000E+00 -0.35418024143E+03  0.35418024144E+03  0.25500000920E-02 0.  1.
    10030    2    1    2    0    0  0.00000000000E+00  0.00000000000E+00 -0.84750955875E+01  0.69988538729E+03  0.69983407183E+03 0.  0.
        5    1    3    3  502    0 -0.34673293167E+03  0.40560078004E+01  0.42452757196E+02  0.34937730851E+03  0.46999998093E+01 0.  1.
       -5    1    3    3    0  502  0.34673293167E+03 -0.40560078004E+01 -0.50927852784E+02  0.35050807879E+03  0.46999998093E+01 0. -1.
</event>
<event>
 5   0  0.6131198E-02  0.7205182E+03  0.7818609E-02  0.9682773E-01
       -2   -1    0    0    0  501  0.00000000000E+00  0.00000000000E+00  0.11686919489E+03  0.11686919492E+03  0.25500000920E-02 0.  1.
        2   -1    0    0  501    0  0.00000000000E+00  0.00000000000E+00 -0.11105290132E+04  0.11105290132E+04  0.25500000920E-02 0. -1.
    10030    2    1    2    0    0  0.00000000000E+00  0.00000000000E+00 -0.99365981827E+03  0.12273982081E+04  0.72051823485E+03 0.  0.
        1    1    3    3  502    0  0.41291926265E+02  0.17371160710E+03 -0.10298516331E+04  0.10452153519E+04  0.50400001928E-02 0. -1.
       -1    1    3    3    0  502 -0.41291926265E+02 -0.17371160710E+03  0.36191814794E+02  0.18218285622E+03  0.50400001928E-02 0.  1.
</event>
<event>
 5   0  0.6131198E-02  0.6870957E+03  0.7818609E-02  0.9739558E-01
       -2   -1    0    0    0  501  0.00000000000E+00  0.00000000000E+00  0.35118946255E+03  0.35118946256E+03  0.25500000920E-02 0.  1.
        2   -1    0    0  501    0  0.00000000000E+00  0.00000000000E+00 -0.33607250221E+03  0.33607250222E+03  0.25500000920E-02 0. -1.
    10030    2    1    2    0    0  0.00000000000E+00  0.00000000000E+00  0.15116960347E+02  0.68726196478E+03  0.68709568893E+03 0.  0.
        1    1    3    3  502    0 -0.21493988264E+03  0.16321280702E+03 -0.20506659157E+03  0.33895409797E+03  0.50400001928E-02 0. -1.
       -1    1    3    3    0  502  0.21493988264E+03 -0.16321280702E+03  0.22018355192E+03  0.34830786681E+03  0.50400001928E-02 0.  1.
</event>
<event>
 5   0  0.3755872E-02  0.7055492E+03  0.7818609E-02  0.9707789E-01
       -1   -1    0    0    0  501  0.00000000000E+00  0.00000000000E+00  0.14649435744E+03  0.14649435753E+03  0.50400001928E-02 0.  1.
        1   -1    0    0  501    0  0.00000000000E+00  0.00000000000E+00 -0.84952017088E+03  0.84952017090E+03  0.50400001928E-02 0. -1.
    10030    2    1    2    0    0  0.00000000000E+00  0.00000000000E+00 -0.70302581344E+03  0.99601452843E+03  0.70554918076E+03 0.  0.
        2    1    3    3  502    0  0.65214300394E+02 -0.48467527600E+02  0.13310484155E+03  0.15594519889E+03  0.25500000920E-02 0.  1.
       -2    1    3    3    0  502 -0.65214300394E+02  0.48467527600E+02 -0.83613065499E+03  0.84006932953E+03  0.25500000920E-02 0. -1.
</event>
<event>
 5   0  0.2439375E-02  0.7141792E+03  0.7818609E-02  0.9693287E-01
       -4   -1    0    0    0  501  0.00000000000E+00  0.00000000000E+00  0.42204644322E+03  0.42204835403E+03  0.12699999809E+01 0. -1.
        4   -1    0    0  501    0  0.00000000000E+00  0.00000000000E+00 -0.30212627474E+03  0.30212894398E+03  0.12699999809E+01 0.  1.
    10030    2    1    2    0    0  0.00000000000E+00  0.00000000000E+00  0.11992016848E+03  0.72417729800E+03  0.71417918770E+03 0.  0.
        2    1    3    3  502    0  0.17710452653E+02 -0.73003206411E+02  0.41394589496E+03  0.42070694341E+03  0.25500000920E-02 0. -1.
       -2    1    3    3    0  502 -0.17710452653E+02  0.73003206411E+02 -0.29402572648E+03  0.30347035459E+03  0.25500000920E-02 0.  1.
</event>
<event>
 5   0  0.5899787E-02  0.6900050E+03  0.7818609E-02  0.9734479E-01
       -2   -1    0    0    0  501  0.00000000000E+00  0.00000000000E+00  0.70233351936E+02  0.70233351983E+02  0.25500000920E-02 0. -1.
        2   -1    0    0  501    0  0.00000000000E+00  0.00000000000E+00 -0.16947320325E+04  0.16947320325E+04  0.25500000920E-02 0.  1.
    10030    2    1    2    0    0  0.00000000000E+00  0.00000000000E+00 -0.16244986805E+04  0.17649653844E+04  0.69000496032E+03 0.  0.
        2    1    3    3  502    0  0.38744141950E+02 -0.85079241183E+01  0.64380882668E+02  0.75620046072E+02  0.25500000920E-02 0. -1.
       -2    1    3    3    0  502 -0.38744141950E+02  0.85079241183E+01 -0.16888795632E+04  0.16893453384E+04  0.25500000920E-02 0.  1.
</event>
<event>
 5   0  0.3601475E-02  0.7183288E+03  0.7818609E-02  0.9686391E-01
       -1   -1    0    0    0  501  0.00000000000E+00  0.00000000000E+00  0.14030584941E+03  0.14030584950E+03  0.50400001928E-02 0. -1.
        1   -1    0    0  501    0  0.00000000000E+00  0.00000000000E+00 -0.91941337689E+03  0.91941337690E+03  0.50400001928E-02 0.  1.
    10030    2    1    2    0    0  0.00000000000E+00  0.00000000000E+00 -0.77910752748E+03  0.10597192264E+04  0.71832882403E+03 0.  0.
        5    1    3    3  502    0 -0.18116473739E+03  0.60553358230E+02  0.59102776267E+02  0.20000649847E+03  0.46999998093E+01 0. -1.
       -5    1    3    3    0  502  0.18116473739E+03 -0.60553358230E+02 -0.83821030375E+03  0.85971272794E+03  0.46999998093E+01 0.  1.
</event>
<event>
 5   0  0.3749730E-02  0.7092440E+03  0.7818609E-02  0.9701553E-01
        1   -1    0    0  501    0  0.00000000000E+00  0.00000000000E+00  0.68472234030E+03  0.68472234032E+03  0.50400001928E-02 0.  1.
       -1   -1    0    0    0  501  0.00000000000E+00  0.00000000000E+00 -0.18366098589E+03  0.18366098596E+03  0.50400001928E-02 0. -1.
    10030    2    1    2    0    0  0.00000000000E+00  0.00000000000E+00  0.50106135441E+03  0.86838332628E+03  0.70924404860E+03 0.  0.
        4    1    3    3  502    0 -0.26084127155E+03  0.17060218656E+03  0.43426401069E+02  0.31469150006E+03  0.12699999809E+01 0. -1.
       -4    1    3    3    0  502  0.26084127155E+03 -0.17060218656E+03  0.45763495334E+03  0.55369182622E+03  0.12699999809E+01 0.  1.
</event>
<event>
 5   0  0.3717372E-02  0.7023642E+03  0.7818609E-02  0.9713198E-01
       -1   -1    0    0    0  501  0.00000000000E+00  0.00000000000E+00  0.12424136888E+03  0.12424136899E+03  0.50400001928E-02 0.  1.
        1   -1    0    0  501    0  0.00000000000E+00  0.00000000000E+00 -0.99265528457E+03  0.99265528459E+03  0.50400001928E-02 0. -1.
    10030    2    1    2    0    0  0.00000000000E+00  0.00000000000E+00 -0.86841391569E+03  0.11168966536E+04  0.70236415470E+03 0.  0.
        3    1    3    3  502    0 -0.93682151589E+02  0.98778453531E+02 -0.94898685621E+03  0.95870203497E+03  0.10100000352E+00 0. -1.
       -3    1    3    3    0  502  0.93682151589E+02 -0.98778453531E+02  0.80572940520E+02  0.15819461860E+03  0.10100000352E+00 0.  1.
</event>
<event>
 5   0  0.3717372E-02  0.7289230E+03  0.7818609E-02  0.9669010E-01
       -1   -1    0    0    0  501  0.00000000000E+00  0.00000000000E+00  0.18009636653E+03  0.18009636660E+03  0.50400001928E-02 0. -1.
        1   -1    0    0  501    0  0.00000000000E+00  0.00000000000E+00 -0.73756176804E+03  0.73756176805E+03  0.50400001928E-02 0.  1.
    10030    2    1    2    0    0  0.00000000000E+00  0.00000000000E+00 -0.55746540150E+03  0.91765813466E+03  0.72892302627E+03 0.  0.
        3    1    3    3  502    0 -0.21792701709E+03  0.22933679306E+03 -0.50654088664E+03  0.59721958229E+03  0.10100000352E+00 0.  1.
       -3    1    3    3    0  502  0.21792701709E+03 -0.22933679306E+03 -0.50924514862E+02  0.32043855237E+03  0.10100000352E+00 0. -1.
</event>
<event>
 5   0  0.5899787E-02  0.7081729E+03  0.7818609E-02  0.9703357E-01
        2   -1    0    0  501    0  0.00000000000E+00  0.00000000000E+00  0.12535382932E+04  0.12535382932E+04  0.25500000920E-02 0. -1.
       -2   -1    0    0    0  501  0.00000000000E+00  0.00000000000E+00 -0.10001865036E+03  0.10001865040E+03  0.25500000920E-02 0.  1.
    10030    2    1    2    0    0  0.00000000000E+00  0.00000000000E+00  0.11535196428E+04  0.13535569436E+04  0.70817288367E+03 0.  0.
        2    1    3    3  502    0  0.34437744926E+03 -0.55041578345E+01  0.41971485361E+03  0.54294261360E+03  0.25500000920E-02 0.  1.
       -2    1    3    3    0  502 -0.34437744926E+03  0.55041578345E+01  0.73380478923E+03  0.81061433001E+03  0.25500000920E-02 0. -1.
</event>
<event>
 5   0  0.5899787E-02  0.7045792E+03  0.7818609E-02  0.9709433E-01
       -2   -1    0    0    0  501  0.00000000000E+00  0.00000000000E+00  0.11290860163E+03  0.11290860165E+03  0.25500000920E-02 0.  1.
        2   -1    0    0  501    0  0.00000000000E+00  0.00000000000E+00 -0.10991896828E+04  0.10991896829E+04  0.25500000920E-02 0. -1.
    10030    2    1    2    0    0  0.00000000000E+00  0.00000000000E+00 -0.98628108122E+03  0.12120982845E+04  0.70457922204E+03 0.  0.
        2    1    3    3  502    0  0.13574934676E+03 -0.25112637052E+03 -0.84827471482E+03  0.89502085502E+03  0.25500000920E-02 0. -1.
       -2    1    3    3    0  502 -0.13574934676E+03  0.25112637052E+03 -0.13800636640E+03  0.31707742949E+03  0.25500000920E-02 0.  1.
</event>
<event>
 5   0  0.3749730E-02  0.6833740E+03  0.7818609E-02  0.9746095E-01
       -1   -1    0    0    0  501  0.00000000000E+00  0.00000000000E+00  0.17593466770E+03  0.17593466778E+03  0.50400001928E-02 0. -1.
        1   -1    0    0  501    0  0.00000000000E+00  0.00000000000E+00 -0.66359870811E+03  0.66359870813E+03  0.50400001928E-02 0.  1.
    10030    2    1    2    0    0  0.00000000000E+00  0.00000000000E+00 -0.48766404040E+03  0.83953337590E+03  0.68337403591E+03 0.  0.
        4    1    3    3  502    0  0.53623587665E+02 -0.77845262430E+02 -0.64721272514E+03  0.65408049850E+03  0.12699999809E+01 0.  1.
       -4    1    3    3    0  502 -0.53623587665E+02  0.77845262430E+02  0.15954868473E+03  0.18545287740E+03  0.12699999809E+01 0. -1.
</event>
<event>
 5   0  0.3439015E-02  0.7052888E+03  0.7818609E-02  0.9708230E-01
       -1   -1    0    0    0  501  0.00000000000E+00  0.00000000000E+00  0.18304718410E+03  0.18304718417E+03  0.50400001928E-02 0.  1.
        1   -1    0    0  501    0  0.00000000000E+00  0.00000000000E+00 -0.67937717607E+03  0.67937717608E+03  0.50400001928E-02 0. -1.
    10030    2    1    2    0    0  0.00000000000E+00  0.00000000000E+00 -0.49632999197E+03  0.86242436025E+03  0.70528881760E+03 0.  0.
        1    1    3    3  502    0  0.33931486794E+03  0.10292387453E+01 -0.36559442212E+03  0.49879346472E+03  0.50400001928E-02 0.  1.
       -1    1    3    3    0  502 -0.33931486794E+03 -0.10292387453E+01 -0.13073556985E+03  0.36363089553E+03  0.50400001928E-02 0. -1.
</event>
<event>
 5   0  0.3749730E-02  0.6936108E+03  0.7818609E-02  0.9728221E-01
       -1   -1    0    0    0  501  0.00000000000E+00  0.00000000000E+00  0.66974152577E+03  0.66974152579E+03  0.50400001928E-02 0. -1.
        1   -1    0    0  501    0  0.00000000000E+00  0.00000000000E+00 -0.17958267786E+03  0.17958267793E+03  0.50400001928E-02 0.  1.
    10030    2    1    2    0    0  0.00000000000E+00  0.00000000000E+00  0.49015884791E+03  0.84932420372E+03  0.69361077475E+03 0.  0.
        4    1    3    3  502    0  0.18017042919E+02  0.35394898345E+02  0.66694471245E+03  0.66812743921E+03  0.12699999809E+01 0. -1.
       -4    1    3    3    0  502 -0.18017042919E+02 -0.35394898345E+02 -0.17678586455E+03  0.18119676451E+03  0.12699999809E+01 0.  1.
</event>
<event>
 5   0  0.2439375E-02  0.8776866E+03  0.7818609E-02  0.9453912E-01
        3   -1    0    0  501    0  0.00000000000E+00  0.00000000000E+00  0.18559993496E+03  0.18559996244E+03  0.10100000352E+00 0.  1.
       -3   -1    0    0    0  501  0.00000000000E+00  0.00000000000E+00 -0.10376265997E+04  0.10376266046E+04  0.10100000352E+00 0. -1.
    10030    2    1    2    0    0  0.00000000000E+00  0.00000000000E+00 -0.85202666470E+03  0.12232265670E+04  0.87768661655E+03 0.  0.
        1    1    3    3  502    0  0.42434707097E+03 -0.10506532892E+03 -0.37250039712E+03  0.57433936471E+03  0.50400001928E-02 0.  1.
       -1    1    3    3    0  502 -0.42434707097E+03  0.10506532892E+03 -0.47952626758E+03  0.64888720230E+03  0.50400001928E-02 0. -1.
</event>
<event>
 5   0  0.2439375E-02  0.6509792E+03  0.7818609E-02  0.9804944E-01
       -3   -1    0    0    0  501  0.00000000000E+00  0.00000000000E+00  0.16627718627E+04  0.16627718658E+04  0.10100000352E+00 0. -1.
        3   -1    0    0  501    0  0.00000000000E+00  0.00000000000E+00 -0.63714931060E+02  0.63715011112E+02  0.10100000352E+00 0.  1.
    10030    2    1    2    0    0  0.00000000000E+00  0.00000000000E+00  0.15990569316E+04  0.17264868769E+04  0.65097915896E+03 0.  0.
        2    1    3    3  502    0 -0.25160307969E+02  0.13227740987E+03  0.15854440146E+04  0.15911514943E+04  0.25500000920E-02 0. -1.
       -2    1    3    3    0  502  0.25160307969E+02 -0.13227740987E+03  0.13612916988E+02  0.13533538256E+03  0.25500000920E-02 0.  1.
</event>
<event>
 5   0  0.3717372E-02  0.7068741E+03  0.7818609E-02  0.9705548E-01
        1   -1    0    0  501    0  0.00000000000E+00  0.00000000000E+00  0.84984329096E+03  0.84984329097E+03  0.50400001928E-02 0. -1.
       -1   -1    0    0    0  501  0.00000000000E+00  0.00000000000E+00 -0.14698916337E+03  0.14698916345E+03  0.50400001928E-02 0.  1.
    10030    2    1    2    0    0  0.00000000000E+00  0.00000000000E+00  0.70285412759E+03  0.99683245442E+03  0.70687411717E+03 0.  0.
        3    1    3    3  502    0  0.13604164788E+03 -0.18149787044E+03  0.73366339861E+03  0.76792629829E+03  0.10100000352E+00 0. -1.
       -3    1    3    3    0  502 -0.13604164788E+03  0.18149787044E+03 -0.30809271023E+02  0.22890615614E+03  0.10100000352E+00 0.  1.
</event>
<event>
 5   0  0.6167756E-02  0.6829954E+03  0.7818609E-02  0.9746762E-01
       -2   -1    0    0    0  501  0.00000000000E+00  0.00000000000E+00  0.22337911283E+03  0.22337911285E+03  0.25500000920E-02 0. -1.
        2   -1    0    0  501    0  0.00000000000E+00  0.00000000000E+00 -0.52207517720E+03  0.52207517720E+03  0.25500000920E-02 0.  1.
    10030    2    1    2    0    0  0.00000000000E+00  0.00000000000E+00 -0.29869606436E+03  0.74545429005E+03  0.68299543167E+03 0.  0.
        4    1    3    3  502    0  0.17838838597E+03  0.23901510757E+03  0.32201673603E+02  0.29998199709E+03  0.12699999809E+01 0. -1.
       -4    1    3    3    0  502 -0.17838838597E+03 -0.23901510757E+03 -0.33089773797E+03  0.44547229295E+03  0.12699999809E+01 0.  1.
</event>
<event>
 5   0  0.6248886E-02  0.6998763E+03  0.7818609E-02  0.9717444E-01
       -2   -1    0    0    0  501  0.00000000000E+00  0.00000000000E+00  0.13622327684E+03  0.13622327687E+03  0.25500000920E-02 0. -1.
        2   -1    0    0  501    0  0.00000000000E+00  0.00000000000E+00 -0.89894115091E+03  0.89894115091E+03  0.25500000920E-02 0.  1.
    10030    2    1    2    0    0  0.00000000000E+00  0.00000000000E+00 -0.76271787407E+03  0.10351644278E+04  0.69987630130E+03 0.  0.
        3    1    3    3  502    0 -0.86514773320E+02 -0.23068831984E+03 -0.74891482464E+03  0.78840048940E+03  0.10100000352E+00 0.  1.
       -3    1    3    3    0  502  0.86514773320E+02  0.23068831984E+03 -0.13803049425E+02  0.24676393838E+03  0.10100000352E+00 0. -1.
</event>
<event>
 5   0  0.6131198E-02  0.6640419E+03  0.7818609E-02  0.9780782E-01
       -2   -1    0    0    0  501  0.00000000000E+00  0.00000000000E+00  0.10661733990E+03  0.10661733993E+03  0.25500000920E-02 0. -1.
        2   -1    0    0  501    0  0.00000000000E+00  0.00000000000E+00 -0.10339584614E+04  0.10339584614E+04  0.25500000920E-02 0.  1.
    10030    2    1    2    0    0  0.00000000000E+00  0.00000000000E+00 -0.92734112146E+03  0.11405758013E+04  0.66404186836E+03 0.  0.
        1    1    3    3  502    0  0.97446346226E+02 -0.23660738565E+03 -0.10028376156E+03  0.27483754874E+03  0.50400001928E-02 0.  1.
       -1    1    3    3    0  502 -0.97446346226E+02  0.23660738565E+03 -0.82705735990E+03  0.86573825255E+03  0.50400001928E-02 0. -1.
</event>
<event>
 5   0  0.2439375E-02  0.7054517E+03  0.7818609E-02  0.9707954E-01
        3   -1    0    0  501    0  0.00000000000E+00  0.00000000000E+00  0.89858239877E+03  0.89858240444E+03  0.10100000352E+00 0. -1.
       -3   -1    0    0    0  501  0.00000000000E+00  0.00000000000E+00 -0.13845752642E+03  0.13845756326E+03  0.10100000352E+00 0.  1.
    10030    2    1    2    0    0  0.00000000000E+00  0.00000000000E+00  0.76012487234E+03  0.10370399677E+04  0.70545168018E+03 0.  0.
        1    1    3    3  502    0 -0.93048513865E+02 -0.25530003333E+03  0.49453189671E+02  0.27619151136E+03  0.50400001928E-02 0.  1.
       -1    1    3    3    0  502  0.93048513865E+02  0.25530003333E+03  0.71067168267E+03  0.76084845635E+03  0.50400001928E-02 0. -1.
</event>
<event>
 5   0  0.6248886E-02  0.7137276E+03  0.7818609E-02  0.9694040E-01
        2   -1    0    0  501    0  0.00000000000E+00  0.00000000000E+00  0.22515549204E+03  0.22515549206E+03  0.25500000920E-02 0.  1.
       -2   -1    0    0    0  501  0.00000000000E+00  0.00000000000E+00 -0.56561699667E+03  0.56561699667E+03  0.25500000920E-02 0. -1.
    10030    2    1    2    0    0  0.00000000000E+00  0.00000000000E+00 -0.34046150462E+03  0.79077248873E+03  0.71372760407E+03 0.  0.
        3    1    3    3  502    0  0.10272181804E+03  0.20354876345E+03 -0.47439785575E+03  0.52634324043E+03  0.10100000352E+00 0. -1.
       -3    1    3    3    0  502 -0.10272181804E+03 -0.20354876345E+03  0.13393635113E+03  0.26442924830E+03  0.10100000352E+00 0.  1.
</event>
<event>
 5   0  0.5987810E-02  0.7038603E+03  0.7818609E-02  0.9710653E-01
       -2   -1    0    0    0  501  0.00000000000E+00  0.00000000000E+00  0.22666397043E+03  0.22666397044E+03  0.25500000920E-02 0.  1.
        2   -1    0    0  501    0  0.00000000000E+00  0.00000000000E+00 -0.54642482234E+03  0.54642482235E+03  0.25500000920E-02 0. -1.
    10030    2    1    2    0    0  0.00000000000E+00  0.00000000000E+00 -0.31976085191E+03  0.77308879279E+03  0.70386026960E+03 0.  0.
        5    1    3    3  502    0  0.15535073385E+03  0.28231737507E+03 -0.45658947455E+01  0.32230403064E+03  0.46999998093E+01 0.  1.
       -5    1    3    3    0  502 -0.15535073385E+03 -0.28231737507E+03 -0.31519495717E+03  0.45078476216E+03  0.46999998093E+01 0. -1.
</event>
<event>
 5   0  0.2439375E-02  0.7063346E+03  0.7818609E-02  0.9706460E-01
       -4   -1    0    0    0  501  0.00000000000E+00  0.00000000000E+00  0.30397758087E+03  0.30398023385E+03  0.12699999809E+01 0.  1.
        4   -1    0    0  501    0  0.00000000000E+00  0.00000000000E+00 -0.41031149430E+03  0.41031345976E+03  0.12699999809E+01 0. -1.
    10030    2    1    2    0    0  0.00000000000E+00  0.00000000000E+00 -0.10633391344E+03  0.71429369361E+03  0.70633460879E+03 0.  0.
        2    1    3    3  502    0 -0.80224532693E+02  0.79482801497E+02 -0.39156220335E+03  0.40752233126E+03  0.25500000920E-02 0. -1.
       -2    1    3    3    0  502  0.80224532693E+02 -0.79482801497E+02  0.28522828991E+03  0.30677136234E+03  0.25500000920E-02 0.  1.
</event>
<event>
 5   0  0.3439015E-02  0.7030417E+03  0.7818609E-02  0.9712045E-01
       -1   -1    0    0    0  501  0.00000000000E+00  0.00000000000E+00  0.43762440163E+03  0.43762440166E+03  0.50400001928E-02 0.  1.
        1   -1    0    0  501    0  0.00000000000E+00  0.00000000000E+00 -0.28235836922E+03  0.28235836927E+03  0.50400001928E-02 0. -1.
    10030    2    1    2    0    0  0.00000000000E+00  0.00000000000E+00  0.15526603241E+03  0.71998277093E+03  0.70304171257E+03 0.  0.
        1    1    3    3  502    0  0.21868783883E+02  0.11753693063E+03  0.41616438075E+03  0.43299649606E+03  0.50400001928E-02 0.  1.
       -1    1    3    3    0  502 -0.21868783883E+02 -0.11753693063E+03 -0.26089834834E+03  0.28698627487E+03  0.50400001928E-02 0. -1.
</event>
<event>
 5   0  0.6131198E-02  0.6987808E+03  0.7818609E-02  0.9719319E-01
       -2   -1    0    0    0  501  0.00000000000E+00  0.00000000000E+00  0.21986595481E+03  0.21986595483E+03  0.25500000920E-02 0. -1.
        2   -1    0    0  501    0  0.00000000000E+00  0.00000000000E+00 -0.55521850303E+03  0.55521850304E+03  0.25500000920E-02 0.  1.
    10030    2    1    2    0    0  0.00000000000E+00  0.00000000000E+00 -0.33535254822E+03  0.77508445786E+03  0.69878078481E+03 0.  0.
        1    1    3    3  502    0  0.17753826514E+03  0.17780515963E+03  0.10160735800E+03  0.27103240693E+03  0.50400001928E-02 0. -1.
       -1    1    3    3    0  502 -0.17753826514E+03 -0.17780515963E+03 -0.43695990622E+03  0.50405205093E+03  0.50400001928E-02 0.  1.
</event>
<event>
 5   0  0.3717372E-02  0.7062649E+03  0.7818609E-02  0.9706578E-01
        1   -1    0    0  501    0  0.00000000000E+00  0.00000000000E+00  0.71949469829E+03  0.71949469831E+03  0.50400001928E-02 0. -1.
       -1   -1    0    0    0  501  0.00000000000E+00  0.00000000000E+00 -0.17331960485E+03  0.17331960492E+03  0.50400001928E-02 0.  1.
    10030    2    1    2    0    0  0.00000000000E+00  0.00000000000E+00  0.54617509344E+03  0.89281430322E+03  0.70626492717E+03 0.  0.
        3    1    3    3  502    0  0.22185664137E+03  0.25912793324E+03  0.38849741740E+03  0.51700861563E+03  0.10100000352E+00 0. -1.
       -3    1    3    3    0  502 -0.22185664137E+03 -0.25912793324E+03  0.15767767605E+03  0.37580568760E+03  0.10100000352E+00 0.  1.
</event>
<event>
 5   0  0.3755872E-02  0.6977185E+03  0.7818609E-02  0.9721142E-01
       -1   -1    0    0    0  501  0.00000000000E+00  0.00000000000E+00  0.10370347889E+03  0.10370347901E+03  0.50400001928E-02 0.  1.
        1   -1    0    0  501    0  0.00000000000E+00  0.00000000000E+00 -0.11735649548E+04  0.11735649548E+04  0.50400001928E-02 0. -1.
    10030    2    1    2    0    0  0.00000000000E+00  0.00000000000E+00 -0.10698614759E+04  0.12772684338E+04  0.69771847790E+03 0.  0.
        2    1    3    3  502    0 -0.17937762356E+03 -0.67752724911E+02 -0.10684472555E+04  0.10855166057E+04  0.25500000920E-02 0. -1.
       -2    1    3    3    0  502  0.17937762356E+03  0.67752724911E+02 -0.14142204734E+01  0.19175182813E+03  0.25500000920E-02 0.  1.
</event>
<event>
 5   0  0.3749730E-02  0.7140993E+03  0.7818609E-02  0.9693420E-01
        1   -1    0    0  501    0  0.00000000000E+00  0.00000000000E+00  0.32783839757E+03  0.32783839761E+03  0.50400001928E-02 0.  1.
       -1   -1    0    0    0  501  0.00000000000E+00  0.00000000000E+00 -0.38886365819E+03  0.38886365822E+03  0.50400001928E-02 0. -1.
    10030    2    1    2    0    0  0.00000000000E+00  0.00000000000E+00 -0.61025260624E+02  0.71670205583E+03  0.71409926089E+03 0.  0.
        4    1    3    3  502    0  0.25209002672E+03 -0.15272864664E+03 -0.23275990732E+03  0.37557184191E+03  0.12699999809E+01 0. -1.
       -4    1    3    3    0  502 -0.25209002672E+03  0.15272864664E+03  0.17173464670E+03  0.34113021393E+03  0.12699999809E+01 0.  1.
</event>
<event>
 5   0  0.6167756E-02  0.7032562E+03  0.7818609E-02  0.9711680E-01
       -2   -1    0    0    0  501  0.00000000000E+00  0.00000000000E+00  0.23256466466E+03  0.23256466468E+03  0.25500000920E-02 0. -1.
        2   -1    0    0  501    0  0.00000000000E+00  0.00000000000E+00 -0.53164712873E+03  0.53164712874E+03  0.25500000920E-02 0.  1.
    10030    2    1    2    0    0  0.00000000000E+00  0.00000000000E+00 -0.29908246407E+03  0.76421179342E+03  0.70325624411E+03 0.  0.
        4    1    3    3  502    0 -0.27001407687E+02 -0.35053366491E+03 -0.15622204307E+03  0.38472050360E+03  0.12699999809E+01 0.  1.
       -4    1    3    3    0  502  0.27001407687E+02  0.35053366491E+03 -0.14286042100E+03  0.37949128981E+03  0.12699999809E+01 0. -1.
</event>
<event>
 5   0  0.3601475E-02  0.6925885E+03  0.7818609E-02  0.9729992E-01
       -1   -1    0    0    0  501  0.00000000000E+00  0.00000000000E+00  0.37362405714E+03  0.37362405718E+03  0.50400001928E-02 0.  1.
        1   -1    0    0  501    0  0.00000000000E+00  0.00000000000E+00 -0.32096353106E+03  0.32096353110E+03  0.50400001928E-02 0. -1.
    10030    2    1    2    0    0  0.00000000000E+00  0.00000000000E+00  0.52660526083E+02  0.69458758827E+03  0.69258846856E+03 0.  0.
        5    1    3    3  502    0 -0.11050418836E+03 -0.29186118192E+03  0.17677486823E+03  0.35869983160E+03  0.46999998093E+01 0. -1.
       -5    1    3    3    0  502  0.11050418836E+03  0.29186118192E+03 -0.12411434215E+03  0.33588775667E+03  0.46999998093E+01 0.  1.
</event>
<event>
 5   0  0.3717372E-02  0.6910426E+03  0.7818609E-02  0.9732674E-01
       -1   -1    0    0    0  501  0.00000000000E+00  0.00000000000E+00  0.19500696895E+03  0.19500696901E+03  0.50400001928E-02 0. -1.
        1   -1    0    0  501    0  0.00000000000E+00  0.00000000000E+00 -0.61220864219E+03  0.61220864221E+03  0.50400001928E-02 0.  1.
    10030    2    1    2    0    0  0.00000000000E+00  0.00000000000E+00 -0.41720167325E+03  0.80721561123E+03  0.69104255068E+03 0.  0.
        3    1    3    3  502    0 -0.16268412291E+03 -0.23495619172E+03 -0.43545063447E+03  0.52085295538E+03  0.10100000352E+00 0.  1.
       -3    1    3    3    0  502  0.16268412291E+03  0.23495619172E+03  0.18248961218E+02  0.28636265584E+03  0.10100000352E+00 0. -1.
</event>
<event>
 5   0  0.3601475E-02  0.6933403E+03  0.7818609E-02  0.9728689E-01
        1   -1    0    0  501    0  0.00000000000E+00  0.00000000000E+00  0.62334809785E+03  0.62334809787E+03  0.50400001928E-02 0.  1.
       -1   -1    0    0    0  501  0.00000000000E+00  0.00000000000E+00 -0.19279789285E+03  0.19279789292E+03  0.50400001928E-02 0. -1.
    10030    2    1    2    0    0  0.00000000000E+00  0.00000000000E+00  0.43055020500E+03  0.81614599079E+03  0.69334031994E+03 0.  0.
        5    1    3    3  502    0  0.29982552367E+01 -0.34336127868E+03  0.15941261120E+03  0.37860325915E+03  0.46999998093E+01 0.  1.
       -5    1    3    3    0  502 -0.29982552367E+01  0.34336127868E+03  0.27113759381E+03  0.43754273163E+03  0.46999998093E+01 0. -1.
</event>
<event>
 5   0  0.5987810E-02  0.7058258E+03  0.7818609E-02  0.9707321E-01
       -2   -1    0    0    0  501  0.00000000000E+00  0.00000000000E+00  0.11774632826E+03  0.11774632828E+03  0.25500000920E-02 0. -1.
        2   -1    0    0  501    0  0.00000000000E+00  0.00000000000E+00 -0.10577613386E+04  0.10577613386E+04  0.25500000920E-02 0.  1.
    10030    2    1    2    0    0  0.00000000000E+00  0.00000000000E+00 -0.94001501036E+03  0.11755076669E+04  0.70582579667E+03 0.  0.
        5    1    3    3  502    0  0.36311528458E+02  0.35089885606E+03 -0.45540385103E+03  0.57607576916E+03  0.46999998093E+01 0.  1.
       -5    1    3    3    0  502 -0.36311528458E+02 -0.35089885606E+03 -0.48461115933E+03  0.59943189774E+03  0.46999998093E+01 0. -1.
</event>
<event>
 5   0  0.6131198E-02  0.7463973E+03  0.7818609E-02  0.9641019E-01
       -2   -1    0    0    0  501  0.00000000000E+00  0.00000000000E+00  0.10722276476E+04  0.10722276476E+04  0.25500000920E-02 0. -1.
        2   -1    0    0  501    0  0.00000000000E+00  0.00000000000E+00 -0.12989521503E+03  0.12989521505E+03  0.25500000920E-02 0.  1.
    10030    2    1    2    0    0  0.00000000000E+00  0.00000000000E+00  0.94233243257E+03  0.12021228627E+04  0.74639732277E+03 0.  0.
        1    1    3    3  502    0  0.27170922217E+03 -0.50457058285E+02  0.87511177104E+03  0.91771042709E+03  0.50400001928E-02 0. -1.
       -1    1    3    3    0  502 -0.27170922217E+03  0.50457058285E+02  0.67220661524E+02  0.28441243556E+03  0.50400001928E-02 0.  1.
</event>
<event>
 5   0  0.3755872E-02  0.7161017E+03  0.7818609E-02  0.9690086E-01
       -1   -1    0    0    0  501  0.00000000000E+00  0.00000000000E+00  0.20221364040E+03  0.20221364046E+03  0.50400001928E-02 0.  1.
        1   -1    0    0  501    0  0.00000000000E+00  0.00000000000E+00 -0.63398504414E+03  0.63398504416E+03  0.50400001928E-02 0. -1.
    10030    2    1    2    0    0  0.00000000000E+00  0.00000000000E+00 -0.43177140374E+03  0.83619868462E+03  0.71610173514E+03 0.  0.
        2    1    3    3  502    0  0.31641959540E+03  0.16639349831E+03 -0.19275836033E+03  0.40615753362E+03  0.25500000920E-02 0. -1.
       -2    1    3    3    0  502 -0.31641959540E+03 -0.16639349831E+03 -0.23901304341E+03  0.43004115100E+03  0.25500000920E-02 0.  1.
</event>
<event>
 5   0  0.5987810E-02  0.7009143E+03  0.7818609E-02  0.9715670E-01
       -2   -1    0    0    0  501  0.00000000000E+00  0.00000000000E+00  0.73541648711E+02  0.73541648755E+02  0.25500000920E-02 0.  1.
        2   -1    0    0  501    0  0.00000000000E+00  0.00000000000E+00 -0.16700768731E+04  0.16700768731E+04  0.25500000920E-02 0. -1.
    10030    2    1    2    0    0  0.00000000000E+00  0.00000000000E+00 -0.15965352244E+04  0.17436185219E+04  0.70091427939E+03 0.  0.
        5    1    3    3  502    0  0.25818066286E+03  0.23666449914E+03 -0.82671563926E+03  0.89785754885E+03  0.46999998093E+01 0.  1.
       -5    1    3    3    0  502 -0.25818066286E+03 -0.23666449914E+03 -0.76981958516E+03  0.84576097304E+03  0.46999998093E+01 0. -1.
</event>
<event>
 5   0  0.6131198E-02  0.7406358E+03  0.7818609E-02  0.9650157E-01
       -2   -1    0    0    0  501  0.00000000000E+00  0.00000000000E+00  0.41911698464E+03  0.41911698465E+03  0.25500000920E-02 0.  1.
        2   -1    0    0  501    0  0.00000000000E+00  0.00000000000E+00 -0.32720064737E+03  0.32720064738E+03  0.25500000920E-02 0. -1.
    10030    2    1    2    0    0  0.00000000000E+00  0.00000000000E+00  0.91916337269E+02  0.74631763203E+03  0.74063580444E+03 0.  0.
        1    1    3    3  502    0 -0.10619653305E+03  0.57588475666E+02  0.39870253424E+03  0.41660274483E+03  0.50400001928E-02 0.  1.
       -1    1    3    3    0  502  0.10619653305E+03 -0.57588475666E+02 -0.30678619698E+03  0.32971488720E+03  0.50400001928E-02 0. -1.
</event>
<event>
 5   0  0.3601475E-02  0.7077444E+03  0.7818609E-02  0.9704079E-01
        1   -1    0    0  501    0  0.00000000000E+00  0.00000000000E+00  0.72416493973E+03  0.72416493975E+03  0.50400001928E-02 0. -1.
       -1   -1    0    0    0  501  0.00000000000E+00  0.00000000000E+00 -0.17292405799E+03  0.17292405807E+03  0.50400001928E-02 0.  1.
    10030    2    1    2    0    0  0.00000000000E+00  0.00000000000E+00  0.55124088173E+03  0.89708899781E+03  0.70774441736E+03 0.  0.
        5    1    3    3  502    0 -0.83164347066E+02 -0.28920182027E+03  0.39677362199E+02  0.30356281811E+03  0.46999998093E+01 0.  1.
       -5    1    3    3    0  502  0.83164347066E+02  0.28920182027E+03  0.51156351954E+03  0.59352617970E+03  0.46999998093E+01 0. -1.
</event>
<event>
 5   0  0.6131198E-02  0.7087260E+03  0.7818609E-02  0.9702425E-01
        2   -1    0    0  501    0  0.00000000000E+00  0.00000000000E+00  0.15234023291E+04  0.15234023291E+04  0.25500000920E-02 0. -1.
       -2   -1    0    0    0  501  0.00000000000E+00  0.00000000000E+00 -0.82429387539E+02  0.82429387579E+02  0.25500000920E-02 0.  1.
    10030    2    1    2    0    0  0.00000000000E+00  0.00000000000E+00  0.14409729416E+04  0.16058317167E+04  0.70872595832E+03 0.  0.
        1    1    3    3  502    0 -0.45152526241E+02  0.27076948644E+03  0.12282394763E+04  0.12585416468E+04  0.50400001928E-02 0. -1.
       -1    1    3    3    0  502  0.45152526241E+02 -0.27076948644E+03  0.21273346527E+03  0.34729006995E+03  0.50400001928E-02 0.  1.
</event>
<event>
 5   0  0.6248886E-02  0.6912972E+03  0.7818609E-02  0.9732232E-01
        2   -1    0    0  501    0  0.00000000000E+00  0.00000000000E+00  0.65585225394E+03  0.65585225394E+03  0.25500000920E-02 0. -1.
       -2   -1    0    0    0  501  0.00000000000E+00  0.00000000000E+00 -0.18216441558E+03  0.18216441559E+03  0.25500000920E-02 0.  1.
    10030    2    1    2    0    0  0.00000000000E+00  0.00000000000E+00  0.47368783836E+03  0.83801666953E+03  0.69129716491E+03 0.  0.
        3    1    3    3  502    0  0.17322178558E+03  0.17616369586E+03 -0.56190627055E+02  0.25337093659E+03  0.10100000352E+00 0.  1.
       -3    1    3    3    0  502 -0.17322178558E+03 -0.17616369586E+03  0.52987846542E+03  0.58464573294E+03  0.10100000352E+00 0. -1.
</event>
<event>
 5   0  0.3749730E-02  0.6937576E+03  0.7818609E-02  0.9727968E-01
        1   -1    0    0  501    0  0.00000000000E+00  0.00000000000E+00  0.53761547787E+03  0.53761547789E+03  0.50400001928E-02 0. -1.
       -1   -1    0    0    0  501  0.00000000000E+00  0.00000000000E+00 -0.22381217897E+03  0.22381217903E+03  0.50400001928E-02 0.  1.
    10030    2    1    2    0    0  0.00000000000E+00  0.00000000000E+00  0.31380329890E+03  0.76142765692E+03  0.69375757028E+03 0.  0.
        4    1    3    3  502    0  0.20439260225E+03 -0.14633784465E+03  0.41923970952E+03  0.48882987590E+03  0.12699999809E+01 0. -1.
       -4    1    3    3    0  502 -0.20439260225E+03  0.14633784465E+03 -0.10543641062E+03  0.27259778102E+03  0.12699999809E+01 0.  1.
</event>
<event>
 5   0  0.3749730E-02  0.6924900E+03  0.7818609E-02  0.9730162E-01
       -1   -1    0    0    0  501  0.00000000000E+00  0.00000000000E+00  0.19640149041E+03  0.19640149047E+03  0.50400001928E-02 0.  1.
        1   -1    0    0  501    0  0.00000000000E+00  0.00000000000E+00 -0.61041092503E+03  0.61041092505E+03  0.50400001928E-02 0. -1.
    10030    2    1    2    0    0  0.00000000000E+00  0.00000000000E+00 -0.41400943462E+03  0.80681241552E+03  0.69249004461E+03 0.  0.
        4    1    3    3  502    0 -0.10613906178E+03  0.29396590611E+03 -0.38060900573E+03  0.49248988063E+03  0.12699999809E+01 0. -1.
       -4    1    3    3    0  502  0.10613906178E+03 -0.29396590611E+03 -0.33400428888E+02  0.31432253489E+03  0.12699999809E+01 0.  1.
</event>
<event>
 5   0  0.3439015E-02  0.7060030E+03  0.7818609E-02  0.9707021E-01
       -1   -1    0    0    0  501  0.00000000000E+00  0.00000000000E+00  0.18599840561E+03  0.18599840568E+03  0.50400001928E-02 0. -1.
        1   -1    0    0  501    0  0.00000000000E+00  0.00000000000E+00 -0.66995221678E+03  0.66995221680E+03  0.50400001928E-02 0.  1.
    10030    2    1    2    0    0  0.00000000000E+00  0.00000000000E+00 -0.48395381117E+03  0.85595062248E+03  0.70600295805E+03 0.  0.
        1    1    3    3  502    0  0.20649901214E+03  0.20555525470E+03 -0.48359017602E+03  0.56458326500E+03  0.50400001928E-02 0. -1.
       -1    1    3    3    0  502 -0.20649901214E+03 -0.20555525470E+03 -0.36363514772E+00  0.29136735748E+03  0.50400001928E-02 0.  1.
</event>
<event>
 5   0  0.5987810E-02  0.7147424E+03  0.7818609E-02  0.9692348E-01
        2   -1    0    0  501    0  0.00000000000E+00  0.00000000000E+00  0.13010457875E+04  0.13010457875E+04  0.25500000920E-02 0.  1.
       -2   -1    0    0    0  501  0.00000000000E+00  0.00000000000E+00 -0.98162706355E+02  0.98162706388E+02  0.25500000920E-02 0. -1.
    10030    2    1    2    0    0  0.00000000000E+00  0.00000000000E+00  0.12028830811E+04  0.13992084938E+04  0.71474240286E+03 0.  0.
        5    1    3    3  502    0 -0.11276996739E+03 -0.23356217674E+03  0.10826537627E+04  0.11132967331E+04  0.46999998093E+01 0.  1.
       -5    1    3    3    0  502  0.11276996739E+03  0.23356217674E+03  0.12022931838E+03  0.28591176077E+03  0.46999998093E+01 0. -1.
</event>
<event>
 5   0  0.3439015E-02  0.6953640E+03  0.7818609E-02  0.9725193E-01
        1   -1    0    0  501    0  0.00000000000E+00  0.00000000000E+00  0.40270150994E+03  0.40270150997E+03  0.50400001928E-02 0. -1.
       -1   -1    0    0    0  501  0.00000000000E+00  0.00000000000E+00 -0.30017961350E+03  0.30017961354E+03  0.50400001928E-02 0.  1.
    10030    2    1    2    0    0  0.00000000000E+00  0.00000000000E+00  0.10252189643E+03  0.70288112351E+03  0.69536403023E+03 0.  0.
        1    1    3    3  502    0 -0.20127264348E+03  0.16237199174E+03 -0.18364632623E+03  0.31717710175E+03  0.50400001928E-02 0.  1.
       -1    1    3    3    0  502  0.20127264348E+03 -0.16237199174E+03  0.28616822266E+03  0.38570402176E+03  0.50400001928E-02 0. -1.
</event>
<event>
 5   0  0.3601475E-02  0.7028725E+03  0.7818609E-02  0.9712332E-01
       -1   -1    0    0    0  501  0.00000000000E+00  0.00000000000E+00  0.24728753314E+03  0.24728753319E+03  0.50400001928E-02 0.  1.
        1   -1    0    0  501    0  0.00000000000E+00  0.00000000000E+00 -0.49944876336E+03  0.49944876338E+03  0.50400001928E-02 0. -1.
    10030    2    1    2    0    0  0.00000000000E+00  0.00000000000E+00 -0.25216123022E+03  0.74673629657E+03  0.70287254221E+03 0.  0.
        5    1    3    3  502    0  0.25334599284E+03 -0.22420534866E+03 -0.25106544014E+02  0.33927077535E+03  0.46999998093E+01 0.  1.
       -5    1    3    3    0  502 -0.25334599284E+03  0.22420534866E+03 -0.22705468620E+03  0.40746552122E+03  0.46999998093E+01 0. -1.
</event>
<event>
 5   0  0.5987810E-02  0.6995856E+03  0.7818609E-02  0.9717941E-01
       -2   -1    0    0    0  501  0.00000000000E+00  0.00000000000E+00  0.66247344981E+03  0.66247344981E+03  0.25500000920E-02 0.  1.
        2   -1    0    0  501    0  0.00000000000E+00  0.00000000000E+00 -0.18469421256E+03  0.18469421257E+03  0.25500000920E-02 0. -1.
    10030    2    1    2    0    0  0.00000000000E+00  0.00000000000E+00  0.47777923725E+03  0.84716766239E+03  0.69958562639E+03 0.  0.
        5    1    3    3  502    0  0.18140463056E+03  0.28153763713E+03  0.11681800352E+03  0.35473880117E+03  0.46999998093E+01 0.  1.
       -5    1    3    3    0  502 -0.18140463056E+03 -0.28153763713E+03  0.36096123373E+03  0.49242886122E+03  0.46999998093E+01 0. -1.
</event>
<event>
 5   0  0.6131198E-02  0.6948780E+03  0.7818609E-02  0.9726032E-01
        2   -1    0    0  501    0  0.00000000000E+00  0.00000000000E+00  0.43410062734E+03  0.43410062735E+03  0.25500000920E-02 0. -1.
       -2   -1    0    0    0  501  0.00000000000E+00  0.00000000000E+00 -0.27807805854E+03  0.27807805856E+03  0.25500000920E-02 0.  1.
    10030    2    1    2    0    0  0.00000000000E+00  0.00000000000E+00  0.15602256880E+03  0.71217868591E+03  0.69487800273E+03 0.  0.
        1    1    3    3  502    0 -0.17443017287E+03  0.22289554092E+03  0.28453651657E+03  0.40133444490E+03  0.50400001928E-02 0. -1.
       -1    1    3    3    0  502  0.17443017287E+03 -0.22289554092E+03 -0.12851394777E+03  0.31084424101E+03  0.50400001928E-02 0.  1.
</event>
<event>
 5   0  0.6167756E-02  0.6519173E+03  0.7818609E-02  0.9803188E-01
        2   -1    0    0  501    0  0.00000000000E+00  0.00000000000E+00  0.84528515175E+03  0.84528515175E+03  0.25500000920E-02 0.  1.
       -2   -1    0    0    0  501  0.00000000000E+00  0.00000000000E+00 -0.12569607608E+03  0.12569607611E+03  0.25500000920E-02 0. -1.
    10030    2    1    2    0    0  0.00000000000E+00  0.00000000000E+00  0.71958907567E+03  0.97098122785E+03  0.65191725474E+03 0.  0.
        4    1    3    3  502    0  0.16062587717E+03 -0.25440521041E+00  0.78224171427E+03  0.79856399216E+03  0.12699999809E+01 0.  1.
       -4    1    3    3    0  502 -0.16062587717E+03  0.25440521041E+00 -0.62652638602E+02  0.17241723569E+03  0.12699999809E+01 0. -1.
</event>
<event>
 5   0  0.5987810E-02  0.7114243E+03  0.7818609E-02  0.9697892E-01
        2   -1    0    0  501    0  0.00000000000E+00  0.00000000000E+00  0.65483697994E+03  0.65483697994E+03  0.25500000920E-02 0.  1.
       -2   -1    0    0    0  501  0.00000000000E+00  0.00000000000E+00 -0.19322537429E+03  0.19322537430E+03  0.25500000920E-02 0. -1.
    10030    2    1    2    0    0  0.00000000000E+00  0.00000000000E+00  0.46161160565E+03  0.84806235425E+03  0.71142426317E+03 0.  0.
        5    1    3    3  502    0 -0.27295035712E+03  0.35607445727E+02  0.49932238080E+03  0.57018831767E+03  0.46999998093E+01 0.  1.
       -5    1    3    3    0  502  0.27295035712E+03 -0.35607445727E+02 -0.37710775152E+02  0.27787403657E+03  0.46999998093E+01 0. -1.
</event>
<event>
 5   0  0.3749730E-02  0.6961872E+03  0.7818609E-02  0.9723775E-01
        1   -1    0    0  501    0  0.00000000000E+00  0.00000000000E+00  0.45001883113E+03  0.45001883116E+03  0.50400001928E-02 0.  1.
       -1   -1    0    0    0  501  0.00000000000E+00  0.00000000000E+00 -0.26925352029E+03  0.26925352034E+03  0.50400001928E-02 0. -1.
    10030    2    1    2    0    0  0.00000000000E+00  0.00000000000E+00  0.18076531084E+03  0.71927235150E+03  0.69618720042E+03 0.  0.
        4    1    3    3  502    0 -0.34668561211E+03 -0.69690402009E+00  0.58103371161E+02  0.35152384550E+03  0.12699999809E+01 0.  1.
       -4    1    3    3    0  502  0.34668561211E+03  0.69690402009E+00  0.12266193968E+03  0.36774850600E+03  0.12699999809E+01 0. -1.
</event>
<event>
 5   0  0.6131198E-02  0.6440000E+03  0.7818609E-02  0.9818103E-01
       -2   -1    0    0    0  501  0.00000000000E+00  0.00000000000E+00  0.62184776710E+02  0.62184776762E+02  0.25500000920E-02 0.  1.
        2   -1    0    0  501    0  0.00000000000E+00  0.00000000000E+00 -0.16673533743E+04  0.16673533743E+04  0.25500000920E-02 0. -1.
    10030    2    1    2    0    0  0.00000000000E+00  0.00000000000E+00 -0.16051685975E+04  0.17295381510E+04  0.64399999168E+03 0.  0.
        1    1    3    3  502    0 -0.94517897857E+02  0.21455060180E+03 -0.13953605676E+04  0.14149193290E+04  0.50400001928E-02 0. -1.
       -1    1    3    3    0  502  0.94517897857E+02 -0.21455060180E+03 -0.20980802991E+03  0.31461882205E+03  0.50400001928E-02 0.  1.
</event>
<event>
 5   0  0.3749730E-02  0.9138457E+03  0.7818609E-02  0.9408437E-01
       -1   -1    0    0    0  501  0.00000000000E+00  0.00000000000E+00  0.17774655732E+03  0.17774655740E+03  0.50400001928E-02 0. -1.
        1   -1    0    0  501    0  0.00000000000E+00  0.00000000000E+00 -0.11745853352E+04  0.11745853352E+04  0.50400001928E-02 0.  1.
    10030    2    1    2    0    0  0.00000000000E+00  0.00000000000E+00 -0.99683877791E+03  0.13523318926E+04  0.91384571931E+03 0.  0.
        4    1    3    3  502    0 -0.36164104115E+03  0.25180400023E+03 -0.31968867114E+03  0.54441891640E+03  0.12699999809E+01 0. -1.
       -4    1    3    3    0  502  0.36164104115E+03 -0.25180400023E+03 -0.67715010677E+03  0.80791297624E+03  0.12699999809E+01 0.  1.
</event>
<event>
 5   0  0.3755872E-02  0.6900347E+03  0.7818609E-02  0.9734428E-01
        1   -1    0    0  501    0  0.00000000000E+00  0.00000000000E+00  0.94284954002E+02  0.94284954136E+02  0.50400001928E-02 0. -1.
       -1   -1    0    0    0  501  0.00000000000E+00  0.00000000000E+00 -0.12625235675E+04  0.12625235675E+04  0.50400001928E-02 0.  1.
    10030    2    1    2    0    0  0.00000000000E+00  0.00000000000E+00 -0.11682386135E+04  0.13568085216E+04  0.69003471386E+03 0.  0.
        2    1    3    3  502    0 -0.73094337662E+02 -0.46655373352E+02 -0.12407468230E+04  0.12437733655E+04  0.25500000920E-02 0.  1.
       -2    1    3    3    0  502  0.73094337662E+02  0.46655373352E+02  0.72508209505E+02  0.11303515609E+03  0.25500000920E-02 0. -1.
</event>
<event>
 5   0  0.2439375E-02  0.5771200E+03  0.7818609E-02  0.9954046E-01
        4   -1    0    0  501    0  0.00000000000E+00  0.00000000000E+00  0.12596529698E+03  0.12597169898E+03  0.12699999809E+01 0.  1.
       -4   -1    0    0    0  501  0.00000000000E+00  0.00000000000E+00 -0.66100652248E+03  0.66100774251E+03  0.12699999809E+01 0. -1.
    10030    2    1    2    0    0  0.00000000000E+00  0.00000000000E+00 -0.53504122550E+03  0.78697944149E+03  0.57712002942E+03 0.  0.
        4    1    3    3  502    0 -0.21033218319E+03  0.18029711741E+03 -0.15742395921E+03  0.31863865689E+03  0.12699999809E+01 0.  1.
       -4    1    3    3    0  502  0.21033218319E+03 -0.18029711741E+03 -0.37761726629E+03  0.46834078461E+03  0.12699999809E+01 0. -1.
</event>
<event>
 5   0  0.3749730E-02  0.6969207E+03  0.7818609E-02  0.9722513E-01
       -1   -1    0    0    0  501  0.00000000000E+00  0.00000000000E+00  0.20129429411E+03  0.20129429417E+03  0.50400001928E-02 0. -1.
        1   -1    0    0  501    0  0.00000000000E+00  0.00000000000E+00 -0.60321938060E+03  0.60321938062E+03  0.50400001928E-02 0.  1.
    10030    2    1    2    0    0  0.00000000000E+00  0.00000000000E+00 -0.40192508649E+03  0.80451367479E+03  0.69692071125E+03 0.  0.
        4    1    3    3  502    0  0.21639587567E+00  0.68907031752E+02  0.19334815100E+03  0.20526408903E+03  0.12699999809E+01 0. -1.
       -4    1    3    3    0  502 -0.21639587567E+00 -0.68907031752E+02 -0.59527323749E+03  0.59924958575E+03  0.12699999809E+01 0.  1.
</event>
<event>
 5   0  0.3749730E-02  0.6972032E+03  0.7818609E-02  0.9722027E-01
        1   -1    0    0  501    0  0.00000000000E+00  0.00000000000E+00  0.17170007171E+03  0.17170007178E+03  0.50400001928E-02 0. -1.
       -1   -1    0    0    0  501  0.00000000000E+00  0.00000000000E+00 -0.70776378358E+03  0.70776378360E+03  0.50400001928E-02 0.  1.
    10030    2    1    2    0    0  0.00000000000E+00  0.00000000000E+00 -0.53606371187E+03  0.87946385538E+03  0.69720324851E+03 0.  0.
        4    1    3    3  502    0 -0.25614806863E+03  0.64338094402E+02 -0.55504299347E+03  0.61467516702E+03  0.12699999809E+01 0.  1.
       -4    1    3    3    0  502  0.25614806863E+03 -0.64338094402E+02  0.18979281595E+02  0.26478868836E+03  0.12699999809E+01 0. -1.
</event>
<event>
 5   0  0.6167756E-02  0.7275895E+03  0.7818609E-02  0.9671180E-01
       -2   -1    0    0    0  501  0.00000000000E+00  0.00000000000E+00  0.30904766242E+03  0.30904766243E+03  0.25500000920E-02 0. -1.
        2   -1    0    0  501    0  0.00000000000E+00  0.00000000000E+00 -0.42824010264E+03  0.42824010265E+03  0.25500000920E-02 0.  1.
    10030    2    1    2    0    0  0.00000000000E+00  0.00000000000E+00 -0.11919244022E+03  0.73728776508E+03  0.72758945205E+03 0.  0.
        4    1    3    3  502    0 -0.74595929383E+02  0.12907341077E+03  0.27667113166E+03  0.31428176218E+03  0.12699999809E+01 0. -1.
       -4    1    3    3    0  502  0.74595929383E+02 -0.12907341077E+03 -0.39586357188E+03  0.42300600290E+03  0.12699999809E+01 0.  1.
</event>
<event>
 5   0  0.5899787E-02  0.7003908E+03  0.7818609E-02  0.9716564E-01
        2   -1    0    0  501    0  0.00000000000E+00  0.00000000000E+00  0.42164720052E+03  0.42164720052E+03  0.25500000920E-02 0. -1.
       -2   -1    0    0    0  501  0.00000000000E+00  0.00000000000E+00 -0.29085176058E+03  0.29085176059E+03  0.25500000920E-02 0.  1.
    10030    2    1    2    0    0  0.00000000000E+00  0.00000000000E+00  0.13079543993E+03  0.71249896112E+03  0.70039083552E+03 0.  0.
        2    1    3    3  502    0  0.10375272896E+03  0.45158258093E+02  0.40253755689E+03  0.41813918945E+03  0.25500000920E-02 0. -1.
       -2    1    3    3    0  502 -0.10375272896E+03 -0.45158258093E+02 -0.27174211696E+03  0.29435977167E+03  0.25500000920E-02 0.  1.
</event>
<event>
 5   0  0.3717372E-02  0.7024855E+03  0.7818609E-02  0.9712991E-01
       -1   -1    0    0    0  501  0.00000000000E+00  0.00000000000E+00  0.89688721327E+03  0.89688721329E+03  0.50400001928E-02 0. -1.
        1   -1    0    0  501    0  0.00000000000E+00  0.00000000000E+00 -0.13755518075E+03  0.13755518084E+03  0.50400001928E-02 0.  1.
    10030    2    1    2    0    0  0.00000000000E+00  0.00000000000E+00  0.75933203252E+03  0.10344423941E+04  0.70248553804E+03 0.  0.
        3    1    3    3  502    0  0.88583877692E+02 -0.27030138708E+03  0.68310176069E+03  0.73995808591E+03  0.10100000352E+00 0.  1.
       -3    1    3    3    0  502 -0.88583877692E+02  0.27030138708E+03  0.76230271835E+02  0.29448430822E+03  0.10100000352E+00 0. -1.
</event>
<event>
 5   0  0.5899787E-02  0.7269771E+03  0.7818609E-02  0.9672178E-01
       -2   -1    0    0    0  501  0.00000000000E+00  0.00000000000E+00  0.55022974036E+02  0.55022974095E+02  0.25500000920E-02 0. -1.
        2   -1    0    0  501    0  0.00000000000E+00  0.00000000000E+00 -0.24012502523E+04  0.24012502523E+04  0.25500000920E-02 0.  1.
    10030    2    1    2    0    0  0.00000000000E+00  0.00000000000E+00 -0.23462272783E+04  0.24562732264E+04  0.72697711205E+03 0.  0.
        2    1    3    3  502    0 -0.20428037311E+03 -0.69824512199E+02 -0.21611767760E+04  0.21719325474E+04  0.25500000920E-02 0.  1.
       -2    1    3    3    0  502  0.20428037311E+03  0.69824512199E+02 -0.18505050229E+03  0.28434067902E+03  0.25500000920E-02 0. -1.
</event>
<event>
 5   0  0.3601475E-02  0.7083282E+03  0.7818609E-02  0.9703095E-01
        1   -1    0    0  501    0  0.00000000000E+00  0.00000000000E+00  0.79796210115E+03  0.79796210117E+03  0.50400001928E-02 0. -1.
       -1   -1    0    0    0  501  0.00000000000E+00  0.00000000000E+00 -0.15719068848E+03  0.15719068856E+03  0.50400001928E-02 0.  1.
    10030    2    1    2    0    0  0.00000000000E+00  0.00000000000E+00  0.64077141268E+03  0.95515278973E+03  0.70832820671E+03 0.  0.
        5    1    3    3  502    0 -0.88983122061E+02  0.12873559663E+03 -0.10799052630E+03  0.19019698636E+03  0.46999998093E+01 0.  1.
       -5    1    3    3    0  502  0.88983122061E+02 -0.12873559663E+03  0.74876193898E+03  0.76495580337E+03  0.46999998093E+01 0. -1.
</event>
<event>
 5   0  0.6131198E-02  0.7190314E+03  0.7818609E-02  0.9685228E-01
       -2   -1    0    0    0  501  0.00000000000E+00  0.00000000000E+00  0.11278186638E+03  0.11278186641E+03  0.25500000920E-02 0.  1.
        2   -1    0    0  501    0  0.00000000000E+00  0.00000000000E+00 -0.11460311343E+04  0.11460311343E+04  0.25500000920E-02 0. -1.
    10030    2    1    2    0    0  0.00000000000E+00  0.00000000000E+00 -0.10332492679E+04  0.12588130007E+04  0.71903137701E+03 0.  0.
        1    1    3    3  502    0 -0.37031860292E+02  0.20602796240E+03 -0.10283362983E+04  0.10494257584E+04  0.50400001928E-02 0. -1.
       -1    1    3    3    0  502  0.37031860292E+02 -0.20602796240E+03 -0.49129696711E+01  0.20938724236E+03  0.50400001928E-02 0.  1.
</event>
<event>
 5   0  0.6167756E-02  0.6821315E+03  0.7818609E-02  0.9748287E-01
        2   -1    0    0  501    0  0.00000000000E+00  0.00000000000E+00  0.93748190758E+03  0.93748190758E+03  0.25500000920E-02 0. -1.
       -2   -1    0    0    0  501  0.00000000000E+00  0.00000000000E+00 -0.12408330540E+03  0.12408330543E+03  0.25500000920E-02 0.  1.
    10030    2    1    2    0    0  0.00000000000E+00  0.00000000000E+00  0.81339860218E+03  0.10615652130E+04  0.68213152357E+03 0.  0.
        4    1    3    3  502    0 -0.28561933890E+03 -0.15679101939E+03  0.56358267622E+03  0.65099068838E+03  0.12699999809E+01 0. -1.
       -4    1    3    3    0  502  0.28561933890E+03  0.15679101939E+03  0.24981592595E+03  0.41057452463E+03  0.12699999809E+01 0.  1.
</event>
<event>
 5   0  0.3717372E-02  0.7341127E+03  0.7818609E-02  0.9660610E-01
       -1   -1    0    0    0  501  0.00000000000E+00  0.00000000000E+00  0.32545772444E+03  0.32545772448E+03  0.50400001928E-02 0.  1.
        1   -1    0    0  501    0  0.00000000000E+00  0.00000000000E+00 -0.41397188853E+03  0.41397188856E+03  0.50400001928E-02 0. -1.
    10030    2    1    2    0    0  0.00000000000E+00  0.00000000000E+00 -0.88514164087E+02  0.73942961304E+03  0.73411265852E+03 0.  0.
        3    1    3    3  502    0  0.31190736858E+02  0.12736833388E+03 -0.38957358457E+03  0.41105126509E+03  0.10100000352E+00 0. -1.
       -3    1    3    3    0  502 -0.31190736858E+02 -0.12736833388E+03  0.30105942048E+03  0.32837834795E+03  0.10100000352E+00 0.  1.
</event>
<event>
 5   0  0.6167756E-02  0.7000475E+03  0.7818609E-02  0.9717151E-01
        2   -1    0    0  501    0  0.00000000000E+00  0.00000000000E+00  0.12472183142E+04  0.12472183142E+04  0.25500000920E-02 0. -1.
       -2   -1    0    0    0  501  0.00000000000E+00  0.00000000000E+00 -0.98231913926E+02  0.98231913959E+02  0.25500000920E-02 0.  1.
    10030    2    1    2    0    0  0.00000000000E+00  0.00000000000E+00  0.11489864002E+04  0.13454502281E+04  0.70004754727E+03 0.  0.
        4    1    3    3  502    0 -0.17819582484E+03 -0.22034063681E+03  0.17962299595E+03  0.33551420506E+03  0.12699999809E+01 0.  1.
       -4    1    3    3    0  502  0.17819582484E+03  0.22034063681E+03  0.96936340430E+03  0.10099360231E+04  0.12699999809E+01 0. -1.
</event>
<event>
 5   0  0.5987810E-02  0.6049826E+03  0.7818609E-02  0.9895122E-01
        2   -1    0    0  501    0  0.00000000000E+00  0.00000000000E+00  0.34499679659E+03  0.34499679659E+03  0.25500000920E-02 0.  1.
       -2   -1    0    0    0  501  0.00000000000E+00  0.00000000000E+00 -0.26522269239E+03  0.26522269241E+03  0.25500000920E-02 0. -1.
    10030    2    1    2    0    0  0.00000000000E+00  0.00000000000E+00  0.79774104192E+02  0.61021948900E+03  0.60498257583E+03 0.  0.
        5    1    3    3  502    0  0.32441395141E+02 -0.28910342613E+03 -0.43567625614E+02  0.29419969939E+03  0.46999998093E+01 0. -1.
       -5    1    3    3    0  502 -0.32441395141E+02  0.28910342613E+03  0.12334172981E+03  0.31601978961E+03  0.46999998093E+01 0.  1.
</event>
<event>
 5   0  0.6131198E-02  0.6948802E+03  0.7818609E-02  0.9726028E-01
        2   -1    0    0  501    0  0.00000000000E+00  0.00000000000E+00  0.18148368767E+04  0.18148368767E+04  0.25500000920E-02 0. -1.
       -2   -1    0    0    0  501  0.00000000000E+00  0.00000000000E+00 -0.66515420802E+02  0.66515420850E+02  0.25500000920E-02 0.  1.
    10030    2    1    2    0    0  0.00000000000E+00  0.00000000000E+00  0.17483214559E+04  0.18813522976E+04  0.69488024461E+03 0.  0.
        1    1    3    3  502    0 -0.10333256148E+01  0.84871913480E+02  0.17863350754E+04  0.17883504441E+04  0.50400001928E-02 0. -1.
       -1    1    3    3    0  502  0.10333256148E+01 -0.84871913480E+02 -0.38013619440E+02  0.93001853465E+02  0.50400001928E-02 0.  1.
</event>
<event>
 5   0  0.3749730E-02  0.6624136E+03  0.7818609E-02  0.9783761E-01
       -1   -1    0    0    0  501  0.00000000000E+00  0.00000000000E+00  0.16754380044E+03  0.16754380052E+03  0.50400001928E-02 0.  1.
        1   -1    0    0  501    0  0.00000000000E+00  0.00000000000E+00 -0.65474190062E+03  0.65474190064E+03  0.50400001928E-02 0. -1.
    10030    2    1    2    0    0  0.00000000000E+00  0.00000000000E+00 -0.48719810018E+03  0.82228570115E+03  0.66241360607E+03 0.  0.
        4    1    3    3  502    0  0.51479863067E+02 -0.27980834335E+03 -0.45409243924E+03  0.53585860223E+03  0.12699999809E+01 0.  1.
       -4    1    3    3    0  502 -0.51479863067E+02  0.27980834335E+03 -0.33105660936E+02  0.28642709892E+03  0.12699999809E+01 0. -1.
</event>
<event>
 5   0  0.6131198E-02  0.7099678E+03  0.7818609E-02  0.9700336E-01
       -2   -1    0    0    0  501  0.00000000000E+00  0.00000000000E+00  0.10395663671E+03  0.10395663674E+03  0.25500000920E-02 0.  1.
        2   -1    0    0  501    0  0.00000000000E+00  0.00000000000E+00 -0.12121745233E+04  0.12121745233E+04  0.25500000920E-02 0. -1.
    10030    2    1    2    0    0  0.00000000000E+00  0.00000000000E+00 -0.11082178866E+04  0.13161311601E+04  0.70996784876E+03 0.  0.
        1    1    3    3  502    0  0.23041979666E+03 -0.88911728004E+02 -0.81428862388E+02  0.26005622031E+03  0.50400001928E-02 0.  1.
       -1    1    3    3    0  502 -0.23041979666E+03  0.88911728004E+02 -0.10267890242E+04  0.10560749397E+04  0.50400001928E-02 0. -1.
</event>
<event>
 5   0  0.3755872E-02  0.7529873E+03  0.7818609E-02  0.9630675E-01
        1   -1    0    0  501    0  0.00000000000E+00  0.00000000000E+00  0.64823491538E+03  0.64823491540E+03  0.50400001928E-02 0.  1.
       -1   -1    0    0    0  501  0.00000000000E+00  0.00000000000E+00 -0.21866681517E+03  0.21866681522E+03  0.50400001928E-02 0. -1.
    10030    2    1    2    0    0  0.00000000000E+00  0.00000000000E+00  0.42956810021E+03  0.86690173062E+03  0.75298728929E+03 0.  0.
        2    1    3    3  502    0 -0.33876868640E+03 -0.11175470603E+03  0.76179253581E+02  0.36476926390E+03  0.25500000920E-02 0. -1.
       -2    1    3    3    0  502  0.33876868640E+03  0.11175470603E+03  0.35338884663E+03  0.50213246672E+03  0.25500000920E-02 0.  1.
</event>
<event>
 5   0  0.6248886E-02  0.6962535E+03  0.7818609E-02  0.9723661E-01
       -2   -1    0    0    0  501  0.00000000000E+00  0.00000000000E+00  0.87153351323E+03  0.87153351324E+03  0.25500000920E-02 0. -1.
        2   -1    0    0  501    0  0.00000000000E+00  0.00000000000E+00 -0.13905631663E+03  0.13905631665E+03  0.25500000920E-02 0.  1.
    10030    2    1    2    0    0  0.00000000000E+00  0.00000000000E+00  0.73247719660E+03  0.10105898299E+04  0.69625351757E+03 0.  0.
        3    1    3    3  502    0  0.28046620039E+03 -0.20414832107E+03  0.40866527469E+03  0.53604584085E+03  0.10100000352E+00 0. -1.
       -3    1    3    3    0  502 -0.28046620039E+03  0.20414832107E+03  0.32381192192E+03  0.47454398904E+03  0.10100000352E+00 0.  1.
</event>
<event>
 5   0  0.3749730E-02  0.6978658E+03  0.7818609E-02  0.9720889E-01
       -1   -1    0    0    0  501  0.00000000000E+00  0.00000000000E+00  0.20439408092E+03  0.20439408098E+03  0.50400001928E-02 0.  1.
        1   -1    0    0  501    0  0.00000000000E+00  0.00000000000E+00 -0.59568336639E+03  0.59568336641E+03  0.50400001928E-02 0. -1.
    10030    2    1    2    0    0  0.00000000000E+00  0.00000000000E+00 -0.39128928547E+03  0.80007744739E+03  0.69786575851E+03 0.  0.
        4    1    3    3  502    0 -0.12729971684E+03 -0.10981225915E+03  0.15489686193E+03  0.22860140180E+03  0.12699999809E+01 0.  1.
       -4    1    3    3    0  502  0.12729971684E+03  0.10981225915E+03 -0.54618614740E+03  0.57147604559E+03  0.12699999809E+01 0. -1.
</event>
<event>
 5   0  0.3749730E-02  0.6953301E+03  0.7818609E-02  0.9725252E-01
       -1   -1    0    0    0  501  0.00000000000E+00  0.00000000000E+00  0.50492031422E+03  0.50492031424E+03  0.50400001928E-02 0. -1.
        1   -1    0    0  501    0  0.00000000000E+00  0.00000000000E+00 -0.23938624683E+03  0.23938624689E+03  0.50400001928E-02 0.  1.
    10030    2    1    2    0    0  0.00000000000E+00  0.00000000000E+00  0.26553406738E+03  0.74430656113E+03  0.69533007701E+03 0.  0.
        4    1    3    3  502    0 -0.22816557614E+03  0.25652030996E+03  0.74066834855E+02  0.35121177156E+03  0.12699999809E+01 0. -1.
       -4    1    3    3    0  502  0.22816557614E+03 -0.25652030996E+03  0.19146723253E+03  0.39309478957E+03  0.12699999809E+01 0.  1.
</event>
<event>
 5   0  0.6131198E-02  0.6983962E+03  0.7818609E-02  0.9719979E-01
        2   -1    0    0  501    0  0.00000000000E+00  0.00000000000E+00  0.16207639115E+04  0.16207639115E+04  0.25500000920E-02 0.  1.
       -2   -1    0    0    0  501  0.00000000000E+00  0.00000000000E+00 -0.75235693440E+02  0.75235693483E+02  0.25500000920E-02 0. -1.
    10030    2    1    2    0    0  0.00000000000E+00  0.00000000000E+00  0.15455282181E+04  0.16959996050E+04  0.69839615355E+03 0.  0.
        1    1    3    3  502    0  0.27788996343E+03 -0.20362570397E+03  0.63425815069E+03  0.72178228077E+03  0.50400001928E-02 0. -1.
       -1    1    3    3    0  502 -0.27788996343E+03  0.20362570397E+03  0.91127006740E+03  0.97421732424E+03  0.50400001928E-02 0.  1.
</event>
<event>
 5   0  0.6167756E-02  0.6794439E+03  0.7818609E-02  0.9753046E-01
        2   -1    0    0  501    0  0.00000000000E+00  0.00000000000E+00  0.25767891702E+03  0.25767891703E+03  0.25500000920E-02 0.  1.
       -2   -1    0    0    0  501  0.00000000000E+00  0.00000000000E+00 -0.44788680787E+03  0.44788680788E+03  0.25500000920E-02 0. -1.
    10030    2    1    2    0    0  0.00000000000E+00  0.00000000000E+00 -0.19020789086E+03  0.70556572491E+03  0.67944385377E+03 0.  0.
        4    1    3    3  502    0 -0.13407756618E+02 -0.30300417048E+03 -0.25401698642E+03  0.39562297400E+03  0.12699999809E+01 0. -1.
       -4    1    3    3    0  502  0.13407756618E+02  0.30300417048E+03  0.63809095562E+02  0.30994275091E+03  0.12699999809E+01 0.  1.
</event>
<event>
 5   0  0.3601475E-02  0.7008711E+03  0.7818609E-02  0.9715744E-01
        1   -1    0    0  501    0  0.00000000000E+00  0.00000000000E+00  0.25704758994E+03  0.25704758999E+03  0.50400001928E-02 0. -1.
       -1   -1    0    0    0  501  0.00000000000E+00  0.00000000000E+00 -0.47775235788E+03  0.47775235790E+03  0.50400001928E-02 0.  1.
    10030    2    1    2    0    0  0.00000000000E+00  0.00000000000E+00 -0.22070476793E+03  0.73479994789E+03  0.70087114995E+03 0.  0.
        5    1    3    3  502    0  0.17873633027E+02 -0.32542775430E+03  0.24564155475E+02  0.32687639523E+03  0.46999998093E+01 0. -1.
       -5    1    3    3    0  502 -0.17873633027E+02  0.32542775430E+03 -0.24526892341E+03  0.40792355266E+03  0.46999998093E+01 0.  1.
</event>
<event>
 5   0  0.6131198E-02  0.6971788E+03  0.7818609E-02  0.9722069E-01
        2   -1    0    0  501    0  0.00000000000E+00  0.00000000000E+00  0.13640826544E+04  0.13640826544E+04  0.25500000920E-02 0. -1.
       -2   -1    0    0    0  501  0.00000000000E+00  0.00000000000E+00 -0.89081532705E+02  0.89081532741E+02  0.25500000920E-02 0.  1.
    10030    2    1    2    0    0  0.00000000000E+00  0.00000000000E+00  0.12750011217E+04  0.14531641872E+04  0.69717881098E+03 0.  0.
        1    1    3    3  502    0 -0.61612181797E+02  0.24417842664E+03  0.13511006807E+03  0.28578645087E+03  0.50400001928E-02 0.  1.
       -1    1    3    3    0  502  0.61612181797E+02 -0.24417842664E+03  0.11398910536E+04  0.11673777363E+04  0.50400001928E-02 0. -1.
</event>
<event>
 5   0  0.6248886E-02  0.6006416E+03  0.7818609E-02  0.9904076E-01
       -2   -1    0    0    0  501  0.00000000000E+00  0.00000000000E+00  0.17429213876E+03  0.17429213877E+03  0.25500000920E-02 0.  1.
        2   -1    0    0  501    0  0.00000000000E+00  0.00000000000E+00 -0.51747932930E+03  0.51747932930E+03  0.25500000920E-02 0. -1.
    10030    2    1    2    0    0  0.00000000000E+00  0.00000000000E+00 -0.34318719054E+03  0.69177146808E+03  0.60064158722E+03 0.  0.
        3    1    3    3  502    0 -0.79772442976E+02 -0.20192605638E+03 -0.41057164070E+03  0.46444252309E+03  0.10100000352E+00 0. -1.
       -3    1    3    3    0  502  0.79772442976E+02  0.20192605638E+03  0.67384450161E+02  0.22732894499E+03  0.10100000352E+00 0.  1.
</event>
<event>
 5   0  0.3439015E-02  0.6945801E+03  0.7818609E-02  0.9726546E-01
        1   -1    0    0  501    0  0.00000000000E+00  0.00000000000E+00  0.60494049971E+03  0.60494049973E+03  0.50400001928E-02 0.  1.
       -1   -1    0    0    0  501  0.00000000000E+00  0.00000000000E+00 -0.19937559151E+03  0.19937559157E+03  0.50400001928E-02 0. -1.
    10030    2    1    2    0    0  0.00000000000E+00  0.00000000000E+00  0.40556490821E+03  0.80431609130E+03  0.69458007455E+03 0.  0.
        1    1    3    3  502    0  0.20723278787E+03 -0.10547128839E+03 -0.95926526081E+02  0.25153830618E+03  0.50400001928E-02 0. -1.
       -1    1    3    3    0  502 -0.20723278787E+03  0.10547128839E+03  0.50149143429E+03  0.55277778513E+03  0.50400001928E-02 0.  1.
</event>
<event>
 5   0  0.3749730E-02  0.6968062E+03  0.7818609E-02  0.9722710E-01
        1   -1    0    0  501    0  0.00000000000E+00  0.00000000000E+00  0.12939009303E+04  0.12939009303E+04  0.50400001928E-02 0. -1.
       -1   -1    0    0    0  501  0.00000000000E+00  0.00000000000E+00 -0.93812981109E+02  0.93812981245E+02  0.50400001928E-02 0.  1.
    10030    2    1    2    0    0  0.00000000000E+00  0.00000000000E+00  0.12000879492E+04  0.13877139115E+04  0.69680615276E+03 0.  0.
        4    1    3    3  502    0 -0.67165489411E+02 -0.62511823638E+02 -0.69313786315E+02  0.11499976059E+03  0.12699999809E+01 0.  1.
       -4    1    3    3    0  502  0.67165489411E+02  0.62511823638E+02  0.12694017355E+04  0.12727141510E+04  0.12699999809E+01 0. -1.
</event>
<event>
 5   0  0.3439015E-02  0.7023330E+03  0.7818609E-02  0.9713251E-01
        1   -1    0    0  501    0  0.00000000000E+00  0.00000000000E+00  0.31613741530E+03  0.31613741534E+03  0.50400001928E-02 0. -1.
       -1   -1    0    0    0  501  0.00000000000E+00  0.00000000000E+00 -0.39007694716E+03  0.39007694720E+03  0.50400001928E-02 0.  1.
    10030    2    1    2    0    0  0.00000000000E+00  0.00000000000E+00 -0.73939531867E+02  0.70621436254E+03  0.70233302035E+03 0.  0.
        1    1    3    3  502    0 -0.99162232550E+02  0.58263402287E+02 -0.37060175224E+03  0.38803792495E+03  0.50400001928E-02 0.  1.
       -1    1    3    3    0  502  0.99162232550E+02 -0.58263402287E+02  0.29666222038E+03  0.31817643758E+03  0.50400001928E-02 0. -1.
</event>
<event>
 5   0  0.3717372E-02  0.6873350E+03  0.7818609E-02  0.9739140E-01
       -1   -1    0    0    0  501  0.00000000000E+00  0.00000000000E+00  0.18036844335E+03  0.18036844342E+03  0.50400001928E-02 0.  1.
        1   -1    0    0  501    0  0.00000000000E+00  0.00000000000E+00 -0.65481151639E+03  0.65481151641E+03  0.50400001928E-02 0. -1.
    10030    2    1    2    0    0  0.00000000000E+00  0.00000000000E+00 -0.47444307304E+03  0.83517995983E+03  0.68733495165E+03 0.  0.
        3    1    3    3  502    0 -0.26694278229E+03 -0.18858905313E+03 -0.10815169631E+03  0.34426890593E+03  0.10100000352E+00 0.  1.
       -3    1    3    3    0  502  0.26694278229E+03  0.18858905313E+03 -0.36629137673E+03  0.49091105390E+03  0.10100000352E+00 0. -1.
</event>
<event>
 5   0  0.2439375E-02  0.6545455E+03  0.7818609E-02  0.9798287E-01
        3   -1    0    0  501    0  0.00000000000E+00  0.00000000000E+00  0.54999201259E+03  0.54999202186E+03  0.10100000352E+00 0.  1.
       -3   -1    0    0    0  501  0.00000000000E+00  0.00000000000E+00 -0.19474361121E+03  0.19474363740E+03  0.10100000352E+00 0. -1.
    10030    2    1    2    0    0  0.00000000000E+00  0.00000000000E+00  0.35524840138E+03  0.74473565927E+03  0.65454547245E+03 0.  0.
        5    1    3    3  502    0 -0.76523235792E+02  0.31520607068E+03  0.22688778942E+03  0.39586718934E+03  0.46999998093E+01 0.  1.
       -5    1    3    3    0  502  0.76523235792E+02 -0.31520607068E+03  0.12836061196E+03  0.34886846993E+03  0.46999998093E+01 0. -1.
</event>
<event>
 5   0  0.2439375E-02  0.7104756E+03  0.7818609E-02  0.9699483E-01
       -3   -1    0    0    0  501  0.00000000000E+00  0.00000000000E+00  0.60490659596E+03  0.60490660440E+03  0.10100000352E+00 0.  1.
        3   -1    0    0  501    0  0.00000000000E+00  0.00000000000E+00 -0.20861715490E+03  0.20861717935E+03  0.10100000352E+00 0. -1.
    10030    2    1    2    0    0  0.00000000000E+00  0.00000000000E+00  0.39628944106E+03  0.81352378375E+03  0.71047563338E+03 0.  0.
        4    1    3    3  502    0  0.15407297592E+03 -0.31292599722E+03  0.12106778903E+03  0.36921563359E+03  0.12699999809E+01 0. -1.
       -4    1    3    3    0  502 -0.15407297592E+03  0.31292599722E+03  0.27522165204E+03  0.44430815016E+03  0.12699999809E+01 0.  1.
</event>
<event>
 5   0  0.3717372E-02  0.6961850E+03  0.7818609E-02  0.9723779E-01
       -1   -1    0    0    0  501  0.00000000000E+00  0.00000000000E+00  0.15488181838E+03  0.15488181846E+03  0.50400001928E-02 0.  1.
        1   -1    0    0  501    0  0.00000000000E+00  0.00000000000E+00 -0.78232800775E+03  0.78232800777E+03  0.50400001928E-02 0. -1.
    10030    2    1    2    0    0  0.00000000000E+00  0.00000000000E+00 -0.62744618937E+03  0.93720982623E+03  0.69618498823E+03 0.  0.
        3    1    3    3  502    0  0.29685217974E+03  0.35910165761E+01 -0.69045340843E+02  0.30479727904E+03  0.10100000352E+00 0.  1.
       -3    1    3    3    0  502 -0.29685217974E+03 -0.35910165761E+01 -0.55840084853E+03  0.63241254720E+03  0.10100000352E+00 0. -1.
</event>
<event>
 5   0  0.6167756E-02  0.6911970E+03  0.7818609E-02  0.9732406E-01
       -2   -1    0    0    0  501  0.00000000000E+00  0.00000000000E+00  0.90431316784E+02  0.90431316820E+02  0.25500000920E-02 0.  1.
        2   -1    0    0  501    0  0.00000000000E+00  0.00000000000E+00 -0.13207627281E+04  0.13207627281E+04  0.25500000920E-02 0. -1.
    10030    2    1    2    0    0  0.00000000000E+00  0.00000000000E+00 -0.12303314113E+04  0.14111940449E+04  0.69119696957E+03 0.  0.
        4    1    3    3  502    0  0.25352473484E+03 -0.14407754021E+03 -0.99385817738E+03  0.10357551923E+04  0.12699999809E+01 0. -1.
       -4    1    3    3    0  502 -0.25352473484E+03  0.14407754021E+03 -0.23647323391E+03  0.37543885258E+03  0.12699999809E+01 0.  1.
</event>
<event>
 5   0  0.6131198E-02  0.7079031E+03  0.7818609E-02  0.9703811E-01
        2   -1    0    0  501    0  0.00000000000E+00  0.00000000000E+00  0.57607202058E+03  0.57607202059E+03  0.25500000920E-02 0.  1.
       -2   -1    0    0    0  501  0.00000000000E+00  0.00000000000E+00 -0.21747578811E+03  0.21747578812E+03  0.25500000920E-02 0. -1.
    10030    2    1    2    0    0  0.00000000000E+00  0.00000000000E+00  0.35859623247E+03  0.79354780871E+03  0.70790314787E+03 0.  0.
        1    1    3    3  502    0  0.10588920761E+03  0.33081289592E+03  0.10300515379E+03  0.36229788590E+03  0.50400001928E-02 0. -1.
       -1    1    3    3    0  502 -0.10588920761E+03 -0.33081289592E+03  0.25559107868E+03  0.43124992281E+03  0.50400001928E-02 0.  1.
</event>
<event>
 5   0  0.3755872E-02  0.6425808E+03  0.7818609E-02  0.9820801E-01
        1   -1    0    0  501    0  0.00000000000E+00  0.00000000000E+00  0.15841158611E+04  0.15841158611E+04  0.50400001928E-02 0. -1.
       -1   -1    0    0    0  501  0.00000000000E+00  0.00000000000E+00 -0.65164121740E+02  0.65164121935E+02  0.50400001928E-02 0.  1.
    10030    2    1    2    0    0  0.00000000000E+00  0.00000000000E+00  0.15189517393E+04  0.16492799830E+04  0.64258079333E+03 0.  0.
        2    1    3    3  502    0  0.92937248634E+02 -0.68893127167E+02  0.15288029204E+04  0.15331738207E+04  0.25500000920E-02 0. -1.
       -2    1    3    3    0  502 -0.92937248634E+02  0.68893127167E+02 -0.98511810289E+01  0.11610616232E+03  0.25500000920E-02 0.  1.
</event>
<event>
 5   0  0.5987810E-02  0.7007638E+03  0.7818609E-02  0.9715927E-01
       -2   -1    0    0    0  501  0.00000000000E+00  0.00000000000E+00  0.13201750331E+03  0.13201750333E+03  0.25500000920E-02 0. -1.
        2   -1    0    0  501    0  0.00000000000E+00  0.00000000000E+00 -0.92993331486E+03  0.92993331486E+03  0.25500000920E-02 0.  1.
    10030    2    1    2    0    0  0.00000000000E+00  0.00000000000E+00 -0.79791581156E+03  0.10619508182E+04  0.70076379611E+03 0.  0.
        5    1    3    3  502    0 -0.15229544753E+03 -0.29334446491E+02 -0.87502861201E+03  0.88867968072E+03  0.46999998093E+01 0.  1.
       -5    1    3    3    0  502  0.15229544753E+03  0.29334446491E+02  0.77112800457E+02  0.17327113747E+03  0.46999998093E+01 0. -1.
</event>
<event>
 5   0  0.2439375E-02  0.6697996E+03  0.7818609E-02  0.9770320E-01
        3   -1    0    0  501    0  0.00000000000E+00  0.00000000000E+00  0.81983983981E+03  0.81983984604E+03  0.10100000352E+00 0.  1.
       -3   -1    0    0    0  501  0.00000000000E+00  0.00000000000E+00 -0.13680457922E+03  0.13680461651E+03  0.10100000352E+00 0. -1.
    10030    2    1    2    0    0  0.00000000000E+00  0.00000000000E+00  0.68303526059E+03  0.95664446254E+03  0.66979956741E+03 0.  0.
        3    1    3    3  502    0  0.10001309963E+03 -0.15572688068E+03 -0.57127642783E+02  0.19369320905E+03  0.10100000352E+00 0. -1.
       -3    1    3    3    0  502 -0.10001309963E+03  0.15572688068E+03  0.74016290337E+03  0.76295125349E+03  0.10100000352E+00 0.  1.
</event>
<event>
 5   0  0.2439375E-02  0.7080113E+03  0.7818609E-02  0.9703629E-01
        3   -1    0    0  501    0  0.00000000000E+00  0.00000000000E+00  0.12481394150E+04  0.12481394191E+04  0.10100000352E+00 0.  1.
       -3   -1    0    0    0  501  0.00000000000E+00  0.00000000000E+00 -0.10040540814E+03  0.10040545894E+03  0.10100000352E+00 0. -1.
    10030    2    1    2    0    0  0.00000000000E+00  0.00000000000E+00  0.11477340069E+04  0.13485448780E+04  0.70801125523E+03 0.  0.
        3    1    3    3  502    0  0.14805745287E+03 -0.14725394931E+03  0.29393474203E+02  0.21087608082E+03  0.10100000352E+00 0. -1.
       -3    1    3    3    0  502 -0.14805745287E+03  0.14725394931E+03  0.11183405327E+04  0.11376687972E+04  0.10100000352E+00 0.  1.
</event>
<event>
 5   0  0.3755872E-02  0.6951440E+03  0.7818609E-02  0.9725573E-01
       -1   -1    0    0    0  501  0.00000000000E+00  0.00000000000E+00  0.98390825851E+02  0.98390825980E+02  0.50400001928E-02 0.  1.
        1   -1    0    0  501    0  0.00000000000E+00  0.00000000000E+00 -0.12278206819E+04  0.12278206819E+04  0.50400001928E-02 0. -1.
    10030    2    1    2    0    0  0.00000000000E+00  0.00000000000E+00 -0.11294298561E+04  0.13262115079E+04  0.69514398791E+03 0.  0.
        2    1    3    3  502    0  0.24276226408E+03 -0.22962709564E+03 -0.74715078122E+03  0.81847199695E+03  0.25500000920E-02 0.  1.
       -2    1    3    3    0  502 -0.24276226408E+03  0.22962709564E+03 -0.38227907485E+03  0.50773951096E+03  0.25500000920E-02 0. -1.
</event>
<event>
 5   0  0.5899787E-02  0.7061081E+03  0.7818609E-02  0.9706843E-01
       -2   -1    0    0    0  501  0.00000000000E+00  0.00000000000E+00  0.50878354258E+02  0.50878354322E+02  0.25500000920E-02 0.  1.
        2   -1    0    0  501    0  0.00000000000E+00  0.00000000000E+00 -0.24499054159E+04  0.24499054159E+04  0.25500000920E-02 0. -1.
    10030    2    1    2    0    0  0.00000000000E+00  0.00000000000E+00 -0.23990270616E+04  0.25007837702E+04  0.70610808161E+03 0.  0.
        2    1    3    3  502    0 -0.21392835162E+03 -0.12738687869E+03 -0.20860176238E+04  0.21008241914E+04  0.25500000920E-02 0. -1.
       -2    1    3    3    0  502  0.21392835162E+03  0.12738687869E+03 -0.31300943785E+03  0.39995957881E+03  0.25500000920E-02 0.  1.
</event>
<event>
 5   0  0.6248886E-02  0.6936866E+03  0.7818609E-02  0.9728090E-01
       -2   -1    0    0    0  501  0.00000000000E+00  0.00000000000E+00  0.12941074409E+03  0.12941074411E+03  0.25500000920E-02 0. -1.
        2   -1    0    0  501    0  0.00000000000E+00  0.00000000000E+00 -0.92960023836E+03  0.92960023836E+03  0.25500000920E-02 0.  1.
    10030    2    1    2    0    0  0.00000000000E+00  0.00000000000E+00 -0.80018949427E+03  0.10590109825E+04  0.69368655333E+03 0.  0.
        3    1    3    3  502    0  0.11421121743E+03  0.26538090954E+03 -0.10711859989E+03  0.30813249419E+03  0.10100000352E+00 0. -1.
       -3    1    3    3    0  502 -0.11421121743E+03 -0.26538090954E+03 -0.69307089438E+03  0.75087848829E+03  0.10100000352E+00 0.  1.
</event>
<event>
 5   0  0.3601475E-02  0.6865279E+03  0.7818609E-02  0.9740553E-01
        1   -1    0    0  501    0  0.00000000000E+00  0.00000000000E+00  0.15343118047E+04  0.15343118047E+04  0.50400001928E-02 0. -1.
       -1   -1    0    0    0  501  0.00000000000E+00  0.00000000000E+00 -0.76796726638E+02  0.76796726804E+02  0.50400001928E-02 0.  1.
    10030    2    1    2    0    0  0.00000000000E+00  0.00000000000E+00  0.14575150780E+04  0.16111085315E+04  0.68652785634E+03 0.  0.
        5    1    3    3  502    0 -0.17999043624E+02 -0.33953125636E+03  0.83889471464E+03  0.90519162163E+03  0.46999998093E+01 0. -1.
       -5    1    3    3    0  502  0.17999043624E+02  0.33953125636E+03  0.61862036341E+03  0.70591690987E+03  0.46999998093E+01 0.  1.
</event>
<event>
 5   0  0.6131198E-02  0.6317629E+03  0.7818609E-02  0.9841615E-01
       -2   -1    0    0    0  501  0.00000000000E+00  0.00000000000E+00  0.29532881343E+03  0.29532881344E+03  0.25500000920E-02 0. -1.
        2   -1    0    0  501    0  0.00000000000E+00  0.00000000000E+00 -0.33786435034E+03  0.33786435035E+03  0.25500000920E-02 0.  1.
    10030    2    1    2    0    0  0.00000000000E+00  0.00000000000E+00 -0.42535536913E+02  0.63319316379E+03  0.63176285960E+03 0.  0.
        1    1    3    3  502    0  0.66373774684E+02 -0.30681242318E+03  0.14050294994E+02  0.31422404713E+03  0.50400001928E-02 0.  1.
       -1    1    3    3    0  502 -0.66373774684E+02  0.30681242318E+03 -0.56585831906E+02  0.31896911666E+03  0.50400001928E-02 0. -1.
</event>
<event>
 5   0  0.6167756E-02  0.6986687E+03  0.7818609E-02  0.9719512E-01
        2   -1    0    0  501    0  0.00000000000E+00  0.00000000000E+00  0.53722652467E+03  0.53722652467E+03  0.25500000920E-02 0. -1.
       -2   -1    0    0    0  501  0.00000000000E+00  0.00000000000E+00 -0.22715650640E+03  0.22715650641E+03  0.25500000920E-02 0.  1.
    10030    2    1    2    0    0  0.00000000000E+00  0.00000000000E+00  0.31007001827E+03  0.76438303108E+03  0.69866873551E+03 0.  0.
        4    1    3    3  502    0 -0.11918356800E+03  0.23405404105E+03 -0.96947045042E+02  0.27997564082E+03  0.12699999809E+01 0.  1.
       -4    1    3    3    0  502  0.11918356800E+03 -0.23405404105E+03  0.40701706331E+03  0.48440739026E+03  0.12699999809E+01 0. -1.
</event>
<event>
 5   0  0.3601475E-02  0.7178546E+03  0.7818609E-02  0.9687176E-01
        1   -1    0    0  501    0  0.00000000000E+00  0.00000000000E+00  0.59754642493E+03  0.59754642495E+03  0.50400001928E-02 0.  1.
       -1   -1    0    0    0  501  0.00000000000E+00  0.00000000000E+00 -0.21559630669E+03  0.21559630675E+03  0.50400001928E-02 0. -1.
    10030    2    1    2    0    0  0.00000000000E+00  0.00000000000E+00  0.38195011824E+03  0.81314273170E+03  0.71785458785E+03 0.  0.
        5    1    3    3  502    0 -0.14096437438E+03  0.48602609471E+02 -0.17881480902E+03  0.23287334414E+03  0.46999998093E+01 0. -1.
       -5    1    3    3    0  502  0.14096437438E+03 -0.48602609471E+02  0.56076492726E+03  0.58026938756E+03  0.46999998093E+01 0.  1.
</event>
<event>
 5   0  0.3755872E-02  0.6885260E+03  0.7818609E-02  0.9737058E-01
        1   -1    0    0  501    0  0.00000000000E+00  0.00000000000E+00  0.77094345424E+03  0.77094345425E+03  0.50400001928E-02 0.  1.
       -1   -1    0    0    0  501  0.00000000000E+00  0.00000000000E+00 -0.15372985699E+03  0.15372985707E+03  0.50400001928E-02 0. -1.
    10030    2    1    2    0    0  0.00000000000E+00  0.00000000000E+00  0.61721359725E+03  0.92467331133E+03  0.68852604021E+03 0.  0.
        2    1    3    3  502    0  0.15306824736E+03 -0.19557236299E+03  0.62878340623E+03  0.67605251975E+03  0.25500000920E-02 0.  1.
       -2    1    3    3    0  502 -0.15306824736E+03  0.19557236299E+03 -0.11569808977E+02  0.24862079157E+03  0.25500000920E-02 0. -1.
</event>
<event>
 5   0  0.3601475E-02  0.7067909E+03  0.7818609E-02  0.9705689E-01
       -1   -1    0    0    0  501  0.00000000000E+00  0.00000000000E+00  0.37961718739E+03  0.37961718742E+03  0.50400001928E-02 0.  1.
        1   -1    0    0  501    0  0.00000000000E+00  0.00000000000E+00 -0.32898491559E+03  0.32898491563E+03  0.50400001928E-02 0. -1.
    10030    2    1    2    0    0  0.00000000000E+00  0.00000000000E+00  0.50632271795E+02  0.70860210305E+03  0.70679085556E+03 0.  0.
        5    1    3    3  502    0  0.35523385973E+02  0.25817580265E+03 -0.21393653057E+03  0.33720555324E+03  0.46999998093E+01 0. -1.
       -5    1    3    3    0  502 -0.35523385973E+02 -0.25817580265E+03  0.26456880237E+03  0.37139654981E+03  0.46999998093E+01 0.  1.
</event>
<event>
 5   0  0.6248886E-02  0.6840605E+03  0.7818609E-02  0.9744886E-01
        2   -1    0    0  501    0  0.00000000000E+00  0.00000000000E+00  0.21777215596E+03  0.21777215597E+03  0.25500000920E-02 0.  1.
       -2   -1    0    0    0  501  0.00000000000E+00  0.00000000000E+00 -0.53718846634E+03  0.53718846634E+03  0.25500000920E-02 0. -1.
    10030    2    1    2    0    0  0.00000000000E+00  0.00000000000E+00 -0.31941631038E+03  0.75496062231E+03  0.68406049580E+03 0.  0.
        3    1    3    3  502    0 -0.16655510462E+01  0.13820495834E+03  0.18557838091E+03  0.23139302114E+03  0.10100000352E+00 0.  1.
       -3    1    3    3    0  502  0.16655510462E+01 -0.13820495834E+03 -0.50499469129E+03  0.52356760117E+03  0.10100000352E+00 0. -1.
</event>
<event>
 5   0  0.5899787E-02  0.6385209E+03  0.7818609E-02  0.9828561E-01
       -2   -1    0    0    0  501  0.00000000000E+00  0.00000000000E+00  0.24079703306E+03  0.24079703307E+03  0.25500000920E-02 0.  1.
        2   -1    0    0  501    0  0.00000000000E+00  0.00000000000E+00 -0.42329108953E+03  0.42329108953E+03  0.25500000920E-02 0. -1.
    10030    2    1    2    0    0  0.00000000000E+00  0.00000000000E+00 -0.18249405647E+03  0.66408812261E+03  0.63852091112E+03 0.  0.
        2    1    3    3  502    0 -0.13359313291E+03  0.25857475083E+03 -0.22772332169E+03  0.36954828937E+03  0.25500000920E-02 0. -1.
       -2    1    3    3    0  502  0.13359313291E+03 -0.25857475083E+03  0.45229265220E+02  0.29453983324E+03  0.25500000920E-02 0.  1.
</event>
<event>
 5   0  0.5987810E-02  0.7003729E+03  0.7818609E-02  0.9716595E-01
       -2   -1    0    0    0  501  0.00000000000E+00  0.00000000000E+00  0.55471607243E+02  0.55471607302E+02  0.25500000920E-02 0.  1.
        2   -1    0    0  501    0  0.00000000000E+00  0.00000000000E+00 -0.22106901161E+04  0.22106901161E+04  0.25500000920E-02 0. -1.
    10030    2    1    2    0    0  0.00000000000E+00  0.00000000000E+00 -0.21552185089E+04  0.22661617234E+04  0.70037285477E+03 0.  0.
        5    1    3    3  502    0 -0.11645594324E+03 -0.75074993316E+02 -0.21181121402E+04  0.21226444285E+04  0.46999998093E+01 0. -1.
       -5    1    3    3    0  502  0.11645594324E+03  0.75074993316E+02 -0.37106368620E+02  0.14351729488E+03  0.46999998093E+01 0.  1.
</event>
<event>
 5   0  0.3749730E-02  0.6936660E+03  0.7818609E-02  0.9728126E-01
       -1   -1    0    0    0  501  0.00000000000E+00  0.00000000000E+00  0.80295761867E+03  0.80295761869E+03  0.50400001928E-02 0.  1.
        1   -1    0    0  501    0  0.00000000000E+00  0.00000000000E+00 -0.14981256595E+03  0.14981256603E+03  0.50400001928E-02 0. -1.
    10030    2    1    2    0    0  0.00000000000E+00  0.00000000000E+00  0.65314505273E+03  0.95277018472E+03  0.69366603275E+03 0.  0.
        4    1    3    3  502    0 -0.69946785805E+02  0.32505710232E+03  0.19103888791E+03  0.38347378295E+03  0.12699999809E+01 0. -1.
       -4    1    3    3    0  502  0.69946785805E+02 -0.32505710232E+03  0.46210616481E+03  0.56929640177E+03  0.12699999809E+01 0.  1.
</event>
<event>
 5   0  0.3439015E-02  0.7074461E+03  0.7818609E-02  0.9704582E-01
        1   -1    0    0  501    0  0.00000000000E+00  0.00000000000E+00  0.50765808784E+03  0.50765808787E+03  0.50400001928E-02 0.  1.
       -1   -1    0    0    0  501  0.00000000000E+00  0.00000000000E+00 -0.24646510615E+03  0.24646510621E+03  0.50400001928E-02 0. -1.
    10030    2    1    2    0    0  0.00000000000E+00  0.00000000000E+00  0.26119298169E+03  0.75412319407E+03  0.70744612385E+03 0.  0.
        1    1    3    3  502    0  0.26964627096E+02  0.31656988696E+03  0.29634320343E+03  0.43446850138E+03  0.50400001928E-02 0.  1.
       -1    1    3    3    0  502 -0.26964627096E+02 -0.31656988696E+03 -0.35150221744E+02  0.31965469269E+03  0.50400001928E-02 0. -1.
</event>
<event>
 5   0  0.5899787E-02  0.6955515E+03  0.7818609E-02  0.9724870E-01
        2   -1    0    0  501    0  0.00000000000E+00  0.00000000000E+00  0.76869839952E+03  0.76869839953E+03  0.25500000920E-02 0. -1.
       -2   -1    0    0    0  501  0.00000000000E+00  0.00000000000E+00 -0.15734125041E+03  0.15734125043E+03  0.25500000920E-02 0.  1.
    10030    2    1    2    0    0  0.00000000000E+00  0.00000000000E+00  0.61135714912E+03  0.92603964995E+03  0.69555148588E+03 0.  0.
        2    1    3    3  502    0 -0.28282401021E+03 -0.14984652273E+03  0.12456969068E+03  0.34345452242E+03  0.25500000920E-02 0.  1.
       -2    1    3    3    0  502  0.28282401021E+03  0.14984652273E+03  0.48678745844E+03  0.58258512753E+03  0.25500000920E-02 0. -1.
</event>
<event>
 5   0  0.3601475E-02  0.7077869E+03  0.7818609E-02  0.9704007E-01
       -1   -1    0    0    0  501  0.00000000000E+00  0.00000000000E+00  0.14631565520E+03  0.14631565528E+03  0.50400001928E-02 0. -1.
        1   -1    0    0  501    0  0.00000000000E+00  0.00000000000E+00 -0.85596166236E+03  0.85596166237E+03  0.50400001928E-02 0.  1.
    10030    2    1    2    0    0  0.00000000000E+00  0.00000000000E+00 -0.70964600716E+03  0.10022773177E+04  0.70778694959E+03 0.  0.
        5    1    3    3  502    0 -0.14014147300E+03  0.18006296350E+03  0.28187703914E+02  0.22995421268E+03  0.46999998093E+01 0. -1.
       -5    1    3    3    0  502  0.14014147300E+03 -0.18006296350E+03 -0.73783371108E+03  0.77232310498E+03  0.46999998093E+01 0.  1.
</event>
<event>
 5   0  0.3749730E-02  0.6661090E+03  0.7818609E-02  0.9777013E-01
        1   -1    0    0  501    0  0.00000000000E+00  0.00000000000E+00  0.27863248551E+03  0.27863248556E+03  0.50400001928E-02 0. -1.
       -1   -1    0    0    0  501  0.00000000000E+00  0.00000000000E+00 -0.39810618297E+03  0.39810618300E+03  0.50400001928E-02 0.  1.
    10030    2    1    2    0    0  0.00000000000E+00  0.00000000000E+00 -0.11947369745E+03  0.67673866856E+03  0.66610904598E+03 0.  0.
        4    1    3    3  502    0  0.11534237214E+03 -0.50683140805E+01  0.25764899923E+03  0.28233698008E+03  0.12699999809E+01 0. -1.
       -4    1    3    3    0  502 -0.11534237214E+03  0.50683140805E+01 -0.37712269669E+03  0.39440168848E+03  0.12699999809E+01 0.  1.
</event>
<event>
 5   0  0.6167756E-02  0.7178939E+03  0.7818609E-02  0.9687111E-01
        2   -1    0    0  501    0  0.00000000000E+00  0.00000000000E+00  0.11054819021E+04  0.11054819021E+04  0.25500000920E-02 0. -1.
       -2   -1    0    0    0  501  0.00000000000E+00  0.00000000000E+00 -0.11654908385E+03  0.11654908388E+03  0.25500000920E-02 0.  1.
    10030    2    1    2    0    0  0.00000000000E+00  0.00000000000E+00  0.98893281826E+03  0.12220309860E+04  0.71789387216E+03 0.  0.
        4    1    3    3  502    0  0.17116738295E+03 -0.21499948885E+03  0.10140549351E+03  0.29292958233E+03  0.12699999809E+01 0.  1.
       -4    1    3    3    0  502 -0.17116738295E+03  0.21499948885E+03  0.88752732475E+03  0.92910140365E+03  0.12699999809E+01 0. -1.
</event>
<event>
 5   0  0.3601475E-02  0.6344369E+03  0.7818609E-02  0.9836429E-01
       -1   -1    0    0    0  501  0.00000000000E+00  0.00000000000E+00  0.74810493040E+02  0.74810493209E+02  0.50400001928E-02 0.  1.
        1   -1    0    0  501    0  0.00000000000E+00  0.00000000000E+00 -0.13450991749E+04  0.13450991749E+04  0.50400001928E-02 0. -1.
    10030    2    1    2    0    0  0.00000000000E+00  0.00000000000E+00 -0.12702886818E+04  0.14199096681E+04  0.63443686080E+03 0.  0.
        5    1    3    3  502    0 -0.26199452524E+03 -0.57429107420E+02 -0.10140729885E+04  0.10489544078E+04  0.46999998093E+01 0. -1.
       -5    1    3    3    0  502  0.26199452524E+03  0.57429107420E+02 -0.25621569333E+03  0.37095526030E+03  0.46999998093E+01 0.  1.
</event>
<event>
 5   0  0.6248886E-02  0.7140466E+03  0.7818609E-02  0.9693508E-01
        2   -1    0    0  501    0  0.00000000000E+00  0.00000000000E+00  0.15509274421E+03  0.15509274423E+03  0.25500000920E-02 0.  1.
       -2   -1    0    0    0  501  0.00000000000E+00  0.00000000000E+00 -0.82186710090E+03  0.82186710090E+03  0.25500000920E-02 0. -1.
    10030    2    1    2    0    0  0.00000000000E+00  0.00000000000E+00 -0.66677435670E+03  0.97695984513E+03  0.71404656448E+03 0.  0.
        3    1    3    3  502    0  0.31420027421E+03  0.16302691334E+03 -0.39706410884E+03  0.53193937955E+03  0.10100000352E+00 0. -1.
       -3    1    3    3    0  502 -0.31420027421E+03 -0.16302691334E+03 -0.26971024786E+03  0.44502046558E+03  0.10100000352E+00 0.  1.
</event>
<event>
 5   0  0.6131198E-02  0.7054409E+03  0.7818609E-02  0.9707973E-01
        2   -1    0    0  501    0  0.00000000000E+00  0.00000000000E+00  0.39297807568E+03  0.39297807569E+03  0.25500000920E-02 0.  1.
       -2   -1    0    0    0  501  0.00000000000E+00  0.00000000000E+00 -0.31658688367E+03  0.31658688368E+03  0.25500000920E-02 0. -1.
    10030    2    1    2    0    0  0.00000000000E+00  0.00000000000E+00  0.76391192011E+02  0.70956495936E+03  0.70544086736E+03 0.  0.
        1    1    3    3  502    0  0.26182641844E+03  0.20326211436E+03  0.15949556614E+03  0.36784153677E+03  0.50400001928E-02 0.  1.
       -1    1    3    3    0  502 -0.26182641844E+03 -0.20326211436E+03 -0.83104374129E+02  0.34172342260E+03  0.50400001928E-02 0. -1.
</event>
<event>
 5   0  0.3439015E-02  0.7254234E+03  0.7818609E-02  0.9674716E-01
        1   -1    0    0  501    0  0.00000000000E+00  0.00000000000E+00  0.38432114335E+03  0.38432114338E+03  0.50400001928E-02 0. -1.
       -1   -1    0    0    0  501  0.00000000000E+00  0.00000000000E+00 -0.34231726740E+03  0.34231726744E+03  0.50400001928E-02 0.  1.
    10030    2    1    2    0    0  0.00000000000E+00  0.00000000000E+00  0.42003875946E+02  0.72663841082E+03  0.72542336224E+03 0.  0.
        1    1    3    3  502    0 -0.34761901006E+03 -0.22879606907E+02 -0.80148937604E+02  0.35747210352E+03  0.50400001928E-02 0. -1.
       -1    1    3    3    0  502  0.34761901006E+03  0.22879606907E+02  0.12215281355E+03  0.36916630731E+03  0.50400001928E-02 0.  1.
</event>
<event>
 5   0  0.2439375E-02  0.7185119E+03  0.7818609E-02  0.9686088E-01
        3   -1    0    0  501    0  0.00000000000E+00  0.00000000000E+00  0.15457574217E+03  0.15457577517E+03  0.10100000352E+00 0. -1.
       -3   -1    0    0    0  501  0.00000000000E+00  0.00000000000E+00 -0.83496173750E+03  0.83496174361E+03  0.10100000352E+00 0.  1.
    10030    2    1    2    0    0  0.00000000000E+00  0.00000000000E+00 -0.68038599533E+03  0.98953751878E+03  0.71851193339E+03 0.  0.
        4    1    3    3  502    0  0.57046069779E+02 -0.11589746979E+03 -0.80186818216E+03  0.81220728391E+03  0.12699999809E+01 0.  1.
       -4    1    3    3    0  502 -0.57046069779E+02  0.11589746979E+03  0.12148218682E+03  0.17733023487E+03  0.12699999809E+01 0. -1.
</event>
<event>
 5   0  0.3755872E-02  0.7143993E+03  0.7818609E-02  0.9692919E-01
        1   -1    0    0  501    0  0.00000000000E+00  0.00000000000E+00  0.37844364336E+03  0.37844364340E+03  0.50400001928E-02 0.  1.
       -1   -1    0    0    0  501  0.00000000000E+00  0.00000000000E+00 -0.33714820485E+03  0.33714820489E+03  0.50400001928E-02 0. -1.
    10030    2    1    2    0    0  0.00000000000E+00  0.00000000000E+00  0.41295438510E+02  0.71559184829E+03  0.71439931418E+03 0.  0.
        2    1    3    3  502    0 -0.16727959097E+03 -0.89779363774E+02  0.32372311578E+03  0.37528582629E+03  0.25500000920E-02 0.  1.
       -2    1    3    3    0  502  0.16727959097E+03  0.89779363774E+02 -0.28242767727E+03  0.34030602200E+03  0.25500000920E-02 0. -1.
</event>
<event>
 5   0  0.3749730E-02  0.7024499E+03  0.7818609E-02  0.9713052E-01
       -1   -1    0    0    0  501  0.00000000000E+00  0.00000000000E+00  0.23874172877E+03  0.23874172882E+03  0.50400001928E-02 0. -1.
        1   -1    0    0  501    0  0.00000000000E+00  0.00000000000E+00 -0.51670461978E+03  0.51670461981E+03  0.50400001928E-02 0.  1.
    10030    2    1    2    0    0  0.00000000000E+00  0.00000000000E+00 -0.27796289102E+03  0.75544634863E+03  0.70244986787E+03 0.  0.
        4    1    3    3  502    0 -0.21361182103E+03  0.20866184873E+03 -0.33782996891E+03  0.45088854276E+03  0.12699999809E+01 0.  1.
       -4    1    3    3    0  502  0.21361182103E+03 -0.20866184873E+03  0.59867077889E+02  0.30455780587E+03  0.12699999809E+01 0. -1.
</event>
<event>
 5   0  0.3749730E-02  0.6886221E+03  0.7818609E-02  0.9736890E-01
       -1   -1    0    0    0  501  0.00000000000E+00  0.00000000000E+00  0.12249468861E+03  0.12249468871E+03  0.50400001928E-02 0.  1.
        1   -1    0    0  501    0  0.00000000000E+00  0.00000000000E+00 -0.96779798269E+03  0.96779798270E+03  0.50400001928E-02 0. -1.
    10030    2    1    2    0    0  0.00000000000E+00  0.00000000000E+00 -0.84530329408E+03  0.10902926714E+04  0.68862213903E+03 0.  0.
        4    1    3    3  502    0  0.23082067339E+03  0.56260800499E+01 -0.82705489972E+03  0.85867994975E+03  0.12699999809E+01 0. -1.
       -4    1    3    3    0  502 -0.23082067339E+03 -0.56260800499E+01 -0.18248394354E+02  0.23161272167E+03  0.12699999809E+01 0.  1.
</event>
<event>
 5   0  0.3439015E-02  0.7005326E+03  0.7818609E-02  0.9716322E-01
       -1   -1    0    0    0  501  0.00000000000E+00  0.00000000000E+00  0.50611522552E+03  0.50611522554E+03  0.50400001928E-02 0. -1.
        1   -1    0    0  501    0  0.00000000000E+00  0.00000000000E+00 -0.24240818120E+03  0.24240818125E+03  0.50400001928E-02 0.  1.
    10030    2    1    2    0    0  0.00000000000E+00  0.00000000000E+00  0.26370704431E+03  0.74852340680E+03  0.70053257262E+03 0.  0.
        1    1    3    3  502    0 -0.35903739211E+02 -0.23245673452E+03  0.40917413494E+03  0.47196258818E+03  0.50400001928E-02 0. -1.
       -1    1    3    3    0  502  0.35903739211E+02  0.23245673452E+03 -0.14546709063E+03  0.27656081862E+03  0.50400001928E-02 0.  1.
</event>
<event>
 5   0  0.5987810E-02  0.7009108E+03  0.7818609E-02  0.9715676E-01
       -2   -1    0    0    0  501  0.00000000000E+00  0.00000000000E+00  0.27662305429E+03  0.27662305430E+03  0.25500000920E-02 0. -1.
        2   -1    0    0  501    0  0.00000000000E+00  0.00000000000E+00 -0.44399406117E+03  0.44399406118E+03  0.25500000920E-02 0.  1.
    10030    2    1    2    0    0  0.00000000000E+00  0.00000000000E+00 -0.16737100688E+03  0.72061711548E+03  0.70091081685E+03 0.  0.
        5    1    3    3  502    0  0.24248142217E+03 -0.16548718702E+03 -0.28041222201E+03  0.40600043524E+03  0.46999998093E+01 0.  1.
       -5    1    3    3    0  502 -0.24248142217E+03  0.16548718702E+03  0.11304121513E+03  0.31461668024E+03  0.46999998093E+01 0. -1.
</event>
<event>
 5   0  0.5899787E-02  0.7399034E+03  0.7818609E-02  0.9651325E-01
        2   -1    0    0  501    0  0.00000000000E+00  0.00000000000E+00  0.14041418161E+04  0.14041418161E+04  0.25500000920E-02 0.  1.
       -2   -1    0    0    0  501  0.00000000000E+00  0.00000000000E+00 -0.97471829510E+02  0.97471829543E+02  0.25500000920E-02 0. -1.
    10030    2    1    2    0    0  0.00000000000E+00  0.00000000000E+00  0.13066699866E+04  0.15016136456E+04  0.73990343081E+03 0.  0.
        2    1    3    3  502    0  0.18269255899E+03 -0.60451927376E+02  0.12945752845E+04  0.13087995163E+04  0.25500000920E-02 0.  1.
       -2    1    3    3    0  502 -0.18269255899E+03  0.60451927376E+02  0.12094702046E+02  0.19281412930E+03  0.25500000920E-02 0. -1.
</event>
<event>
 5   0  0.3755872E-02  0.6966047E+03  0.7818609E-02  0.9723056E-01
       -1   -1    0    0    0  501  0.00000000000E+00  0.00000000000E+00  0.29136542277E+03  0.29136542282E+03  0.50400001928E-02 0. -1.
        1   -1    0    0  501    0  0.00000000000E+00  0.00000000000E+00 -0.41636557958E+03  0.41636557961E+03  0.50400001928E-02 0.  1.
    10030    2    1    2    0    0  0.00000000000E+00  0.00000000000E+00 -0.12500015681E+03  0.70773100243E+03  0.69660471761E+03 0.  0.
        2    1    3    3  502    0  0.23856771219E+02 -0.22499022775E+03  0.20654037153E+03  0.30634730812E+03  0.25500000920E-02 0. -1.
       -2    1    3    3    0  502 -0.23856771219E+02  0.22499022775E+03 -0.33154052834E+03  0.40138369430E+03  0.25500000920E-02 0.  1.
</event>
<event>
 5   0  0.3749730E-02  0.7003420E+03  0.7818609E-02  0.9716648E-01
       -1   -1    0    0    0  501  0.00000000000E+00  0.00000000000E+00  0.52316460287E+03  0.52316460289E+03  0.50400001928E-02 0.  1.
        1   -1    0    0  501    0  0.00000000000E+00  0.00000000000E+00 -0.23438077814E+03  0.23438077819E+03  0.50400001928E-02 0. -1.
    10030    2    1    2    0    0  0.00000000000E+00  0.00000000000E+00  0.28878382473E+03  0.75754538109E+03  0.70034199287E+03 0.  0.
        4    1    3    3  502    0 -0.55900426259E+02  0.11735561660E+03 -0.20731341313E+03  0.24469912662E+03  0.12699999809E+01 0. -1.
       -4    1    3    3    0  502  0.55900426259E+02 -0.11735561660E+03  0.49609723787E+03  0.51284625447E+03  0.12699999809E+01 0.  1.
</event>
<event>
 5   0  0.3439015E-02  0.6989162E+03  0.7818609E-02  0.9719087E-01
        1   -1    0    0  501    0  0.00000000000E+00  0.00000000000E+00  0.86825031668E+03  0.86825031669E+03  0.50400001928E-02 0. -1.
       -1   -1    0    0    0  501  0.00000000000E+00  0.00000000000E+00 -0.14065180983E+03  0.14065180992E+03  0.50400001928E-02 0.  1.
    10030    2    1    2    0    0  0.00000000000E+00  0.00000000000E+00  0.72759850685E+03  0.10089021266E+04  0.69891624241E+03 0.  0.
        1    1    3    3  502    0  0.22862285335E+02 -0.31558538402E+03  0.14966985406E+03  0.35002554755E+03  0.50400001928E-02 0.  1.
       -1    1    3    3    0  502 -0.22862285335E+02  0.31558538402E+03  0.57792865279E+03  0.65887657906E+03  0.50400001928E-02 0. -1.
</event>
<event>
 5   0  0.3439015E-02  0.7139636E+03  0.7818609E-02  0.9693646E-01
       -1   -1    0    0    0  501  0.00000000000E+00  0.00000000000E+00  0.61925013344E+03  0.61925013346E+03  0.50400001928E-02 0.  1.
        1   -1    0    0  501    0  0.00000000000E+00  0.00000000000E+00 -0.20579083523E+03  0.20579083529E+03  0.50400001928E-02 0. -1.
    10030    2    1    2    0    0  0.00000000000E+00  0.00000000000E+00  0.41345929821E+03  0.82504096875E+03  0.71396359070E+03 0.  0.
        1    1    3    3  502    0 -0.28410878402E+03  0.19770349512E+03  0.10577990314E+03  0.36193074071E+03  0.50400001928E-02 0. -1.
       -1    1    3    3    0  502  0.28410878402E+03 -0.19770349512E+03  0.30767939507E+03  0.46311022804E+03  0.50400001928E-02 0.  1.
</event>
<event>
 5   0  0.2439375E-02  0.7114084E+03  0.7818609E-02  0.9697919E-01
       -3   -1    0    0    0  501  0.00000000000E+00  0.00000000000E+00  0.51205447124E+03  0.51205448120E+03  0.10100000352E+00 0.  1.
        3   -1    0    0  501    0  0.00000000000E+00  0.00000000000E+00 -0.24709376014E+03  0.24709378078E+03  0.10100000352E+00 0. -1.
    10030    2    1    2    0    0  0.00000000000E+00  0.00000000000E+00  0.26496071110E+03  0.75914826198E+03  0.71140839554E+03 0.  0.
        5    1    3    3  502    0 -0.14653469282E+02  0.34303696949E+03  0.23152194579E+03  0.41414199012E+03  0.46999998093E+01 0.  1.
       -5    1    3    3    0  502  0.14653469282E+02 -0.34303696949E+03  0.33438765314E+02  0.34500627186E+03  0.46999998093E+01 0. -1.
</event>
<event>
 5   0  0.3755872E-02  0.7021040E+03  0.7818609E-02  0.9713641E-01
        1   -1    0    0  501    0  0.00000000000E+00  0.00000000000E+00  0.89047363429E+03  0.89047363430E+03  0.50400001928E-02 0.  1.
       -1   -1    0    0    0  501  0.00000000000E+00  0.00000000000E+00 -0.13839544931E+03  0.13839544940E+03  0.50400001928E-02 0. -1.
    10030    2    1    2    0    0  0.00000000000E+00  0.00000000000E+00  0.75207818498E+03  0.10288690837E+04  0.70210397741E+03 0.  0.
        2    1    3    3  502    0  0.24509356152E+03  0.24788622806E+03  0.43679724447E+03  0.55884726781E+03  0.25500000920E-02 0. -1.
       -2    1    3    3    0  502 -0.24509356152E+03 -0.24788622806E+03  0.31528094051E+03  0.47002181589E+03  0.25500000920E-02 0.  1.
</event>
<event>
 5   0  0.3749730E-02  0.6911059E+03  0.7818609E-02  0.9732564E-01
        1   -1    0    0  501    0  0.00000000000E+00  0.00000000000E+00  0.49750878007E+03  0.49750878010E+03  0.50400001928E-02 0.  1.
       -1   -1    0    0    0  501  0.00000000000E+00  0.00000000000E+00 -0.24000952791E+03  0.24000952796E+03  0.50400001928E-02 0. -1.
    10030    2    1    2    0    0  0.00000000000E+00  0.00000000000E+00  0.25749925216E+03  0.73751830805E+03  0.69110591797E+03 0.  0.
        4    1    3    3  502    0 -0.24503467812E+03 -0.24178531197E+03  0.16081948699E+03  0.37995611702E+03  0.12699999809E+01 0.  1.
       -4    1    3    3    0  502  0.24503467812E+03  0.24178531197E+03  0.96679765175E+02  0.35756219104E+03  0.12699999809E+01 0. -1.
</event>
<event>
 5   0  0.3717372E-02  0.6790873E+03  0.7818609E-02  0.9753680E-01
       -1   -1    0    0    0  501  0.00000000000E+00  0.00000000000E+00  0.31475086576E+03  0.31475086580E+03  0.50400001928E-02 0. -1.
        1   -1    0    0  501    0  0.00000000000E+00  0.00000000000E+00 -0.36628932455E+03  0.36628932458E+03  0.50400001928E-02 0.  1.
    10030    2    1    2    0    0  0.00000000000E+00  0.00000000000E+00 -0.51538458785E+02  0.68104019038E+03  0.67908727582E+03 0.  0.
        3    1    3    3  502    0  0.26831657232E+03 -0.76011316743E+02  0.16848439093E+03  0.32581974072E+03  0.10100000352E+00 0. -1.
       -3    1    3    3    0  502 -0.26831657232E+03  0.76011316743E+02 -0.22002284972E+03  0.35522044966E+03  0.10100000352E+00 0.  1.
</event>
<event>
 5   0  0.5899787E-02  0.6760634E+03  0.7818609E-02  0.9759066E-01
        2   -1    0    0  501    0  0.00000000000E+00  0.00000000000E+00  0.86708228802E+03  0.86708228803E+03  0.25500000920E-02 0.  1.
       -2   -1    0    0    0  501  0.00000000000E+00  0.00000000000E+00 -0.13178154110E+03  0.13178154113E+03  0.25500000920E-02 0. -1.
    10030    2    1    2    0    0  0.00000000000E+00  0.00000000000E+00  0.73530074692E+03  0.99886382915E+03  0.67606342955E+03 0.  0.
        2    1    3    3  502    0  0.73054340203E+02 -0.27775310413E+02 -0.11824887854E+03  0.14174343644E+03  0.25500000920E-02 0. -1.
       -2    1    3    3    0  502 -0.73054340203E+02  0.27775310413E+02  0.85354962546E+03  0.85712039272E+03  0.25500000920E-02 0.  1.
</event>
<event>
 5   0  0.3601475E-02  0.6805242E+03  0.7818609E-02  0.9751131E-01
       -1   -1    0    0    0  501  0.00000000000E+00  0.00000000000E+00  0.41226665691E+03  0.41226665694E+03  0.50400001928E-02 0.  1.
        1   -1    0    0  501    0  0.00000000000E+00  0.00000000000E+00 -0.28083348665E+03  0.28083348669E+03  0.50400001928E-02 0. -1.
    10030    2    1    2    0    0  0.00000000000E+00  0.00000000000E+00  0.13143317027E+03  0.69310014363E+03  0.68052415891E+03 0.  0.
        5    1    3    3  502    0  0.31693719212E+03 -0.48116951466E+02 -0.50371211636E+02  0.32453624409E+03  0.46999998093E+01 0. -1.
       -5    1    3    3    0  502 -0.31693719212E+03  0.48116951466E+02  0.18180438190E+03  0.36856389954E+03  0.46999998093E+01 0.  1.
</event>
<event>
 5   0  0.6131198E-02  0.7060054E+03  0.7818609E-02  0.9707017E-01
       -2   -1    0    0    0  501  0.00000000000E+00  0.00000000000E+00  0.16042813094E+03  0.16042813096E+03  0.25500000920E-02 0. -1.
        2   -1    0    0  501    0  0.00000000000E+00  0.00000000000E+00 -0.77673982646E+03  0.77673982647E+03  0.25500000920E-02 0.  1.
    10030    2    1    2    0    0  0.00000000000E+00  0.00000000000E+00 -0.61631169552E+03  0.93716795743E+03  0.70600543510E+03 0.  0.
        1    1    3    3  502    0 -0.12952306017E+03 -0.25287646638E+03 -0.58624446536E+03  0.65146396950E+03  0.50400001928E-02 0.  1.
       -1    1    3    3    0  502  0.12952306017E+03  0.25287646638E+03 -0.30067230162E+02  0.28570398793E+03  0.50400001928E-02 0. -1.
</event>
<event>
 5   0  0.3717372E-02  0.7003182E+03  0.7818609E-02  0.9716688E-01
       -1   -1    0    0    0  501  0.00000000000E+00  0.00000000000E+00  0.24510438923E+03  0.24510438928E+03  0.50400001928E-02 0. -1.
        1   -1    0    0  501    0  0.00000000000E+00  0.00000000000E+00 -0.50024158558E+03  0.50024158561E+03  0.50400001928E-02 0.  1.
    10030    2    1    2    0    0  0.00000000000E+00  0.00000000000E+00 -0.25513719635E+03  0.74534597489E+03  0.70031823718E+03 0.  0.
        3    1    3    3  502    0  0.10454577013E+03  0.24247080933E+03  0.11719518120E+03  0.28888861543E+03  0.10100000352E+00 0. -1.
       -3    1    3    3    0  502 -0.10454577013E+03 -0.24247080933E+03 -0.37233237755E+03  0.45645735946E+03  0.10100000352E+00 0.  1.
</event>
<event>
 5   0  0.6131198E-02  0.6926565E+03  0.7818609E-02  0.9729874E-01
        2   -1    0    0  501    0  0.00000000000E+00  0.00000000000E+00  0.62566302206E+03  0.62566302207E+03  0.25500000920E-02 0.  1.
       -2   -1    0    0    0  501  0.00000000000E+00  0.00000000000E+00 -0.19170584226E+03  0.19170584228E+03  0.25500000920E-02 0. -1.
    10030    2    1    2    0    0  0.00000000000E+00  0.00000000000E+00  0.43395717980E+03  0.81736886435E+03  0.69265649965E+03 0.  0.
        1    1    3    3  502    0 -0.31186147500E+03  0.50864383006E+01  0.39461347610E+03  0.50299428127E+03  0.50400001928E-02 0.  1.
       -1    1    3    3    0  502  0.31186147500E+03 -0.50864383006E+01  0.39343703698E+02  0.31437458308E+03  0.50400001928E-02 0. -1.
</event>
<event>
 5   0  0.3439015E-02  0.5921787E+03  0.7818609E-02  0.9921767E-01
       -1   -1    0    0    0  501  0.00000000000E+00  0.00000000000E+00  0.98799009883E+03  0.98799009885E+03  0.50400001928E-02 0.  1.
        1   -1    0    0  501    0  0.00000000000E+00  0.00000000000E+00 -0.88734591444E+02  0.88734591587E+02  0.50400001928E-02 0. -1.
    10030    2    1    2    0    0  0.00000000000E+00  0.00000000000E+00  0.89925550739E+03  0.10767246904E+04  0.59217868200E+03 0.  0.
        1    1    3    3  502    0 -0.88634670527E+01  0.11423930468E+03 -0.46788251982E+02  0.12376720216E+03  0.50400001928E-02 0. -1.
       -1    1    3    3    0  502  0.88634670527E+01 -0.11423930468E+03  0.94604375937E+03  0.95295748827E+03  0.50400001928E-02 0.  1.
</event>
<event>
 5   0  0.5987810E-02  0.7216524E+03  0.7818609E-02  0.9680904E-01
       -2   -1    0    0    0  501  0.00000000000E+00  0.00000000000E+00  0.10689417478E+03  0.10689417481E+03  0.25500000920E-02 0.  1.
        2   -1    0    0  501    0  0.00000000000E+00  0.00000000000E+00 -0.12179853792E+04  0.12179853792E+04  0.25500000920E-02 0. -1.
    10030    2    1    2    0    0  0.00000000000E+00  0.00000000000E+00 -0.11110912045E+04  0.13248795540E+04  0.72165238731E+03 0.  0.
        5    1    3    3  502    0 -0.15933039470E+03 -0.28708528128E+03 -0.83012928343E+03  0.89271543653E+03  0.46999998093E+01 0. -1.
       -5    1    3    3    0  502  0.15933039470E+03  0.28708528128E+03 -0.28096192102E+03  0.43216411751E+03  0.46999998093E+01 0.  1.
</event>
<event>
 5   0  0.3755872E-02  0.6321366E+03  0.7818609E-02  0.9840888E-01
       -1   -1    0    0    0  501  0.00000000000E+00  0.00000000000E+00  0.24249844509E+03  0.24249844514E+03  0.50400001928E-02 0. -1.
        1   -1    0    0  501    0  0.00000000000E+00  0.00000000000E+00 -0.41195798864E+03  0.41195798867E+03  0.50400001928E-02 0.  1.
    10030    2    1    2    0    0  0.00000000000E+00  0.00000000000E+00 -0.16945954355E+03  0.65445643381E+03  0.63213660458E+03 0.  0.
        2    1    3    3  502    0 -0.11238576583E+03 -0.19382285886E+03 -0.31553929465E+03  0.38699212841E+03  0.25500000920E-02 0.  1.
       -2    1    3    3    0  502  0.11238576583E+03  0.19382285886E+03  0.14607975110E+03  0.26746430540E+03  0.25500000920E-02 0. -1.
</event>
<event>
 5   0  0.6248886E-02  0.7185003E+03  0.7818609E-02  0.9686107E-01
        2   -1    0    0  501    0  0.00000000000E+00  0.00000000000E+00  0.18303342138E+04  0.18303342138E+04  0.25500000920E-02 0.  1.
       -2   -1    0    0    0  501  0.00000000000E+00  0.00000000000E+00 -0.70512077259E+02  0.70512077305E+02  0.25500000920E-02 0. -1.
    10030    2    1    2    0    0  0.00000000000E+00  0.00000000000E+00  0.17598221365E+04  0.19008462911E+04  0.71850029238E+03 0.  0.
        3    1    3    3  502    0 -0.34169216535E+03 -0.95276578693E+02  0.10302555045E+04  0.10896134989E+04  0.10100000352E+00 0.  1.
       -3    1    3    3    0  502  0.34169216535E+03  0.95276578693E+02  0.72956663205E+03  0.81123279218E+03  0.10100000352E+00 0. -1.
</event>
<event>
 5   0  0.5899787E-02  0.6985659E+03  0.7818609E-02  0.9719688E-01
       -2   -1    0    0    0  501  0.00000000000E+00  0.00000000000E+00  0.12584152066E+03  0.12584152069E+03  0.25500000920E-02 0. -1.
        2   -1    0    0  501    0  0.00000000000E+00  0.00000000000E+00 -0.96946216342E+03  0.96946216342E+03  0.25500000920E-02 0.  1.
    10030    2    1    2    0    0  0.00000000000E+00  0.00000000000E+00 -0.84362064276E+03  0.10953036841E+04  0.69856593929E+03 0.  0.
        2    1    3    3  502    0 -0.54510569465E+02 -0.33841633552E+03 -0.52700877726E+03  0.62867739711E+03  0.25500000920E-02 0. -1.
       -2    1    3    3    0  502  0.54510569465E+02  0.33841633552E+03 -0.31661186550E+03  0.46662628700E+03  0.25500000920E-02 0.  1.
</event>
<event>
 5   0  0.2439375E-02  0.7023101E+03  0.7818609E-02  0.9713290E-01
       -4   -1    0    0    0  501  0.00000000000E+00  0.00000000000E+00  0.40192525485E+03  0.40192726131E+03  0.12699999809E+01 0. -1.
        4   -1    0    0  501    0  0.00000000000E+00  0.00000000000E+00 -0.30679394705E+03  0.30679657568E+03  0.12699999809E+01 0.  1.
    10030    2    1    2    0    0  0.00000000000E+00  0.00000000000E+00  0.95131307796E+02  0.70872383699E+03  0.70231012480E+03 0.  0.
        1    1    3    3  502    0 -0.45294391292E+02 -0.23630637829E+03 -0.21053873281E+03  0.31971681899E+03  0.50400001928E-02 0.  1.
       -1    1    3    3    0  502  0.45294391292E+02  0.23630637829E+03  0.30567004061E+03  0.38900701800E+03  0.50400001928E-02 0. -1.
</event>
<event>
 5   0  0.5987810E-02  0.6760523E+03  0.7818609E-02  0.9759086E-01
        2   -1    0    0  501    0  0.00000000000E+00  0.00000000000E+00  0.15065594029E+04  0.15065594029E+04  0.25500000920E-02 0.  1.
       -2   -1    0    0    0  501  0.00000000000E+00  0.00000000000E+00 -0.75842785640E+02  0.75842785683E+02  0.25500000920E-02 0. -1.
    10030    2    1    2    0    0  0.00000000000E+00  0.00000000000E+00  0.14307166173E+04  0.15824021886E+04  0.67605225208E+03 0.  0.
        5    1    3    3  502    0 -0.26420658630E+03  0.10376139942E+03  0.28587585781E+03  0.40288788060E+03  0.46999998093E+01 0. -1.
       -5    1    3    3    0  502  0.26420658630E+03 -0.10376139942E+03  0.11448407594E+04  0.11795143080E+04  0.46999998093E+01 0.  1.
</event>
<event>
 5   0  0.5987810E-02  0.7087038E+03  0.7818609E-02  0.9702462E-01
        2   -1    0    0  501    0  0.00000000000E+00  0.00000000000E+00  0.35237987310E+03  0.35237987311E+03  0.25500000920E-02 0. -1.
       -2   -1    0    0    0  501  0.00000000000E+00  0.00000000000E+00 -0.35633497067E+03  0.35633497068E+03  0.25500000920E-02 0.  1.
    10030    2    1    2    0    0  0.00000000000E+00  0.00000000000E+00 -0.39550975677E+01  0.70871484379E+03  0.70870380767E+03 0.  0.
        5    1    3    3  502    0  0.23343264947E+02  0.27984751708E+03  0.21408978996E+03  0.35315162324E+03  0.46999998093E+01 0. -1.
       -5    1    3    3    0  502 -0.23343264947E+02 -0.27984751708E+03 -0.21804488752E+03  0.35556322055E+03  0.46999998093E+01 0.  1.
</event>
<event>
 5   0  0.6248886E-02  0.8640845E+03  0.7818609E-02  0.9471626E-01
        2   -1    0    0  501    0  0.00000000000E+00  0.00000000000E+00  0.36836097731E+03  0.36836097732E+03  0.25500000920E-02 0.  1.
       -2   -1    0    0    0  501  0.00000000000E+00  0.00000000000E+00 -0.50673262337E+03  0.50673262338E+03  0.25500000920E-02 0. -1.
    10030    2    1    2    0    0  0.00000000000E+00  0.00000000000E+00 -0.13837164606E+03  0.87509360070E+03  0.86408454306E+03 0.  0.
        3    1    3    3  502    0  0.34989067360E+03 -0.17875705265E+02  0.18685435895E+03  0.39706118669E+03  0.10100000352E+00 0.  1.
       -3    1    3    3    0  502 -0.34989067360E+03  0.17875705265E+02 -0.32522600501E+03  0.47803241402E+03  0.10100000352E+00 0. -1.
</event>
<event>
 5   0  0.6131198E-02  0.7066050E+03  0.7818609E-02  0.9706003E-01
       -2   -1    0    0    0  501  0.00000000000E+00  0.00000000000E+00  0.16297625439E+03  0.16297625441E+03  0.25500000920E-02 0. -1.
        2   -1    0    0  501    0  0.00000000000E+00  0.00000000000E+00 -0.76589471919E+03  0.76589471920E+03  0.25500000920E-02 0.  1.
    10030    2    1    2    0    0  0.00000000000E+00  0.00000000000E+00 -0.60291846480E+03  0.92887097361E+03  0.70660498895E+03 0.  0.
        1    1    3    3  502    0 -0.18043174264E+03 -0.10265622201E+03  0.74348828441E+02  0.22050320176E+03  0.50400001928E-02 0. -1.
       -1    1    3    3    0  502  0.18043174264E+03  0.10265622201E+03 -0.67726729324E+03  0.70836777185E+03  0.50400001928E-02 0.  1.
</event>
<event>
 5   0  0.3601475E-02  0.7716768E+03  0.7818609E-02  0.9601944E-01
       -1   -1    0    0    0  501  0.00000000000E+00  0.00000000000E+00  0.50615464664E+03  0.50615464666E+03  0.50400001928E-02 0.  1.
        1   -1    0    0  501    0  0.00000000000E+00  0.00000000000E+00 -0.29412208235E+03  0.29412208239E+03  0.50400001928E-02 0. -1.
    10030    2    1    2    0    0  0.00000000000E+00  0.00000000000E+00  0.21203256429E+03  0.80027672906E+03  0.77167676831E+03 0.  0.
        5    1    3    3  502    0  0.13654161772E+03 -0.23203154489E+03 -0.18057131622E+03  0.32420725074E+03  0.46999998093E+01 0. -1.
       -5    1    3    3    0  502 -0.13654161772E+03  0.23203154489E+03  0.39260388051E+03  0.47606947831E+03  0.46999998093E+01 0.  1.
</event>
<event>
 5   0  0.3439015E-02  0.6979763E+03  0.7818609E-02  0.9720699E-01
        1   -1    0    0  501    0  0.00000000000E+00  0.00000000000E+00  0.50806110708E+03  0.50806110710E+03  0.50400001928E-02 0. -1.
       -1   -1    0    0    0  501  0.00000000000E+00  0.00000000000E+00 -0.23972063122E+03  0.23972063127E+03  0.50400001928E-02 0.  1.
    10030    2    1    2    0    0  0.00000000000E+00  0.00000000000E+00  0.26834047586E+03  0.74778173837E+03  0.69797630136E+03 0.  0.
        1    1    3    3  502    0 -0.16827745392E+03 -0.30340442315E+03  0.93781591083E+02  0.35939745733E+03  0.50400001928E-02 0.  1.
       -1    1    3    3    0  502  0.16827745392E+03  0.30340442315E+03  0.17455888478E+03  0.38838428105E+03  0.50400001928E-02 0. -1.
</event>
<event>
 5   0  0.2439375E-02  0.6884536E+03  0.7818609E-02  0.9737184E-01
       -3   -1    0    0    0  501  0.00000000000E+00  0.00000000000E+00  0.13612729766E+03  0.13612733513E+03  0.10100000352E+00 0. -1.
        3   -1    0    0  501    0  0.00000000000E+00  0.00000000000E+00 -0.87045034447E+03  0.87045035033E+03  0.10100000352E+00 0.  1.
    10030    2    1    2    0    0  0.00000000000E+00  0.00000000000E+00 -0.73432304681E+03  0.10065776855E+04  0.68845355673E+03 0.  0.
        2    1    3    3  502    0  0.20400078737E+03 -0.25852784485E+03 -0.51365564394E+03  0.61015988754E+03  0.25500000920E-02 0.  1.
       -2    1    3    3    0  502 -0.20400078737E+03  0.25852784485E+03 -0.22066740288E+03  0.39641779792E+03  0.25500000920E-02 0. -1.
</event>
<event>
 5   0  0.5899787E-02  0.6884363E+03  0.7818609E-02  0.9737214E-01
        2   -1    0    0  501    0  0.00000000000E+00  0.00000000000E+00  0.43946019593E+03  0.43946019594E+03  0.25500000920E-02 0.  1.
       -2   -1    0    0    0  501  0.00000000000E+00  0.00000000000E+00 -0.26961748140E+03  0.26961748141E+03  0.25500000920E-02 0. -1.
    10030    2    1    2    0    0  0.00000000000E+00  0.00000000000E+00  0.16984271453E+03  0.70907767735E+03  0.68843634771E+03 0.  0.
        2    1    3    3  502    0 -0.50581117189E+02  0.30426495083E+03 -0.72469137119E+02  0.31683968432E+03  0.25500000920E-02 0. -1.
       -2    1    3    3    0  502  0.50581117189E+02 -0.30426495083E+03  0.24231185165E+03  0.39223799303E+03  0.25500000920E-02 0.  1.
</event>
<event>
 5   0  0.3755872E-02  0.7000701E+03  0.7818609E-02  0.9717112E-01
        1   -1    0    0  501    0  0.00000000000E+00  0.00000000000E+00  0.19310410184E+03  0.19310410191E+03  0.50400001928E-02 0. -1.
       -1   -1    0    0    0  501  0.00000000000E+00  0.00000000000E+00 -0.63449984181E+03  0.63449984183E+03  0.50400001928E-02 0.  1.
    10030    2    1    2    0    0  0.00000000000E+00  0.00000000000E+00 -0.44139573997E+03  0.82760394374E+03  0.70007005966E+03 0.  0.
        2    1    3    3  502    0 -0.32644719331E+03  0.11983154573E+03 -0.26794269787E+03  0.43899961130E+03  0.25500000920E-02 0.  1.
       -2    1    3    3    0  502  0.32644719331E+03 -0.11983154573E+03 -0.17345304210E+03  0.38860433244E+03  0.25500000920E-02 0. -1.
</event>
<event>
 5   0  0.6131198E-02  0.6167363E+03  0.7818609E-02  0.9871279E-01
       -2   -1    0    0    0  501  0.00000000000E+00  0.00000000000E+00  0.26794913235E+03  0.26794913236E+03  0.25500000920E-02 0.  1.
        2   -1    0    0  501    0  0.00000000000E+00  0.00000000000E+00 -0.35488425347E+03  0.35488425348E+03  0.25500000920E-02 0. -1.
    10030    2    1    2    0    0  0.00000000000E+00  0.00000000000E+00 -0.86935121127E+02  0.62283338584E+03  0.61673633851E+03 0.  0.
        1    1    3    3  502    0  0.20143861939E+03  0.19225945006E+03  0.90317423415E+02  0.29274297688E+03  0.50400001928E-02 0.  1.
       -1    1    3    3    0  502 -0.20143861939E+03 -0.19225945006E+03 -0.17725254454E+03  0.33009040896E+03  0.50400001928E-02 0. -1.
</event>
<event>
 5   0  0.5987810E-02  0.6506782E+03  0.7818609E-02  0.9805507E-01
        2   -1    0    0  501    0  0.00000000000E+00  0.00000000000E+00  0.50260793797E+03  0.50260793798E+03  0.25500000920E-02 0.  1.
       -2   -1    0    0    0  501  0.00000000000E+00  0.00000000000E+00 -0.21059260798E+03  0.21059260799E+03  0.25500000920E-02 0. -1.
    10030    2    1    2    0    0  0.00000000000E+00  0.00000000000E+00  0.29201533000E+03  0.71320054597E+03  0.65067815840E+03 0.  0.
        5    1    3    3  502    0  0.65483147656E+02 -0.91049964939E+01 -0.20311398237E+03  0.21365468266E+03  0.46999998093E+01 0. -1.
       -5    1    3    3    0  502 -0.65483147656E+02  0.91049964939E+01  0.49512931237E+03  0.49954586331E+03  0.46999998093E+01 0.  1.
</event>
<event>
 5   0  0.2439375E-02  0.6991972E+03  0.7818609E-02  0.9718606E-01
        3   -1    0    0  501    0  0.00000000000E+00  0.00000000000E+00  0.94481183881E+03  0.94481184421E+03  0.10100000352E+00 0.  1.
       -3   -1    0    0    0  501  0.00000000000E+00  0.00000000000E+00 -0.12935820671E+03  0.12935824614E+03  0.10100000352E+00 0. -1.
    10030    2    1    2    0    0  0.00000000000E+00  0.00000000000E+00  0.81545363210E+03  0.10741700904E+04  0.69919722318E+03 0.  0.
        2    1    3    3  502    0 -0.31233930628E+03 -0.13824428043E+03  0.29325650984E+03  0.45018518844E+03  0.25500000920E-02 0. -1.
       -2    1    3    3    0  502  0.31233930628E+03  0.13824428043E+03  0.52219712226E+03  0.62398490192E+03  0.25500000920E-02 0.  1.
</event>
<event>
 5   0  0.3717372E-02  0.6942510E+03  0.7818609E-02  0.9727114E-01
        1   -1    0    0  501    0  0.00000000000E+00  0.00000000000E+00  0.13802453499E+04  0.13802453499E+04  0.50400001928E-02 0.  1.
       -1   -1    0    0    0  501  0.00000000000E+00  0.00000000000E+00 -0.87300511722E+02  0.87300511867E+02  0.50400001928E-02 0. -1.
    10030    2    1    2    0    0  0.00000000000E+00  0.00000000000E+00  0.12929448382E+04  0.14675458618E+04  0.69425103662E+03 0.  0.
        3    1    3    3  502    0  0.21007078822E+03  0.24879474491E+03  0.90072929286E+03  0.95777963560E+03  0.10100000352E+00 0.  1.
       -3    1    3    3    0  502 -0.21007078822E+03 -0.24879474491E+03  0.39221554534E+03  0.50976622620E+03  0.10100000352E+00 0. -1.
</event>
<event>
 5   0  0.3601475E-02  0.6950282E+03  0.7818609E-02  0.9725773E-01
        1   -1    0    0  501    0  0.00000000000E+00  0.00000000000E+00  0.84426299932E+03  0.84426299934E+03  0.50400001928E-02 0. -1.
       -1   -1    0    0    0  501  0.00000000000E+00  0.00000000000E+00 -0.14304316172E+03  0.14304316181E+03  0.50400001928E-02 0.  1.
    10030    2    1    2    0    0  0.00000000000E+00  0.00000000000E+00  0.70121983761E+03  0.98730616115E+03  0.69502819741E+03 0.  0.
        5    1    3    3  502    0 -0.13613942819E+03 -0.28863927225E+03  0.15533328366E+03  0.35496069136E+03  0.46999998093E+01 0.  1.
       -5    1    3    3    0  502  0.13613942819E+03  0.28863927225E+03  0.54588655394E+03  0.63234546979E+03  0.46999998093E+01 0. -1.
</event>
<event>
 5   0  0.6131198E-02  0.7043781E+03  0.7818609E-02  0.9709774E-01
        2   -1    0    0  501    0  0.00000000000E+00  0.00000000000E+00  0.24808988919E+04  0.24808988919E+04  0.25500000920E-02 0. -1.
       -2   -1    0    0    0  501  0.00000000000E+00  0.00000000000E+00 -0.49996850732E+02  0.49996850797E+02  0.25500000920E-02 0.  1.
    10030    2    1    2    0    0  0.00000000000E+00  0.00000000000E+00  0.24309020412E+04  0.25308957427E+04  0.70437811341E+03 0.  0.
        1    1    3    3  502    0  0.18215676534E+03  0.28568828074E+03  0.15608040537E+04  0.15971562776E+04  0.50400001928E-02 0. -1.
       -1    1    3    3    0  502 -0.18215676534E+03 -0.28568828074E+03  0.87009798747E+03  0.93373946513E+03  0.50400001928E-02 0.  1.
</event>
<event>
 5   0  0.6167756E-02  0.7263563E+03  0.7818609E-02  0.9673192E-01
        2   -1    0    0  501    0  0.00000000000E+00  0.00000000000E+00  0.85121661279E+03  0.85121661279E+03  0.25500000920E-02 0.  1.
       -2   -1    0    0    0  501  0.00000000000E+00  0.00000000000E+00 -0.15495275547E+03  0.15495275549E+03  0.25500000920E-02 0. -1.
    10030    2    1    2    0    0  0.00000000000E+00  0.00000000000E+00  0.69626385732E+03  0.10061693683E+04  0.72635627530E+03 0.  0.
        4    1    3    3  502    0  0.90415227860E+02  0.26909280719E+03  0.66191260251E+03  0.72021924341E+03  0.12699999809E+01 0.  1.
       -4    1    3    3    0  502 -0.90415227860E+02 -0.26909280719E+03  0.34351254804E+02  0.28595012488E+03  0.12699999809E+01 0. -1.
</event>
<event>
 5   0  0.2439375E-02  0.6925238E+03  0.7818609E-02  0.9730104E-01
        4   -1    0    0  501    0  0.00000000000E+00  0.00000000000E+00  0.51802928282E+03  0.51803083958E+03  0.12699999809E+01 0. -1.
       -4   -1    0    0    0  501  0.00000000000E+00  0.00000000000E+00 -0.23144524749E+03  0.23144873187E+03  0.12699999809E+01 0.  1.
    10030    2    1    2    0    0  0.00000000000E+00  0.00000000000E+00  0.28658403533E+03  0.74947957145E+03  0.69252380372E+03 0.  0.
        4    1    3    3  502    0  0.13156895828E+03  0.56350454864E+02  0.48451633376E+03  0.50521624590E+03  0.12699999809E+01 0. -1.
       -4    1    3    3    0  502 -0.13156895828E+03 -0.56350454864E+02 -0.19793229843E+03  0.24426332555E+03  0.12699999809E+01 0.  1.
</event>
<event>
 5   0  0.3755872E-02  0.6100324E+03  0.7818609E-02  0.9884808E-01
       -1   -1    0    0    0  501  0.00000000000E+00  0.00000000000E+00  0.10536624554E+03  0.10536624566E+03  0.50400001928E-02 0. -1.
        1   -1    0    0  501    0  0.00000000000E+00  0.00000000000E+00 -0.88296657469E+03  0.88296657471E+03  0.50400001928E-02 0.  1.
    10030    2    1    2    0    0  0.00000000000E+00  0.00000000000E+00 -0.77760032915E+03  0.98833282037E+03  0.61003236958E+03 0.  0.
        2    1    3    3  502    0 -0.79397522334E+02  0.16636233087E+02  0.87568559672E+02  0.11936910594E+03  0.25500000920E-02 0. -1.
       -2    1    3    3    0  502  0.79397522334E+02 -0.16636233087E+02 -0.86516888882E+03  0.86896371443E+03  0.25500000920E-02 0.  1.
</event>
<event>
 5   0  0.6248886E-02  0.6700812E+03  0.7818609E-02  0.9769811E-01
        2   -1    0    0  501    0  0.00000000000E+00  0.00000000000E+00  0.56203153364E+03  0.56203153365E+03  0.25500000920E-02 0.  1.
       -2   -1    0    0    0  501  0.00000000000E+00  0.00000000000E+00 -0.19972580572E+03  0.19972580574E+03  0.25500000920E-02 0. -1.
    10030    2    1    2    0    0  0.00000000000E+00  0.00000000000E+00  0.36230572792E+03  0.76175733939E+03  0.67008119181E+03 0.  0.
        3    1    3    3  502    0  0.32070029965E+03  0.89405425325E+02  0.13846285434E+03  0.36057452005E+03  0.10100000352E+00 0.  1.
       -3    1    3    3    0  502 -0.32070029965E+03 -0.89405425325E+02  0.22384287358E+03  0.40118281933E+03  0.10100000352E+00 0. -1.
</event>
<event>
 5   0  0.3749730E-02  0.6949730E+03  0.7818609E-02  0.9725868E-01
       -1   -1    0    0    0  501  0.00000000000E+00  0.00000000000E+00  0.10215490917E+03  0.10215490929E+03  0.50400001928E-02 0.  1.
        1   -1    0    0  501    0  0.00000000000E+00  0.00000000000E+00 -0.11819977328E+04  0.11819977328E+04  0.50400001928E-02 0. -1.
    10030    2    1    2    0    0  0.00000000000E+00  0.00000000000E+00 -0.10798428237E+04  0.12841526421E+04  0.69497300988E+03 0.  0.
        4    1    3    3  502    0  0.56878680776E+02 -0.25047996675E+03 -0.97235510730E+03  0.10057094340E+04  0.12699999809E+01 0. -1.
       -4    1    3    3    0  502 -0.56878680776E+02  0.25047996675E+03 -0.10748771635E+03  0.27844320810E+03  0.12699999809E+01 0.  1.
</event>
<event>
 5   0  0.5987810E-02  0.7048245E+03  0.7818609E-02  0.9709017E-01
        2   -1    0    0  501    0  0.00000000000E+00  0.00000000000E+00  0.29198045510E+03  0.29198045511E+03  0.25500000920E-02 0. -1.
       -2   -1    0    0    0  501  0.00000000000E+00  0.00000000000E+00 -0.42535171666E+03  0.42535171667E+03  0.25500000920E-02 0.  1.
    10030    2    1    2    0    0  0.00000000000E+00  0.00000000000E+00 -0.13337126156E+03  0.71733217178E+03  0.70482448259E+03 0.  0.
        5    1    3    3  502    0 -0.29047783444E+02 -0.30442068807E+03 -0.24488292291E+03  0.39179773479E+03  0.46999998093E+01 0.  1.
       -5    1    3    3    0  502  0.29047783444E+02  0.30442068807E+03  0.11151166135E+03  0.32553443699E+03  0.46999998093E+01 0. -1.
</event>
<event>
 5   0  0.3755872E-02  0.6311201E+03  0.7818609E-02  0.9842865E-01
        1   -1    0    0  501    0  0.00000000000E+00  0.00000000000E+00  0.34470921101E+03  0.34470921105E+03  0.50400001928E-02 0. -1.
       -1   -1    0    0    0  501  0.00000000000E+00  0.00000000000E+00 -0.28887580544E+03  0.28887580548E+03  0.50400001928E-02 0.  1.
    10030    2    1    2    0    0  0.00000000000E+00  0.00000000000E+00  0.55833405576E+02  0.63358501653E+03  0.63112011851E+03 0.  0.
        2    1    3    3  502    0  0.30145276019E+03  0.49293451503E+02 -0.51604661058E+02  0.30978484798E+03  0.25500000920E-02 0.  1.
       -2    1    3    3    0  502 -0.30145276019E+03 -0.49293451503E+02  0.10743806663E+03  0.32380016855E+03  0.25500000920E-02 0. -1.
</event>
<event>
 5   0  0.6131198E-02  0.5251744E+03  0.7818609E-02  0.1007409E+00
       -2   -1    0    0    0  501  0.00000000000E+00  0.00000000000E+00  0.82655916063E+02  0.82655916102E+02  0.25500000920E-02 0. -1.
        2   -1    0    0  501    0  0.00000000000E+00  0.00000000000E+00 -0.83420566510E+03  0.83420566511E+03  0.25500000920E-02 0.  1.
    10030    2    1    2    0    0  0.00000000000E+00  0.00000000000E+00 -0.75154974904E+03  0.91686158121E+03  0.52517438419E+03 0.  0.
        1    1    3    3  502    0  0.15472206324E+03 -0.30667597439E+02 -0.92658689461E+01  0.15800403393E+03  0.50400001928E-02 0. -1.
       -1    1    3    3    0  502 -0.15472206324E+03  0.30667597439E+02 -0.74228388009E+03  0.75885754728E+03  0.50400001928E-02 0.  1.
</event>
<event>
 5   0  0.5899787E-02  0.7020470E+03  0.7818609E-02  0.9713738E-01
        2   -1    0    0  501    0  0.00000000000E+00  0.00000000000E+00  0.85502358486E+03  0.85502358487E+03  0.25500000920E-02 0. -1.
       -2   -1    0    0    0  501  0.00000000000E+00  0.00000000000E+00 -0.14411006181E+03  0.14411006183E+03  0.25500000920E-02 0.  1.
    10030    2    1    2    0    0  0.00000000000E+00  0.00000000000E+00  0.71091352305E+03  0.99913364670E+03  0.70204701175E+03 0.  0.
        2    1    3    3  502    0  0.20512441796E+02 -0.26252396574E+03  0.68579797121E+03  0.73461449086E+03  0.25500000920E-02 0. -1.
       -2    1    3    3    0  502 -0.20512441796E+02  0.26252396574E+03  0.25115551841E+02  0.26451915584E+03  0.25500000920E-02 0.  1.
</event>
<event>
 5   0  0.3601475E-02  0.6980462E+03  0.7818609E-02  0.9720579E-01
       -1   -1    0    0    0  501  0.00000000000E+00  0.00000000000E+00  0.10860541061E+03  0.10860541073E+03  0.50400001928E-02 0. -1.
        1   -1    0    0  501    0  0.00000000000E+00  0.00000000000E+00 -0.11216487068E+04  0.11216487068E+04  0.50400001928E-02 0.  1.
    10030    2    1    2    0    0  0.00000000000E+00  0.00000000000E+00 -0.10130432962E+04  0.12302541175E+04  0.69804618312E+03 0.  0.
        5    1    3    3  502    0  0.24139943164E+03 -0.13901140160E+03 -0.13600483789E+03  0.31002783956E+03  0.46999998093E+01 0. -1.
       -5    1    3    3    0  502 -0.24139943164E+03  0.13901140160E+03 -0.87703845826E+03  0.92022627795E+03  0.46999998093E+01 0.  1.
</event>
<event>
 5   0  0.3749730E-02  0.7205295E+03  0.7818609E-02  0.9682754E-01
        1   -1    0    0  501    0  0.00000000000E+00  0.00000000000E+00  0.31866301415E+03  0.31866301419E+03  0.50400001928E-02 0. -1.
       -1   -1    0    0    0  501  0.00000000000E+00  0.00000000000E+00 -0.40729764948E+03  0.40729764951E+03  0.50400001928E-02 0.  1.
    10030    2    1    2    0    0  0.00000000000E+00  0.00000000000E+00 -0.88634635324E+02  0.72596066370E+03  0.72052951824E+03 0.  0.
        4    1    3    3  502    0  0.30338612709E+03 -0.16737888469E+03  0.55068250467E+02  0.35084606063E+03  0.12699999809E+01 0. -1.
       -4    1    3    3    0  502 -0.30338612709E+03  0.16737888469E+03 -0.14370288579E+03  0.37511460307E+03  0.12699999809E+01 0.  1.
</event>
<event>
 5   0  0.3601475E-02  0.6846763E+03  0.7818609E-02  0.9743803E-01
       -1   -1    0    0    0  501  0.00000000000E+00  0.00000000000E+00  0.43236730288E+03  0.43236730291E+03  0.50400001928E-02 0. -1.
        1   -1    0    0  501    0  0.00000000000E+00  0.00000000000E+00 -0.27105520302E+03  0.27105520307E+03  0.50400001928E-02 0.  1.
    10030    2    1    2    0    0  0.00000000000E+00  0.00000000000E+00  0.16131209986E+03  0.70342250598E+03  0.68467629458E+03 0.  0.
        5    1    3    3  502    0 -0.18524506349E+03  0.22187460987E+03 -0.10774768188E+03  0.30850563852E+03  0.46999998093E+01 0.  1.
       -5    1    3    3    0  502  0.18524506349E+03 -0.22187460987E+03  0.26905978174E+03  0.39491686745E+03  0.46999998093E+01 0. -1.
</event>
<event>
 5   0  0.6167756E-02  0.7022439E+03  0.7818609E-02  0.9713403E-01
        2   -1    0    0  501    0  0.00000000000E+00  0.00000000000E+00  0.96521808381E+03  0.96521808381E+03  0.25500000920E-02 0.  1.
       -2   -1    0    0    0  501  0.00000000000E+00  0.00000000000E+00 -0.12772927720E+03  0.12772927722E+03  0.25500000920E-02 0. -1.
    10030    2    1    2    0    0  0.00000000000E+00  0.00000000000E+00  0.83748880661E+03  0.10929473610E+04  0.70224385565E+03 0.  0.
        4    1    3    3  502    0 -0.19218543129E+03 -0.19677465226E+03  0.79080598288E+02  0.28620072973E+03  0.12699999809E+01 0. -1.
       -4    1    3    3    0  502  0.19218543129E+03  0.19677465226E+03  0.75840820832E+03  0.80674663131E+03  0.12699999809E+01 0.  1.
</event>
<event>
 5   0  0.5987810E-02  0.6384609E+03  0.7818609E-02  0.9828676E-01
       -2   -1    0    0    0  501  0.00000000000E+00  0.00000000000E+00  0.28976365275E+03  0.28976365276E+03  0.25500000920E-02 0.  1.
        2   -1    0    0  501    0  0.00000000000E+00  0.00000000000E+00 -0.35169378212E+03  0.35169378213E+03  0.25500000920E-02 0. -1.
    10030    2    1    2    0    0  0.00000000000E+00  0.00000000000E+00 -0.61930129368E+02  0.64145743489E+03  0.63846088357E+03 0.  0.
        5    1    3    3  502    0  0.38558949352E+02 -0.11250213121E+03  0.26663872617E+03  0.29199627119E+03  0.46999998093E+01 0.  1.
       -5    1    3    3    0  502 -0.38558949352E+02  0.11250213121E+03 -0.32856885554E+03  0.34946116369E+03  0.46999998093E+01 0. -1.
</event>
<event>
 5   0  0.3749730E-02  0.6928792E+03  0.7818609E-02  0.9729488E-01
        1   -1    0    0  501    0  0.00000000000E+00  0.00000000000E+00  0.20871799199E+04  0.20871799199E+04  0.50400001928E-02 0.  1.
       -1   -1    0    0    0  501  0.00000000000E+00  0.00000000000E+00 -0.57503613895E+02  0.57503614115E+02  0.50400001928E-02 0. -1.
    10030    2    1    2    0    0  0.00000000000E+00  0.00000000000E+00  0.20296763060E+04  0.21446835340E+04  0.69287917701E+03 0.  0.
        4    1    3    3  502    0  0.31823284932E+03 -0.12047173238E+03  0.12162289563E+04  0.12629331225E+04  0.12699999809E+01 0. -1.
       -4    1    3    3    0  502 -0.31823284932E+03  0.12047173238E+03  0.81344734963E+03  0.88175041152E+03  0.12699999809E+01 0.  1.
</event>
<event>
 5   0  0.6167756E-02  0.6900694E+03  0.7818609E-02  0.9734367E-01
        2   -1    0    0  501    0  0.00000000000E+00  0.00000000000E+00  0.20373821340E+03  0.20373821342E+03  0.25500000920E-02 0. -1.
       -2   -1    0    0    0  501  0.00000000000E+00  0.00000000000E+00 -0.58432316481E+03  0.58432316481E+03  0.25500000920E-02 0.  1.
    10030    2    1    2    0    0  0.00000000000E+00  0.00000000000E+00 -0.38058495140E+03  0.78806137823E+03  0.69006943899E+03 0.  0.
        4    1    3    3  502    0 -0.27819340817E+03 -0.10041195387E+03  0.12628355197E+02  0.29603246626E+03  0.12699999809E+01 0. -1.
       -4    1    3    3    0  502  0.27819340817E+03  0.10041195387E+03 -0.39321330660E+03  0.49202891197E+03  0.12699999809E+01 0.  1.
</event>
<event>
 5   0  0.3601475E-02  0.6950922E+03  0.7818609E-02  0.9725662E-01
       -1   -1    0    0    0  501  0.00000000000E+00  0.00000000000E+00  0.64221557482E+03  0.64221557484E+03  0.50400001928E-02 0.  1.
        1   -1    0    0  501    0  0.00000000000E+00  0.00000000000E+00 -0.18808062771E+03  0.18808062778E+03  0.50400001928E-02 0. -1.
    10030    2    1    2    0    0  0.00000000000E+00  0.00000000000E+00  0.45413494711E+03  0.83029620262E+03  0.69509224848E+03 0.  0.
        5    1    3    3  502    0  0.40972482358E+02 -0.18350510869E+03 -0.12203544711E+03  0.22420439241E+03  0.46999998093E+01 0. -1.
       -5    1    3    3    0  502 -0.40972482358E+02  0.18350510869E+03  0.57617039422E+03  0.60609181021E+03  0.46999998093E+01 0.  1.
</event>
<event>
 5   0  0.3717372E-02  0.6931497E+03  0.7818609E-02  0.9729019E-01
        1   -1    0    0  501    0  0.00000000000E+00  0.00000000000E+00  0.76566041662E+03  0.76566041664E+03  0.50400001928E-02 0. -1.
       -1   -1    0    0    0  501  0.00000000000E+00  0.00000000000E+00 -0.15687652072E+03  0.15687652080E+03  0.50400001928E-02 0.  1.
    10030    2    1    2    0    0  0.00000000000E+00  0.00000000000E+00  0.60878389590E+03  0.92253693743E+03  0.69314974502E+03 0.  0.
        3    1    3    3  502    0 -0.20338518717E+03 -0.24164968220E+03  0.49427311323E+03  0.58657141417E+03  0.10100000352E+00 0. -1.
       -3    1    3    3    0  502  0.20338518717E+03  0.24164968220E+03  0.11451078268E+03  0.33596552326E+03  0.10100000352E+00 0.  1.
</event>
<event>
 5   0  0.3755872E-02  0.6936456E+03  0.7818609E-02  0.9728161E-01
       -1   -1    0    0    0  501  0.00000000000E+00  0.00000000000E+00  0.21685882670E+03  0.21685882676E+03  0.50400001928E-02 0.  1.
        1   -1    0    0  501    0  0.00000000000E+00  0.00000000000E+00 -0.55467449880E+03  0.55467449882E+03  0.50400001928E-02 0. -1.
    10030    2    1    2    0    0  0.00000000000E+00  0.00000000000E+00 -0.33781567210E+03  0.77153332558E+03  0.69364561857E+03 0.  0.
        2    1    3    3  502    0 -0.23724875343E+02  0.24399679400E+03 -0.44178973297E+03  0.50524793256E+03  0.25500000920E-02 0. -1.
       -2    1    3    3    0  502  0.23724875343E+02 -0.24399679400E+03  0.10397406087E+03  0.26628539301E+03  0.25500000920E-02 0.  1.
</event>
<event>
 5   0  0.3755872E-02  0.7130762E+03  0.7818609E-02  0.9695128E-01
       -1   -1    0    0    0  501  0.00000000000E+00  0.00000000000E+00  0.81872805401E+03  0.81872805403E+03  0.50400001928E-02 0.  1.
        1   -1    0    0  501    0  0.00000000000E+00  0.00000000000E+00 -0.15526451840E+03  0.15526451848E+03  0.50400001928E-02 0. -1.
    10030    2    1    2    0    0  0.00000000000E+00  0.00000000000E+00  0.66346353562E+03  0.97399257251E+03  0.71307620084E+03 0.  0.
        2    1    3    3  502    0 -0.16938350060E+03 -0.84269306108E+02 -0.81049599738E+02  0.20581818153E+03  0.25500000920E-02 0. -1.
       -2    1    3    3    0  502  0.16938350060E+03  0.84269306108E+02  0.74451313535E+03  0.76817439097E+03  0.25500000920E-02 0.  1.
</event>
<event>
 5   0  0.3439015E-02  0.6995195E+03  0.7818609E-02  0.9718054E-01
        1   -1    0    0  501    0  0.00000000000E+00  0.00000000000E+00  0.11541332689E+04  0.11541332689E+04  0.50400001928E-02 0.  1.
       -1   -1    0    0    0  501  0.00000000000E+00  0.00000000000E+00 -0.10599458875E+03  0.10599458887E+03  0.50400001928E-02 0. -1.
    10030    2    1    2    0    0  0.00000000000E+00  0.00000000000E+00  0.10481386801E+04  0.12601278578E+04  0.69951949590E+03 0.  0.
        1    1    3    3  502    0  0.13110039311E+03 -0.14328393950E+03  0.62901139649E-01  0.19421020667E+03  0.50400001928E-02 0. -1.
       -1    1    3    3    0  502 -0.13110039311E+03  0.14328393950E+03  0.10480757790E+04  0.10659176511E+04  0.50400001928E-02 0.  1.
</event>
<event>
 5   0  0.3601475E-02  0.6434432E+03  0.7818609E-02  0.9819161E-01
       -1   -1    0    0    0  501  0.00000000000E+00  0.00000000000E+00  0.13746772899E+03  0.13746772908E+03  0.50400001928E-02 0. -1.
        1   -1    0    0  501    0  0.00000000000E+00  0.00000000000E+00 -0.75293874280E+03  0.75293874282E+03  0.50400001928E-02 0.  1.
    10030    2    1    2    0    0  0.00000000000E+00  0.00000000000E+00 -0.61547101381E+03  0.89040647191E+03  0.64344317260E+03 0.  0.
        5    1    3    3  502    0 -0.99284702313E+02 -0.57804902057E+02 -0.72353417973E+03  0.73261358030E+03  0.46999998093E+01 0.  1.
       -5    1    3    3    0  502  0.99284702313E+02  0.57804902057E+02  0.10806316591E+03  0.15779289160E+03  0.46999998093E+01 0. -1.
</event>
<event>
 5   0  0.3755872E-02  0.6878629E+03  0.7818609E-02  0.9738216E-01
        1   -1    0    0  501    0  0.00000000000E+00  0.00000000000E+00  0.10030059142E+04  0.10030059142E+04  0.50400001928E-02 0.  1.
       -1   -1    0    0    0  501  0.00000000000E+00  0.00000000000E+00 -0.11793433795E+03  0.11793433806E+03  0.50400001928E-02 0. -1.
    10030    2    1    2    0    0  0.00000000000E+00  0.00000000000E+00  0.88507157624E+03  0.11209402523E+04  0.68786288901E+03 0.  0.
        2    1    3    3  502    0  0.29549270021E+03  0.65925580864E+02  0.17662287708E+03  0.35051071140E+03  0.25500000920E-02 0. -1.
       -2    1    3    3    0  502 -0.29549270021E+03 -0.65925580864E+02  0.70844869916E+03  0.77042954086E+03  0.25500000920E-02 0.  1.
</event>
<event>
 5   0  0.6167756E-02  0.6837134E+03  0.7818609E-02  0.9745497E-01
        2   -1    0    0  501    0  0.00000000000E+00  0.00000000000E+00  0.10603951276E+04  0.10603951276E+04  0.25500000920E-02 0. -1.
       -2   -1    0    0    0  501  0.00000000000E+00  0.00000000000E+00 -0.11020987520E+03  0.11020987523E+03  0.25500000920E-02 0.  1.
    10030    2    1    2    0    0  0.00000000000E+00  0.00000000000E+00  0.95018525242E+03  0.11706050029E+04  0.68371343324E+03 0.  0.
        4    1    3    3  502    0 -0.31961566455E+03  0.11842487451E+03  0.51992874340E+03  0.62169617583E+03  0.12699999809E+01 0. -1.
       -4    1    3    3    0  502  0.31961566455E+03 -0.11842487451E+03  0.43025650902E+03  0.54890882702E+03  0.12699999809E+01 0.  1.
</event>
<event>
 5   0  0.6167756E-02  0.6774929E+03  0.7818609E-02  0.9756516E-01
       -2   -1    0    0    0  501  0.00000000000E+00  0.00000000000E+00  0.18955938145E+03  0.18955938147E+03  0.25500000920E-02 0.  1.
        2   -1    0    0  501    0  0.00000000000E+00  0.00000000000E+00 -0.60534684138E+03  0.60534684138E+03  0.25500000920E-02 0. -1.
    10030    2    1    2    0    0  0.00000000000E+00  0.00000000000E+00 -0.41578745993E+03  0.79490622285E+03  0.67749294557E+03 0.  0.
        4    1    3    3  502    0  0.28750993218E+03 -0.15240220463E+03 -0.97458520346E+02  0.33968834123E+03  0.12699999809E+01 0.  1.
       -4    1    3    3    0  502 -0.28750993218E+03  0.15240220463E+03 -0.31832893958E+03  0.45521788163E+03  0.12699999809E+01 0. -1.
</event>
<event>
 5   0  0.6131198E-02  0.7062038E+03  0.7818609E-02  0.9706681E-01
        2   -1    0    0  501    0  0.00000000000E+00  0.00000000000E+00  0.70464320636E+03  0.70464320637E+03  0.25500000920E-02 0.  1.
       -2   -1    0    0    0  501  0.00000000000E+00  0.00000000000E+00 -0.17694196641E+03  0.17694196643E+03  0.25500000920E-02 0. -1.
    10030    2    1    2    0    0  0.00000000000E+00  0.00000000000E+00  0.52770123995E+03  0.88158517280E+03  0.70620380787E+03 0.  0.
        1    1    3    3  502    0 -0.29491166441E+02 -0.19700938248E+03  0.62779911414E+03  0.65864569643E+03  0.50400001928E-02 0.  1.
       -1    1    3    3    0  502  0.29491166441E+02  0.19700938248E+03 -0.10009787419E+03  0.22293947637E+03  0.50400001928E-02 0. -1.
</event>
<event>
 5   0  0.3749730E-02  0.8295656E+03  0.7818609E-02  0.9518181E-01
       -1   -1    0    0    0  501  0.00000000000E+00  0.00000000000E+00  0.45757995716E+03  0.45757995718E+03  0.50400001928E-02 0.  1.
        1   -1    0    0  501    0  0.00000000000E+00  0.00000000000E+00 -0.37598842304E+03  0.37598842307E+03  0.50400001928E-02 0. -1.
    10030    2    1    2    0    0  0.00000000000E+00  0.00000000000E+00  0.81591534119E+02  0.83356838025E+03  0.82956558880E+03 0.  0.
        4    1    3    3  502    0  0.11527616509E+03  0.22437371944E+03 -0.29005120585E+03  0.38440014976E+03  0.12699999809E+01 0. -1.
       -4    1    3    3    0  502 -0.11527616509E+03 -0.22437371944E+03  0.37164273997E+03  0.44916823050E+03  0.12699999809E+01 0.  1.
</event>
<event>
 5   0  0.3749730E-02  0.6971856E+03  0.7818609E-02  0.9722057E-01
       -1   -1    0    0    0  501  0.00000000000E+00  0.00000000000E+00  0.20785094898E+03  0.20785094904E+03  0.50400001928E-02 0.  1.
        1   -1    0    0  501    0  0.00000000000E+00  0.00000000000E+00 -0.58463493049E+03  0.58463493051E+03  0.50400001928E-02 0. -1.
    10030    2    1    2    0    0  0.00000000000E+00  0.00000000000E+00 -0.37678398151E+03  0.79248587955E+03  0.69718555677E+03 0.  0.
        4    1    3    3  502    0  0.14002815545E+03  0.98165789522E+02 -0.53367526632E+03  0.56040637873E+03  0.12699999809E+01 0. -1.
       -4    1    3    3    0  502 -0.14002815545E+03 -0.98165789522E+02  0.15689128481E+03  0.23207950082E+03  0.12699999809E+01 0.  1.
</event>
<event>
 5   0  0.5987810E-02  0.6826127E+03  0.7818609E-02  0.9747438E-01
       -2   -1    0    0    0  501  0.00000000000E+00  0.00000000000E+00  0.16004886679E+03  0.16004886681E+03  0.25500000920E-02 0. -1.
        2   -1    0    0  501    0  0.00000000000E+00  0.00000000000E+00 -0.72784046459E+03  0.72784046459E+03  0.25500000920E-02 0.  1.
    10030    2    1    2    0    0  0.00000000000E+00  0.00000000000E+00 -0.56779159780E+03  0.88788933140E+03  0.68261274987E+03 0.  0.
        5    1    3    3  502    0 -0.27520704492E+02  0.94626826261E+02 -0.70888828503E+03  0.71572083670E+03  0.46999998093E+01 0.  1.
       -5    1    3    3    0  502  0.27520704492E+02 -0.94626826261E+02  0.14109668723E+03  0.17216849471E+03  0.46999998093E+01 0. -1.
</event>
<event>
 5   0  0.3601475E-02  0.6944181E+03  0.7818609E-02  0.9726826E-01
       -1   -1    0    0    0  501  0.00000000000E+00  0.00000000000E+00  0.80394177906E+02  0.80394178064E+02  0.50400001928E-02 0.  1.
        1   -1    0    0  501    0  0.00000000000E+00  0.00000000000E+00 -0.14995381914E+04  0.14995381914E+04  0.50400001928E-02 0. -1.
    10030    2    1    2    0    0  0.00000000000E+00  0.00000000000E+00 -0.14191440135E+04  0.15799323695E+04  0.69441814569E+03 0.  0.
        5    1    3    3  502    0  0.15901562411E+03  0.67427092847E+02 -0.13947766331E+04  0.14054381266E+04  0.46999998093E+01 0. -1.
       -5    1    3    3    0  502 -0.15901562411E+03 -0.67427092847E+02 -0.24367380402E+02  0.17449424284E+03  0.46999998093E+01 0.  1.
</event>
<event>
 5   0  0.3601475E-02  0.7168341E+03  0.7818609E-02  0.9688869E-01
        1   -1    0    0  501    0  0.00000000000E+00  0.00000000000E+00  0.27682780286E+03  0.27682780291E+03  0.50400001928E-02 0. -1.
       -1   -1    0    0    0  501  0.00000000000E+00  0.00000000000E+00 -0.46405300671E+03  0.46405300673E+03  0.50400001928E-02 0.  1.
    10030    2    1    2    0    0  0.00000000000E+00  0.00000000000E+00 -0.18722520384E+03  0.74088080964E+03  0.71683407922E+03 0.  0.
        5    1    3    3  502    0 -0.23355741792E+03  0.18077013406E+03  0.11620933993E+03  0.31741709078E+03  0.46999998093E+01 0.  1.
       -5    1    3    3    0  502  0.23355741792E+03 -0.18077013406E+03 -0.30343454378E+03  0.42346371886E+03  0.46999998093E+01 0. -1.
</event>
<event>
 5   0  0.5899787E-02  0.7003242E+03  0.7818609E-02  0.9716678E-01
        2   -1    0    0  501    0  0.00000000000E+00  0.00000000000E+00  0.24850384283E+03  0.24850384285E+03  0.25500000920E-02 0. -1.
       -2   -1    0    0    0  501  0.00000000000E+00  0.00000000000E+00 -0.49340680301E+03  0.49340680302E+03  0.25500000920E-02 0.  1.
    10030    2    1    2    0    0  0.00000000000E+00  0.00000000000E+00 -0.24490296018E+03  0.74191064586E+03  0.70032417247E+03 0.  0.
        2    1    3    3  502    0 -0.30033271956E+02 -0.15515110561E+03  0.20857713303E+03  0.26168355589E+03  0.25500000920E-02 0. -1.
       -2    1    3    3    0  502  0.30033271956E+02  0.15515110561E+03 -0.45348009321E+03  0.48022708997E+03  0.25500000920E-02 0.  1.
</event>
<event>
 5   0  0.3717372E-02  0.6981795E+03  0.7818609E-02  0.9720351E-01
       -1   -1    0    0    0  501  0.00000000000E+00  0.00000000000E+00  0.16105492036E+03  0.16105492044E+03  0.50400001928E-02 0.  1.
        1   -1    0    0  501    0  0.00000000000E+00  0.00000000000E+00 -0.75665904215E+03  0.75665904216E+03  0.50400001928E-02 0. -1.
    10030    2    1    2    0    0  0.00000000000E+00  0.00000000000E+00 -0.59560412179E+03  0.91771396260E+03  0.69817952366E+03 0.  0.
        3    1    3    3  502    0  0.71643614100E+02  0.34160995527E+03 -0.30540795074E+03  0.46379326812E+03  0.10100000352E+00 0.  1.
       -3    1    3    3    0  502 -0.71643614100E+02 -0.34160995527E+03 -0.29019617105E+03  0.45392069448E+03  0.10100000352E+00 0. -1.
</event>
<event>
 5   0  0.6248886E-02  0.6953880E+03  0.7818609E-02  0.9725152E-01
       -2   -1    0    0    0  501  0.00000000000E+00  0.00000000000E+00  0.15424165917E+03  0.15424165919E+03  0.25500000920E-02 0. -1.
        2   -1    0    0  501    0  0.00000000000E+00  0.00000000000E+00 -0.78377727217E+03  0.78377727217E+03  0.25500000920E-02 0.  1.
    10030    2    1    2    0    0  0.00000000000E+00  0.00000000000E+00 -0.62953561300E+03  0.93801893136E+03  0.69538796909E+03 0.  0.
        3    1    3    3  502    0  0.16907683666E+03 -0.25999189735E+03 -0.52680212388E+03  0.61131272791E+03  0.10100000352E+00 0.  1.
       -3    1    3    3    0  502 -0.16907683666E+03  0.25999189735E+03 -0.10273348912E+03  0.32670620345E+03  0.10100000352E+00 0. -1.
</event>
<event>
 5   0  0.3601475E-02  0.6515198E+03  0.7818609E-02  0.9803931E-01
        1   -1    0    0  501    0  0.00000000000E+00  0.00000000000E+00  0.11574710350E+03  0.11574710361E+03  0.50400001928E-02 0.  1.
       -1   -1    0    0    0  501  0.00000000000E+00  0.00000000000E+00 -0.91682231441E+03  0.91682231442E+03  0.50400001928E-02 0. -1.
    10030    2    1    2    0    0  0.00000000000E+00  0.00000000000E+00 -0.80107521091E+03  0.10325694180E+04  0.65151984584E+03 0.  0.
        5    1    3    3  502    0  0.20322066952E+03 -0.92821246467E+02 -0.77619688587E+03  0.80772403700E+03  0.46999998093E+01 0. -1.
       -5    1    3    3    0  502 -0.20322066952E+03  0.92821246467E+02 -0.24878325035E+02  0.22484538103E+03  0.46999998093E+01 0.  1.
</event>
<event>
 5   0  0.6167756E-02  0.7100671E+03  0.7818609E-02  0.9700169E-01
        2   -1    0    0  501    0  0.00000000000E+00  0.00000000000E+00  0.48159751879E+03  0.48159751879E+03  0.25500000920E-02 0.  1.
       -2   -1    0    0    0  501  0.00000000000E+00  0.00000000000E+00 -0.26173065669E+03  0.26173065670E+03  0.25500000920E-02 0. -1.
    10030    2    1    2    0    0  0.00000000000E+00  0.00000000000E+00  0.21986686210E+03  0.74332817549E+03  0.71006713727E+03 0.  0.
        4    1    3    3  502    0  0.29391389692E+03 -0.90240847045E+02  0.29578382583E+03  0.42663623123E+03  0.12699999809E+01 0.  1.
       -4    1    3    3    0  502 -0.29391389692E+03  0.90240847045E+02 -0.75916963734E+02  0.31669194426E+03  0.12699999809E+01 0. -1.
</event>
<event>
 5   0  0.6167756E-02  0.7017371E+03  0.7818609E-02  0.9714266E-01
        2   -1    0    0  501    0  0.00000000000E+00  0.00000000000E+00  0.12369926839E+04  0.12369926840E+04  0.25500000920E-02 0. -1.
       -2   -1    0    0    0  501  0.00000000000E+00  0.00000000000E+00 -0.99522618010E+02  0.99522618043E+02  0.25500000920E-02 0.  1.
    10030    2    1    2    0    0  0.00000000000E+00  0.00000000000E+00  0.11374700659E+04  0.13365153020E+04  0.70173713138E+03 0.  0.
        4    1    3    3  502    0 -0.49180872911E+02 -0.16523937562E+03 -0.13283048666E+02  0.17291865659E+03  0.12699999809E+01 0.  1.
       -4    1    3    3    0  502  0.49180872911E+02  0.16523937562E+03  0.11507531146E+04  0.11635966454E+04  0.12699999809E+01 0. -1.
</event>
<event>
 5   0  0.3755872E-02  0.7875208E+03  0.7818609E-02  0.9578258E-01
       -1   -1    0    0    0  501  0.00000000000E+00  0.00000000000E+00  0.27434617354E+03  0.27434617359E+03  0.50400001928E-02 0. -1.
        1   -1    0    0  501    0  0.00000000000E+00  0.00000000000E+00 -0.56515185648E+03  0.56515185650E+03  0.50400001928E-02 0.  1.
    10030    2    1    2    0    0  0.00000000000E+00  0.00000000000E+00 -0.29080568294E+03  0.83949803009E+03  0.78752079166E+03 0.  0.
        2    1    3    3  502    0 -0.24147681018E+03  0.22801367810E+03  0.80090944230E+02  0.34163701002E+03  0.25500000920E-02 0. -1.
       -2    1    3    3    0  502  0.24147681018E+03 -0.22801367810E+03 -0.37089662717E+03  0.49786102007E+03  0.25500000920E-02 0.  1.
</event>
<event>
 5   0  0.6131198E-02  0.7129586E+03  0.7818609E-02  0.9695324E-01
        2   -1    0    0  501    0  0.00000000000E+00  0.00000000000E+00  0.80610262407E+03  0.80610262408E+03  0.25500000920E-02 0. -1.
       -2   -1    0    0    0  501  0.00000000000E+00  0.00000000000E+00 -0.15764431714E+03  0.15764431716E+03  0.25500000920E-02 0.  1.
    10030    2    1    2    0    0  0.00000000000E+00  0.00000000000E+00  0.64845830693E+03  0.96374694124E+03  0.71295861795E+03 0.  0.
        1    1    3    3  502    0  0.27488038294E+03 -0.13770099396E+03  0.56813316251E+03  0.64598458111E+03  0.50400001928E-02 0. -1.
       -1    1    3    3    0  502 -0.27488038294E+03  0.13770099396E+03  0.80325144421E+02  0.31776236013E+03  0.50400001928E-02 0.  1.
</event>
<event>
 5   0  0.3439015E-02  0.6524866E+03  0.7818609E-02  0.9802124E-01
       -1   -1    0    0    0  501  0.00000000000E+00  0.00000000000E+00  0.92401783967E+03  0.92401783969E+03  0.50400001928E-02 0. -1.
        1   -1    0    0  501    0  0.00000000000E+00  0.00000000000E+00 -0.11518685215E+03  0.11518685226E+03  0.50400001928E-02 0.  1.
    10030    2    1    2    0    0  0.00000000000E+00  0.00000000000E+00  0.80883098753E+03  0.10392046919E+04  0.65248664766E+03 0.  0.
        1    1    3    3  502    0  0.91536093873E+02  0.23628604712E+03  0.73169064555E+03  0.77432625769E+03  0.50400001928E-02 0.  1.
       -1    1    3    3    0  502 -0.91536093873E+02 -0.23628604712E+03  0.77140341977E+02  0.26487843425E+03  0.50400001928E-02 0. -1.
</event>
<event>
 5   0  0.3601475E-02  0.7469533E+03  0.7818609E-02  0.9640142E-01
       -1   -1    0    0    0  501  0.00000000000E+00  0.00000000000E+00  0.19104348912E+03  0.19104348918E+03  0.50400001928E-02 0.  1.
        1   -1    0    0  501    0  0.00000000000E+00  0.00000000000E+00 -0.73012078792E+03  0.73012078794E+03  0.50400001928E-02 0. -1.
    10030    2    1    2    0    0  0.00000000000E+00  0.00000000000E+00 -0.53907729880E+03  0.92116427712E+03  0.74695333948E+03 0.  0.
        5    1    3    3  502    0 -0.17540241076E+02 -0.29372329115E+03 -0.55313218208E+03  0.62654475712E+03  0.46999998093E+01 0. -1.
       -5    1    3    3    0  502  0.17540241076E+02  0.29372329115E+03  0.14054883274E+02  0.29461952000E+03  0.46999998093E+01 0.  1.
</event>
<event>
 5   0  0.6131198E-02  0.6736844E+03  0.7818609E-02  0.9763325E-01
       -2   -1    0    0    0  501  0.00000000000E+00  0.00000000000E+00  0.21552927176E+03  0.21552927177E+03  0.25500000920E-02 0. -1.
        2   -1    0    0  501    0  0.00000000000E+00  0.00000000000E+00 -0.52643732948E+03  0.52643732949E+03  0.25500000920E-02 0.  1.
    10030    2    1    2    0    0  0.00000000000E+00  0.00000000000E+00 -0.31090805773E+03  0.74196660126E+03  0.67368436009E+03 0.  0.
        1    1    3    3  502    0 -0.18479033120E+03 -0.20160489093E+03  0.61126125668E+02  0.28022919516E+03  0.50400001928E-02 0. -1.
       -1    1    3    3    0  502  0.18479033120E+03  0.20160489093E+03 -0.37203418340E+03  0.46173740610E+03  0.50400001928E-02 0.  1.
</event>
<event>
 5   0  0.3601475E-02  0.6996406E+03  0.7818609E-02  0.9717847E-01
        1   -1    0    0  501    0  0.00000000000E+00  0.00000000000E+00  0.11643197061E+04  0.11643197061E+04  0.50400001928E-02 0.  1.
       -1   -1    0    0    0  501  0.00000000000E+00  0.00000000000E+00 -0.10510363156E+03  0.10510363168E+03  0.50400001928E-02 0. -1.
    10030    2    1    2    0    0  0.00000000000E+00  0.00000000000E+00  0.10592160745E+04  0.12694233378E+04  0.69964056342E+03 0.  0.
        5    1    3    3  502    0  0.13117908722E+03 -0.52333503126E+02  0.11102292622E+04  0.11191862459E+04  0.46999998093E+01 0.  1.
       -5    1    3    3    0  502 -0.13117908722E+03  0.52333503126E+02 -0.51013187615E+02  0.15023709190E+03  0.46999998093E+01 0. -1.
</event>
<event>
 5   0  0.3717372E-02  0.7032948E+03  0.7818609E-02  0.9711614E-01
       -1   -1    0    0    0  501  0.00000000000E+00  0.00000000000E+00  0.11026857007E+03  0.11026857019E+03  0.50400001928E-02 0. -1.
        1   -1    0    0  501    0  0.00000000000E+00  0.00000000000E+00 -0.11214065397E+04  0.11214065398E+04  0.50400001928E-02 0.  1.
    10030    2    1    2    0    0  0.00000000000E+00  0.00000000000E+00 -0.10111379697E+04  0.12316751099E+04  0.70329480500E+03 0.  0.
        3    1    3    3  502    0  0.12782413488E+03 -0.32756547385E+03 -0.51294447860E+03  0.62189243237E+03  0.10100000352E+00 0.  1.
       -3    1    3    3    0  502 -0.12782413488E+03  0.32756547385E+03 -0.49819349108E+03  0.60978267757E+03  0.10100000352E+00 0. -1.
</event>
<event>
 5   0  0.3749730E-02  0.6349181E+03  0.7818609E-02  0.9835498E-01
        1   -1    0    0  501    0  0.00000000000E+00  0.00000000000E+00  0.28261404796E+03  0.28261404801E+03  0.50400001928E-02 0.  1.
       -1   -1    0    0    0  501  0.00000000000E+00  0.00000000000E+00 -0.35660027993E+03  0.35660027996E+03  0.50400001928E-02 0. -1.
    10030    2    1    2    0    0  0.00000000000E+00  0.00000000000E+00 -0.73986231964E+02  0.63921432797E+03  0.63491810068E+03 0.  0.
        4    1    3    3  502    0 -0.54587235062E+02 -0.30144960470E+03  0.46798690547E+02  0.30990863289E+03  0.12699999809E+01 0. -1.
       -4    1    3    3    0  502  0.54587235062E+02  0.30144960470E+03 -0.12078492251E+03  0.32930569508E+03  0.12699999809E+01 0.  1.
</event>
<event>
 5   0  0.5987810E-02  0.7013578E+03  0.7818609E-02  0.9714913E-01
       -2   -1    0    0    0  501  0.00000000000E+00  0.00000000000E+00  0.20703788361E+03  0.20703788362E+03  0.25500000920E-02 0. -1.
        2   -1    0    0  501    0  0.00000000000E+00  0.00000000000E+00 -0.59397673987E+03  0.59397673988E+03  0.25500000920E-02 0.  1.
    10030    2    1    2    0    0  0.00000000000E+00  0.00000000000E+00 -0.38693885626E+03  0.80101462350E+03  0.70135778927E+03 0.  0.
        5    1    3    3  502    0  0.12555649513E+03 -0.30748752274E+03 -0.65063687012E+02  0.33847951706E+03  0.46999998093E+01 0. -1.
       -5    1    3    3    0  502 -0.12555649513E+03  0.30748752274E+03 -0.32187516925E+03  0.46253510643E+03  0.46999998093E+01 0.  1.
</event>
<event>
 5   0  0.6131198E-02  0.7349847E+03  0.7818609E-02  0.9659206E-01
        2   -1    0    0  501    0  0.00000000000E+00  0.00000000000E+00  0.69820292475E+03  0.69820292475E+03  0.25500000920E-02 0. -1.
       -2   -1    0    0    0  501  0.00000000000E+00  0.00000000000E+00 -0.19342601956E+03  0.19342601958E+03  0.25500000920E-02 0.  1.
    10030    2    1    2    0    0  0.00000000000E+00  0.00000000000E+00  0.50477690518E+03  0.89162894433E+03  0.73498465995E+03 0.  0.
        1    1    3    3  502    0 -0.54892937524E+02 -0.32267378968E+03  0.49687476805E+02  0.33105959360E+03  0.50400001928E-02 0. -1.
       -1    1    3    3    0  502  0.54892937524E+02  0.32267378968E+03  0.45508942838E+03  0.56056935074E+03  0.50400001928E-02 0.  1.
</event>
<event>
 5   0  0.3755872E-02  0.7108248E+03  0.7818609E-02  0.9698897E-01
       -1   -1    0    0    0  501  0.00000000000E+00  0.00000000000E+00  0.33677060949E+03  0.33677060953E+03  0.50400001928E-02 0.  1.
        1   -1    0    0  501    0  0.00000000000E+00  0.00000000000E+00 -0.37508609270E+03  0.37508609274E+03  0.50400001928E-02 0. -1.
    10030    2    1    2    0    0  0.00000000000E+00  0.00000000000E+00 -0.38315483212E+02  0.71185670226E+03  0.71082479438E+03 0.  0.
        2    1    3    3  502    0 -0.23197653296E+03  0.15329521380E+03  0.20253534309E+03  0.34399578431E+03  0.25500000920E-02 0.  1.
       -2    1    3    3    0  502  0.23197653296E+03 -0.15329521380E+03 -0.24085082630E+03  0.36786091795E+03  0.25500000920E-02 0. -1.
</event>
<event>
 5   0  0.3601475E-02  0.7805541E+03  0.7818609E-02  0.9588599E-01
        1   -1    0    0  501    0  0.00000000000E+00  0.00000000000E+00  0.72545705280E+03  0.72545705282E+03  0.50400001928E-02 0.  1.
       -1   -1    0    0    0  501  0.00000000000E+00  0.00000000000E+00 -0.20995893469E+03  0.20995893475E+03  0.50400001928E-02 0. -1.
    10030    2    1    2    0    0  0.00000000000E+00  0.00000000000E+00  0.51549811811E+03  0.93541598757E+03  0.78055413651E+03 0.  0.
        5    1    3    3  502    0 -0.21421126960E+03 -0.32091720899E+03  0.18766800106E+03  0.42908704440E+03  0.46999998093E+01 0.  1.
       -5    1    3    3    0  502  0.21421126960E+03  0.32091720899E+03  0.32783011705E+03  0.50632894317E+03  0.46999998093E+01 0. -1.
</event>
<event>
 5   0  0.6248886E-02  0.6573033E+03  0.7818609E-02  0.9793171E-01
       -2   -1    0    0    0  501  0.00000000000E+00  0.00000000000E+00  0.23843484532E+03  0.23843484534E+03  0.25500000920E-02 0.  1.
        2   -1    0    0  501    0  0.00000000000E+00  0.00000000000E+00 -0.45300387114E+03  0.45300387114E+03  0.25500000920E-02 0. -1.
    10030    2    1    2    0    0  0.00000000000E+00  0.00000000000E+00 -0.21456902581E+03  0.69143871648E+03  0.65730330275E+03 0.  0.
        3    1    3    3  502    0 -0.17948993491E+03  0.15282406186E+03 -0.34817491626E+03  0.42047308253E+03  0.10100000352E+00 0. -1.
       -3    1    3    3    0  502  0.17948993491E+03 -0.15282406186E+03  0.13360589044E+03  0.27096563395E+03  0.10100000352E+00 0.  1.
</event>
<event>
 5   0  0.6131198E-02  0.6984980E+03  0.7818609E-02  0.9719804E-01
        2   -1    0    0  501    0  0.00000000000E+00  0.00000000000E+00  0.62354946817E+03  0.62354946818E+03  0.25500000920E-02 0.  1.
       -2   -1    0    0    0  501  0.00000000000E+00  0.00000000000E+00 -0.19561378030E+03  0.19561378032E+03  0.25500000920E-02 0. -1.
    10030    2    1    2    0    0  0.00000000000E+00  0.00000000000E+00  0.42793568787E+03  0.81916324850E+03  0.69849801341E+03 0.  0.
        1    1    3    3  502    0  0.93842532467E+02 -0.87473942765E+02 -0.16698042284E+03  0.21057201428E+03  0.50400001928E-02 0. -1.
       -1    1    3    3    0  502 -0.93842532467E+02  0.87473942765E+02  0.59491611071E+03  0.60859123422E+03  0.50400001928E-02 0.  1.
</event>
<event>
 5   0  0.2439375E-02  0.7062798E+03  0.7818609E-02  0.9706553E-01
       -3   -1    0    0    0  501  0.00000000000E+00  0.00000000000E+00  0.29678562846E+03  0.29678564565E+03  0.10100000352E+00 0. -1.
        3   -1    0    0  501    0  0.00000000000E+00  0.00000000000E+00 -0.42019480564E+03  0.42019481778E+03  0.10100000352E+00 0.  1.
    10030    2    1    2    0    0  0.00000000000E+00  0.00000000000E+00 -0.12340917718E+03  0.71698046343E+03  0.70627980286E+03 0.  0.
        4    1    3    3  502    0  0.40029167444E+02  0.56584927468E+02  0.28981030306E+03  0.29798626298E+03  0.12699999809E+01 0. -1.
       -4    1    3    3    0  502 -0.40029167444E+02 -0.56584927468E+02 -0.41321948024E+03  0.41899420045E+03  0.12699999809E+01 0.  1.
</event>
<event>
 5   0  0.3601475E-02  0.6965957E+03  0.7818609E-02  0.9723072E-01
        1   -1    0    0  501    0  0.00000000000E+00  0.00000000000E+00  0.39696702576E+03  0.39696702579E+03  0.50400001928E-02 0.  1.
       -1   -1    0    0    0  501  0.00000000000E+00  0.00000000000E+00 -0.30559562187E+03  0.30559562192E+03  0.50400001928E-02 0. -1.
    10030    2    1    2    0    0  0.00000000000E+00  0.00000000000E+00  0.91371403881E+02  0.70256264770E+03  0.69659567936E+03 0.  0.
        5    1    3    3  502    0  0.12326075721E+03  0.22278674455E+03  0.28533876018E+03  0.38244927229E+03  0.46999998093E+01 0.  1.
       -5    1    3    3    0  502 -0.12326075721E+03 -0.22278674455E+03 -0.19396735629E+03  0.32011337542E+03  0.46999998093E+01 0. -1.
</event>
<event>
 5   0  0.3755872E-02  0.6972928E+03  0.7818609E-02  0.9721873E-01
        1   -1    0    0  501    0  0.00000000000E+00  0.00000000000E+00  0.23697366083E+04  0.23697366083E+04  0.50400001928E-02 0. -1.
       -1   -1    0    0    0  501  0.00000000000E+00  0.00000000000E+00 -0.51294446718E+02  0.51294446966E+02  0.50400001928E-02 0.  1.
    10030    2    1    2    0    0  0.00000000000E+00  0.00000000000E+00  0.23184421615E+04  0.24210310552E+04  0.69729284664E+03 0.  0.
        2    1    3    3  502    0  0.21950042788E+03 -0.13217926665E+03  0.33830097906E+03  0.42438113625E+03  0.25500000920E-02 0.  1.
       -2    1    3    3    0  502 -0.21950042788E+03  0.13217926665E+03  0.19801411825E+04  0.19966499190E+04  0.25500000920E-02 0. -1.
</event>
<event>
 5   0  0.3601475E-02  0.6978820E+03  0.7818609E-02  0.9720861E-01
       -1   -1    0    0    0  501  0.00000000000E+00  0.00000000000E+00  0.39313861596E+03  0.39313861599E+03  0.50400001928E-02 0. -1.
        1   -1    0    0  501    0  0.00000000000E+00  0.00000000000E+00 -0.30971221278E+03  0.30971221282E+03  0.50400001928E-02 0.  1.
    10030    2    1    2    0    0  0.00000000000E+00  0.00000000000E+00  0.83426403179E+02  0.70285082881E+03  0.69788202642E+03 0.  0.
        5    1    3    3  502    0  0.91444649505E+02 -0.18621328744E+03  0.32424617763E+03  0.38496127864E+03  0.46999998093E+01 0. -1.
       -5    1    3    3    0  502 -0.91444649505E+02  0.18621328744E+03 -0.24081977445E+03  0.31788955017E+03  0.46999998093E+01 0.  1.
</event>
<event>
 5   0  0.3755872E-02  0.6991999E+03  0.7818609E-02  0.9718601E-01
        1   -1    0    0  501    0  0.00000000000E+00  0.00000000000E+00  0.16282954609E+04  0.16282954609E+04  0.50400001928E-02 0.  1.
       -1   -1    0    0    0  501  0.00000000000E+00  0.00000000000E+00 -0.75060169957E+02  0.75060170126E+02  0.50400001928E-02 0. -1.
    10030    2    1    2    0    0  0.00000000000E+00  0.00000000000E+00  0.15532352910E+04  0.17033556311E+04  0.69919992617E+03 0.  0.
        2    1    3    3  502    0 -0.15483467506E+03  0.13160901664E+03  0.83596558404E+02  0.21973414492E+03  0.25500000920E-02 0. -1.
       -2    1    3    3    0  502  0.15483467506E+03 -0.13160901664E+03  0.14696387326E+04  0.14836214861E+04  0.25500000920E-02 0.  1.
</event>
<event>
 5   0  0.3601475E-02  0.6972953E+03  0.7818609E-02  0.9721869E-01
       -1   -1    0    0    0  501  0.00000000000E+00  0.00000000000E+00  0.32355089430E+03  0.32355089434E+03  0.50400001928E-02 0.  1.
        1   -1    0    0  501    0  0.00000000000E+00  0.00000000000E+00 -0.37569109451E+03  0.37569109455E+03  0.50400001928E-02 0. -1.
    10030    2    1    2    0    0  0.00000000000E+00  0.00000000000E+00 -0.52140200208E+02  0.69924198889E+03  0.69729531660E+03 0.  0.
        5    1    3    3  502    0 -0.59948258685E+01 -0.16967917973E+03 -0.33139694861E+03  0.37238822419E+03  0.46999998093E+01 0. -1.
       -5    1    3    3    0  502  0.59948258685E+01  0.16967917973E+03  0.27925674840E+03  0.32685376470E+03  0.46999998093E+01 0.  1.
</event>
<event>
 5   0  0.2439375E-02  0.7264931E+03  0.7818609E-02  0.9672968E-01
       -4   -1    0    0    0  501  0.00000000000E+00  0.00000000000E+00  0.34250733863E+03  0.34250969317E+03  0.12699999809E+01 0. -1.
        4   -1    0    0  501    0  0.00000000000E+00  0.00000000000E+00 -0.38523682849E+03  0.38523892188E+03  0.12699999809E+01 0.  1.
    10030    2    1    2    0    0  0.00000000000E+00  0.00000000000E+00 -0.42729489862E+02  0.72774861505E+03  0.72649310898E+03 0.  0.
        1    1    3    3  502    0  0.16851830501E+03  0.30255575295E+03  0.88413221721E+02  0.35742873495E+03  0.50400001928E-02 0.  1.
       -1    1    3    3    0  502 -0.16851830501E+03 -0.30255575295E+03 -0.13114271158E+03  0.37031988010E+03  0.50400001928E-02 0. -1.
</event>
<event>
 5   0  0.6248886E-02  0.6974340E+03  0.7818609E-02  0.9721631E-01
       -2   -1    0    0    0  501  0.00000000000E+00  0.00000000000E+00  0.86215953801E+02  0.86215953839E+02  0.25500000920E-02 0.  1.
        2   -1    0    0  501    0  0.00000000000E+00  0.00000000000E+00 -0.14104528773E+04  0.14104528773E+04  0.25500000920E-02 0. -1.
    10030    2    1    2    0    0  0.00000000000E+00  0.00000000000E+00 -0.13242369235E+04  0.14966688311E+04  0.69743398293E+03 0.  0.
        3    1    3    3  502    0  0.19277906055E+03 -0.28999139233E+03 -0.62227302391E+03  0.71307958903E+03  0.10100000352E+00 0. -1.
       -3    1    3    3    0  502 -0.19277906055E+03  0.28999139233E+03 -0.70196389958E+03  0.78358924210E+03  0.10100000352E+00 0.  1.
</event>
<event>
 5   0  0.5899787E-02  0.6886201E+03  0.7818609E-02  0.9736894E-01
        2   -1    0    0  501    0  0.00000000000E+00  0.00000000000E+00  0.58622454600E+03  0.58622454601E+03  0.25500000920E-02 0.  1.
       -2   -1    0    0    0  501  0.00000000000E+00  0.00000000000E+00 -0.20222523903E+03  0.20222523905E+03  0.25500000920E-02 0. -1.
    10030    2    1    2    0    0  0.00000000000E+00  0.00000000000E+00  0.38399930697E+03  0.78844978506E+03  0.68862006637E+03 0.  0.
        2    1    3    3  502    0 -0.30796881656E+03  0.76813835474E+02  0.34477599478E+03  0.46863167187E+03  0.25500000920E-02 0.  1.
       -2    1    3    3    0  502  0.30796881656E+03 -0.76813835474E+02  0.39223312186E+02  0.31981811319E+03  0.25500000920E-02 0. -1.
</event>
<event>
 5   0  0.6131198E-02  0.6932128E+03  0.7818609E-02  0.9728910E-01
        2   -1    0    0  501    0  0.00000000000E+00  0.00000000000E+00  0.19107740636E+03  0.19107740638E+03  0.25500000920E-02 0. -1.
       -2   -1    0    0    0  501  0.00000000000E+00  0.00000000000E+00 -0.62872942851E+03  0.62872942851E+03  0.25500000920E-02 0.  1.
    10030    2    1    2    0    0  0.00000000000E+00  0.00000000000E+00 -0.43765202215E+03  0.81980683489E+03  0.69321277689E+03 0.  0.
        1    1    3    3  502    0 -0.63081341821E+02  0.12719659465E+03  0.15510946982E+03  0.21027880784E+03  0.50400001928E-02 0. -1.
       -1    1    3    3    0  502  0.63081341821E+02 -0.12719659465E+03 -0.59276149196E+03  0.60952802705E+03  0.50400001928E-02 0.  1.
</event>
<event>
 5   0  0.3755872E-02  0.7085222E+03  0.7818609E-02  0.9702768E-01
       -1   -1    0    0    0  501  0.00000000000E+00  0.00000000000E+00  0.15016250919E+03  0.15016250928E+03  0.50400001928E-02 0. -1.
        1   -1    0    0  501    0  0.00000000000E+00  0.00000000000E+00 -0.83576740824E+03  0.83576740825E+03  0.50400001928E-02 0.  1.
    10030    2    1    2    0    0  0.00000000000E+00  0.00000000000E+00 -0.68560489904E+03  0.98592991753E+03  0.70852221185E+03 0.  0.
        2    1    3    3  502    0  0.22094514585E+03 -0.26604699035E+03 -0.23588826769E+03  0.41861800414E+03  0.25500000920E-02 0.  1.
       -2    1    3    3    0  502 -0.22094514585E+03  0.26604699035E+03 -0.44971663135E+03  0.56731191339E+03  0.25500000920E-02 0. -1.
</event>
<event>
 5   0  0.6167756E-02  0.6868726E+03  0.7818609E-02  0.9739949E-01
        2   -1    0    0  501    0  0.00000000000E+00  0.00000000000E+00  0.30692268470E+03  0.30692268471E+03  0.25500000920E-02 0. -1.
       -2   -1    0    0    0  501  0.00000000000E+00  0.00000000000E+00 -0.38429377273E+03  0.38429377273E+03  0.25500000920E-02 0.  1.
    10030    2    1    2    0    0  0.00000000000E+00  0.00000000000E+00 -0.77371088026E+02  0.69121645745E+03  0.68687255425E+03 0.  0.
        4    1    3    3  502    0  0.39081359568E+02  0.33791685798E+03 -0.86225260690E+02  0.35092957136E+03  0.12699999809E+01 0. -1.
       -4    1    3    3    0  502 -0.39081359568E+02 -0.33791685798E+03  0.88541726642E+01  0.34028688609E+03  0.12699999809E+01 0.  1.
</event>
<event>
 5   0  0.3749730E-02  0.6978015E+03  0.7818609E-02  0.9720999E-01
       -1   -1    0    0    0  501  0.00000000000E+00  0.00000000000E+00  0.36927892589E+03  0.36927892593E+03  0.50400001928E-02 0. -1.
        1   -1    0    0  501    0  0.00000000000E+00  0.00000000000E+00 -0.32964710957E+03  0.32964710960E+03  0.50400001928E-02 0.  1.
    10030    2    1    2    0    0  0.00000000000E+00  0.00000000000E+00  0.39631816328E+02  0.69892603553E+03  0.69780149203E+03 0.  0.
        4    1    3    3  502    0 -0.31899749780E+03  0.12951143312E+03 -0.36821684871E+02  0.34625144663E+03  0.12699999809E+01 0.  1.
       -4    1    3    3    0  502  0.31899749780E+03 -0.12951143312E+03  0.76453501199E+02  0.35267458891E+03  0.12699999809E+01 0. -1.
</event>
<event>
 5   0  0.3755872E-02  0.6955516E+03  0.7818609E-02  0.9724870E-01
        1   -1    0    0  501    0  0.00000000000E+00  0.00000000000E+00  0.11142286003E+04  0.11142286003E+04  0.50400001928E-02 0. -1.
       -1   -1    0    0    0  501  0.00000000000E+00  0.00000000000E+00 -0.10854865233E+03  0.10854865245E+03  0.50400001928E-02 0.  1.
    10030    2    1    2    0    0  0.00000000000E+00  0.00000000000E+00  0.10056799480E+04  0.12227772528E+04  0.69555161716E+03 0.  0.
        2    1    3    3  502    0  0.12002802796E+03  0.24065605441E+03  0.11517904564E+03  0.29255474117E+03  0.25500000920E-02 0.  1.
       -2    1    3    3    0  502 -0.12002802796E+03 -0.24065605441E+03  0.89050090234E+03  0.93022251161E+03  0.25500000920E-02 0. -1.
</event>
<event>
 5   0  0.6248886E-02  0.6955572E+03  0.7818609E-02  0.9724860E-01
        2   -1    0    0  501    0  0.00000000000E+00  0.00000000000E+00  0.26803593391E+03  0.26803593392E+03  0.25500000920E-02 0.  1.
       -2   -1    0    0    0  501  0.00000000000E+00  0.00000000000E+00 -0.45124528348E+03  0.45124528348E+03  0.25500000920E-02 0. -1.
    10030    2    1    2    0    0  0.00000000000E+00  0.00000000000E+00 -0.18320934957E+03  0.71928121741E+03  0.69555718956E+03 0.  0.
        3    1    3    3  502    0 -0.15848262280E+03  0.26979642191E+02 -0.41051474339E+03  0.44087073793E+03  0.10100000352E+00 0. -1.
       -3    1    3    3    0  502  0.15848262280E+03 -0.26979642191E+02  0.22730539382E+03  0.27841047948E+03  0.10100000352E+00 0.  1.
</event>
<event>
 5   0  0.3717372E-02  0.5863243E+03  0.7818609E-02  0.9934192E-01
        1   -1    0    0  501    0  0.00000000000E+00  0.00000000000E+00  0.26079906396E+03  0.26079906401E+03  0.50400001928E-02 0. -1.
       -1   -1    0    0    0  501  0.00000000000E+00  0.00000000000E+00 -0.32954125361E+03  0.32954125365E+03  0.50400001928E-02 0.  1.
    10030    2    1    2    0    0  0.00000000000E+00  0.00000000000E+00 -0.68742189650E+02  0.59034031765E+03  0.58632431470E+03 0.  0.
        3    1    3    3  502    0  0.35577894526E+02 -0.48579172697E+02  0.25450578407E+03  0.26153188510E+03  0.10100000352E+00 0. -1.
       -3    1    3    3    0  502 -0.35577894526E+02  0.48579172697E+02 -0.32324797372E+03  0.32880843255E+03  0.10100000352E+00 0.  1.
</event>
<event>
 5   0  0.6248886E-02  0.7107184E+03  0.7818609E-02  0.9699076E-01
       -2   -1    0    0    0  501  0.00000000000E+00  0.00000000000E+00  0.54127883560E+02  0.54127883620E+02  0.25500000920E-02 0. -1.
        2   -1    0    0  501    0  0.00000000000E+00  0.00000000000E+00 -0.23329966546E+04  0.23329966546E+04  0.25500000920E-02 0.  1.
    10030    2    1    2    0    0  0.00000000000E+00  0.00000000000E+00 -0.22788687710E+04  0.23871245382E+04  0.71071842902E+03 0.  0.
        3    1    3    3  502    0 -0.31148741365E+03 -0.10194057097E+03 -0.67812432756E+03  0.75317255839E+03  0.10100000352E+00 0. -1.
       -3    1    3    3    0  502  0.31148741365E+03  0.10194057097E+03 -0.16007444434E+04  0.16339519798E+04  0.10100000352E+00 0.  1.
</event>
<event>
 5   0  0.2439375E-02  0.7280305E+03  0.7818609E-02  0.9670462E-01
        3   -1    0    0  501    0  0.00000000000E+00  0.00000000000E+00  0.17423305321E+03  0.17423308248E+03  0.10100000352E+00 0.  1.
       -3   -1    0    0    0  501  0.00000000000E+00  0.00000000000E+00 -0.76051640093E+03  0.76051640764E+03  0.10100000352E+00 0. -1.
    10030    2    1    2    0    0  0.00000000000E+00  0.00000000000E+00 -0.58628334772E+03  0.93474949012E+03  0.72803052509E+03 0.  0.
        4    1    3    3  502    0 -0.15985382761E+03 -0.23194930666E+03  0.28670560393E+01  0.28171538824E+03  0.12699999809E+01 0.  1.
       -4    1    3    3    0  502  0.15985382761E+03  0.23194930666E+03 -0.58915040376E+03  0.65303410188E+03  0.12699999809E+01 0. -1.
</event>
<event>
 5   0  0.3749730E-02  0.6922622E+03  0.7818609E-02  0.9730557E-01
       -1   -1    0    0    0  501  0.00000000000E+00  0.00000000000E+00  0.88583983785E+02  0.88583983928E+02  0.50400001928E-02 0.  1.
        1   -1    0    0  501    0  0.00000000000E+00  0.00000000000E+00 -0.13524648212E+04  0.13524648212E+04  0.50400001928E-02 0. -1.
    10030    2    1    2    0    0  0.00000000000E+00  0.00000000000E+00 -0.12638808374E+04  0.14410488052E+04  0.69226215237E+03 0.  0.
        4    1    3    3  502    0  0.13944771217E+03 -0.25004853893E+03 -0.22703278746E+03  0.36539764057E+03  0.12699999809E+01 0.  1.
       -4    1    3    3    0  502 -0.13944771217E+03  0.25004853893E+03 -0.10368480500E+04  0.10756511646E+04  0.12699999809E+01 0. -1.
</event>
<event>
 5   0  0.3601475E-02  0.6990934E+03  0.7818609E-02  0.9718784E-01
        1   -1    0    0  501    0  0.00000000000E+00  0.00000000000E+00  0.84775183899E+03  0.84775183900E+03  0.50400001928E-02 0. -1.
       -1   -1    0    0    0  501  0.00000000000E+00  0.00000000000E+00 -0.14412578760E+03  0.14412578769E+03  0.50400001928E-02 0.  1.
    10030    2    1    2    0    0  0.00000000000E+00  0.00000000000E+00  0.70362605139E+03  0.99187762669E+03  0.69909341731E+03 0.  0.
        5    1    3    3  502    0  0.33466369998E+03 -0.30765332083E+02  0.21561867498E+03  0.39932418001E+03  0.46999998093E+01 0.  1.
       -5    1    3    3    0  502 -0.33466369998E+03  0.30765332083E+02  0.48800737641E+03  0.59255344668E+03  0.46999998093E+01 0. -1.
</event>
<event>
 5   0  0.5987810E-02  0.6965880E+03  0.7818609E-02  0.9723085E-01
        2   -1    0    0  501    0  0.00000000000E+00  0.00000000000E+00  0.33326067852E+03  0.33326067853E+03  0.25500000920E-02 0. -1.
       -2   -1    0    0    0  501  0.00000000000E+00  0.00000000000E+00 -0.36400548539E+03  0.36400548540E+03  0.25500000920E-02 0.  1.
    10030    2    1    2    0    0  0.00000000000E+00  0.00000000000E+00 -0.30744806872E+02  0.69726616392E+03  0.69658801325E+03 0.  0.
        5    1    3    3  502    0 -0.28590977302E+03 -0.19605269254E+03  0.17910056701E+02  0.34716554652E+03  0.46999998093E+01 0. -1.
       -5    1    3    3    0  502  0.28590977302E+03  0.19605269254E+03 -0.48654863573E+02  0.35010061741E+03  0.46999998093E+01 0.  1.
</event>
<event>
 5   0  0.3439015E-02  0.6678576E+03  0.7818609E-02  0.9773836E-01
        1   -1    0    0  501    0  0.00000000000E+00  0.00000000000E+00  0.14068059824E+04  0.14068059824E+04  0.50400001928E-02 0. -1.
       -1   -1    0    0    0  501  0.00000000000E+00  0.00000000000E+00 -0.79263562130E+02  0.79263562290E+02  0.50400001928E-02 0.  1.
    10030    2    1    2    0    0  0.00000000000E+00  0.00000000000E+00  0.13275424202E+04  0.14860695447E+04  0.66785763008E+03 0.  0.
        1    1    3    3  502    0  0.14962766324E+03  0.29090062642E+03  0.51455739702E+03  0.60973840859E+03  0.50400001928E-02 0.  1.
       -1    1    3    3    0  502 -0.14962766324E+03 -0.29090062642E+03  0.81298502321E+03  0.87633113607E+03  0.50400001928E-02 0. -1.
</event>
<event>
 5   0  0.5987810E-02  0.7042097E+03  0.7818609E-02  0.9710060E-01
       -2   -1    0    0    0  501  0.00000000000E+00  0.00000000000E+00  0.88049257663E+02  0.88049257700E+02  0.25500000920E-02 0.  1.
        2   -1    0    0  501    0  0.00000000000E+00  0.00000000000E+00 -0.14080508281E+04  0.14080508281E+04  0.25500000920E-02 0. -1.
    10030    2    1    2    0    0  0.00000000000E+00  0.00000000000E+00 -0.13200015704E+04  0.14961000858E+04  0.70420971364E+03 0.  0.
        5    1    3    3  502    0  0.15959181462E+03  0.31179093492E+03 -0.73578968212E+03  0.81491820492E+03  0.46999998093E+01 0. -1.
       -5    1    3    3    0  502 -0.15959181462E+03 -0.31179093492E+03 -0.58421188832E+03  0.68118188089E+03  0.46999998093E+01 0.  1.
</event>
<event>
 5   0  0.3755872E-02  0.6966250E+03  0.7818609E-02  0.9723021E-01
       -1   -1    0    0    0  501  0.00000000000E+00  0.00000000000E+00  0.14788881905E+03  0.14788881914E+03  0.50400001928E-02 0. -1.
        1   -1    0    0  501    0  0.00000000000E+00  0.00000000000E+00 -0.82035691224E+03  0.82035691226E+03  0.50400001928E-02 0.  1.
    10030    2    1    2    0    0  0.00000000000E+00  0.00000000000E+00 -0.67246809319E+03  0.96824573139E+03  0.69662504980E+03 0.  0.
        2    1    3    3  502    0 -0.17770177967E+01  0.87914127003E+02 -0.80467593084E+03  0.80946612357E+03  0.25500000920E-02 0.  1.
       -2    1    3    3    0  502  0.17770177967E+01 -0.87914127003E+02  0.13220783765E+03  0.15877960783E+03  0.25500000920E-02 0. -1.
</event>
<event>
 5   0  0.3439015E-02  0.5961067E+03  0.7818609E-02  0.9913517E-01
       -1   -1    0    0    0  501  0.00000000000E+00  0.00000000000E+00  0.32269650938E+03  0.32269650942E+03  0.50400001928E-02 0.  1.
        1   -1    0    0  501    0  0.00000000000E+00  0.00000000000E+00 -0.27529207646E+03  0.27529207650E+03  0.50400001928E-02 0. -1.
    10030    2    1    2    0    0  0.00000000000E+00  0.00000000000E+00  0.47404432926E+02  0.59798858593E+03  0.59610667555E+03 0.  0.
        1    1    3    3  502    0 -0.82810868187E+02 -0.93430227893E+02 -0.24779763444E+03  0.27747164726E+03  0.50400001928E-02 0. -1.
       -1    1    3    3    0  502  0.82810868187E+02  0.93430227893E+02  0.29520206736E+03  0.32051693867E+03  0.50400001928E-02 0.  1.
</event>
<event>
 5   0  0.2439375E-02  0.6682042E+03  0.7818609E-02  0.9773207E-01
       -3   -1    0    0    0  501  0.00000000000E+00  0.00000000000E+00  0.69176201384E+02  0.69176275116E+02  0.10100000352E+00 0. -1.
        3   -1    0    0  501    0  0.00000000000E+00  0.00000000000E+00 -0.16136207503E+04  0.16136207535E+04  0.10100000352E+00 0.  1.
    10030    2    1    2    0    0  0.00000000000E+00  0.00000000000E+00 -0.15444445489E+04  0.16827970286E+04  0.66820421632E+03 0.  0.
        4    1    3    3  502    0  0.24028430346E+03 -0.19425647796E+03 -0.10922703667E+04  0.11351336012E+04  0.12699999809E+01 0.  1.
       -4    1    3    3    0  502 -0.24028430346E+03  0.19425647796E+03 -0.45217418225E+03  0.54766342741E+03  0.12699999809E+01 0. -1.
</event>
<event>
 5   0  0.3717372E-02  0.6606150E+03  0.7818609E-02  0.9787062E-01
        1   -1    0    0  501    0  0.00000000000E+00  0.00000000000E+00  0.52225281904E+03  0.52225281906E+03  0.50400001928E-02 0.  1.
       -1   -1    0    0    0  501  0.00000000000E+00  0.00000000000E+00 -0.20890849076E+03  0.20890849082E+03  0.50400001928E-02 0. -1.
    10030    2    1    2    0    0  0.00000000000E+00  0.00000000000E+00  0.31334432828E+03  0.73116130988E+03  0.66061501118E+03 0.  0.
        3    1    3    3  502    0  0.17119950759E+03 -0.22946063567E+03 -0.25668005179E+02  0.28743749131E+03  0.10100000352E+00 0. -1.
       -3    1    3    3    0  502 -0.17119950759E+03  0.22946063567E+03  0.33901233346E+03  0.44372381857E+03  0.10100000352E+00 0.  1.
</event>
<event>
 5   0  0.5899787E-02  0.6390822E+03  0.7818609E-02  0.9827484E-01
        2   -1    0    0  501    0  0.00000000000E+00  0.00000000000E+00  0.98300726178E+03  0.98300726179E+03  0.25500000920E-02 0.  1.
       -2   -1    0    0    0  501  0.00000000000E+00  0.00000000000E+00 -0.10387158953E+03  0.10387158957E+03  0.25500000920E-02 0. -1.
    10030    2    1    2    0    0  0.00000000000E+00  0.00000000000E+00  0.87913567225E+03  0.10868788514E+04  0.63908223829E+03 0.  0.
        2    1    3    3  502    0 -0.21359738936E+03  0.95443693334E+02  0.69406822409E+02  0.24403001935E+03  0.25500000920E-02 0. -1.
       -2    1    3    3    0  502  0.21359738936E+03 -0.95443693334E+02  0.80972884984E+03  0.84284883200E+03  0.25500000920E-02 0.  1.
</event>
<event>
 5   0  0.6131198E-02  0.7012639E+03  0.7818609E-02  0.9715073E-01
       -2   -1    0    0    0  501  0.00000000000E+00  0.00000000000E+00  0.77488911950E+02  0.77488911992E+02  0.25500000920E-02 0. -1.
        2   -1    0    0  501    0  0.00000000000E+00  0.00000000000E+00 -0.15865854657E+04  0.15865854657E+04  0.25500000920E-02 0.  1.
    10030    2    1    2    0    0  0.00000000000E+00  0.00000000000E+00 -0.15090965538E+04  0.16640743777E+04  0.70126394886E+03 0.  0.
        1    1    3    3  502    0 -0.33908084195E+03  0.41914491781E+02 -0.94154840227E+03  0.10016217030E+04  0.50400001928E-02 0.  1.
       -1    1    3    3    0  502  0.33908084195E+03 -0.41914491781E+02 -0.56754815151E+03  0.66245267477E+03  0.50400001928E-02 0. -1.
</event>
<event>
 5   0  0.3749730E-02  0.6904691E+03  0.7818609E-02  0.9733672E-01
        1   -1    0    0  501    0  0.00000000000E+00  0.00000000000E+00  0.25112813387E+03  0.25112813392E+03  0.50400001928E-02 0. -1.
       -1   -1    0    0    0  501  0.00000000000E+00  0.00000000000E+00 -0.47460586258E+03  0.47460586261E+03  0.50400001928E-02 0.  1.
    10030    2    1    2    0    0  0.00000000000E+00  0.00000000000E+00 -0.22347772871E+03  0.72573399653E+03  0.69046907135E+03 0.  0.
        4    1    3    3  502    0  0.11256797285E+02  0.15706267708E+03 -0.43465960209E+03  0.46230507525E+03  0.12699999809E+01 0.  1.
       -4    1    3    3    0  502 -0.11256797285E+02 -0.15706267708E+03  0.21118187338E+03  0.26342892127E+03  0.12699999809E+01 0. -1.
</event>
<event>
 5   0  0.3717372E-02  0.6997810E+03  0.7818609E-02  0.9717607E-01
        1   -1    0    0  501    0  0.00000000000E+00  0.00000000000E+00  0.67966418748E+03  0.67966418750E+03  0.50400001928E-02 0.  1.
       -1   -1    0    0    0  501  0.00000000000E+00  0.00000000000E+00 -0.18012330647E+03  0.18012330654E+03  0.50400001928E-02 0. -1.
    10030    2    1    2    0    0  0.00000000000E+00  0.00000000000E+00  0.49954088101E+03  0.85978749404E+03  0.69978099653E+03 0.  0.
        3    1    3    3  502    0 -0.31273008473E+03 -0.43842232385E+02  0.64650815362E+02  0.32233830887E+03  0.10100000352E+00 0. -1.
       -3    1    3    3    0  502  0.31273008473E+03  0.43842232385E+02  0.43489006565E+03  0.53744918517E+03  0.10100000352E+00 0.  1.
</event>
<event>
 5   0  0.3439015E-02  0.7011538E+03  0.7818609E-02  0.9715261E-01
       -1   -1    0    0    0  501  0.00000000000E+00  0.00000000000E+00  0.31862106114E+03  0.31862106118E+03  0.50400001928E-02 0. -1.
        1   -1    0    0  501    0  0.00000000000E+00  0.00000000000E+00 -0.38573774027E+03  0.38573774031E+03  0.50400001928E-02 0.  1.
    10030    2    1    2    0    0  0.00000000000E+00  0.00000000000E+00 -0.67116679137E+02  0.70435880148E+03  0.70115381523E+03 0.  0.
        1    1    3    3  502    0  0.12460979646E+02  0.15667293349E+03  0.28124684845E+03  0.32218236124E+03  0.50400001928E-02 0. -1.
       -1    1    3    3    0  502 -0.12460979646E+02 -0.15667293349E+03 -0.34836352759E+03  0.38217644025E+03  0.50400001928E-02 0.  1.
</event>
<event>
 5   0  0.3755872E-02  0.7372278E+03  0.7818609E-02  0.9655604E-01
       -1   -1    0    0    0  501  0.00000000000E+00  0.00000000000E+00  0.26451528033E+03  0.26451528038E+03  0.50400001928E-02 0.  1.
        1   -1    0    0  501    0  0.00000000000E+00  0.00000000000E+00 -0.51368003993E+03  0.51368003996E+03  0.50400001928E-02 0. -1.
    10030    2    1    2    0    0  0.00000000000E+00  0.00000000000E+00 -0.24916475960E+03  0.77819532034E+03  0.73722783396E+03 0.  0.
        2    1    3    3  502    0  0.34271036636E+03 -0.18004772326E+01 -0.26785465264E+03  0.43497097820E+03  0.25500000920E-02 0. -1.
       -2    1    3    3    0  502 -0.34271036636E+03  0.18004772326E+01  0.18689893041E+02  0.34322434214E+03  0.25500000920E-02 0.  1.
</event>
<event>
 5   0  0.6131198E-02  0.6939528E+03  0.7818609E-02  0.9727630E-01
        2   -1    0    0  501    0  0.00000000000E+00  0.00000000000E+00  0.37220153369E+03  0.37220153370E+03  0.25500000920E-02 0. -1.
       -2   -1    0    0    0  501  0.00000000000E+00  0.00000000000E+00 -0.32346088683E+03  0.32346088684E+03  0.25500000920E-02 0.  1.
    10030    2    1    2    0    0  0.00000000000E+00  0.00000000000E+00  0.48740646859E+02  0.69566242054E+03  0.69395284617E+03 0.  0.
        1    1    3    3  502    0 -0.34668589363E+03  0.86178722601E+01  0.35679142395E+02  0.34862354738E+03  0.50400001928E-02 0.  1.
       -1    1    3    3    0  502  0.34668589363E+03 -0.86178722601E+01  0.13061504464E+02  0.34703887316E+03  0.50400001928E-02 0. -1.
</event>
<event>
 5   0  0.6248886E-02  0.7428047E+03  0.7818609E-02  0.9646707E-01
       -2   -1    0    0    0  501  0.00000000000E+00  0.00000000000E+00  0.66939172809E+03  0.66939172809E+03  0.25500000920E-02 0.  1.
        2   -1    0    0  501    0  0.00000000000E+00  0.00000000000E+00 -0.20606721448E+03  0.20606721450E+03  0.25500000920E-02 0. -1.
    10030    2    1    2    0    0  0.00000000000E+00  0.00000000000E+00  0.46332451361E+03  0.87545894259E+03  0.74280465484E+03 0.  0.
        3    1    3    3  502    0  0.14108328773E+03  0.39571138434E+02 -0.17056075822E+03  0.22485851444E+03  0.10100000352E+00 0. -1.
       -3    1    3    3    0  502 -0.14108328773E+03 -0.39571138434E+02  0.63388527182E+03  0.65060042815E+03  0.10100000352E+00 0.  1.
</event>
<event>
 5   0  0.3717372E-02  0.6974346E+03  0.7818609E-02  0.9721630E-01
        1   -1    0    0  501    0  0.00000000000E+00  0.00000000000E+00  0.28094861703E+03  0.28094861707E+03  0.50400001928E-02 0. -1.
       -1   -1    0    0    0  501  0.00000000000E+00  0.00000000000E+00 -0.43283267264E+03  0.43283267267E+03  0.50400001928E-02 0.  1.
    10030    2    1    2    0    0  0.00000000000E+00  0.00000000000E+00 -0.15188405562E+03  0.71378128975E+03  0.69743455839E+03 0.  0.
        3    1    3    3  502    0  0.54497559632E+02  0.25867519460E+03 -0.30869470898E+03  0.40641761018E+03  0.10100000352E+00 0.  1.
       -3    1    3    3    0  502 -0.54497559632E+02 -0.25867519460E+03  0.15681065337E+03  0.30736367957E+03  0.10100000352E+00 0. -1.
</event>
<event>
 5   0  0.6167756E-02  0.6877751E+03  0.7818609E-02  0.9738370E-01
       -2   -1    0    0    0  501  0.00000000000E+00  0.00000000000E+00  0.10256627422E+03  0.10256627426E+03  0.25500000920E-02 0.  1.
        2   -1    0    0  501    0  0.00000000000E+00  0.00000000000E+00 -0.11529973264E+04  0.11529973264E+04  0.25500000920E-02 0. -1.
    10030    2    1    2    0    0  0.00000000000E+00  0.00000000000E+00 -0.10504310522E+04  0.12555636006E+04  0.68777507946E+03 0.  0.
        4    1    3    3  502    0  0.30418811341E+03  0.68561606206E+02 -0.26050583849E+03  0.40632007946E+03  0.12699999809E+01 0.  1.
       -4    1    3    3    0  502 -0.30418811341E+03 -0.68561606206E+02 -0.78992521368E+03  0.84924352119E+03  0.12699999809E+01 0. -1.
</event>
<event>
 5   0  0.3717372E-02  0.7018515E+03  0.7818609E-02  0.9714071E-01
        1   -1    0    0  501    0  0.00000000000E+00  0.00000000000E+00  0.59647572003E+03  0.59647572005E+03  0.50400001928E-02 0. -1.
       -1   -1    0    0    0  501  0.00000000000E+00  0.00000000000E+00 -0.20646082588E+03  0.20646082594E+03  0.50400001928E-02 0.  1.
    10030    2    1    2    0    0  0.00000000000E+00  0.00000000000E+00  0.39001489415E+03  0.80293654599E+03  0.70185146522E+03 0.  0.
        3    1    3    3  502    0  0.28104305358E+03 -0.20951317638E+03  0.21373214073E+03  0.41056352398E+03  0.10100000352E+00 0.  1.
       -3    1    3    3    0  502 -0.28104305358E+03  0.20951317638E+03  0.17628275342E+03  0.39237302201E+03  0.10100000352E+00 0. -1.
</event>
<event>
 5   0  0.3717372E-02  0.6693066E+03  0.7818609E-02  0.9771211E-01
       -1   -1    0    0    0  501  0.00000000000E+00  0.00000000000E+00  0.10097252317E+04  0.10097252317E+04  0.50400001928E-02 0.  1.
        1   -1    0    0  501    0  0.00000000000E+00  0.00000000000E+00 -0.11091415295E+03  0.11091415306E+03  0.50400001928E-02 0. -1.
    10030    2    1    2    0    0  0.00000000000E+00  0.00000000000E+00  0.89881107871E+03  0.11206393847E+04  0.66930656310E+03 0.  0.
        3    1    3    3  502    0  0.14094643091E+03  0.25686663781E+03  0.72014222165E+03  0.77746459444E+03  0.10100000352E+00 0.  1.
       -3    1    3    3    0  502 -0.14094643091E+03 -0.25686663781E+03  0.17866885706E+03  0.34317479030E+03  0.10100000352E+00 0. -1.
</event>
<event>
 5   0  0.6248886E-02  0.6981378E+03  0.7818609E-02  0.9720422E-01
        2   -1    0    0  501    0  0.00000000000E+00  0.00000000000E+00  0.23861496823E+04  0.23861496823E+04  0.25500000920E-02 0. -1.
       -2   -1    0    0    0  501  0.00000000000E+00  0.00000000000E+00 -0.51065151824E+02  0.51065151888E+02  0.25500000920E-02 0.  1.
    10030    2    1    2    0    0  0.00000000000E+00  0.00000000000E+00  0.23350845305E+04  0.24372148342E+04  0.69813779695E+03 0.  0.
        3    1    3    3  502    0 -0.18482554500E+03  0.20145091136E+03  0.19252319814E+04  0.19445465138E+04  0.10100000352E+00 0. -1.
       -3    1    3    3    0  502  0.18482554500E+03 -0.20145091136E+03  0.40985254909E+03  0.49266832044E+03  0.10100000352E+00 0.  1.
</event>
<event>
 5   0  0.3749730E-02  0.7019228E+03  0.7818609E-02  0.9713950E-01
       -1   -1    0    0    0  501  0.00000000000E+00  0.00000000000E+00  0.22815860252E+03  0.22815860258E+03  0.50400001928E-02 0.  1.
        1   -1    0    0  501    0  0.00000000000E+00  0.00000000000E+00 -0.53986090353E+03  0.53986090356E+03  0.50400001928E-02 0. -1.
    10030    2    1    2    0    0  0.00000000000E+00  0.00000000000E+00 -0.31170230101E+03  0.76801950614E+03  0.70192281438E+03 0.  0.
        4    1    3    3  502    0 -0.12936067825E+03 -0.22154013720E+03  0.10619645207E+03  0.27765719295E+03  0.12699999809E+01 0.  1.
       -4    1    3    3    0  502  0.12936067825E+03  0.22154013720E+03 -0.41789875308E+03  0.49036231318E+03  0.12699999809E+01 0. -1.
</event>
<event>
 5   0  0.3717372E-02  0.7052604E+03  0.7818609E-02  0.9708278E-01
       -1   -1    0    0    0  501  0.00000000000E+00  0.00000000000E+00  0.10645316053E+03  0.10645316065E+03  0.50400001928E-02 0.  1.
        1   -1    0    0  501    0  0.00000000000E+00  0.00000000000E+00 -0.11681012238E+04  0.11681012238E+04  0.50400001928E-02 0. -1.
    10030    2    1    2    0    0  0.00000000000E+00  0.00000000000E+00 -0.10616480632E+04  0.12745543844E+04  0.70526042614E+03 0.  0.
        3    1    3    3  502    0  0.14243979546E+03 -0.11350288188E+03  0.14870071198E+02  0.18273786894E+03  0.10100000352E+00 0.  1.
       -3    1    3    3    0  502 -0.14243979546E+03  0.11350288188E+03 -0.10765181344E+04  0.10918165155E+04  0.10100000352E+00 0. -1.
</event>
<event>
 5   0  0.5899787E-02  0.6958430E+03  0.7818609E-02  0.9724368E-01
        2   -1    0    0  501    0  0.00000000000E+00  0.00000000000E+00  0.12645268555E+04  0.12645268556E+04  0.25500000920E-02 0.  1.
       -2   -1    0    0    0  501  0.00000000000E+00  0.00000000000E+00 -0.95727003198E+02  0.95727003232E+02  0.25500000920E-02 0. -1.
    10030    2    1    2    0    0  0.00000000000E+00  0.00000000000E+00  0.11687998524E+04  0.13602538588E+04  0.69584298910E+03 0.  0.
        2    1    3    3  502    0  0.27075068960E+03  0.98159458674E+02  0.96600808382E+03  0.10080242226E+04  0.25500000920E-02 0.  1.
       -2    1    3    3    0  502 -0.27075068960E+03 -0.98159458674E+02  0.20279176853E+03  0.35222963623E+03  0.25500000920E-02 0. -1.
</event>
<event>
 5   0  0.3749730E-02  0.7014072E+03  0.7818609E-02  0.9714829E-01
        1   -1    0    0  501    0  0.00000000000E+00  0.00000000000E+00  0.60408758133E+03  0.60408758135E+03  0.50400001928E-02 0.  1.
       -1   -1    0    0    0  501  0.00000000000E+00  0.00000000000E+00 -0.20360127381E+03  0.20360127388E+03  0.50400001928E-02 0. -1.
    10030    2    1    2    0    0  0.00000000000E+00  0.00000000000E+00  0.40048630751E+03  0.80768885522E+03  0.70140716018E+03 0.  0.
        4    1    3    3  502    0 -0.16751647977E+03 -0.40348644114E+02  0.55198047410E+03  0.57825067295E+03  0.12699999809E+01 0.  1.
       -4    1    3    3    0  502  0.16751647977E+03  0.40348644114E+02 -0.15149416659E+03  0.22943818228E+03  0.12699999809E+01 0. -1.
</event>
<event>
 5   0  0.6131198E-02  0.5829708E+03  0.7818609E-02  0.9941380E-01
       -2   -1    0    0    0  501  0.00000000000E+00  0.00000000000E+00  0.23218173129E+03  0.23218173130E+03  0.25500000920E-02 0.  1.
        2   -1    0    0  501    0  0.00000000000E+00  0.00000000000E+00 -0.36593637486E+03  0.36593637487E+03  0.25500000920E-02 0. -1.
    10030    2    1    2    0    0  0.00000000000E+00  0.00000000000E+00 -0.13375464357E+03  0.59811810618E+03  0.58297080910E+03 0.  0.
        1    1    3    3  502    0  0.73718293279E+02 -0.20900996346E+03 -0.26112217596E+03  0.34249721516E+03  0.50400001928E-02 0. -1.
       -1    1    3    3    0  502 -0.73718293279E+02  0.20900996346E+03  0.12736753239E+03  0.25562089101E+03  0.50400001928E-02 0.  1.
</event>
<event>
 5   0  0.2439375E-02  0.7031293E+03  0.7818609E-02  0.9711896E-01
        4   -1    0    0  501    0  0.00000000000E+00  0.00000000000E+00  0.33604333153E+03  0.33604573137E+03  0.12699999809E+01 0. -1.
       -4   -1    0    0    0  501  0.00000000000E+00  0.00000000000E+00 -0.36779801267E+03  0.36780020531E+03  0.12699999809E+01 0.  1.
    10030    2    1    2    0    0  0.00000000000E+00  0.00000000000E+00 -0.31754681138E+02  0.70384593667E+03  0.70312925042E+03 0.  0.
        1    1    3    3  502    0  0.22591121254E+03  0.14653700272E+03 -0.24213585896E+03  0.36213083732E+03  0.50400001928E-02 0.  1.
       -1    1    3    3    0  502 -0.22591121254E+03 -0.14653700272E+03  0.21038117782E+03  0.34171509935E+03  0.50400001928E-02 0. -1.
</event>
<event>
 5   0  0.3749730E-02  0.6995062E+03  0.7818609E-02  0.9718077E-01
        1   -1    0    0  501    0  0.00000000000E+00  0.00000000000E+00  0.54001106162E+03  0.54001106164E+03  0.50400001928E-02 0. -1.
       -1   -1    0    0    0  501  0.00000000000E+00  0.00000000000E+00 -0.22652727551E+03  0.22652727557E+03  0.50400001928E-02 0.  1.
    10030    2    1    2    0    0  0.00000000000E+00  0.00000000000E+00  0.31348378610E+03  0.76653833721E+03  0.69950621031E+03 0.  0.
        4    1    3    3  502    0  0.27562951275E+03 -0.18054803818E+03  0.28214797933E+02  0.33070668290E+03  0.12699999809E+01 0.  1.
       -4    1    3    3    0  502 -0.27562951275E+03  0.18054803818E+03  0.28526898817E+03  0.43583165431E+03  0.12699999809E+01 0. -1.
</event>
<event>
 5   0  0.6248886E-02  0.6981458E+03  0.7818609E-02  0.9720408E-01
        2   -1    0    0  501    0  0.00000000000E+00  0.00000000000E+00  0.57630410093E+03  0.57630410094E+03  0.25500000920E-02 0. -1.
       -2   -1    0    0    0  501  0.00000000000E+00  0.00000000000E+00 -0.21143681830E+03  0.21143681832E+03  0.25500000920E-02 0.  1.
    10030    2    1    2    0    0  0.00000000000E+00  0.00000000000E+00  0.36486728263E+03  0.78774091926E+03  0.69814584575E+03 0.  0.
        3    1    3    3  502    0  0.18559621710E+03  0.28287460745E+03  0.85450190624E+02  0.34894948720E+03  0.10100000352E+00 0.  1.
       -3    1    3    3    0  502 -0.18559621710E+03 -0.28287460745E+03  0.27941709201E+03  0.43879143206E+03  0.10100000352E+00 0. -1.
</event>
<event>
 5   0  0.3717372E-02  0.7073051E+03  0.7818609E-02  0.9704820E-01
        1   -1    0    0  501    0  0.00000000000E+00  0.00000000000E+00  0.16161216690E+03  0.16161216698E+03  0.50400001928E-02 0. -1.
       -1   -1    0    0    0  501  0.00000000000E+00  0.00000000000E+00 -0.77389047507E+03  0.77389047509E+03  0.50400001928E-02 0.  1.
    10030    2    1    2    0    0  0.00000000000E+00  0.00000000000E+00 -0.61227830817E+03  0.93550264207E+03  0.70730507326E+03 0.  0.
        3    1    3    3  502    0  0.28500200135E+02 -0.32017806649E+03 -0.11110688440E+03  0.34010440402E+03  0.10100000352E+00 0. -1.
       -3    1    3    3    0  502 -0.28500200135E+02  0.32017806649E+03 -0.50117142377E+03  0.59539823805E+03  0.10100000352E+00 0.  1.
</event>
<event>
 5   0  0.5899787E-02  0.7020682E+03  0.7818609E-02  0.9713702E-01
       -2   -1    0    0    0  501  0.00000000000E+00  0.00000000000E+00  0.15856320312E+03  0.15856320314E+03  0.25500000920E-02 0. -1.
        2   -1    0    0  501    0  0.00000000000E+00  0.00000000000E+00 -0.77713451553E+03  0.77713451553E+03  0.25500000920E-02 0.  1.
    10030    2    1    2    0    0  0.00000000000E+00  0.00000000000E+00 -0.61857131241E+03  0.93569771867E+03  0.70206819625E+03 0.  0.
        2    1    3    3  502    0 -0.69537944507E+02  0.11238688309E+03  0.12413950458E+03  0.18132003150E+03  0.25500000920E-02 0. -1.
       -2    1    3    3    0  502  0.69537944507E+02 -0.11238688309E+03 -0.74271081699E+03  0.75437768717E+03  0.25500000920E-02 0.  1.
</event>
<event>
 5   0  0.6248886E-02  0.6995440E+03  0.7818609E-02  0.9718012E-01
        2   -1    0    0  501    0  0.00000000000E+00  0.00000000000E+00  0.59051373236E+03  0.59051373237E+03  0.25500000920E-02 0.  1.
       -2   -1    0    0    0  501  0.00000000000E+00  0.00000000000E+00 -0.20717633218E+03  0.20717633219E+03  0.25500000920E-02 0. -1.
    10030    2    1    2    0    0  0.00000000000E+00  0.00000000000E+00  0.38333740019E+03  0.79769006456E+03  0.69954404916E+03 0.  0.
        3    1    3    3  502    0  0.74069121084E+02 -0.21362352372E+03 -0.11264233810E+03  0.25260552472E+03  0.10100000352E+00 0. -1.
       -3    1    3    3    0  502 -0.74069121084E+02  0.21362352372E+03  0.49597973829E+03  0.54508453984E+03  0.10100000352E+00 0.  1.
</event>
<event>
 5   0  0.5899787E-02  0.7069508E+03  0.7818609E-02  0.9705419E-01
       -2   -1    0    0    0  501  0.00000000000E+00  0.00000000000E+00  0.16737472271E+03  0.16737472273E+03  0.25500000920E-02 0. -1.
        2   -1    0    0  501    0  0.00000000000E+00  0.00000000000E+00 -0.74649783202E+03  0.74649783202E+03  0.25500000920E-02 0.  1.
    10030    2    1    2    0    0  0.00000000000E+00  0.00000000000E+00 -0.57912310931E+03  0.91387255475E+03  0.70695082615E+03 0.  0.
        2    1    3    3  502    0  0.82030745525E+02  0.92040594172E+01 -0.73386386382E+03  0.73849165774E+03  0.25500000920E-02 0.  1.
       -2    1    3    3    0  502 -0.82030745525E+02 -0.92040594172E+01  0.15474075452E+03  0.17538089701E+03  0.25500000920E-02 0. -1.
</event>
<event>
 5   0  0.5899787E-02  0.7083433E+03  0.7818609E-02  0.9703069E-01
       -2   -1    0    0    0  501  0.00000000000E+00  0.00000000000E+00  0.97859851659E+02  0.97859851693E+02  0.25500000920E-02 0. -1.
        2   -1    0    0  501    0  0.00000000000E+00  0.00000000000E+00 -0.12818082039E+04  0.12818082039E+04  0.25500000920E-02 0.  1.
    10030    2    1    2    0    0  0.00000000000E+00  0.00000000000E+00 -0.11839483522E+04  0.13796680556E+04  0.70834330861E+03 0.  0.
        2    1    3    3  502    0 -0.19088913038E+03 -0.20983044428E+03 -0.10050147055E+04  0.10442806298E+04  0.25500000920E-02 0.  1.
       -2    1    3    3    0  502  0.19088913038E+03  0.20983044428E+03 -0.17893364670E+03  0.33538742578E+03  0.25500000920E-02 0. -1.
</event>
<event>
 5   0  0.3601475E-02  0.6856682E+03  0.7818609E-02  0.9742060E-01
        1   -1    0    0  501    0  0.00000000000E+00  0.00000000000E+00  0.29971828389E+03  0.29971828393E+03  0.50400001928E-02 0. -1.
       -1   -1    0    0    0  501  0.00000000000E+00  0.00000000000E+00 -0.39215227649E+03  0.39215227652E+03  0.50400001928E-02 0.  1.
    10030    2    1    2    0    0  0.00000000000E+00  0.00000000000E+00 -0.92433992595E+02  0.69187056045E+03  0.68566816277E+03 0.  0.
        5    1    3    3  502    0  0.23773539807E+02 -0.57251429787E+02  0.29398291651E+03  0.30048452973E+03  0.46999998093E+01 0. -1.
       -5    1    3    3    0  502 -0.23773539807E+02  0.57251429787E+02 -0.38641690910E+03  0.39138603073E+03  0.46999998093E+01 0.  1.
</event>
<event>
 5   0  0.3749730E-02  0.6965943E+03  0.7818609E-02  0.9723074E-01
        1   -1    0    0  501    0  0.00000000000E+00  0.00000000000E+00  0.11456035602E+03  0.11456035613E+03  0.50400001928E-02 0. -1.
       -1   -1    0    0    0  501  0.00000000000E+00  0.00000000000E+00 -0.10589257592E+04  0.10589257592E+04  0.50400001928E-02 0.  1.
    10030    2    1    2    0    0  0.00000000000E+00  0.00000000000E+00 -0.94436540316E+03  0.11734861153E+04  0.69659432109E+03 0.  0.
        4    1    3    3  502    0  0.93517451150E+02 -0.28613620180E+03 -0.17706485324E+03  0.34924635260E+03  0.12699999809E+01 0. -1.
       -4    1    3    3    0  502 -0.93517451150E+02  0.28613620180E+03 -0.76730054992E+03  0.82423976273E+03  0.12699999809E+01 0.  1.
</event>
<event>
 5   0  0.5899787E-02  0.7108821E+03  0.7818609E-02  0.9698801E-01
       -2   -1    0    0    0  501  0.00000000000E+00  0.00000000000E+00  0.10901619460E+03  0.10901619463E+03  0.25500000920E-02 0. -1.
        2   -1    0    0  501    0  0.00000000000E+00  0.00000000000E+00 -0.11588952469E+04  0.11588952469E+04  0.25500000920E-02 0.  1.
    10030    2    1    2    0    0  0.00000000000E+00  0.00000000000E+00 -0.10498790523E+04  0.12679114415E+04  0.71088212741E+03 0.  0.
        2    1    3    3  502    0  0.35706582813E+02 -0.10420436778E+03  0.77805422044E+02  0.13485990518E+03  0.25500000920E-02 0. -1.
       -2    1    3    3    0  502 -0.35706582813E+02  0.10420436778E+03 -0.11276844743E+04  0.11330515363E+04  0.25500000920E-02 0.  1.
</event>
<event>
 5   0  0.5899787E-02  0.6596019E+03  0.7818609E-02  0.9788927E-01
        2   -1    0    0  501    0  0.00000000000E+00  0.00000000000E+00  0.38494851709E+03  0.38494851710E+03  0.25500000920E-02 0.  1.
       -2   -1    0    0    0  501  0.00000000000E+00  0.00000000000E+00 -0.28255376314E+03  0.28255376315E+03  0.25500000920E-02 0. -1.
    10030    2    1    2    0    0  0.00000000000E+00  0.00000000000E+00  0.10239475395E+03  0.66750228025E+03  0.65960185605E+03 0.  0.
        2    1    3    3  502    0 -0.16016638665E+03  0.18506079715E+03 -0.17251120408E+03  0.29943427591E+03  0.25500000920E-02 0. -1.
       -2    1    3    3    0  502  0.16016638665E+03 -0.18506079715E+03  0.27490595803E+03  0.36806800434E+03  0.25500000920E-02 0.  1.
</event>
<event>
 5   0  0.3601475E-02  0.7049665E+03  0.7818609E-02  0.9708776E-01
       -1   -1    0    0    0  501  0.00000000000E+00  0.00000000000E+00  0.98100608574E+02  0.98100608704E+02  0.50400001928E-02 0.  1.
        1   -1    0    0  501    0  0.00000000000E+00  0.00000000000E+00 -0.12665001631E+04  0.12665001631E+04  0.50400001928E-02 0. -1.
    10030    2    1    2    0    0  0.00000000000E+00  0.00000000000E+00 -0.11683995545E+04  0.13646007718E+04  0.70496648674E+03 0.  0.
        5    1    3    3  502    0  0.27890578523E+03  0.20079728709E+03 -0.43283925432E+03  0.55270235897E+03  0.46999998093E+01 0.  1.
       -5    1    3    3    0  502 -0.27890578523E+03 -0.20079728709E+03 -0.73556030023E+03  0.81189841286E+03  0.46999998093E+01 0. -1.
</event>
<event>
 5   0  0.6248886E-02  0.6848776E+03  0.7818609E-02  0.9743449E-01
       -2   -1    0    0    0  501  0.00000000000E+00  0.00000000000E+00  0.26772802989E+03  0.26772802990E+03  0.25500000920E-02 0.  1.
        2   -1    0    0  501    0  0.00000000000E+00  0.00000000000E+00 -0.43799795503E+03  0.43799795503E+03  0.25500000920E-02 0. -1.
    10030    2    1    2    0    0  0.00000000000E+00  0.00000000000E+00 -0.17026992514E+03  0.70572598493E+03  0.68487759374E+03 0.  0.
        3    1    3    3  502    0 -0.31427616364E+03  0.13597274719E+03 -0.87705781649E+02  0.35348325186E+03  0.10100000352E+00 0. -1.
       -3    1    3    3    0  502  0.31427616364E+03 -0.13597274719E+03 -0.82564143488E+02  0.35224273307E+03  0.10100000352E+00 0.  1.
</event>
<event>
 5   0  0.2439375E-02  0.6928048E+03  0.7818609E-02  0.9729617E-01
        4   -1    0    0  501    0  0.00000000000E+00  0.00000000000E+00  0.51998398158E+03  0.51998553249E+03  0.12699999809E+01 0. -1.
       -4   -1    0    0    0  501  0.00000000000E+00  0.00000000000E+00 -0.23076237090E+03  0.23076586559E+03  0.12699999809E+01 0.  1.
    10030    2    1    2    0    0  0.00000000000E+00  0.00000000000E+00  0.28922161068E+03  0.75075139808E+03  0.69280482218E+03 0.  0.
        4    1    3    3  502    0 -0.99752455021E+02  0.26487322885E+02 -0.21371372805E+03  0.23733373341E+03  0.12699999809E+01 0.  1.
       -4    1    3    3    0  502  0.99752455021E+02 -0.26487322885E+02  0.50293533873E+03  0.51341766468E+03  0.12699999809E+01 0. -1.
</event>
<event>
 5   0  0.3749730E-02  0.6995961E+03  0.7818609E-02  0.9717923E-01
       -1   -1    0    0    0  501  0.00000000000E+00  0.00000000000E+00  0.11109211311E+03  0.11109211322E+03  0.50400001928E-02 0.  1.
        1   -1    0    0  501    0  0.00000000000E+00  0.00000000000E+00 -0.11014164399E+04  0.11014164399E+04  0.50400001928E-02 0. -1.
    10030    2    1    2    0    0  0.00000000000E+00  0.00000000000E+00 -0.99032432674E+03  0.12125085531E+04  0.69959611145E+03 0.  0.
        4    1    3    3  502    0  0.66085055876E+02  0.94759978365E+02 -0.10673931195E+04  0.10736276695E+04  0.12699999809E+01 0. -1.
       -4    1    3    3    0  502 -0.66085055876E+02 -0.94759978365E+02  0.77068792797E+02  0.13888088361E+03  0.12699999809E+01 0.  1.
</event>
<event>
 5   0  0.5899787E-02  0.5603072E+03  0.7818609E-02  0.9991360E-01
        2   -1    0    0  501    0  0.00000000000E+00  0.00000000000E+00  0.75027699519E+03  0.75027699520E+03  0.25500000920E-02 0. -1.
       -2   -1    0    0    0  501  0.00000000000E+00  0.00000000000E+00 -0.10460941203E+03  0.10460941206E+03  0.25500000920E-02 0.  1.
    10030    2    1    2    0    0  0.00000000000E+00  0.00000000000E+00  0.64566758316E+03  0.85488640726E+03  0.56030718483E+03 0.  0.
        2    1    3    3  502    0  0.24251233687E+02  0.11076139672E+03 -0.68036665598E+02  0.13223160443E+03  0.25500000920E-02 0.  1.
       -2    1    3    3    0  502 -0.24251233687E+02 -0.11076139672E+03  0.71370424876E+03  0.72265480282E+03  0.25500000920E-02 0. -1.
</event>
<event>
 5   0  0.5987810E-02  0.6992286E+03  0.7818609E-02  0.9718552E-01
       -2   -1    0    0    0  501  0.00000000000E+00  0.00000000000E+00  0.29859945421E+03  0.29859945422E+03  0.25500000920E-02 0.  1.
        2   -1    0    0  501    0  0.00000000000E+00  0.00000000000E+00 -0.40934490999E+03  0.40934491000E+03  0.25500000920E-02 0. -1.
    10030    2    1    2    0    0  0.00000000000E+00  0.00000000000E+00 -0.11074545578E+03  0.70794436422E+03  0.69922862274E+03 0.  0.
        5    1    3    3  502    0 -0.14225473467E+03  0.29314938765E+03  0.72835476440E+02  0.33391626142E+03  0.46999998093E+01 0.  1.
       -5    1    3    3    0  502  0.14225473467E+03 -0.29314938765E+03 -0.18358093222E+03  0.37402810281E+03  0.46999998093E+01 0. -1.
</event>
<event>
 5   0  0.2439375E-02  0.7255206E+03  0.7818609E-02  0.9674557E-01
        4   -1    0    0  501    0  0.00000000000E+00  0.00000000000E+00  0.15528770161E+03  0.15529289478E+03  0.12699999809E+01 0. -1.
       -4   -1    0    0    0  501  0.00000000000E+00  0.00000000000E+00 -0.84740751288E+03  0.84740846455E+03  0.12699999809E+01 0.  1.
    10030    2    1    2    0    0  0.00000000000E+00  0.00000000000E+00 -0.69211981127E+03  0.10027013593E+04  0.72552062882E+03 0.  0.
        4    1    3    3  502    0 -0.31826947208E+03 -0.87134583024E+02 -0.55431122413E+03  0.64509723183E+03  0.12699999809E+01 0.  1.
       -4    1    3    3    0  502  0.31826947208E+03  0.87134583024E+02 -0.13780858715E+03  0.35760412750E+03  0.12699999809E+01 0. -1.
</event>
<event>
 5   0  0.3601475E-02  0.7108247E+03  0.7818609E-02  0.9698898E-01
       -1   -1    0    0    0  501  0.00000000000E+00  0.00000000000E+00  0.40902177623E+03  0.40902177626E+03  0.50400001928E-02 0. -1.
        1   -1    0    0  501    0  0.00000000000E+00  0.00000000000E+00 -0.30882932945E+03  0.30882932949E+03  0.50400001928E-02 0.  1.
    10030    2    1    2    0    0  0.00000000000E+00  0.00000000000E+00  0.10019244678E+03  0.71785110576E+03  0.71082465042E+03 0.  0.
        5    1    3    3  502    0  0.17270623835E+03 -0.16536213739E+03  0.31560906941E+03  0.39598390869E+03  0.46999998093E+01 0. -1.
       -5    1    3    3    0  502 -0.17270623835E+03  0.16536213739E+03 -0.21541662263E+03  0.32186719707E+03  0.46999998093E+01 0.  1.
</event>
<event>
 5   0  0.6167756E-02  0.7344177E+03  0.7818609E-02  0.9660119E-01
       -2   -1    0    0    0  501  0.00000000000E+00  0.00000000000E+00  0.21204392527E+03  0.21204392529E+03  0.25500000920E-02 0. -1.
        2   -1    0    0  501    0  0.00000000000E+00  0.00000000000E+00 -0.63591703490E+03  0.63591703491E+03  0.25500000920E-02 0.  1.
    10030    2    1    2    0    0  0.00000000000E+00  0.00000000000E+00 -0.42387310963E+03  0.84796096020E+03  0.73441771285E+03 0.  0.
        4    1    3    3  502    0  0.57123454048E+02 -0.59811249413E+02 -0.62502032836E+03  0.63047006140E+03  0.12699999809E+01 0.  1.
       -4    1    3    3    0  502 -0.57123454048E+02  0.59811249413E+02  0.20114721872E+03  0.21749089880E+03  0.12699999809E+01 0. -1.
</event>
<event>
 5   0  0.3717372E-02  0.7312941E+03  0.7818609E-02  0.9665163E-01
       -1   -1    0    0    0  501  0.00000000000E+00  0.00000000000E+00  0.69145844114E+03  0.69145844115E+03  0.50400001928E-02 0.  1.
        1   -1    0    0  501    0  0.00000000000E+00  0.00000000000E+00 -0.19335619501E+03  0.19335619507E+03  0.50400001928E-02 0. -1.
    10030    2    1    2    0    0  0.00000000000E+00  0.00000000000E+00  0.49810224613E+03  0.88481463623E+03  0.73129412200E+03 0.  0.
        3    1    3    3  502    0  0.28472903524E+03 -0.21006641924E+03  0.36059615618E+03  0.50520107091E+03  0.10100000352E+00 0.  1.
       -3    1    3    3    0  502 -0.28472903524E+03  0.21006641924E+03  0.13750608995E+03  0.37961356532E+03  0.10100000352E+00 0. -1.
</event>
<event>
 5   0  0.3755872E-02  0.7186901E+03  0.7818609E-02  0.9685793E-01
       -1   -1    0    0    0  501  0.00000000000E+00  0.00000000000E+00  0.13329120840E+03  0.13329120850E+03  0.50400001928E-02 0. -1.
        1   -1    0    0  501    0  0.00000000000E+00  0.00000000000E+00 -0.96877248278E+03  0.96877248280E+03  0.50400001928E-02 0.  1.
    10030    2    1    2    0    0  0.00000000000E+00  0.00000000000E+00 -0.83548127438E+03  0.11020636913E+04  0.71869007216E+03 0.  0.
        2    1    3    3  502    0 -0.36375760066E+02  0.31816543974E+03 -0.66772521826E+03  0.74054669676E+03  0.25500000920E-02 0.  1.
       -2    1    3    3    0  502  0.36375760066E+02 -0.31816543974E+03 -0.16775605612E+03  0.36151699454E+03  0.25500000920E-02 0. -1.
</event>
<event>
 5   0  0.5899787E-02  0.6701117E+03  0.7818609E-02  0.9769756E-01
       -2   -1    0    0    0  501  0.00000000000E+00  0.00000000000E+00  0.10580078418E+03  0.10580078421E+03  0.25500000920E-02 0.  1.
        2   -1    0    0  501    0  0.00000000000E+00  0.00000000000E+00 -0.10610735647E+04  0.10610735647E+04  0.25500000920E-02 0. -1.
    10030    2    1    2    0    0  0.00000000000E+00  0.00000000000E+00 -0.95527278047E+03  0.11668743489E+04  0.67011167795E+03 0.  0.
        2    1    3    3  502    0  0.32763419899E+03  0.22662272679E+02 -0.59320330240E+03  0.67804712590E+03  0.25500000920E-02 0.  1.
       -2    1    3    3    0  502 -0.32763419899E+03 -0.22662272679E+02 -0.36206947808E+03  0.48882722297E+03  0.25500000920E-02 0. -1.
</event>
<event>
 5   0  0.5987810E-02  0.6876177E+03  0.7818609E-02  0.9738645E-01
       -2   -1    0    0    0  501  0.00000000000E+00  0.00000000000E+00  0.61106760540E+02  0.61106760593E+02  0.25500000920E-02 0.  1.
        2   -1    0    0  501    0  0.00000000000E+00  0.00000000000E+00 -0.19343936942E+04  0.19343936942E+04  0.25500000920E-02 0. -1.
    10030    2    1    2    0    0  0.00000000000E+00  0.00000000000E+00 -0.18732869337E+04  0.19955004548E+04  0.68761772030E+03 0.  0.
        5    1    3    3  502    0 -0.12431866625E+03  0.23193296755E+03 -0.15786093518E+04  0.16003992026E+04  0.46999998093E+01 0.  1.
       -5    1    3    3    0  502  0.12431866625E+03 -0.23193296755E+03 -0.29467758191E+03  0.39510125221E+03  0.46999998093E+01 0. -1.
</event>
<event>
 5   0  0.3749730E-02  0.7108567E+03  0.7818609E-02  0.9698844E-01
       -1   -1    0    0    0  501  0.00000000000E+00  0.00000000000E+00  0.26573532558E+03  0.26573532563E+03  0.50400001928E-02 0.  1.
        1   -1    0    0  501    0  0.00000000000E+00  0.00000000000E+00 -0.47539520330E+03  0.47539520333E+03  0.50400001928E-02 0. -1.
    10030    2    1    2    0    0  0.00000000000E+00  0.00000000000E+00 -0.20965987772E+03  0.74113052895E+03  0.71085666391E+03 0.  0.
        4    1    3    3  502    0  0.61356609853E+02 -0.12187643101E+03  0.23733778485E+03  0.27376876196E+03  0.12699999809E+01 0.  1.
       -4    1    3    3    0  502 -0.61356609853E+02  0.12187643101E+03 -0.44699766257E+03  0.46736176700E+03  0.12699999809E+01 0. -1.
</event>
<event>
 5   0  0.5987810E-02  0.7045256E+03  0.7818609E-02  0.9709524E-01
        2   -1    0    0  501    0  0.00000000000E+00  0.00000000000E+00  0.23267648833E+03  0.23267648834E+03  0.25500000920E-02 0. -1.
       -2   -1    0    0    0  501  0.00000000000E+00  0.00000000000E+00 -0.53331166060E+03  0.53331166061E+03  0.25500000920E-02 0.  1.
    10030    2    1    2    0    0  0.00000000000E+00  0.00000000000E+00 -0.30063517227E+03  0.76598814895E+03  0.70452561168E+03 0.  0.
        5    1    3    3  502    0  0.43672576346E+02  0.12467331186E+03  0.20468948081E+03  0.24366083430E+03  0.46999998093E+01 0. -1.
       -5    1    3    3    0  502 -0.43672576346E+02 -0.12467331186E+03 -0.50532465309E+03  0.52232731465E+03  0.46999998093E+01 0.  1.
</event>
<event>
 5   0  0.2439375E-02  0.6040304E+03  0.7818609E-02  0.9897079E-01
        3   -1    0    0  501    0  0.00000000000E+00  0.00000000000E+00  0.92825371985E+03  0.92825372534E+03  0.10100000352E+00 0.  1.
       -3   -1    0    0    0  501  0.00000000000E+00  0.00000000000E+00 -0.98263160679E+02  0.98263212586E+02  0.10100000352E+00 0. -1.
    10030    2    1    2    0    0  0.00000000000E+00  0.00000000000E+00  0.82999055917E+03  0.10265169379E+04  0.60403037634E+03 0.  0.
        1    1    3    3  502    0  0.27701100711E+03  0.29889544325E+02  0.61307144573E+03  0.67341300887E+03  0.50400001928E-02 0.  1.
       -1    1    3    3    0  502 -0.27701100711E+03 -0.29889544325E+02  0.21691911344E+03  0.35310392906E+03  0.50400001928E-02 0. -1.
</event>
<event>
 5   0  0.3439015E-02  0.6989680E+03  0.7818609E-02  0.9718999E-01
       -1   -1    0    0    0  501  0.00000000000E+00  0.00000000000E+00  0.13402204539E+03  0.13402204548E+03  0.50400001928E-02 0.  1.
        1   -1    0    0  501    0  0.00000000000E+00  0.00000000000E+00 -0.91133575583E+03  0.91133575584E+03  0.50400001928E-02 0. -1.
    10030    2    1    2    0    0  0.00000000000E+00  0.00000000000E+00 -0.77731371044E+03  0.10453578013E+04  0.69896804530E+03 0.  0.
        1    1    3    3  502    0 -0.19621318111E+02  0.25828202032E+03 -0.73954164699E+03  0.78359201489E+03  0.50400001928E-02 0. -1.
       -1    1    3    3    0  502  0.19621318111E+02 -0.25828202032E+03 -0.37772063445E+02  0.26176578643E+03  0.50400001928E-02 0.  1.
</event>
<event>
 5   0  0.5899787E-02  0.6720537E+03  0.7818609E-02  0.9766255E-01
        2   -1    0    0  501    0  0.00000000000E+00  0.00000000000E+00  0.59512816257E+03  0.59512816257E+03  0.25500000920E-02 0. -1.
       -2   -1    0    0    0  501  0.00000000000E+00  0.00000000000E+00 -0.18973061646E+03  0.18973061648E+03  0.25500000920E-02 0.  1.
    10030    2    1    2    0    0  0.00000000000E+00  0.00000000000E+00  0.40539754610E+03  0.78485877905E+03  0.67205366800E+03 0.  0.
        2    1    3    3  502    0  0.31236246485E+03  0.28067567644E+00  0.34735989688E+03  0.46715017521E+03  0.25500000920E-02 0. -1.
       -2    1    3    3    0  502 -0.31236246485E+03 -0.28067567644E+00  0.58037649219E+02  0.31770860385E+03  0.25500000920E-02 0.  1.
</event>
<event>
 5   0  0.6248886E-02  0.7030641E+03  0.7818609E-02  0.9712006E-01
        2   -1    0    0  501    0  0.00000000000E+00  0.00000000000E+00  0.23973448871E+03  0.23973448873E+03  0.25500000920E-02 0. -1.
       -2   -1    0    0    0  501  0.00000000000E+00  0.00000000000E+00 -0.51546523436E+03  0.51546523437E+03  0.25500000920E-02 0.  1.
    10030    2    1    2    0    0  0.00000000000E+00  0.00000000000E+00 -0.27573074565E+03  0.75519972310E+03  0.70306413482E+03 0.  0.
        3    1    3    3  502    0  0.83045249771E+02  0.28375773815E+03 -0.34212380238E+03  0.45217659584E+03  0.10100000352E+00 0.  1.
       -3    1    3    3    0  502 -0.83045249771E+02 -0.28375773815E+03  0.66393056737E+02  0.30302312725E+03  0.10100000352E+00 0. -1.
</event>
<event>
 5   0  0.6131198E-02  0.7053813E+03  0.7818609E-02  0.9708073E-01
        2   -1    0    0  501    0  0.00000000000E+00  0.00000000000E+00  0.47671871692E+03  0.47671871693E+03  0.25500000920E-02 0. -1.
       -2   -1    0    0    0  501  0.00000000000E+00  0.00000000000E+00 -0.26093103271E+03  0.26093103272E+03  0.25500000920E-02 0.  1.
    10030    2    1    2    0    0  0.00000000000E+00  0.00000000000E+00  0.21578768421E+03  0.73764974964E+03  0.70538133551E+03 0.  0.
        1    1    3    3  502    0  0.53903221959E+02  0.23592173556E+03 -0.16040898365E+03  0.29033715695E+03  0.50400001928E-02 0.  1.
       -1    1    3    3    0  502 -0.53903221959E+02 -0.23592173556E+03  0.37619666786E+03  0.44731259269E+03  0.50400001928E-02 0. -1.
</event>
<event>
 5   0  0.3749730E-02  0.7414238E+03  0.7818609E-02  0.9648902E-01
       -1   -1    0    0    0  501  0.00000000000E+00  0.00000000000E+00  0.46485211871E+03  0.46485211874E+03  0.50400001928E-02 0. -1.
        1   -1    0    0  501    0  0.00000000000E+00  0.00000000000E+00 -0.29563663546E+03  0.29563663550E+03  0.50400001928E-02 0.  1.
    10030    2    1    2    0    0  0.00000000000E+00  0.00000000000E+00  0.16921548325E+03  0.76048875424E+03  0.74142380967E+03 0.  0.
        4    1    3    3  502    0  0.67133974385E+02 -0.20628794631E+03  0.39294359675E+03  0.44885183573E+03  0.12699999809E+01 0. -1.
       -4    1    3    3    0  502 -0.67133974385E+02  0.20628794631E+03 -0.22372811350E+03  0.31163691851E+03  0.12699999809E+01 0.  1.
</event>
<event>
 5   0  0.6248886E-02  0.7059716E+03  0.7818609E-02  0.9707074E-01
       -2   -1    0    0    0  501  0.00000000000E+00  0.00000000000E+00  0.13342481837E+03  0.13342481839E+03  0.25500000920E-02 0. -1.
        2   -1    0    0  501    0  0.00000000000E+00  0.00000000000E+00 -0.93385153951E+03  0.93385153951E+03  0.25500000920E-02 0.  1.
    10030    2    1    2    0    0  0.00000000000E+00  0.00000000000E+00 -0.80042672114E+03  0.10672763579E+04  0.70597159166E+03 0.  0.
        3    1    3    3  502    0 -0.22432529535E+02 -0.35220484436E+03 -0.38979508820E+03  0.52582477286E+03  0.10100000352E+00 0.  1.
       -3    1    3    3    0  502  0.22432529535E+02  0.35220484436E+03 -0.41063163294E+03  0.54145158504E+03  0.10100000352E+00 0. -1.
</event>
<event>
 5   0  0.3749730E-02  0.6834699E+03  0.7818609E-02  0.9745926E-01
       -1   -1    0    0    0  501  0.00000000000E+00  0.00000000000E+00  0.14070572304E+03  0.14070572313E+03  0.50400001928E-02 0. -1.
        1   -1    0    0  501    0  0.00000000000E+00  0.00000000000E+00 -0.82997875052E+03  0.82997875054E+03  0.50400001928E-02 0.  1.
    10030    2    1    2    0    0  0.00000000000E+00  0.00000000000E+00 -0.68927302748E+03  0.97068447367E+03  0.68346985376E+03 0.  0.
        4    1    3    3  502    0 -0.28852619103E+03 -0.16627073677E+03 -0.45361385867E+03  0.56272592484E+03  0.12699999809E+01 0. -1.
       -4    1    3    3    0  502  0.28852619103E+03  0.16627073677E+03 -0.23565916882E+03  0.40795854882E+03  0.12699999809E+01 0.  1.
</event>
<event>
 5   0  0.5987810E-02  0.7029772E+03  0.7818609E-02  0.9712154E-01
        2   -1    0    0  501    0  0.00000000000E+00  0.00000000000E+00  0.33190125988E+03  0.33190125989E+03  0.25500000920E-02 0.  1.
       -2   -1    0    0    0  501  0.00000000000E+00  0.00000000000E+00 -0.37223187252E+03  0.37223187253E+03  0.25500000920E-02 0. -1.
    10030    2    1    2    0    0  0.00000000000E+00  0.00000000000E+00 -0.40330612644E+02  0.70413313242E+03  0.70297717591E+03 0.  0.
        5    1    3    3  502    0 -0.76936841282E+02 -0.33571328572E+03 -0.90276475190E+02  0.35608232156E+03  0.46999998093E+01 0.  1.
       -5    1    3    3    0  502  0.76936841282E+02  0.33571328572E+03  0.49945862547E+02  0.34805081086E+03  0.46999998093E+01 0. -1.
</event>
<event>
 5   0  0.3749730E-02  0.6958562E+03  0.7818609E-02  0.9724345E-01
        1   -1    0    0  501    0  0.00000000000E+00  0.00000000000E+00  0.17041378858E+03  0.17041378865E+03  0.50400001928E-02 0.  1.
       -1   -1    0    0    0  501  0.00000000000E+00  0.00000000000E+00 -0.71035304898E+03  0.71035304900E+03  0.50400001928E-02 0. -1.
    10030    2    1    2    0    0  0.00000000000E+00  0.00000000000E+00 -0.53993926040E+03  0.88076683765E+03  0.69585617578E+03 0.  0.
        4    1    3    3  502    0  0.22413245853E+03  0.71935820059E+02  0.54320028331E+02  0.24158311107E+03  0.12699999809E+01 0.  1.
       -4    1    3    3    0  502 -0.22413245853E+03 -0.71935820059E+02 -0.59425928873E+03  0.63918372658E+03  0.12699999809E+01 0. -1.
</event>
<event>
 5   0  0.3717372E-02  0.7222611E+03  0.7818609E-02  0.9679902E-01
        1   -1    0    0  501    0  0.00000000000E+00  0.00000000000E+00  0.20221036488E+03  0.20221036494E+03  0.50400001928E-02 0.  1.
       -1   -1    0    0    0  501  0.00000000000E+00  0.00000000000E+00 -0.64494850999E+03  0.64494851001E+03  0.50400001928E-02 0. -1.
    10030    2    1    2    0    0  0.00000000000E+00  0.00000000000E+00 -0.44273814511E+03  0.84715887495E+03  0.72226109841E+03 0.  0.
        3    1    3    3  502    0  0.23128842563E+03 -0.18957739398E+03 -0.45881444727E+03  0.54767201075E+03  0.10100000352E+00 0. -1.
       -3    1    3    3    0  502 -0.23128842563E+03  0.18957739398E+03  0.16076302163E+02  0.29948686420E+03  0.10100000352E+00 0.  1.
</event>
<event>
 5   0  0.6131198E-02  0.7093623E+03  0.7818609E-02  0.9701354E-01
       -2   -1    0    0    0  501  0.00000000000E+00  0.00000000000E+00  0.53084691343E+03  0.53084691344E+03  0.25500000920E-02 0.  1.
        2   -1    0    0  501    0  0.00000000000E+00  0.00000000000E+00 -0.23697742112E+03  0.23697742113E+03  0.25500000920E-02 0. -1.
    10030    2    1    2    0    0  0.00000000000E+00  0.00000000000E+00  0.29386949231E+03  0.76782433457E+03  0.70936234058E+03 0.  0.
        1    1    3    3  502    0  0.22323031521E+03 -0.27347775981E+03  0.18406763094E+03  0.39812404037E+03  0.50400001928E-02 0.  1.
       -1    1    3    3    0  502 -0.22323031521E+03  0.27347775981E+03  0.10980186138E+03  0.36970029419E+03  0.50400001928E-02 0. -1.
</event>
<event>
 5   0  0.6167756E-02  0.7173411E+03  0.7818609E-02  0.9688028E-01
        2   -1    0    0  501    0  0.00000000000E+00  0.00000000000E+00  0.24012835312E+03  0.24012835314E+03  0.25500000920E-02 0. -1.
       -2   -1    0    0    0  501  0.00000000000E+00  0.00000000000E+00 -0.53573253266E+03  0.53573253266E+03  0.25500000920E-02 0.  1.
    10030    2    1    2    0    0  0.00000000000E+00  0.00000000000E+00 -0.29560417953E+03  0.77586088580E+03  0.71734112050E+03 0.  0.
        4    1    3    3  502    0 -0.27715610742E+03  0.22710607072E+03 -0.13069116421E+03  0.38141115419E+03  0.12699999809E+01 0.  1.
       -4    1    3    3    0  502  0.27715610742E+03 -0.22710607072E+03 -0.16491301533E+03  0.39444973161E+03  0.12699999809E+01 0. -1.
</event>
<event>
 5   0  0.6248886E-02  0.7000535E+03  0.7818609E-02  0.9717141E-01
       -2   -1    0    0    0  501  0.00000000000E+00  0.00000000000E+00  0.84839890316E+02  0.84839890354E+02  0.25500000920E-02 0. -1.
        2   -1    0    0  501    0  0.00000000000E+00  0.00000000000E+00 -0.14441169006E+04  0.14441169006E+04  0.25500000920E-02 0.  1.
    10030    2    1    2    0    0  0.00000000000E+00  0.00000000000E+00 -0.13592770102E+04  0.15289567909E+04  0.70005348218E+03 0.  0.
        3    1    3    3  502    0 -0.32013901957E+03  0.12525070003E+03 -0.82355410747E+03  0.89242260608E+03  0.10100000352E+00 0.  1.
       -3    1    3    3    0  502  0.32013901957E+03 -0.12525070003E+03 -0.53572290277E+03  0.63653418483E+03  0.10100000352E+00 0. -1.
</event>
<event>
 5   0  0.3755872E-02  0.6832295E+03  0.7818609E-02  0.9746350E-01
        1   -1    0    0  501    0  0.00000000000E+00  0.00000000000E+00  0.10258912142E+04  0.10258912142E+04  0.50400001928E-02 0.  1.
       -1   -1    0    0    0  501  0.00000000000E+00  0.00000000000E+00 -0.11375538124E+03  0.11375538135E+03  0.50400001928E-02 0. -1.
    10030    2    1    2    0    0  0.00000000000E+00  0.00000000000E+00  0.91213583292E+03  0.11396465955E+04  0.68322952584E+03 0.  0.
        2    1    3    3  502    0  0.26932088219E+01 -0.52148426994E+02 -0.10705907162E+03  0.11911488839E+03  0.25500000920E-02 0. -1.
       -2    1    3    3    0  502 -0.26932088219E+01  0.52148426994E+02  0.10191949045E+04  0.10205317071E+04  0.25500000920E-02 0.  1.
</event>
<event>
 5   0  0.3755872E-02  0.6836288E+03  0.7818609E-02  0.9745646E-01
        1   -1    0    0  501    0  0.00000000000E+00  0.00000000000E+00  0.62340842353E+03  0.62340842355E+03  0.50400001928E-02 0.  1.
       -1   -1    0    0    0  501  0.00000000000E+00  0.00000000000E+00 -0.18741658329E+03  0.18741658336E+03  0.50400001928E-02 0. -1.
    10030    2    1    2    0    0  0.00000000000E+00  0.00000000000E+00  0.43599184023E+03  0.81082500691E+03  0.68362877871E+03 0.  0.
        2    1    3    3  502    0 -0.22487021498E+03 -0.42416807825E+02  0.51915082145E+03  0.56734766641E+03  0.25500000920E-02 0.  1.
       -2    1    3    3    0  502  0.22487021498E+03  0.42416807825E+02 -0.83158981214E+02  0.24347734049E+03  0.25500000920E-02 0. -1.
</event>
<event>
 5   0  0.5987810E-02  0.7042740E+03  0.7818609E-02  0.9709951E-01
        2   -1    0    0  501    0  0.00000000000E+00  0.00000000000E+00  0.15972377111E+04  0.15972377111E+04  0.25500000920E-02 0. -1.
       -2   -1    0    0    0  501  0.00000000000E+00  0.00000000000E+00 -0.77634315731E+02  0.77634315773E+02  0.25500000920E-02 0.  1.
    10030    2    1    2    0    0  0.00000000000E+00  0.00000000000E+00  0.15196033953E+04  0.16748720268E+04  0.70427397168E+03 0.  0.
        5    1    3    3  502    0  0.23073017635E+03  0.11485089816E+03  0.13303169668E+04  0.13550617939E+04  0.46999998093E+01 0. -1.
       -5    1    3    3    0  502 -0.23073017635E+03 -0.11485089816E+03  0.18928642856E+03  0.31981023298E+03  0.46999998093E+01 0.  1.
</event>
<event>
 5   0  0.3439015E-02  0.6959610E+03  0.7818609E-02  0.9724164E-01
       -1   -1    0    0    0  501  0.00000000000E+00  0.00000000000E+00  0.86884005577E+02  0.86884005724E+02  0.50400001928E-02 0.  1.
        1   -1    0    0  501    0  0.00000000000E+00  0.00000000000E+00 -0.13937022951E+04  0.13937022951E+04  0.50400001928E-02 0. -1.
    10030    2    1    2    0    0  0.00000000000E+00  0.00000000000E+00 -0.13068182895E+04  0.14805863008E+04  0.69596102792E+03 0.  0.
        1    1    3    3  502    0 -0.43437708693E+01  0.59767243617E+02 -0.13826428204E+04  0.13839408082E+04  0.50400001928E-02 0. -1.
       -1    1    3    3    0  502  0.43437708693E+01 -0.59767243617E+02  0.75824530832E+02  0.96645492685E+02  0.50400001928E-02 0.  1.
</event>
<event>
 5   0  0.6248886E-02  0.6431060E+03  0.7818609E-02  0.9819802E-01
       -2   -1    0    0    0  501  0.00000000000E+00  0.00000000000E+00  0.25518392505E+03  0.25518392506E+03  0.25500000920E-02 0.  1.
        2   -1    0    0  501    0  0.00000000000E+00  0.00000000000E+00 -0.40518352931E+03  0.40518352932E+03  0.25500000920E-02 0. -1.
    10030    2    1    2    0    0  0.00000000000E+00  0.00000000000E+00 -0.14999960426E+03  0.66036745438E+03  0.64310597379E+03 0.  0.
        3    1    3    3  502    0  0.23756570634E+03 -0.13505093232E+03 -0.24901855276E+03  0.36971133194E+03  0.10100000352E+00 0. -1.
       -3    1    3    3    0  502 -0.23756570634E+03  0.13505093232E+03  0.99018948493E+02  0.29065612244E+03  0.10100000352E+00 0.  1.
</event>
<event>
 5   0  0.2439375E-02  0.7160670E+03  0.7818609E-02  0.9690143E-01
        4   -1    0    0  501    0  0.00000000000E+00  0.00000000000E+00  0.38262010508E+03  0.38262221278E+03  0.12699999809E+01 0.  1.
       -4   -1    0    0    0  501  0.00000000000E+00  0.00000000000E+00 -0.33502259962E+03  0.33502500676E+03  0.12699999809E+01 0. -1.
    10030    2    1    2    0    0  0.00000000000E+00  0.00000000000E+00  0.47597505458E+02  0.71764721954E+03  0.71606704239E+03 0.  0.
        1    1    3    3  502    0 -0.32862126692E+03  0.68584588547E+02 -0.10094366029E+03  0.35055014682E+03  0.50400001928E-02 0. -1.
       -1    1    3    3    0  502  0.32862126692E+03 -0.68584588547E+02  0.14854116575E+03  0.36709707272E+03  0.50400001928E-02 0.  1.
</event>
<event>
 5   0  0.3749730E-02  0.7046981E+03  0.7818609E-02  0.9709231E-01
       -1   -1    0    0    0  501  0.00000000000E+00  0.00000000000E+00  0.48476871172E+03  0.48476871174E+03  0.50400001928E-02 0. -1.
        1   -1    0    0  501    0  0.00000000000E+00  0.00000000000E+00 -0.25610122841E+03  0.25610122846E+03  0.50400001928E-02 0.  1.
    10030    2    1    2    0    0  0.00000000000E+00  0.00000000000E+00  0.22866748331E+03  0.74086994020E+03  0.70469812712E+03 0.  0.
        4    1    3    3  502    0 -0.22465529197E+03  0.48903216437E+02 -0.16636675964E+03  0.28379752713E+03  0.12699999809E+01 0.  1.
       -4    1    3    3    0  502  0.22465529197E+03 -0.48903216437E+02  0.39503424295E+03  0.45707241308E+03  0.12699999809E+01 0. -1.
</event>
<event>
 5   0  0.3601475E-02  0.6785345E+03  0.7818609E-02  0.9754662E-01
       -1   -1    0    0    0  501  0.00000000000E+00  0.00000000000E+00  0.19038099165E+03  0.19038099171E+03  0.50400001928E-02 0. -1.
        1   -1    0    0  501    0  0.00000000000E+00  0.00000000000E+00 -0.60458905143E+03  0.60458905145E+03  0.50400001928E-02 0.  1.
    10030    2    1    2    0    0  0.00000000000E+00  0.00000000000E+00 -0.41420805979E+03  0.79497004317E+03  0.67853448898E+03 0.  0.
        5    1    3    3  502    0  0.12984411935E+03  0.79753720765E+02 -0.56219702784E+03  0.58250127847E+03  0.46999998093E+01 0.  1.
       -5    1    3    3    0  502 -0.12984411935E+03 -0.79753720765E+02  0.14798896806E+03  0.21246876470E+03  0.46999998093E+01 0. -1.
</event>
<event>
 5   0  0.6167756E-02  0.6056364E+03  0.7818609E-02  0.9893781E-01
        2   -1    0    0  501    0  0.00000000000E+00  0.00000000000E+00  0.80819523756E+03  0.80819523756E+03  0.25500000920E-02 0. -1.
       -2   -1    0    0    0  501  0.00000000000E+00  0.00000000000E+00 -0.11346126696E+03  0.11346126699E+03  0.25500000920E-02 0.  1.
    10030    2    1    2    0    0  0.00000000000E+00  0.00000000000E+00  0.69473397060E+03  0.92165650455E+03  0.60563637809E+03 0.  0.
        4    1    3    3  502    0 -0.49065199785E+02 -0.29089855852E+03  0.45133909724E+03  0.53920122290E+03  0.12699999809E+01 0.  1.
       -4    1    3    3    0  502  0.49065199785E+02  0.29089855852E+03  0.24339487336E+03  0.38245528164E+03  0.12699999809E+01 0. -1.
</event>
<event>
 5   0  0.3601475E-02  0.6717043E+03  0.7818609E-02  0.9766884E-01
       -1   -1    0    0    0  501  0.00000000000E+00  0.00000000000E+00  0.11154696886E+04  0.11154696886E+04  0.50400001928E-02 0. -1.
        1   -1    0    0  501    0  0.00000000000E+00  0.00000000000E+00 -0.10112034196E+03  0.10112034208E+03  0.50400001928E-02 0.  1.
    10030    2    1    2    0    0  0.00000000000E+00  0.00000000000E+00  0.10143493467E+04  0.12165900307E+04  0.67170432912E+03 0.  0.
        5    1    3    3  502    0  0.17353722856E+03  0.17337441516E+03  0.92257036437E+03  0.95463711679E+03  0.46999998093E+01 0. -1.
       -5    1    3    3    0  502 -0.17353722856E+03 -0.17337441516E+03  0.91778982301E+02  0.26195291394E+03  0.46999998093E+01 0.  1.
</event>
<event>
 5   0  0.5899787E-02  0.7040206E+03  0.7818609E-02  0.9710381E-01
        2   -1    0    0  501    0  0.00000000000E+00  0.00000000000E+00  0.10754340572E+04  0.10754340572E+04  0.25500000920E-02 0. -1.
       -2   -1    0    0    0  501  0.00000000000E+00  0.00000000000E+00 -0.11521974173E+03  0.11521974176E+03  0.25500000920E-02 0.  1.
    10030    2    1    2    0    0  0.00000000000E+00  0.00000000000E+00  0.96021431547E+03  0.11906537990E+04  0.70402055181E+03 0.  0.
        2    1    3    3  502    0  0.91662893461E+02 -0.29111723169E+03  0.18349246175E+03  0.35611909827E+03  0.25500000920E-02 0.  1.
       -2    1    3    3    0  502 -0.91662893461E+02  0.29111723169E+03  0.77672185372E+03  0.83453470071E+03  0.25500000920E-02 0. -1.
</event>
<event>
 5   0  0.3755872E-02  0.7144380E+03  0.7818609E-02  0.9692855E-01
        1   -1    0    0  501    0  0.00000000000E+00  0.00000000000E+00  0.67793843119E+03  0.67793843121E+03  0.50400001928E-02 0. -1.
       -1   -1    0    0    0  501  0.00000000000E+00  0.00000000000E+00 -0.18822566969E+03  0.18822566976E+03  0.50400001928E-02 0.  1.
    10030    2    1    2    0    0  0.00000000000E+00  0.00000000000E+00  0.48971276150E+03  0.86616410096E+03  0.71443800362E+03 0.  0.
        2    1    3    3  502    0  0.16092635160E+03 -0.31036450842E+03  0.15591428920E+03  0.38279587813E+03  0.25500000920E-02 0. -1.
       -2    1    3    3    0  502 -0.16092635160E+03  0.31036450842E+03  0.33379847230E+03  0.48336822283E+03  0.25500000920E-02 0.  1.
</event>
<event>
 5   0  0.3749730E-02  0.7025221E+03  0.7818609E-02  0.9712929E-01
       -1   -1    0    0    0  501  0.00000000000E+00  0.00000000000E+00  0.74518562001E+03  0.74518562003E+03  0.50400001928E-02 0. -1.
        1   -1    0    0  501    0  0.00000000000E+00  0.00000000000E+00 -0.16557527109E+03  0.16557527117E+03  0.50400001928E-02 0.  1.
    10030    2    1    2    0    0  0.00000000000E+00  0.00000000000E+00  0.57961034892E+03  0.91076089120E+03  0.70252205970E+03 0.  0.
        4    1    3    3  502    0 -0.29832097990E+03 -0.17821919042E+03  0.35622940629E+03  0.49765298119E+03  0.12699999809E+01 0. -1.
       -4    1    3    3    0  502  0.29832097990E+03  0.17821919042E+03  0.22338094263E+03  0.41310791001E+03  0.12699999809E+01 0.  1.
</event>
<event>
 5   0  0.5899787E-02  0.7159001E+03  0.7818609E-02  0.9690421E-01
       -2   -1    0    0    0  501  0.00000000000E+00  0.00000000000E+00  0.56555859347E+03  0.56555859348E+03  0.25500000920E-02 0. -1.
        2   -1    0    0  501    0  0.00000000000E+00  0.00000000000E+00 -0.22655165529E+03  0.22655165530E+03  0.25500000920E-02 0.  1.
    10030    2    1    2    0    0  0.00000000000E+00  0.00000000000E+00  0.33900693819E+03  0.79211024878E+03  0.71590009225E+03 0.  0.
        2    1    3    3  502    0  0.71629516948E+02  0.23994175571E+03  0.45251648732E+03  0.51717889084E+03  0.25500000920E-02 0. -1.
       -2    1    3    3    0  502 -0.71629516948E+02 -0.23994175571E+03 -0.11350954913E+03  0.27493135794E+03  0.25500000920E-02 0.  1.
</event>
<event>
 5   0  0.6167756E-02  0.6055165E+03  0.7818609E-02  0.9894027E-01
        2   -1    0    0  501    0  0.00000000000E+00  0.00000000000E+00  0.34668894076E+03  0.34668894077E+03  0.25500000920E-02 0.  1.
       -2   -1    0    0    0  501  0.00000000000E+00  0.00000000000E+00 -0.26439426879E+03  0.26439426880E+03  0.25500000920E-02 0. -1.
    10030    2    1    2    0    0  0.00000000000E+00  0.00000000000E+00  0.82294671973E+02  0.61108320957E+03  0.60551653650E+03 0.  0.
        4    1    3    3  502    0  0.34039230933E+02  0.22722190932E+03  0.24012096798E+03  0.33233741511E+03  0.12699999809E+01 0.  1.
       -4    1    3    3    0  502 -0.34039230933E+02 -0.22722190932E+03 -0.15782629601E+03  0.27874579446E+03  0.12699999809E+01 0. -1.
</event>
<event>
 5   0  0.2439375E-02  0.6995458E+03  0.7818609E-02  0.9718009E-01
       -3   -1    0    0    0  501  0.00000000000E+00  0.00000000000E+00  0.11494662003E+04  0.11494662047E+04  0.10100000352E+00 0.  1.
        3   -1    0    0  501    0  0.00000000000E+00  0.00000000000E+00 -0.10643291550E+03  0.10643296342E+03  0.10100000352E+00 0. -1.
    10030    2    1    2    0    0  0.00000000000E+00  0.00000000000E+00  0.10430332848E+04  0.12558991681E+04  0.69954577218E+03 0.  0.
        5    1    3    3  502    0 -0.29703650165E+03  0.16714500742E+03  0.38071554846E+03  0.51101326368E+03  0.46999998093E+01 0. -1.
       -5    1    3    3    0  502  0.29703650165E+03 -0.16714500742E+03  0.66231773631E+03  0.74488590445E+03  0.46999998093E+01 0.  1.
</event>
<event>
 5   0  0.3755872E-02  0.7045234E+03  0.7818609E-02  0.9709528E-01
        1   -1    0    0  501    0  0.00000000000E+00  0.00000000000E+00  0.15671087976E+03  0.15671087984E+03  0.50400001928E-02 0.  1.
       -1   -1    0    0    0  501  0.00000000000E+00  0.00000000000E+00 -0.79182963211E+03  0.79182963212E+03  0.50400001928E-02 0. -1.
    10030    2    1    2    0    0  0.00000000000E+00  0.00000000000E+00 -0.63511875234E+03  0.94854051197E+03  0.70452343699E+03 0.  0.
        2    1    3    3  502    0 -0.28808367105E+03 -0.14021522493E+03 -0.51467922759E+03  0.60625672627E+03  0.25500000920E-02 0.  1.
       -2    1    3    3    0  502  0.28808367105E+03  0.14021522493E+03 -0.12043952476E+03  0.34228378570E+03  0.25500000920E-02 0. -1.
</event>
<event>
 5   0  0.3439015E-02  0.7284350E+03  0.7818609E-02  0.9669803E-01
        1   -1    0    0  501    0  0.00000000000E+00  0.00000000000E+00  0.15857022417E+04  0.15857022417E+04  0.50400001928E-02 0.  1.
       -1   -1    0    0    0  501  0.00000000000E+00  0.00000000000E+00 -0.83656566622E+02  0.83656566774E+02  0.50400001928E-02 0. -1.
    10030    2    1    2    0    0  0.00000000000E+00  0.00000000000E+00  0.15020456750E+04  0.16693588084E+04  0.72843504956E+03 0.  0.
        1    1    3    3  502    0 -0.32519105048E+03 -0.70573891391E+02  0.10903540628E+04  0.11400008227E+04  0.50400001928E-02 0. -1.
       -1    1    3    3    0  502  0.32519105048E+03  0.70573891391E+02  0.41169161221E+03  0.52935798572E+03  0.50400001928E-02 0.  1.
</event>
<event>
 5   0  0.3749730E-02  0.6983683E+03  0.7818609E-02  0.9720027E-01
        1   -1    0    0  501    0  0.00000000000E+00  0.00000000000E+00  0.44951448612E+03  0.44951448615E+03  0.50400001928E-02 0.  1.
       -1   -1    0    0    0  501  0.00000000000E+00  0.00000000000E+00 -0.27124722625E+03  0.27124722629E+03  0.50400001928E-02 0. -1.
    10030    2    1    2    0    0  0.00000000000E+00  0.00000000000E+00  0.17826725988E+03  0.72076171245E+03  0.69836826258E+03 0.  0.
        4    1    3    3  502    0  0.17099969595E+03 -0.30236149358E+03  0.52432481694E+02  0.35130349679E+03  0.12699999809E+01 0. -1.
       -4    1    3    3    0  502 -0.17099969595E+03  0.30236149358E+03  0.12583477818E+03  0.36945821566E+03  0.12699999809E+01 0.  1.
</event>
<event>
 5   0  0.6167756E-02  0.6807226E+03  0.7818609E-02  0.9750779E-01
        2   -1    0    0  501    0  0.00000000000E+00  0.00000000000E+00  0.39629300521E+03  0.39629300522E+03  0.25500000920E-02 0. -1.
       -2   -1    0    0    0  501  0.00000000000E+00  0.00000000000E+00 -0.29232361914E+03  0.29232361915E+03  0.25500000920E-02 0.  1.
    10030    2    1    2    0    0  0.00000000000E+00  0.00000000000E+00  0.10396938607E+03  0.68861662437E+03  0.68072257353E+03 0.  0.
        4    1    3    3  502    0 -0.22748194207E+03 -0.24789877971E+03  0.10398463087E+03  0.35215941746E+03  0.12699999809E+01 0. -1.
       -4    1    3    3    0  502  0.22748194207E+03  0.24789877971E+03 -0.15244801641E-01  0.33645720691E+03  0.12699999809E+01 0.  1.
</event>
<event>
 5   0  0.3717372E-02  0.7122957E+03  0.7818609E-02  0.9696433E-01
       -1   -1    0    0    0  501  0.00000000000E+00  0.00000000000E+00  0.84164563346E+03  0.84164563347E+03  0.50400001928E-02 0. -1.
        1   -1    0    0  501    0  0.00000000000E+00  0.00000000000E+00 -0.15070630706E+03  0.15070630715E+03  0.50400001928E-02 0.  1.
    10030    2    1    2    0    0  0.00000000000E+00  0.00000000000E+00  0.69093932639E+03  0.99235194062E+03  0.71229574005E+03 0.  0.
        3    1    3    3  502    0  0.35193243043E+03 -0.54626205617E+02  0.34419493456E+03  0.49528842214E+03  0.10100000352E+00 0.  1.
       -3    1    3    3    0  502 -0.35193243043E+03  0.54626205617E+02  0.34674439183E+03  0.49706351848E+03  0.10100000352E+00 0. -1.
</event>
<event>
 5   0  0.3439015E-02  0.7035880E+03  0.7818609E-02  0.9711116E-01
       -1   -1    0    0    0  501  0.00000000000E+00  0.00000000000E+00  0.57979152864E+03  0.57979152866E+03  0.50400001928E-02 0.  1.
        1   -1    0    0  501    0  0.00000000000E+00  0.00000000000E+00 -0.21345436548E+03  0.21345436554E+03  0.50400001928E-02 0. -1.
    10030    2    1    2    0    0  0.00000000000E+00  0.00000000000E+00  0.36633716316E+03  0.79324589420E+03  0.70358804108E+03 0.  0.
        1    1    3    3  502    0  0.19070110420E+03 -0.12114613181E+03  0.48718958445E+03  0.53702605861E+03  0.50400001928E-02 0.  1.
       -1    1    3    3    0  502 -0.19070110420E+03  0.12114613181E+03 -0.12085242129E+03  0.25621983560E+03  0.50400001928E-02 0. -1.
</event>
<event>
 5   0  0.3439015E-02  0.6063746E+03  0.7818609E-02  0.9892268E-01
        1   -1    0    0  501    0  0.00000000000E+00  0.00000000000E+00  0.61027732670E+03  0.61027732672E+03  0.50400001928E-02 0.  1.
       -1   -1    0    0    0  501  0.00000000000E+00  0.00000000000E+00 -0.15062418618E+03  0.15062418627E+03  0.50400001928E-02 0. -1.
    10030    2    1    2    0    0  0.00000000000E+00  0.00000000000E+00  0.45965314051E+03  0.76090151299E+03  0.60637455659E+03 0.  0.
        1    1    3    3  502    0  0.59261001743E+02 -0.11765436187E+03  0.57248707232E+03  0.58744860472E+03  0.50400001928E-02 0.  1.
       -1    1    3    3    0  502 -0.59261001743E+02  0.11765436187E+03 -0.11283393180E+03  0.17345290826E+03  0.50400001928E-02 0. -1.
</event>
<event>
 5   0  0.6167756E-02  0.7076492E+03  0.7818609E-02  0.9704240E-01
       -2   -1    0    0    0  501  0.00000000000E+00  0.00000000000E+00  0.10710169180E+03  0.10710169183E+03  0.25500000920E-02 0. -1.
        2   -1    0    0  501    0  0.00000000000E+00  0.00000000000E+00 -0.11689064893E+04  0.11689064893E+04  0.25500000920E-02 0.  1.
    10030    2    1    2    0    0  0.00000000000E+00  0.00000000000E+00 -0.10618047975E+04  0.12760081811E+04  0.70764924244E+03 0.  0.
        4    1    3    3  502    0 -0.21757822647E+03 -0.27605163324E+03 -0.60404647981E+03  0.69886948103E+03  0.12699999809E+01 0.  1.
       -4    1    3    3    0  502  0.21757822647E+03  0.27605163324E+03 -0.45775831769E+03  0.57713870010E+03  0.12699999809E+01 0. -1.
</event>
<event>
 5   0  0.6248886E-02  0.6914188E+03  0.7818609E-02  0.9732021E-01
        2   -1    0    0  501    0  0.00000000000E+00  0.00000000000E+00  0.12591028203E+04  0.12591028203E+04  0.25500000920E-02 0.  1.
       -2   -1    0    0    0  501  0.00000000000E+00  0.00000000000E+00 -0.94920765964E+02  0.94920765998E+02  0.25500000920E-02 0. -1.
    10030    2    1    2    0    0  0.00000000000E+00  0.00000000000E+00  0.11641820543E+04  0.13540235863E+04  0.69141884311E+03 0.  0.
        3    1    3    3  502    0  0.31297814979E+02  0.21344228628E+01  0.12563097086E+04  0.12567013182E+04  0.10100000352E+00 0.  1.
       -3    1    3    3    0  502 -0.31297814979E+02 -0.21344228628E+01 -0.92127654285E+02  0.97322268102E+02  0.10100000352E+00 0. -1.
</event>
<event>
 5   0  0.2439375E-02  0.7068521E+03  0.7818609E-02  0.9705585E-01
        3   -1    0    0  501    0  0.00000000000E+00  0.00000000000E+00  0.21032904370E+03  0.21032906796E+03  0.10100000352E+00 0. -1.
       -3   -1    0    0    0  501  0.00000000000E+00  0.00000000000E+00 -0.59387880356E+03  0.59387881215E+03  0.10100000352E+00 0.  1.
    10030    2    1    2    0    0  0.00000000000E+00  0.00000000000E+00 -0.38354975986E+03  0.80420788011E+03  0.70685210344E+03 0.  0.
        1    1    3    3  502    0 -0.29651993853E+03 -0.10665999102E+03 -0.97039071929E+01  0.31526908106E+03  0.50400001928E-02 0. -1.
       -1    1    3    3    0  502  0.29651993853E+03  0.10665999102E+03 -0.37384585267E+03  0.48893879905E+03  0.50400001928E-02 0.  1.
</event>
<event>
 5   0  0.5987810E-02  0.7031749E+03  0.7818609E-02  0.9711818E-01
        2   -1    0    0  501    0  0.00000000000E+00  0.00000000000E+00  0.22383827784E+03  0.22383827786E+03  0.25500000920E-02 0. -1.
       -2   -1    0    0    0  501  0.00000000000E+00  0.00000000000E+00 -0.55224568105E+03  0.55224568106E+03  0.25500000920E-02 0.  1.
    10030    2    1    2    0    0  0.00000000000E+00  0.00000000000E+00 -0.32840740321E+03  0.77608395892E+03  0.70317486361E+03 0.  0.
        5    1    3    3  502    0  0.35012747532E+03  0.12728433569E+02 -0.13220880630E+03  0.37450303131E+03  0.46999998093E+01 0. -1.
       -5    1    3    3    0  502 -0.35012747532E+03 -0.12728433569E+02 -0.19619859691E+03  0.40158092761E+03  0.46999998093E+01 0.  1.
</event>
<event>
 5   0  0.6248886E-02  0.7091834E+03  0.7818609E-02  0.9701655E-01
       -2   -1    0    0    0  501  0.00000000000E+00  0.00000000000E+00  0.13730615626E+03  0.13730615628E+03  0.25500000920E-02 0.  1.
        2   -1    0    0  501    0  0.00000000000E+00  0.00000000000E+00 -0.91572920900E+03  0.91572920900E+03  0.25500000920E-02 0. -1.
    10030    2    1    2    0    0  0.00000000000E+00  0.00000000000E+00 -0.77842305274E+03  0.10530353653E+04  0.70918335535E+03 0.  0.
        3    1    3    3  502    0  0.25609880326E+03 -0.97478740480E+02 -0.72337527810E+03  0.77353765587E+03  0.10100000352E+00 0. -1.
       -3    1    3    3    0  502 -0.25609880326E+03  0.97478740480E+02 -0.55047774633E+02  0.27949770942E+03  0.10100000352E+00 0.  1.
</event>
<event>
 5   0  0.3717372E-02  0.6809633E+03  0.7818609E-02  0.9750353E-01
        1   -1    0    0  501    0  0.00000000000E+00  0.00000000000E+00  0.12116488817E+03  0.12116488828E+03  0.50400001928E-02 0. -1.
       -1   -1    0    0    0  501  0.00000000000E+00  0.00000000000E+00 -0.95677672542E+03  0.95677672543E+03  0.50400001928E-02 0.  1.
    10030    2    1    2    0    0  0.00000000000E+00  0.00000000000E+00 -0.83561183725E+03  0.10779416137E+04  0.68096327363E+03 0.  0.
        3    1    3    3  502    0  0.45832379008E+02 -0.19755584160E+03  0.15125309891E+02  0.20336593303E+03  0.10100000352E+00 0. -1.
       -3    1    3    3    0  502 -0.45832379008E+02  0.19755584160E+03 -0.85073714714E+03  0.87457568068E+03  0.10100000352E+00 0.  1.
</event>
<event>
 5   0  0.5987810E-02  0.7129108E+03  0.7818609E-02  0.9695404E-01
       -2   -1    0    0    0  501  0.00000000000E+00  0.00000000000E+00  0.52509516638E+03  0.52509516638E+03  0.25500000920E-02 0.  1.
        2   -1    0    0  501    0  0.00000000000E+00  0.00000000000E+00 -0.24197606636E+03  0.24197606637E+03  0.25500000920E-02 0. -1.
    10030    2    1    2    0    0  0.00000000000E+00  0.00000000000E+00  0.28311910002E+03  0.76707123276E+03  0.71291082986E+03 0.  0.
        5    1    3    3  502    0  0.23968951141E+02  0.25138259121E+03 -0.12908647259E+03  0.28364260114E+03  0.46999998093E+01 0. -1.
       -5    1    3    3    0  502 -0.23968951141E+02 -0.25138259121E+03  0.41220557260E+03  0.48342863161E+03  0.46999998093E+01 0.  1.
</event>
<event>
 5   0  0.5899787E-02  0.6350577E+03  0.7818609E-02  0.9835228E-01
       -2   -1    0    0    0  501  0.00000000000E+00  0.00000000000E+00  0.18825089251E+03  0.18825089252E+03  0.25500000920E-02 0. -1.
        2   -1    0    0  501    0  0.00000000000E+00  0.00000000000E+00 -0.53558619240E+03  0.53558619240E+03  0.25500000920E-02 0.  1.
    10030    2    1    2    0    0  0.00000000000E+00  0.00000000000E+00 -0.34733529989E+03  0.72383708492E+03  0.63505772569E+03 0.  0.
        2    1    3    3  502    0 -0.73287585847E+02  0.41579622156E+02  0.17527537757E+03  0.19447723056E+03  0.25500000920E-02 0. -1.
       -2    1    3    3    0  502  0.73287585847E+02 -0.41579622156E+02 -0.52261067746E+03  0.52935985437E+03  0.25500000920E-02 0.  1.
</event>
<event>
 5   0  0.5987810E-02  0.6854595E+03  0.7818609E-02  0.9742427E-01
        2   -1    0    0  501    0  0.00000000000E+00  0.00000000000E+00  0.11289206182E+04  0.11289206182E+04  0.25500000920E-02 0.  1.
       -2   -1    0    0    0  501  0.00000000000E+00  0.00000000000E+00 -0.10404953790E+03  0.10404953793E+03  0.25500000920E-02 0. -1.
    10030    2    1    2    0    0  0.00000000000E+00  0.00000000000E+00  0.10248710803E+04  0.12329701561E+04  0.68545946245E+03 0.  0.
        5    1    3    3  502    0  0.20959591942E+02  0.84125006869E+02  0.11088106839E+04  0.11122048120E+04  0.46999998093E+01 0.  1.
       -5    1    3    3    0  502 -0.20959591942E+02 -0.84125006869E+02 -0.83939603599E+02  0.12076534406E+03  0.46999998093E+01 0. -1.
</event>
<event>
 5   0  0.3439015E-02  0.6493813E+03  0.7818609E-02  0.9807941E-01
       -1   -1    0    0    0  501  0.00000000000E+00  0.00000000000E+00  0.79771339642E+02  0.79771339801E+02  0.50400001928E-02 0.  1.
        1   -1    0    0  501    0  0.00000000000E+00  0.00000000000E+00 -0.13215778292E+04  0.13215778292E+04  0.50400001928E-02 0. -1.
    10030    2    1    2    0    0  0.00000000000E+00  0.00000000000E+00 -0.12418064895E+04  0.14013491690E+04  0.64938134864E+03 0.  0.
        1    1    3    3  502    0 -0.65557343522E+02 -0.12830576122E+03  0.70042768188E+01  0.14425392047E+03  0.50400001928E-02 0.  1.
       -1    1    3    3    0  502  0.65557343522E+02  0.12830576122E+03 -0.12488107663E+04  0.12570952485E+04  0.50400001928E-02 0. -1.
</event>
<event>
 5   0  0.2439375E-02  0.7190852E+03  0.7818609E-02  0.9685139E-01
        3   -1    0    0  501    0  0.00000000000E+00  0.00000000000E+00  0.37007499443E+03  0.37007500821E+03  0.10100000352E+00 0. -1.
       -3   -1    0    0    0  501  0.00000000000E+00  0.00000000000E+00 -0.34930992675E+03  0.34930994135E+03  0.10100000352E+00 0.  1.
    10030    2    1    2    0    0  0.00000000000E+00  0.00000000000E+00  0.20765067679E+02  0.71938494956E+03  0.71908519497E+03 0.  0.
        3    1    3    3  502    0  0.17742686115E+03 -0.59055016197E+02  0.31759861595E+03  0.36856027601E+03  0.10100000352E+00 0. -1.
       -3    1    3    3    0  502 -0.17742686115E+03  0.59055016197E+02 -0.29683354827E+03  0.35082467356E+03  0.10100000352E+00 0.  1.
</event>
<event>
 5   0  0.5899787E-02  0.6889696E+03  0.7818609E-02  0.9736284E-01
        2   -1    0    0  501    0  0.00000000000E+00  0.00000000000E+00  0.12821957809E+04  0.12821957809E+04  0.25500000920E-02 0. -1.
       -2   -1    0    0    0  501  0.00000000000E+00  0.00000000000E+00 -0.92552005119E+02  0.92552005154E+02  0.25500000920E-02 0.  1.
    10030    2    1    2    0    0  0.00000000000E+00  0.00000000000E+00  0.11896437758E+04  0.13747477860E+04  0.68896963795E+03 0.  0.
        2    1    3    3  502    0 -0.93338867776E+02 -0.87833227326E+02  0.12328497945E+04  0.12394940241E+04  0.25500000920E-02 0. -1.
       -2    1    3    3    0  502  0.93338867776E+02  0.87833227326E+02 -0.43206018701E+02  0.13525376194E+03  0.25500000920E-02 0.  1.
</event>
<event>
 5   0  0.3601475E-02  0.6937187E+03  0.7818609E-02  0.9728035E-01
       -1   -1    0    0    0  501  0.00000000000E+00  0.00000000000E+00  0.41474442216E+03  0.41474442219E+03  0.50400001928E-02 0.  1.
        1   -1    0    0  501    0  0.00000000000E+00  0.00000000000E+00 -0.29008567608E+03  0.29008567612E+03  0.50400001928E-02 0. -1.
    10030    2    1    2    0    0  0.00000000000E+00  0.00000000000E+00  0.12465874608E+03  0.70483009831E+03  0.69371872147E+03 0.  0.
        5    1    3    3  502    0  0.73226401940E+02 -0.40979231682E+02  0.40424279442E+03  0.41288706713E+03  0.46999998093E+01 0.  1.
       -5    1    3    3    0  502 -0.73226401940E+02  0.40979231682E+02 -0.27958404834E+03  0.29194303118E+03  0.46999998093E+01 0. -1.
</event>
<event>
 5   0  0.3717372E-02  0.6961293E+03  0.7818609E-02  0.9723875E-01
        1   -1    0    0  501    0  0.00000000000E+00  0.00000000000E+00  0.14000971393E+04  0.14000971393E+04  0.50400001928E-02 0. -1.
       -1   -1    0    0    0  501  0.00000000000E+00  0.00000000000E+00 -0.86528989832E+02  0.86528989979E+02  0.50400001928E-02 0.  1.
    10030    2    1    2    0    0  0.00000000000E+00  0.00000000000E+00  0.13135681494E+04  0.14866261292E+04  0.69612927318E+03 0.  0.
        3    1    3    3  502    0  0.11567818402E+03  0.93373240462E+02 -0.15320515734E+02  0.14944809365E+03  0.10100000352E+00 0.  1.
       -3    1    3    3    0  502 -0.11567818402E+03 -0.93373240462E+02  0.13288886652E+04  0.13371780356E+04  0.10100000352E+00 0. -1.
</event>
<event>
 5   0  0.6167756E-02  0.6883579E+03  0.7818609E-02  0.9737351E-01
       -2   -1    0    0    0  501  0.00000000000E+00  0.00000000000E+00  0.19604415044E+03  0.19604415046E+03  0.25500000920E-02 0.  1.
        2   -1    0    0  501    0  0.00000000000E+00  0.00000000000E+00 -0.60424728912E+03  0.60424728913E+03  0.25500000920E-02 0. -1.
    10030    2    1    2    0    0  0.00000000000E+00  0.00000000000E+00 -0.40820313868E+03  0.80029143959E+03  0.68835789082E+03 0.  0.
        4    1    3    3  502    0 -0.20721492215E+03 -0.21231102892E+03 -0.40695456592E+03  0.50361456351E+03  0.12699999809E+01 0.  1.
       -4    1    3    3    0  502  0.20721492215E+03  0.21231102892E+03 -0.12485727583E+01  0.29667687607E+03  0.12699999809E+01 0. -1.
</event>
<event>
 5   0  0.3717372E-02  0.7161749E+03  0.7818609E-02  0.9689964E-01
       -1   -1    0    0    0  501  0.00000000000E+00  0.00000000000E+00  0.87984131305E+02  0.87984131450E+02  0.50400001928E-02 0.  1.
        1   -1    0    0  501    0  0.00000000000E+00  0.00000000000E+00 -0.14573835790E+04  0.14573835791E+04  0.50400001928E-02 0. -1.
    10030    2    1    2    0    0  0.00000000000E+00  0.00000000000E+00 -0.13693994477E+04  0.15453677105E+04  0.71617491802E+03 0.  0.
        3    1    3    3  502    0 -0.68684106350E+02  0.34208510840E+02 -0.14394355982E+04  0.14414793028E+04  0.10100000352E+00 0. -1.
       -3    1    3    3    0  502  0.68684106350E+02 -0.34208510840E+02  0.70036150503E+02  0.10388840771E+03  0.10100000352E+00 0.  1.
</event>
<event>
 5   0  0.3749730E-02  0.6805377E+03  0.7818609E-02  0.9751107E-01
       -1   -1    0    0    0  501  0.00000000000E+00  0.00000000000E+00  0.83899140022E+02  0.83899140173E+02  0.50400001928E-02 0. -1.
        1   -1    0    0  501    0  0.00000000000E+00  0.00000000000E+00 -0.13800247661E+04  0.13800247661E+04  0.50400001928E-02 0.  1.
    10030    2    1    2    0    0  0.00000000000E+00  0.00000000000E+00 -0.12961256260E+04  0.14639239062E+04  0.68053770270E+03 0.  0.
        4    1    3    3  502    0  0.22293698238E+03  0.22897045283E+03 -0.39671277430E+03  0.50942222623E+03  0.12699999809E+01 0. -1.
       -4    1    3    3    0  502 -0.22293698238E+03 -0.22897045283E+03 -0.89941285173E+03  0.95450168000E+03  0.12699999809E+01 0.  1.
</event>
<event>
 5   0  0.3717372E-02  0.6889206E+03  0.7818609E-02  0.9736369E-01
        1   -1    0    0  501    0  0.00000000000E+00  0.00000000000E+00  0.15454661501E+03  0.15454661509E+03  0.50400001928E-02 0.  1.
       -1   -1    0    0    0  501  0.00000000000E+00  0.00000000000E+00 -0.76774825619E+03  0.76774825621E+03  0.50400001928E-02 0. -1.
    10030    2    1    2    0    0  0.00000000000E+00  0.00000000000E+00 -0.61320164118E+03  0.92229487130E+03  0.68892058823E+03 0.  0.
        3    1    3    3  502    0 -0.34273709870E+03 -0.25452134431E+02 -0.33760544039E+03  0.48176132426E+03  0.10100000352E+00 0. -1.
       -3    1    3    3    0  502  0.34273709870E+03  0.25452134431E+02 -0.27559620079E+03  0.44053354704E+03  0.10100000352E+00 0.  1.
</event>
<event>
 5   0  0.5987810E-02  0.6784481E+03  0.7818609E-02  0.9754816E-01
       -2   -1    0    0    0  501  0.00000000000E+00  0.00000000000E+00  0.96423808023E+02  0.96423808057E+02  0.25500000920E-02 0. -1.
        2   -1    0    0  501    0  0.00000000000E+00  0.00000000000E+00 -0.11934082039E+04  0.11934082039E+04  0.25500000920E-02 0.  1.
    10030    2    1    2    0    0  0.00000000000E+00  0.00000000000E+00 -0.10969843959E+04  0.12898320120E+04  0.67844812204E+03 0.  0.
        5    1    3    3  502    0  0.17546362117E+03  0.28807109843E+03 -0.48051620306E+03  0.58710335675E+03  0.46999998093E+01 0.  1.
       -5    1    3    3    0  502 -0.17546362117E+03 -0.28807109843E+03 -0.61646819286E+03  0.70272865525E+03  0.46999998093E+01 0. -1.
</event>
<event>
 5   0  0.3749730E-02  0.6965981E+03  0.7818609E-02  0.9723068E-01
       -1   -1    0    0    0  501  0.00000000000E+00  0.00000000000E+00  0.43795370929E+03  0.43795370931E+03  0.50400001928E-02 0. -1.
        1   -1    0    0  501    0  0.00000000000E+00  0.00000000000E+00 -0.27699786283E+03  0.27699786288E+03  0.50400001928E-02 0.  1.
    10030    2    1    2    0    0  0.00000000000E+00  0.00000000000E+00  0.16095584645E+03  0.71495157219E+03  0.69659813815E+03 0.  0.
        4    1    3    3  502    0  0.18572063395E+03 -0.17105659256E+03  0.32671168761E+03  0.41290997984E+03  0.12699999809E+01 0. -1.
       -4    1    3    3    0  502 -0.18572063395E+03  0.17105659256E+03 -0.16575584116E+03  0.30204159235E+03  0.12699999809E+01 0.  1.
</event>
<event>
 5   0  0.3601475E-02  0.7800041E+03  0.7818609E-02  0.9589420E-01
       -1   -1    0    0    0  501  0.00000000000E+00  0.00000000000E+00  0.13303736676E+03  0.13303736685E+03  0.50400001928E-02 0.  1.
        1   -1    0    0  501    0  0.00000000000E+00  0.00000000000E+00 -0.11432997467E+04  0.11432997467E+04  0.50400001928E-02 0. -1.
    10030    2    1    2    0    0  0.00000000000E+00  0.00000000000E+00 -0.10102623799E+04  0.12763371135E+04  0.78000407123E+03 0.  0.
        5    1    3    3  502    0 -0.11144637634E+00 -0.36263796952E+03 -0.73983456254E+03  0.82394391756E+03  0.46999998093E+01 0. -1.
       -5    1    3    3    0  502  0.11144637634E+00  0.36263796952E+03 -0.27042781738E+03  0.45239319599E+03  0.46999998093E+01 0.  1.
</event>
<event>
 5   0  0.5987810E-02  0.6971389E+03  0.7818609E-02  0.9722138E-01
        2   -1    0    0  501    0  0.00000000000E+00  0.00000000000E+00  0.15942252441E+04  0.15942252441E+04  0.25500000920E-02 0. -1.
       -2   -1    0    0    0  501  0.00000000000E+00  0.00000000000E+00 -0.76212976524E+02  0.76212976566E+02  0.25500000920E-02 0.  1.
    10030    2    1    2    0    0  0.00000000000E+00  0.00000000000E+00  0.15180122676E+04  0.16704382207E+04  0.69713887036E+03 0.  0.
        5    1    3    3  502    0  0.28998216075E+03  0.19241070614E+03  0.80491119504E+03  0.87693537692E+03  0.46999998093E+01 0. -1.
       -5    1    3    3    0  502 -0.28998216075E+03 -0.19241070614E+03  0.71310107255E+03  0.79350284376E+03  0.46999998093E+01 0.  1.
</event>
<event>
 5   0  0.3601475E-02  0.6898453E+03  0.7818609E-02  0.9734757E-01
        1   -1    0    0  501    0  0.00000000000E+00  0.00000000000E+00  0.18807556649E+04  0.18807556649E+04  0.50400001928E-02 0.  1.
       -1   -1    0    0    0  501  0.00000000000E+00  0.00000000000E+00 -0.63257349176E+02  0.63257349377E+02  0.50400001928E-02 0. -1.
    10030    2    1    2    0    0  0.00000000000E+00  0.00000000000E+00  0.18174983158E+04  0.19440130143E+04  0.68984525225E+03 0.  0.
        5    1    3    3  502    0  0.10193402200E+03  0.32935469748E+03  0.93464854812E+03  0.99622038731E+03  0.46999998093E+01 0.  1.
       -5    1    3    3    0  502 -0.10193402200E+03 -0.32935469748E+03  0.88284976764E+03  0.94779262700E+03  0.46999998093E+01 0. -1.
</event>
<event>
 5   0  0.6167756E-02  0.6927617E+03  0.7818609E-02  0.9729691E-01
       -2   -1    0    0    0  501  0.00000000000E+00  0.00000000000E+00  0.19794648456E+03  0.19794648457E+03  0.25500000920E-02 0. -1.
        2   -1    0    0  501    0  0.00000000000E+00  0.00000000000E+00 -0.60612195277E+03  0.60612195278E+03  0.25500000920E-02 0.  1.
    10030    2    1    2    0    0  0.00000000000E+00  0.00000000000E+00 -0.40817546822E+03  0.80406843735E+03  0.69276174771E+03 0.  0.
        4    1    3    3  502    0  0.31617588128E+03  0.70083976081E+02 -0.34670933183E+03  0.47443432136E+03  0.12699999809E+01 0.  1.
       -4    1    3    3    0  502 -0.31617588128E+03 -0.70083976081E+02 -0.61466136390E+02  0.32963411600E+03  0.12699999809E+01 0. -1.
</event>
<event>
 5   0  0.3755872E-02  0.6838803E+03  0.7818609E-02  0.9745203E-01
        1   -1    0    0  501    0  0.00000000000E+00  0.00000000000E+00  0.81742829898E+03  0.81742829900E+03  0.50400001928E-02 0. -1.
       -1   -1    0    0    0  501  0.00000000000E+00  0.00000000000E+00 -0.14303770581E+03  0.14303770590E+03  0.50400001928E-02 0.  1.
    10030    2    1    2    0    0  0.00000000000E+00  0.00000000000E+00  0.67439059317E+03  0.96046600490E+03  0.68388030707E+03 0.  0.
        2    1    3    3  502    0  0.32497394730E+03 -0.61105905384E+00  0.18780511515E+03  0.37533878177E+03  0.25500000920E-02 0. -1.
       -2    1    3    3    0  502 -0.32497394730E+03  0.61105905384E+00  0.48658547802E+03  0.58512722313E+03  0.25500000920E-02 0.  1.
</event>
<event>
 5   0  0.3755872E-02  0.6945681E+03  0.7818609E-02  0.9726567E-01
        1   -1    0    0  501    0  0.00000000000E+00  0.00000000000E+00  0.86059233086E+03  0.86059233087E+03  0.50400001928E-02 0. -1.
       -1   -1    0    0    0  501  0.00000000000E+00  0.00000000000E+00 -0.14014324400E+03  0.14014324409E+03  0.50400001928E-02 0.  1.
    10030    2    1    2    0    0  0.00000000000E+00  0.00000000000E+00  0.72044908686E+03  0.10007355750E+04  0.69456807028E+03 0.  0.
        2    1    3    3  502    0 -0.16623968624E+03  0.20476560857E+03  0.68573633143E+03  0.73471008158E+03  0.25500000920E-02 0. -1.
       -2    1    3    3    0  502  0.16623968624E+03 -0.20476560857E+03  0.34712755432E+02  0.26602549338E+03  0.25500000920E-02 0.  1.
</event>
<event>
 5   0  0.3439015E-02  0.6840563E+03  0.7818609E-02  0.9744893E-01
        1   -1    0    0  501    0  0.00000000000E+00  0.00000000000E+00  0.49201849690E+03  0.49201849693E+03  0.50400001928E-02 0.  1.
       -1   -1    0    0    0  501  0.00000000000E+00  0.00000000000E+00 -0.23776187094E+03  0.23776187099E+03  0.50400001928E-02 0. -1.
    10030    2    1    2    0    0  0.00000000000E+00  0.00000000000E+00  0.25425662597E+03  0.72978036792E+03  0.68405625028E+03 0.  0.
        1    1    3    3  502    0 -0.38370120014E+02 -0.75957681598E+01 -0.23536791514E+03  0.23859592894E+03  0.50400001928E-02 0. -1.
       -1    1    3    3    0  502  0.38370120014E+02  0.75957681598E+01  0.48962454111E+03  0.49118443897E+03  0.50400001928E-02 0.  1.
</event>
<event>
 5   0  0.6248886E-02  0.5273987E+03  0.7818609E-02  0.1006865E+00
       -2   -1    0    0    0  501  0.00000000000E+00  0.00000000000E+00  0.61537656874E+02  0.61537656927E+02  0.25500000920E-02 0.  1.
        2   -1    0    0  501    0  0.00000000000E+00  0.00000000000E+00 -0.11299965051E+04  0.11299965051E+04  0.25500000920E-02 0. -1.
    10030    2    1    2    0    0  0.00000000000E+00  0.00000000000E+00 -0.10684588482E+04  0.11915341620E+04  0.52739866224E+03 0.  0.
        3    1    3    3  502    0  0.15491037146E+03  0.41858378776E+02 -0.61464845674E+02  0.17183505031E+03  0.10100000352E+00 0.  1.
       -3    1    3    3    0  502 -0.15491037146E+03 -0.41858378776E+02 -0.10069940026E+04  0.10196991117E+04  0.10100000352E+00 0. -1.
</event>
<event>
 5   0  0.3755872E-02  0.7088525E+03  0.7818609E-02  0.9702212E-01
        1   -1    0    0  501    0  0.00000000000E+00  0.00000000000E+00  0.41058957997E+03  0.41058958000E+03  0.50400001928E-02 0.  1.
       -1   -1    0    0    0  501  0.00000000000E+00  0.00000000000E+00 -0.30594533266E+03  0.30594533270E+03  0.50400001928E-02 0. -1.
    10030    2    1    2    0    0  0.00000000000E+00  0.00000000000E+00  0.10464424731E+03  0.71653491270E+03  0.70885249708E+03 0.  0.
        2    1    3    3  502    0 -0.26766276943E+03  0.17683709028E+03 -0.99986855664E+02  0.33602393658E+03  0.25500000920E-02 0. -1.
       -2    1    3    3    0  502  0.26766276943E+03 -0.17683709028E+03  0.20463110297E+03  0.38051097612E+03  0.25500000920E-02 0.  1.
</event>
<event>
 5   0  0.2439375E-02  0.6722324E+03  0.7818609E-02  0.9765933E-01
       -3   -1    0    0    0  501  0.00000000000E+00  0.00000000000E+00  0.53175968627E+02  0.53176064544E+02  0.10100000352E+00 0. -1.
        3   -1    0    0  501    0  0.00000000000E+00  0.00000000000E+00 -0.21245310343E+04  0.21245310367E+04  0.10100000352E+00 0.  1.
    10030    2    1    2    0    0  0.00000000000E+00  0.00000000000E+00 -0.20713550657E+04  0.21777071012E+04  0.67223240827E+03 0.  0.
        2    1    3    3  502    0 -0.60282666887E+02  0.46341790369E+02 -0.20963036199E+04  0.20976821562E+04  0.25500000920E-02 0.  1.
       -2    1    3    3    0  502  0.60282666887E+02 -0.46341790369E+02  0.24948554273E+02  0.80024945038E+02  0.25500000920E-02 0. -1.
</event>
<event>
 5   0  0.3755872E-02  0.6942946E+03  0.7818609E-02  0.9727039E-01
       -1   -1    0    0    0  501  0.00000000000E+00  0.00000000000E+00  0.37465324348E+03  0.37465324351E+03  0.50400001928E-02 0. -1.
        1   -1    0    0  501    0  0.00000000000E+00  0.00000000000E+00 -0.32166079473E+03  0.32166079477E+03  0.50400001928E-02 0.  1.
    10030    2    1    2    0    0  0.00000000000E+00  0.00000000000E+00  0.52992448746E+02  0.69631403828E+03  0.69429463506E+03 0.  0.
        2    1    3    3  502    0 -0.61989278764E+02 -0.33249804620E+03 -0.51920956414E+02  0.34218913941E+03  0.25500000920E-02 0. -1.
       -2    1    3    3    0  502  0.61989278764E+02  0.33249804620E+03  0.10491340516E+03  0.35412489887E+03  0.25500000920E-02 0.  1.
</event>
<event>
 5   0  0.5987810E-02  0.7029991E+03  0.7818609E-02  0.9712117E-01
        2   -1    0    0  501    0  0.00000000000E+00  0.00000000000E+00  0.15190885031E+04  0.15190885031E+04  0.25500000920E-02 0.  1.
       -2   -1    0    0    0  501  0.00000000000E+00  0.00000000000E+00 -0.81332936314E+02  0.81332936354E+02  0.25500000920E-02 0. -1.
    10030    2    1    2    0    0  0.00000000000E+00  0.00000000000E+00  0.14377555668E+04  0.16004214395E+04  0.70299908539E+03 0.  0.
        5    1    3    3  502    0  0.12437298331E+03 -0.15243706720E+03  0.55838387926E+02  0.20456224969E+03  0.46999998093E+01 0. -1.
       -5    1    3    3    0  502 -0.12437298331E+03  0.15243706720E+03  0.13819171789E+04  0.13958591898E+04  0.46999998093E+01 0.  1.
</event>
<event>
 5   0  0.6167756E-02  0.6952462E+03  0.7818609E-02  0.9725397E-01
        2   -1    0    0  501    0  0.00000000000E+00  0.00000000000E+00  0.72228132203E+03  0.72228132204E+03  0.25500000920E-02 0. -1.
       -2   -1    0    0    0  501  0.00000000000E+00  0.00000000000E+00 -0.16730573670E+03  0.16730573672E+03  0.25500000920E-02 0.  1.
    10030    2    1    2    0    0  0.00000000000E+00  0.00000000000E+00  0.55497558533E+03  0.88958705876E+03  0.69524616848E+03 0.  0.
        4    1    3    3  502    0  0.11182909297E+03  0.21792635227E+03 -0.38124255107E+02  0.24789657677E+03  0.12699999809E+01 0.  1.
       -4    1    3    3    0  502 -0.11182909297E+03 -0.21792635227E+03  0.59309984044E+03  0.64169048199E+03  0.12699999809E+01 0. -1.
</event>
<event>
 5   0  0.3755872E-02  0.7065847E+03  0.7818609E-02  0.9706037E-01
       -1   -1    0    0    0  501  0.00000000000E+00  0.00000000000E+00  0.45617205936E+03  0.45617205939E+03  0.50400001928E-02 0. -1.
        1   -1    0    0  501    0  0.00000000000E+00  0.00000000000E+00 -0.27361495033E+03  0.27361495038E+03  0.50400001928E-02 0.  1.
    10030    2    1    2    0    0  0.00000000000E+00  0.00000000000E+00  0.18255710903E+03  0.72978700977E+03  0.70658473063E+03 0.  0.
        2    1    3    3  502    0  0.38468026957E+02 -0.39527282004E+02  0.45169775484E+03  0.45505280667E+03  0.25500000920E-02 0. -1.
       -2    1    3    3    0  502 -0.38468026957E+02  0.39527282004E+02 -0.26914064581E+03  0.27473420310E+03  0.25500000920E-02 0.  1.
</event>
<event>
 5   0  0.3439015E-02  0.7148376E+03  0.7818609E-02  0.9692189E-01
       -1   -1    0    0    0  501  0.00000000000E+00  0.00000000000E+00  0.68491452186E+02  0.68491452371E+02  0.50400001928E-02 0.  1.
        1   -1    0    0  501    0  0.00000000000E+00  0.00000000000E+00 -0.18651698872E+04  0.18651698872E+04  0.50400001928E-02 0. -1.
    10030    2    1    2    0    0  0.00000000000E+00  0.00000000000E+00 -0.17966784350E+04  0.19336613396E+04  0.71483758808E+03 0.  0.
        1    1    3    3  502    0 -0.31817409503E+03  0.15738296758E+03 -0.10113061637E+04  0.10717949010E+04  0.50400001928E-02 0. -1.
       -1    1    3    3    0  502  0.31817409503E+03 -0.15738296758E+03 -0.78537227138E+03  0.86186643856E+03  0.50400001928E-02 0.  1.
</event>
<event>
 5   0  0.3717372E-02  0.6663051E+03  0.7818609E-02  0.9776656E-01
       -1   -1    0    0    0  501  0.00000000000E+00  0.00000000000E+00  0.84449438356E+02  0.84449438506E+02  0.50400001928E-02 0. -1.
        1   -1    0    0  501    0  0.00000000000E+00  0.00000000000E+00 -0.13142849161E+04  0.13142849161E+04  0.50400001928E-02 0.  1.
    10030    2    1    2    0    0  0.00000000000E+00  0.00000000000E+00 -0.12298354778E+04  0.13987343546E+04  0.66630510464E+03 0.  0.
        3    1    3    3  502    0  0.29893038382E+03  0.14084783827E+03 -0.70381070226E+03  0.77752620710E+03  0.10100000352E+00 0.  1.
       -3    1    3    3    0  502 -0.29893038382E+03 -0.14084783827E+03 -0.52602477551E+03  0.62120814754E+03  0.10100000352E+00 0. -1.
</event>
<event>
 5   0  0.5899787E-02  0.7409274E+03  0.7818609E-02  0.9649692E-01
        2   -1    0    0  501    0  0.00000000000E+00  0.00000000000E+00  0.14359160525E+04  0.14359160525E+04  0.25500000920E-02 0.  1.
       -2   -1    0    0    0  501  0.00000000000E+00  0.00000000000E+00 -0.95578958485E+02  0.95578958519E+02  0.25500000920E-02 0. -1.
    10030    2    1    2    0    0  0.00000000000E+00  0.00000000000E+00  0.13403370940E+04  0.15314950110E+04  0.74092742099E+03 0.  0.
        2    1    3    3  502    0  0.20544461560E+03 -0.20097270186E+03  0.11533591579E+04  0.11886273024E+04  0.25500000920E-02 0.  1.
       -2    1    3    3    0  502 -0.20544461560E+03  0.20097270186E+03  0.18697793606E+03  0.34286770853E+03  0.25500000920E-02 0. -1.
</event>
<event>
 5   0  0.3439015E-02  0.6966900E+03  0.7818609E-02  0.9722910E-01
       -1   -1    0    0    0  501  0.00000000000E+00  0.00000000000E+00  0.12041666488E+03  0.12041666499E+03  0.50400001928E-02 0. -1.
        1   -1    0    0  501    0  0.00000000000E+00  0.00000000000E+00 -0.10077029629E+04  0.10077029629E+04  0.50400001928E-02 0.  1.
    10030    2    1    2    0    0  0.00000000000E+00  0.00000000000E+00 -0.88728629800E+03  0.11281196279E+04  0.69668997424E+03 0.  0.
        1    1    3    3  502    0 -0.68946448685E+02  0.18462106273E+03 -0.90875512250E+03  0.92987871375E+03  0.50400001928E-02 0.  1.
       -1    1    3    3    0  502  0.68946448685E+02 -0.18462106273E+03  0.21468824497E+02  0.19824091414E+03  0.50400001928E-02 0. -1.
</event>
<event>
 5   0  0.5987810E-02  0.7205453E+03  0.7818609E-02  0.9682728E-01
        2   -1    0    0  501    0  0.00000000000E+00  0.00000000000E+00  0.98966993731E+03  0.98966993732E+03  0.25500000920E-02 0. -1.
       -2   -1    0    0    0  501  0.00000000000E+00  0.00000000000E+00 -0.13115119848E+03  0.13115119851E+03  0.25500000920E-02 0.  1.
    10030    2    1    2    0    0  0.00000000000E+00  0.00000000000E+00  0.85851873883E+03  0.11208211358E+04  0.72054534457E+03 0.  0.
        5    1    3    3  502    0  0.16492022900E+03 -0.12693858039E+03  0.88665098028E+03  0.91076019673E+03  0.46999998093E+01 0. -1.
       -5    1    3    3    0  502 -0.16492022900E+03  0.12693858039E+03 -0.28132241448E+02  0.21006093909E+03  0.46999998093E+01 0.  1.
</event>
<event>
 5   0  0.3439015E-02  0.7415835E+03  0.7818609E-02  0.9648648E-01
        1   -1    0    0  501    0  0.00000000000E+00  0.00000000000E+00  0.24376092311E+04  0.24376092311E+04  0.50400001928E-02 0. -1.
       -1   -1    0    0    0  501  0.00000000000E+00  0.00000000000E+00 -0.56402194799E+02  0.56402195024E+02  0.50400001928E-02 0.  1.
    10030    2    1    2    0    0  0.00000000000E+00  0.00000000000E+00  0.23812070363E+04  0.24940114261E+04  0.74158347064E+03 0.  0.
        1    1    3    3  502    0 -0.18113233393E+03  0.10819024626E+03  0.22160560387E+04  0.22260769121E+04  0.50400001928E-02 0. -1.
       -1    1    3    3    0  502  0.18113233393E+03 -0.10819024626E+03  0.16515099757E+03  0.26793451403E+03  0.50400001928E-02 0.  1.
</event>
<event>
 5   0  0.5899787E-02  0.7027409E+03  0.7818609E-02  0.9712556E-01
       -2   -1    0    0    0  501  0.00000000000E+00  0.00000000000E+00  0.90278043063E+03  0.90278043063E+03  0.25500000920E-02 0. -1.
        2   -1    0    0  501    0  0.00000000000E+00  0.00000000000E+00 -0.13675662248E+03  0.13675662250E+03  0.25500000920E-02 0.  1.
    10030    2    1    2    0    0  0.00000000000E+00  0.00000000000E+00  0.76602380815E+03  0.10395370531E+04  0.70274092678E+03 0.  0.
        2    1    3    3  502    0  0.11950764080E+03 -0.33012507607E+03  0.40375114352E+03  0.53505105173E+03  0.25500000920E-02 0. -1.
       -2    1    3    3    0  502 -0.11950764080E+03  0.33012507607E+03  0.36227266464E+03  0.50448600140E+03  0.25500000920E-02 0.  1.
</event>
<event>
 5   0  0.3601475E-02  0.6972961E+03  0.7818609E-02  0.9721867E-01
        1   -1    0    0  501    0  0.00000000000E+00  0.00000000000E+00  0.65694703010E+03  0.65694703012E+03  0.50400001928E-02 0. -1.
       -1   -1    0    0    0  501  0.00000000000E+00  0.00000000000E+00 -0.18503083883E+03  0.18503083890E+03  0.50400001928E-02 0.  1.
    10030    2    1    2    0    0  0.00000000000E+00  0.00000000000E+00  0.47191619127E+03  0.84197786903E+03  0.69729609231E+03 0.  0.
        5    1    3    3  502    0 -0.15588731549E+03  0.19799762099E+03 -0.54917776577E+02  0.25795729343E+03  0.46999998093E+01 0.  1.
       -5    1    3    3    0  502  0.15588731549E+03 -0.19799762099E+03  0.52683396785E+03  0.58402057560E+03  0.46999998093E+01 0. -1.
</event>
<event>
 5   0  0.5987810E-02  0.7405722E+03  0.7818609E-02  0.9650258E-01
        2   -1    0    0  501    0  0.00000000000E+00  0.00000000000E+00  0.50747626667E+03  0.50747626668E+03  0.25500000920E-02 0. -1.
       -2   -1    0    0    0  501  0.00000000000E+00  0.00000000000E+00 -0.27018369730E+03  0.27018369732E+03  0.25500000920E-02 0.  1.
    10030    2    1    2    0    0  0.00000000000E+00  0.00000000000E+00  0.23729256937E+03  0.77765996399E+03  0.74057224909E+03 0.  0.
        5    1    3    3  502    0 -0.51990873809E+02  0.14988798181E+03  0.46994509065E+03  0.49602412872E+03  0.46999998093E+01 0. -1.
       -5    1    3    3    0  502  0.51990873809E+02 -0.14988798181E+03 -0.23265252128E+03  0.28163583527E+03  0.46999998093E+01 0.  1.
</event>
<event>
 5   0  0.3439015E-02  0.7081166E+03  0.7818609E-02  0.9703451E-01
        1   -1    0    0  501    0  0.00000000000E+00  0.00000000000E+00  0.25827800607E+03  0.25827800612E+03  0.50400001928E-02 0. -1.
       -1   -1    0    0    0  501  0.00000000000E+00  0.00000000000E+00 -0.48535799961E+03  0.48535799964E+03  0.50400001928E-02 0.  1.
    10030    2    1    2    0    0  0.00000000000E+00  0.00000000000E+00 -0.22707999354E+03  0.74363600576E+03  0.70811664689E+03 0.  0.
        1    1    3    3  502    0 -0.26814398445E+03 -0.13044267957E+03 -0.31401009366E+03  0.43303444204E+03  0.50400001928E-02 0.  1.
       -1    1    3    3    0  502  0.26814398445E+03  0.13044267957E+03  0.86930100125E+02  0.31060156372E+03  0.50400001928E-02 0. -1.
</event>
<event>
 5   0  0.3755872E-02  0.7076630E+03  0.7818609E-02  0.9704217E-01
       -1   -1    0    0    0  501  0.00000000000E+00  0.00000000000E+00  0.18148330778E+03  0.18148330785E+03  0.50400001928E-02 0. -1.
        1   -1    0    0  501    0  0.00000000000E+00  0.00000000000E+00 -0.68985250495E+03  0.68985250497E+03  0.50400001928E-02 0.  1.
    10030    2    1    2    0    0  0.00000000000E+00  0.00000000000E+00 -0.50836919717E+03  0.87133581282E+03  0.70766295514E+03 0.  0.
        2    1    3    3  502    0 -0.12125301989E+03  0.40475905019E+02 -0.66042726075E+03  0.67268474077E+03  0.25500000920E-02 0.  1.
       -2    1    3    3    0  502  0.12125301989E+03 -0.40475905019E+02  0.15205806358E+03  0.19865107205E+03  0.25500000920E-02 0. -1.
</event>
<event>
 5   0  0.6248886E-02  0.6953854E+03  0.7818609E-02  0.9725156E-01
        2   -1    0    0  501    0  0.00000000000E+00  0.00000000000E+00  0.16997241102E+04  0.16997241102E+04  0.25500000920E-02 0. -1.
       -2   -1    0    0    0  501  0.00000000000E+00  0.00000000000E+00 -0.71123440067E+02  0.71123440112E+02  0.25500000920E-02 0.  1.
    10030    2    1    2    0    0  0.00000000000E+00  0.00000000000E+00  0.16286006701E+04  0.17708475503E+04  0.69538543535E+03 0.  0.
        3    1    3    3  502    0 -0.26394126232E+03 -0.10752579805E+03  0.13214670120E+04  0.13518512719E+04  0.10100000352E+00 0. -1.
       -3    1    3    3    0  502  0.26394126232E+03  0.10752579805E+03  0.30713365810E+03  0.41899627843E+03  0.10100000352E+00 0.  1.
</event>
<event>
 5   0  0.3717372E-02  0.7115340E+03  0.7818609E-02  0.9697708E-01
        1   -1    0    0  501    0  0.00000000000E+00  0.00000000000E+00  0.87924997000E+03  0.87924997002E+03  0.50400001928E-02 0.  1.
       -1   -1    0    0    0  501  0.00000000000E+00  0.00000000000E+00 -0.14395242389E+03  0.14395242398E+03  0.50400001928E-02 0. -1.
    10030    2    1    2    0    0  0.00000000000E+00  0.00000000000E+00  0.73529754611E+03  0.10232023940E+04  0.71153401728E+03 0.  0.
        3    1    3    3  502    0 -0.14367698947E+03  0.26057293140E+03  0.64807738967E+03  0.71312386237E+03  0.10100000352E+00 0.  1.
       -3    1    3    3    0  502  0.14367698947E+03 -0.26057293140E+03  0.87220156445E+02  0.31007853162E+03  0.10100000352E+00 0. -1.
</event>
<event>
 5   0  0.6131198E-02  0.7064959E+03  0.7818609E-02  0.9706187E-01
        2   -1    0    0  501    0  0.00000000000E+00  0.00000000000E+00  0.13311994734E+04  0.13311994734E+04  0.25500000920E-02 0.  1.
       -2   -1    0    0    0  501  0.00000000000E+00  0.00000000000E+00 -0.93738099986E+02  0.93738100021E+02  0.25500000920E-02 0. -1.
    10030    2    1    2    0    0  0.00000000000E+00  0.00000000000E+00  0.12374613734E+04  0.14249375734E+04  0.70649588637E+03 0.  0.
        1    1    3    3  502    0  0.20779274023E+02  0.84966588639E+02  0.13090115801E+04  0.13119307970E+04  0.50400001928E-02 0.  1.
       -1    1    3    3    0  502 -0.20779274023E+02 -0.84966588639E+02 -0.71550206653E+02  0.11300677640E+03  0.50400001928E-02 0. -1.
</event>
<event>
 5   0  0.3439015E-02  0.6763180E+03  0.7818609E-02  0.9758611E-01
        1   -1    0    0  501    0  0.00000000000E+00  0.00000000000E+00  0.82584897349E+03  0.82584897351E+03  0.50400001928E-02 0.  1.
       -1   -1    0    0    0  501  0.00000000000E+00  0.00000000000E+00 -0.13846541200E+03  0.13846541210E+03  0.50400001928E-02 0. -1.
    10030    2    1    2    0    0  0.00000000000E+00  0.00000000000E+00  0.68738356149E+03  0.96431438560E+03  0.67631802702E+03 0.  0.
        1    1    3    3  502    0  0.24529976402E+03  0.13311802575E+03  0.71439914980E+02  0.28809034085E+03  0.50400001928E-02 0. -1.
       -1    1    3    3    0  502 -0.24529976402E+03 -0.13311802575E+03  0.61594364650E+03  0.67622404476E+03  0.50400001928E-02 0.  1.
</event>
<event>
 5   0  0.5899787E-02  0.5808866E+03  0.7818609E-02  0.9945873E-01
       -2   -1    0    0    0  501  0.00000000000E+00  0.00000000000E+00  0.14001719815E+03  0.14001719817E+03  0.25500000920E-02 0.  1.
        2   -1    0    0  501    0  0.00000000000E+00  0.00000000000E+00 -0.60247815950E+03  0.60247815951E+03  0.25500000920E-02 0. -1.
    10030    2    1    2    0    0  0.00000000000E+00  0.00000000000E+00 -0.46246096136E+03  0.74249535768E+03  0.58088657705E+03 0.  0.
        2    1    3    3  502    0  0.79747612386E+02  0.27048802512E+03 -0.32009921721E+03  0.42659929943E+03  0.25500000920E-02 0. -1.
       -2    1    3    3    0  502 -0.79747612386E+02 -0.27048802512E+03 -0.14236174415E+03  0.31589605825E+03  0.25500000920E-02 0.  1.
</event>
<event>
 5   0  0.3717372E-02  0.7591168E+03  0.7818609E-02  0.9621155E-01
       -1   -1    0    0    0  501  0.00000000000E+00  0.00000000000E+00  0.20974376182E+03  0.20974376188E+03  0.50400001928E-02 0.  1.
        1   -1    0    0  501    0  0.00000000000E+00  0.00000000000E+00 -0.68685996088E+03  0.68685996090E+03  0.50400001928E-02 0. -1.
    10030    2    1    2    0    0  0.00000000000E+00  0.00000000000E+00 -0.47711619906E+03  0.89660372277E+03  0.75911683441E+03 0.  0.
        3    1    3    3  502    0  0.28246344751E+03 -0.20960949262E+03 -0.40701846635E+03  0.53794589014E+03  0.10100000352E+00 0. -1.
       -3    1    3    3    0  502 -0.28246344751E+03  0.20960949262E+03 -0.70097732715E+02  0.35865783263E+03  0.10100000352E+00 0.  1.
</event>
<event>
 5   0  0.6167756E-02  0.7206305E+03  0.7818609E-02  0.9682587E-01
       -2   -1    0    0    0  501  0.00000000000E+00  0.00000000000E+00  0.11420029335E+03  0.11420029337E+03  0.25500000920E-02 0. -1.
        2   -1    0    0  501    0  0.00000000000E+00  0.00000000000E+00 -0.11368367755E+04  0.11368367755E+04  0.25500000920E-02 0.  1.
    10030    2    1    2    0    0  0.00000000000E+00  0.00000000000E+00 -0.10226364821E+04  0.12510370689E+04  0.72063053853E+03 0.  0.
        4    1    3    3  502    0 -0.15396926027E+03  0.29018938144E+03 -0.25435589496E+03  0.41546954690E+03  0.12699999809E+01 0. -1.
       -4    1    3    3    0  502  0.15396926027E+03 -0.29018938144E+03 -0.76828058717E+03  0.83556752195E+03  0.12699999809E+01 0.  1.
</event>
<event>
 5   0  0.6131198E-02  0.7075105E+03  0.7818609E-02  0.9704474E-01
       -2   -1    0    0    0  501  0.00000000000E+00  0.00000000000E+00  0.26023292979E+03  0.26023292980E+03  0.25500000920E-02 0.  1.
        2   -1    0    0  501    0  0.00000000000E+00  0.00000000000E+00 -0.48088754462E+03  0.48088754463E+03  0.25500000920E-02 0. -1.
    10030    2    1    2    0    0  0.00000000000E+00  0.00000000000E+00 -0.22065461483E+03  0.74112047443E+03  0.70751049361E+03 0.  0.
        1    1    3    3  502    0  0.73891137469E+02  0.33679024412E+03 -0.19317429666E+03  0.39522636254E+03  0.50400001928E-02 0. -1.
       -1    1    3    3    0  502 -0.73891137469E+02 -0.33679024412E+03 -0.27480318171E+02  0.34589411189E+03  0.50400001928E-02 0.  1.
</event>
<event>
 5   0  0.3717372E-02  0.7147884E+03  0.7818609E-02  0.9692271E-01
        1   -1    0    0  501    0  0.00000000000E+00  0.00000000000E+00  0.21217904271E+03  0.21217904277E+03  0.50400001928E-02 0. -1.
       -1   -1    0    0    0  501  0.00000000000E+00  0.00000000000E+00 -0.60199451496E+03  0.60199451498E+03  0.50400001928E-02 0.  1.
    10030    2    1    2    0    0  0.00000000000E+00  0.00000000000E+00 -0.38981547225E+03  0.81417355775E+03  0.71478841606E+03 0.  0.
        3    1    3    3  502    0  0.74779033953E+01  0.34441340915E+03 -0.86524529894E+02  0.35519434105E+03  0.10100000352E+00 0. -1.
       -3    1    3    3    0  502 -0.74779033953E+01 -0.34441340915E+03 -0.30329094235E+03  0.45897921669E+03  0.10100000352E+00 0.  1.
</event>
<event>
 5   0  0.3601475E-02  0.7065763E+03  0.7818609E-02  0.9706052E-01
       -1   -1    0    0    0  501  0.00000000000E+00  0.00000000000E+00  0.18436714322E+03  0.18436714329E+03  0.50400001928E-02 0.  1.
        1   -1    0    0  501    0  0.00000000000E+00  0.00000000000E+00 -0.67697802109E+03  0.67697802111E+03  0.50400001928E-02 0. -1.
    10030    2    1    2    0    0  0.00000000000E+00  0.00000000000E+00 -0.49261087787E+03  0.86134516440E+03  0.70657626286E+03 0.  0.
        5    1    3    3  502    0 -0.22856433621E+03  0.11926750684E+02 -0.57433047049E+03  0.61827298380E+03  0.46999998093E+01 0. -1.
       -5    1    3    3    0  502  0.22856433621E+03 -0.11926750684E+02  0.81719592611E+02  0.24307218060E+03  0.46999998093E+01 0.  1.
</event>
<event>
 5   0  0.3717372E-02  0.6979076E+03  0.7818609E-02  0.9720817E-01
        1   -1    0    0  501    0  0.00000000000E+00  0.00000000000E+00  0.27031428799E+03  0.27031428804E+03  0.50400001928E-02 0.  1.
       -1   -1    0    0    0  501  0.00000000000E+00  0.00000000000E+00 -0.45047107860E+03  0.45047107863E+03  0.50400001928E-02 0. -1.
    10030    2    1    2    0    0  0.00000000000E+00  0.00000000000E+00 -0.18015679061E+03  0.72078536667E+03  0.69790764117E+03 0.  0.
        3    1    3    3  502    0  0.34284428148E+03  0.64774117754E+02 -0.84340091745E+02  0.35895842232E+03  0.10100000352E+00 0. -1.
       -3    1    3    3    0  502 -0.34284428148E+03 -0.64774117754E+02 -0.95816698866E+02  0.36182694435E+03  0.10100000352E+00 0.  1.
</event>
<event>
 5   0  0.3601475E-02  0.6983439E+03  0.7818609E-02  0.9720068E-01
        1   -1    0    0  501    0  0.00000000000E+00  0.00000000000E+00  0.48077237323E+03  0.48077237326E+03  0.50400001928E-02 0.  1.
       -1   -1    0    0    0  501  0.00000000000E+00  0.00000000000E+00 -0.25359415767E+03  0.25359415772E+03  0.50400001928E-02 0. -1.
    10030    2    1    2    0    0  0.00000000000E+00  0.00000000000E+00  0.22717821556E+03  0.73436653098E+03  0.69834394119E+03 0.  0.
        5    1    3    3  502    0  0.15348136550E+01 -0.11812061791E+03 -0.23190690464E+03  0.26030316642E+03  0.46999998093E+01 0. -1.
       -5    1    3    3    0  502 -0.15348136550E+01  0.11812061791E+03  0.45908512021E+03  0.47406336456E+03  0.46999998093E+01 0.  1.
</event>
<event>
 5   0  0.5899787E-02  0.7071009E+03  0.7818609E-02  0.9705165E-01
       -2   -1    0    0    0  501  0.00000000000E+00  0.00000000000E+00  0.24653936105E+03  0.24653936107E+03  0.25500000920E-02 0.  1.
        2   -1    0    0  501    0  0.00000000000E+00  0.00000000000E+00 -0.50700996559E+03  0.50700996560E+03  0.25500000920E-02 0. -1.
    10030    2    1    2    0    0  0.00000000000E+00  0.00000000000E+00 -0.26047060454E+03  0.75354932667E+03  0.70710087816E+03 0.  0.
        2    1    3    3  502    0  0.11791807935E+03  0.25127205332E+03  0.10313734371E+03  0.29610746342E+03  0.25500000920E-02 0.  1.
       -2    1    3    3    0  502 -0.11791807935E+03 -0.25127205332E+03 -0.36360794825E+03  0.45744186325E+03  0.25500000920E-02 0. -1.
</event>
<event>
 5   0  0.3439015E-02  0.6914786E+03  0.7818609E-02  0.9731917E-01
        1   -1    0    0  501    0  0.00000000000E+00  0.00000000000E+00  0.35912029935E+03  0.35912029939E+03  0.50400001928E-02 0. -1.
       -1   -1    0    0    0  501  0.00000000000E+00  0.00000000000E+00 -0.33285687567E+03  0.33285687570E+03  0.50400001928E-02 0.  1.
    10030    2    1    2    0    0  0.00000000000E+00  0.00000000000E+00  0.26263423685E+02  0.69197717509E+03  0.69147859217E+03 0.  0.
        1    1    3    3  502    0 -0.32929310698E+03 -0.31880161640E+02  0.11363004490E+03  0.34980291899E+03  0.50400001928E-02 0. -1.
       -1    1    3    3    0  502  0.32929310698E+03  0.31880161640E+02 -0.87366621212E+02  0.34217425610E+03  0.50400001928E-02 0.  1.
</event>
<event>
 5   0  0.6131198E-02  0.7034897E+03  0.7818609E-02  0.9711283E-01
       -2   -1    0    0    0  501  0.00000000000E+00  0.00000000000E+00  0.33893953744E+03  0.33893953745E+03  0.25500000920E-02 0. -1.
        2   -1    0    0  501    0  0.00000000000E+00  0.00000000000E+00 -0.36503397091E+03  0.36503397092E+03  0.25500000920E-02 0.  1.
    10030    2    1    2    0    0  0.00000000000E+00  0.00000000000E+00 -0.26094433470E+02  0.70397350837E+03  0.70348971636E+03 0.  0.
        1    1    3    3  502    0  0.85287706791E+02 -0.20886415314E+03  0.25700170087E+03  0.34197675604E+03  0.50400001928E-02 0. -1.
       -1    1    3    3    0  502 -0.85287706791E+02  0.20886415314E+03 -0.28309613434E+03  0.36199675233E+03  0.50400001928E-02 0.  1.
</event>
<event>
 5   0  0.6167756E-02  0.6639847E+03  0.7818609E-02  0.9780886E-01
       -2   -1    0    0    0  501  0.00000000000E+00  0.00000000000E+00  0.88217036029E+02  0.88217036066E+02  0.25500000920E-02 0.  1.
        2   -1    0    0  501    0  0.00000000000E+00  0.00000000000E+00 -0.12494061997E+04  0.12494061997E+04  0.25500000920E-02 0. -1.
    10030    2    1    2    0    0  0.00000000000E+00  0.00000000000E+00 -0.11611891636E+04  0.13376232357E+04  0.66398467379E+03 0.  0.
        4    1    3    3  502    0 -0.29183538649E+03 -0.76782793590E+02 -0.30178780770E+03  0.42677978394E+03  0.12699999809E+01 0.  1.
       -4    1    3    3    0  502  0.29183538649E+03  0.76782793590E+02 -0.85940135594E+03  0.91084345181E+03  0.12699999809E+01 0. -1.
</event>
<event>
 5   0  0.3717372E-02  0.6932811E+03  0.7818609E-02  0.9728792E-01
        1   -1    0    0  501    0  0.00000000000E+00  0.00000000000E+00  0.85089850341E+03  0.85089850343E+03  0.50400001928E-02 0. -1.
       -1   -1    0    0    0  501  0.00000000000E+00  0.00000000000E+00 -0.14121506445E+03  0.14121506454E+03  0.50400001928E-02 0.  1.
    10030    2    1    2    0    0  0.00000000000E+00  0.00000000000E+00  0.70968343897E+03  0.99211356796E+03  0.69328114657E+03 0.  0.
        3    1    3    3  502    0 -0.99407636310E+02 -0.29716945798E+03  0.56694547853E+03  0.64777986287E+03  0.10100000352E+00 0. -1.
       -3    1    3    3    0  502  0.99407636310E+02  0.29716945798E+03  0.14273796044E+03  0.34433370509E+03  0.10100000352E+00 0.  1.
</event>
<event>
 5   0  0.6248886E-02  0.6869130E+03  0.7818609E-02  0.9739878E-01
       -2   -1    0    0    0  501  0.00000000000E+00  0.00000000000E+00  0.40057176118E+03  0.40057176119E+03  0.25500000920E-02 0.  1.
        2   -1    0    0  501    0  0.00000000000E+00  0.00000000000E+00 -0.29448499476E+03  0.29448499477E+03  0.25500000920E-02 0. -1.
    10030    2    1    2    0    0  0.00000000000E+00  0.00000000000E+00  0.10608676642E+03  0.69505675596E+03  0.68691301632E+03 0.  0.
        3    1    3    3  502    0  0.20010858520E+03 -0.17535135400E+03  0.27280671673E+03  0.38107093581E+03  0.10100000352E+00 0.  1.
       -3    1    3    3    0  502 -0.20010858520E+03  0.17535135400E+03 -0.16671995031E+03  0.31398582015E+03  0.10100000352E+00 0. -1.
</event>
<event>
 5   0  0.6248886E-02  0.6762499E+03  0.7818609E-02  0.9758733E-01
        2   -1    0    0  501    0  0.00000000000E+00  0.00000000000E+00  0.18037297680E+04  0.18037297680E+04  0.25500000920E-02 0.  1.
       -2   -1    0    0    0  501  0.00000000000E+00  0.00000000000E+00 -0.63384477987E+02  0.63384478038E+02  0.25500000920E-02 0. -1.
    10030    2    1    2    0    0  0.00000000000E+00  0.00000000000E+00  0.17403452901E+04  0.18671142461E+04  0.67624986455E+03 0.  0.
        3    1    3    3  502    0 -0.18027863605E+03 -0.31266681862E+02  0.85108813525E+02  0.20179571936E+03  0.10100000352E+00 0. -1.
       -3    1    3    3    0  502  0.18027863605E+03  0.31266681862E+02  0.16552364765E+04  0.16653185267E+04  0.10100000352E+00 0.  1.
</event>
<event>
 5   0  0.3755872E-02  0.7385091E+03  0.7818609E-02  0.9653552E-01
       -1   -1    0    0    0  501  0.00000000000E+00  0.00000000000E+00  0.14511439509E+03  0.14511439518E+03  0.50400001928E-02 0.  1.
        1   -1    0    0  501    0  0.00000000000E+00  0.00000000000E+00 -0.93959615956E+03  0.93959615958E+03  0.50400001928E-02 0. -1.
    10030    2    1    2    0    0  0.00000000000E+00  0.00000000000E+00 -0.79448176447E+03  0.10847105548E+04  0.73850911540E+03 0.  0.
        2    1    3    3  502    0  0.11545483306E+03  0.31653793668E+03 -0.17534824498E+03  0.37983297758E+03  0.25500000920E-02 0.  1.
       -2    1    3    3    0  502 -0.11545483306E+03 -0.31653793668E+03 -0.61913351949E+03  0.70487757717E+03  0.25500000920E-02 0. -1.
</event>
<event>
 5   0  0.3717372E-02  0.7243936E+03  0.7818609E-02  0.9676402E-01
        1   -1    0    0  501    0  0.00000000000E+00  0.00000000000E+00  0.55985907124E+03  0.55985907127E+03  0.50400001928E-02 0. -1.
       -1   -1    0    0    0  501  0.00000000000E+00  0.00000000000E+00 -0.23432059735E+03  0.23432059740E+03  0.50400001928E-02 0.  1.
    10030    2    1    2    0    0  0.00000000000E+00  0.00000000000E+00  0.32553847390E+03  0.79417966867E+03  0.72439357268E+03 0.  0.
        3    1    3    3  502    0  0.17904965966E+03  0.17925751496E+03 -0.12099890505E+03  0.28077176233E+03  0.10100000352E+00 0.  1.
       -3    1    3    3    0  502 -0.17904965966E+03 -0.17925751496E+03  0.44653737895E+03  0.51340790634E+03  0.10100000352E+00 0. -1.
</event>
<event>
 5   0  0.3439015E-02  0.6986996E+03  0.7818609E-02  0.9719459E-01
       -1   -1    0    0    0  501  0.00000000000E+00  0.00000000000E+00  0.11023816417E+03  0.11023816428E+03  0.50400001928E-02 0.  1.
        1   -1    0    0  501    0  0.00000000000E+00  0.00000000000E+00 -0.11071056080E+04  0.11071056080E+04  0.50400001928E-02 0. -1.
    10030    2    1    2    0    0  0.00000000000E+00  0.00000000000E+00 -0.99686744381E+03  0.12173437723E+04  0.69869962027E+03 0.  0.
        1    1    3    3  502    0  0.26134939390E+02  0.14488365230E+03 -0.10504181394E+04  0.10606849558E+04  0.50400001928E-02 0. -1.
       -1    1    3    3    0  502 -0.26134939390E+02 -0.14488365230E+03  0.53550695608E+02  0.15665881650E+03  0.50400001928E-02 0.  1.
</event>
<event>
 5   0  0.5987810E-02  0.7355731E+03  0.7818609E-02  0.9658260E-01
        2   -1    0    0  501    0  0.00000000000E+00  0.00000000000E+00  0.75140333723E+03  0.75140333724E+03  0.25500000920E-02 0. -1.
       -2   -1    0    0    0  501  0.00000000000E+00  0.00000000000E+00 -0.18001908363E+03  0.18001908365E+03  0.25500000920E-02 0.  1.
    10030    2    1    2    0    0  0.00000000000E+00  0.00000000000E+00  0.57138425360E+03  0.93142242089E+03  0.73557308329E+03 0.  0.
        5    1    3    3  502    0  0.34215070345E+03 -0.56077539500E+02  0.44094673353E+03  0.56095267725E+03  0.46999998093E+01 0. -1.
       -5    1    3    3    0  502 -0.34215070345E+03  0.56077539500E+02  0.13043752007E+03  0.37046974363E+03  0.46999998093E+01 0.  1.
</event>
<event>
 5   0  0.6248886E-02  0.7094256E+03  0.7818609E-02  0.9701248E-01
       -2   -1    0    0    0  501  0.00000000000E+00  0.00000000000E+00  0.16207264708E+03  0.16207264710E+03  0.25500000920E-02 0. -1.
        2   -1    0    0  501    0  0.00000000000E+00  0.00000000000E+00 -0.77632575400E+03  0.77632575400E+03  0.25500000920E-02 0.  1.
    10030    2    1    2    0    0  0.00000000000E+00  0.00000000000E+00 -0.61425310692E+03  0.93839840110E+03  0.70942559852E+03 0.  0.
        3    1    3    3  502    0 -0.24557771465E+03  0.34048130203E+02 -0.64268362130E+03  0.68884681635E+03  0.10100000352E+00 0.  1.
       -3    1    3    3    0  502  0.24557771465E+03 -0.34048130203E+02  0.28430514385E+02  0.24955158475E+03  0.10100000352E+00 0. -1.
</event>
<event>
 5   0  0.6167756E-02  0.6960274E+03  0.7818609E-02  0.9724050E-01
        2   -1    0    0  501    0  0.00000000000E+00  0.00000000000E+00  0.13671468267E+04  0.13671468267E+04  0.25500000920E-02 0. -1.
       -2   -1    0    0    0  501  0.00000000000E+00  0.00000000000E+00 -0.88588545634E+02  0.88588545671E+02  0.25500000920E-02 0.  1.
    10030    2    1    2    0    0  0.00000000000E+00  0.00000000000E+00  0.12785582810E+04  0.14557353723E+04  0.69602743932E+03 0.  0.
        4    1    3    3  502    0  0.11775819449E+03  0.21929920254E+03  0.11479580603E+04  0.11746354556E+04  0.12699999809E+01 0. -1.
       -4    1    3    3    0  502 -0.11775819449E+03 -0.21929920254E+03  0.13060022076E+03  0.28109991670E+03  0.12699999809E+01 0.  1.
</event>
<event>
 5   0  0.6248886E-02  0.7076128E+03  0.7818609E-02  0.9704301E-01
       -2   -1    0    0    0  501  0.00000000000E+00  0.00000000000E+00  0.48109563854E+03  0.48109563855E+03  0.25500000920E-02 0.  1.
        2   -1    0    0  501    0  0.00000000000E+00  0.00000000000E+00 -0.26019561894E+03  0.26019561896E+03  0.25500000920E-02 0. -1.
    10030    2    1    2    0    0  0.00000000000E+00  0.00000000000E+00  0.22090001960E+03  0.74129125750E+03  0.70761282478E+03 0.  0.
        3    1    3    3  502    0  0.93359890696E+02  0.63140663310E+01  0.46789781349E+03  0.47716277170E+03  0.10100000352E+00 0.  1.
       -3    1    3    3    0  502 -0.93359890696E+02 -0.63140663310E+01 -0.24699779389E+03  0.26412848581E+03  0.10100000352E+00 0. -1.
</event>
<event>
 5   0  0.3601475E-02  0.7073791E+03  0.7818609E-02  0.9704695E-01
       -1   -1    0    0    0  501  0.00000000000E+00  0.00000000000E+00  0.11753724464E+03  0.11753724475E+03  0.50400001928E-02 0. -1.
        1   -1    0    0  501    0  0.00000000000E+00  0.00000000000E+00 -0.10643120694E+04  0.10643120694E+04  0.50400001928E-02 0.  1.
    10030    2    1    2    0    0  0.00000000000E+00  0.00000000000E+00 -0.94677482479E+03  0.11818493142E+04  0.70737912933E+03 0.  0.
        5    1    3    3  502    0 -0.24240200122E+03 -0.39089934806E+02 -0.48126605539E+02  0.25024990181E+03  0.46999998093E+01 0. -1.
       -5    1    3    3    0  502  0.24240200122E+03  0.39089934806E+02 -0.89864821925E+03  0.93159941239E+03  0.46999998093E+01 0.  1.
</event>
<event>
 5   0  0.3749730E-02  0.6996705E+03  0.7818609E-02  0.9717796E-01
       -1   -1    0    0    0  501  0.00000000000E+00  0.00000000000E+00  0.36206038222E+03  0.36206038225E+03  0.50400001928E-02 0. -1.
        1   -1    0    0  501    0  0.00000000000E+00  0.00000000000E+00 -0.33802291693E+03  0.33802291697E+03  0.50400001928E-02 0.  1.
    10030    2    1    2    0    0  0.00000000000E+00  0.00000000000E+00  0.24037465283E+02  0.70008329922E+03  0.69967051254E+03 0.  0.
        4    1    3    3  502    0  0.18849684064E+03 -0.13146015375E+03  0.27593609857E+03  0.35910329203E+03  0.12699999809E+01 0. -1.
       -4    1    3    3    0  502 -0.18849684064E+03  0.13146015375E+03 -0.25189863328E+03  0.34098000719E+03  0.12699999809E+01 0.  1.
</event>
<event>
 5   0  0.3601475E-02  0.6847060E+03  0.7818609E-02  0.9743750E-01
        1   -1    0    0  501    0  0.00000000000E+00  0.00000000000E+00  0.39439007363E+03  0.39439007366E+03  0.50400001928E-02 0.  1.
       -1   -1    0    0    0  501  0.00000000000E+00  0.00000000000E+00 -0.29718188333E+03  0.29718188337E+03  0.50400001928E-02 0. -1.
    10030    2    1    2    0    0  0.00000000000E+00  0.00000000000E+00  0.97208190299E+02  0.69157195704E+03  0.68470602414E+03 0.  0.
        5    1    3    3  502    0  0.28614088346E+03  0.18719485164E+03  0.32162744736E+02  0.34347496243E+03  0.46999998093E+01 0.  1.
       -5    1    3    3    0  502 -0.28614088346E+03 -0.18719485164E+03  0.65045445564E+02  0.34809699461E+03  0.46999998093E+01 0. -1.
</event>
<event>
 5   0  0.3749730E-02  0.7013193E+03  0.7818609E-02  0.9714979E-01
        1   -1    0    0  501    0  0.00000000000E+00  0.00000000000E+00  0.46856595839E+03  0.46856595842E+03  0.50400001928E-02 0.  1.
       -1   -1    0    0    0  501  0.00000000000E+00  0.00000000000E+00 -0.26242238647E+03  0.26242238651E+03  0.50400001928E-02 0. -1.
    10030    2    1    2    0    0  0.00000000000E+00  0.00000000000E+00  0.20614357193E+03  0.73098834493E+03  0.70131931970E+03 0.  0.
        4    1    3    3  502    0 -0.27286808055E+03 -0.12918452940E+03 -0.82841439951E+02  0.31306540705E+03  0.12699999809E+01 0. -1.
       -4    1    3    3    0  502  0.27286808055E+03  0.12918452940E+03  0.28898501188E+03  0.41792293788E+03  0.12699999809E+01 0.  1.
</event>
<event>
 5   0  0.6248886E-02  0.7072635E+03  0.7818609E-02  0.9704891E-01
       -2   -1    0    0    0  501  0.00000000000E+00  0.00000000000E+00  0.98356562076E+02  0.98356562109E+02  0.25500000920E-02 0.  1.
        2   -1    0    0  501    0  0.00000000000E+00  0.00000000000E+00 -0.12714496509E+04  0.12714496509E+04  0.25500000920E-02 0. -1.
    10030    2    1    2    0    0  0.00000000000E+00  0.00000000000E+00 -0.11730930889E+04  0.13698062130E+04  0.70726350547E+03 0.  0.
        3    1    3    3  502    0  0.70593519029E+02  0.25138273559E+02  0.82802783810E+02  0.11167671617E+03  0.10100000352E+00 0.  1.
       -3    1    3    3    0  502 -0.70593519029E+02 -0.25138273559E+02 -0.12558958727E+04  0.12581294969E+04  0.10100000352E+00 0. -1.
</event>
<event>
 5   0  0.3717372E-02  0.9199955E+03  0.7818609E-02  0.9400926E-01
       -1   -1    0    0    0  501  0.00000000000E+00  0.00000000000E+00  0.57199378947E+03  0.57199378949E+03  0.50400001928E-02 0. -1.
        1   -1    0    0  501    0  0.00000000000E+00  0.00000000000E+00 -0.36993042994E+03  0.36993042997E+03  0.50400001928E-02 0.  1.
    10030    2    1    2    0    0  0.00000000000E+00  0.00000000000E+00  0.20206335953E+03  0.94192421946E+03  0.91999545322E+03 0.  0.
        3    1    3    3  502    0  0.24169678280E+03  0.41819890881E+02  0.49944938047E+03  0.55643142609E+03  0.10100000352E+00 0. -1.
       -3    1    3    3    0  502 -0.24169678280E+03 -0.41819890881E+02 -0.29738602094E+03  0.38549279337E+03  0.10100000352E+00 0.  1.
</event>
<event>
 5   0  0.5987810E-02  0.6995455E+03  0.7818609E-02  0.9718010E-01
       -2   -1    0    0    0  501  0.00000000000E+00  0.00000000000E+00  0.55710022119E+02  0.55710022177E+02  0.25500000920E-02 0.  1.
        2   -1    0    0  501    0  0.00000000000E+00  0.00000000000E+00 -0.21960319499E+04  0.21960319499E+04  0.25500000920E-02 0. -1.
    10030    2    1    2    0    0  0.00000000000E+00  0.00000000000E+00 -0.21403219277E+04  0.22517419720E+04  0.69954553410E+03 0.  0.
        5    1    3    3  502    0  0.15755320015E+03  0.13576091557E+03 -0.19752564352E+04  0.19861807853E+04  0.46999998093E+01 0. -1.
       -5    1    3    3    0  502 -0.15755320015E+03 -0.13576091557E+03 -0.16506549251E+03  0.26556118672E+03  0.46999998093E+01 0.  1.
</event>
<event>
 5   0  0.6248886E-02  0.6774355E+03  0.7818609E-02  0.9756618E-01
        2   -1    0    0  501    0  0.00000000000E+00  0.00000000000E+00  0.98581076433E+03  0.98581076433E+03  0.25500000920E-02 0. -1.
       -2   -1    0    0    0  501  0.00000000000E+00  0.00000000000E+00 -0.11638108724E+03  0.11638108727E+03  0.25500000920E-02 0.  1.
    10030    2    1    2    0    0  0.00000000000E+00  0.00000000000E+00  0.86942967709E+03  0.11021918516E+04  0.67743554257E+03 0.  0.
        3    1    3    3  502    0  0.92316608736E+02  0.14381602694E+03  0.91052532929E+03  0.92642419621E+03  0.10100000352E+00 0. -1.
       -3    1    3    3    0  502 -0.92316608736E+02 -0.14381602694E+03 -0.41095652198E+02  0.17576765539E+03  0.10100000352E+00 0.  1.
</event>
<event>
 5   0  0.3717372E-02  0.6840066E+03  0.7818609E-02  0.9744981E-01
       -1   -1    0    0    0  501  0.00000000000E+00  0.00000000000E+00  0.70672942689E+02  0.70672942869E+02  0.50400001928E-02 0. -1.
        1   -1    0    0  501    0  0.00000000000E+00  0.00000000000E+00 -0.16550359840E+04  0.16550359840E+04  0.50400001928E-02 0.  1.
    10030    2    1    2    0    0  0.00000000000E+00  0.00000000000E+00 -0.15843630413E+04  0.17257089269E+04  0.68400661812E+03 0.  0.
        3    1    3    3  502    0 -0.11410062824E+03  0.35853235765E+01 -0.16055493540E+04  0.16096026051E+04  0.10100000352E+00 0.  1.
       -3    1    3    3    0  502  0.11410062824E+03 -0.35853235765E+01  0.21186312721E+02  0.11610632178E+03  0.10100000352E+00 0. -1.
</event>
<event>
 5   0  0.6167756E-02  0.7563195E+03  0.7818609E-02  0.9625488E-01
        2   -1    0    0  501    0  0.00000000000E+00  0.00000000000E+00  0.91201617515E+03  0.91201617515E+03  0.25500000920E-02 0.  1.
       -2   -1    0    0    0  501  0.00000000000E+00  0.00000000000E+00 -0.15680070525E+03  0.15680070527E+03  0.25500000920E-02 0. -1.
    10030    2    1    2    0    0  0.00000000000E+00  0.00000000000E+00  0.75521546990E+03  0.10688168804E+04  0.75631945492E+03 0.  0.
        4    1    3    3  502    0 -0.37090176128E+03  0.58558416173E+02  0.31431419631E+03  0.48968584984E+03  0.12699999809E+01 0. -1.
       -4    1    3    3    0  502  0.37090176128E+03 -0.58558416173E+02  0.44090127359E+03  0.57913103058E+03  0.12699999809E+01 0.  1.
</event>
<event>
 5   0  0.5987810E-02  0.6986777E+03  0.7818609E-02  0.9719496E-01
        2   -1    0    0  501    0  0.00000000000E+00  0.00000000000E+00  0.54650888217E+03  0.54650888218E+03  0.25500000920E-02 0. -1.
       -2   -1    0    0    0  501  0.00000000000E+00  0.00000000000E+00 -0.22330402299E+03  0.22330402300E+03  0.25500000920E-02 0.  1.
    10030    2    1    2    0    0  0.00000000000E+00  0.00000000000E+00  0.32320485919E+03  0.76981290518E+03  0.69867769964E+03 0.  0.
        5    1    3    3  502    0 -0.18079007462E+03  0.22521323216E+02  0.48997865852E+03  0.52277474775E+03  0.46999998093E+01 0. -1.
       -5    1    3    3    0  502  0.18079007462E+03 -0.22521323216E+02 -0.16677379934E+03  0.24703815743E+03  0.46999998093E+01 0.  1.
</event>
<event>
 5   0  0.3755872E-02  0.7030446E+03  0.7818609E-02  0.9712040E-01
        1   -1    0    0  501    0  0.00000000000E+00  0.00000000000E+00  0.27110135147E+03  0.27110135152E+03  0.50400001928E-02 0. -1.
       -1   -1    0    0    0  501  0.00000000000E+00  0.00000000000E+00 -0.45579975418E+03  0.45579975421E+03  0.50400001928E-02 0.  1.
    10030    2    1    2    0    0  0.00000000000E+00  0.00000000000E+00 -0.18469840271E+03  0.72690110573E+03  0.70304460566E+03 0.  0.
        2    1    3    3  502    0 -0.17655446066E+03 -0.21647529420E+03 -0.31297923794E+03  0.41951046944E+03  0.25500000920E-02 0.  1.
       -2    1    3    3    0  502  0.17655446066E+03  0.21647529420E+03  0.12828083524E+03  0.30739063629E+03  0.25500000920E-02 0. -1.
</event>
<event>
 5   0  0.3749730E-02  0.7246223E+03  0.7818609E-02  0.9676027E-01
       -1   -1    0    0    0  501  0.00000000000E+00  0.00000000000E+00  0.37889927139E+03  0.37889927143E+03  0.50400001928E-02 0. -1.
        1   -1    0    0  501    0  0.00000000000E+00  0.00000000000E+00 -0.34644924430E+03  0.34644924433E+03  0.50400001928E-02 0.  1.
    10030    2    1    2    0    0  0.00000000000E+00  0.00000000000E+00  0.32450027095E+02  0.72534851576E+03  0.72462229130E+03 0.  0.
        4    1    3    3  502    0 -0.24445632890E+03 -0.18895417072E+03  0.20563721655E+03  0.37114802047E+03  0.12699999809E+01 0. -1.
       -4    1    3    3    0  502  0.24445632890E+03  0.18895417072E+03 -0.17318718946E+03  0.35420049529E+03  0.12699999809E+01 0.  1.
</event>
<event>
 5   0  0.3717372E-02  0.7187066E+03  0.7818609E-02  0.9685766E-01
        1   -1    0    0  501    0  0.00000000000E+00  0.00000000000E+00  0.12566520195E+03  0.12566520205E+03  0.50400001928E-02 0. -1.
       -1   -1    0    0    0  501  0.00000000000E+00  0.00000000000E+00 -0.10276098862E+04  0.10276098862E+04  0.50400001928E-02 0.  1.
    10030    2    1    2    0    0  0.00000000000E+00  0.00000000000E+00 -0.90194468422E+03  0.11532750882E+04  0.71870662704E+03 0.  0.
        3    1    3    3  502    0  0.20796808080E+03  0.18121570064E+03 -0.82054790472E+03  0.86567241317E+03  0.10100000352E+00 0.  1.
       -3    1    3    3    0  502 -0.20796808080E+03 -0.18121570064E+03 -0.81396779502E+02  0.28760267506E+03  0.10100000352E+00 0. -1.
</event>
<event>
 5   0  0.3601475E-02  0.6969489E+03  0.7818609E-02  0.9722464E-01
        1   -1    0    0  501    0  0.00000000000E+00  0.00000000000E+00  0.24029892118E+03  0.24029892123E+03  0.50400001928E-02 0. -1.
       -1   -1    0    0    0  501  0.00000000000E+00  0.00000000000E+00 -0.50534742912E+03  0.50534742915E+03  0.50400001928E-02 0.  1.
    10030    2    1    2    0    0  0.00000000000E+00  0.00000000000E+00 -0.26504850794E+03  0.74564635038E+03  0.69694889933E+03 0.  0.
        5    1    3    3  502    0 -0.24221796061E+03  0.73219647904E+02 -0.38880657323E+03  0.46392165143E+03  0.46999998093E+01 0.  1.
       -5    1    3    3    0  502  0.24221796061E+03 -0.73219647904E+02  0.12375806529E+03  0.28172469896E+03  0.46999998093E+01 0. -1.
</event>
<event>
 5   0  0.6131198E-02  0.7078785E+03  0.7818609E-02  0.9703853E-01
       -2   -1    0    0    0  501  0.00000000000E+00  0.00000000000E+00  0.12753532663E+03  0.12753532665E+03  0.25500000920E-02 0. -1.
        2   -1    0    0  501    0  0.00000000000E+00  0.00000000000E+00 -0.98226102337E+03  0.98226102337E+03  0.25500000920E-02 0.  1.
    10030    2    1    2    0    0  0.00000000000E+00  0.00000000000E+00 -0.85472569674E+03  0.11097963500E+04  0.70787846546E+03 0.  0.
        1    1    3    3  502    0  0.31522552951E+02 -0.79924968703E+02  0.11093852194E+03  0.14031759563E+03  0.50400001928E-02 0. -1.
       -1    1    3    3    0  502 -0.31522552951E+02  0.79924968703E+02 -0.96566421868E+03  0.96947875440E+03  0.50400001928E-02 0.  1.
</event>
<event>
 5   0  0.3439015E-02  0.7163396E+03  0.7818609E-02  0.9689690E-01
       -1   -1    0    0    0  501  0.00000000000E+00  0.00000000000E+00  0.30128789083E+03  0.30128789087E+03  0.50400001928E-02 0. -1.
        1   -1    0    0  501    0  0.00000000000E+00  0.00000000000E+00 -0.42579083016E+03  0.42579083019E+03  0.50400001928E-02 0.  1.
    10030    2    1    2    0    0  0.00000000000E+00  0.00000000000E+00 -0.12450293933E+03  0.72707872107E+03  0.71633964341E+03 0.  0.
        1    1    3    3  502    0 -0.30272400931E+03 -0.97791857774E+02 -0.22928019684E+03  0.39214089553E+03  0.50400001928E-02 0.  1.
       -1    1    3    3    0  502  0.30272400931E+03  0.97791857774E+02  0.10477725751E+03  0.33493782554E+03  0.50400001928E-02 0. -1.
</event>
<event>
 5   0  0.6131198E-02  0.7236405E+03  0.7818609E-02  0.9677637E-01
       -2   -1    0    0    0  501  0.00000000000E+00  0.00000000000E+00  0.25417978933E+03  0.25417978934E+03  0.25500000920E-02 0. -1.
        2   -1    0    0  501    0  0.00000000000E+00  0.00000000000E+00 -0.51504453165E+03  0.51504453165E+03  0.25500000920E-02 0.  1.
    10030    2    1    2    0    0  0.00000000000E+00  0.00000000000E+00 -0.26086474232E+03  0.76922432099E+03  0.72364054766E+03 0.  0.
        1    1    3    3  502    0  0.14910548616E+03  0.22560884627E+03  0.12508876104E+03  0.29795804350E+03  0.50400001928E-02 0. -1.
       -1    1    3    3    0  502 -0.14910548616E+03 -0.22560884627E+03 -0.38595350336E+03  0.47126627749E+03  0.50400001928E-02 0.  1.
</event>
<event>
 5   0  0.3717372E-02  0.6953400E+03  0.7818609E-02  0.9725235E-01
        1   -1    0    0  501    0  0.00000000000E+00  0.00000000000E+00  0.17465017986E+04  0.17465017986E+04  0.50400001928E-02 0. -1.
       -1   -1    0    0    0  501  0.00000000000E+00  0.00000000000E+00 -0.69209444882E+02  0.69209445066E+02  0.50400001928E-02 0.  1.
    10030    2    1    2    0    0  0.00000000000E+00  0.00000000000E+00  0.16772923537E+04  0.18157112436E+04  0.69533997480E+03 0.  0.
        3    1    3    3  502    0 -0.76766579899E+02  0.14457758629E+03  0.37715251098E+02  0.16798284619E+03  0.10100000352E+00 0.  1.
       -3    1    3    3    0  502  0.76766579899E+02 -0.14457758629E+03  0.16395771026E+04  0.16477283975E+04  0.10100000352E+00 0. -1.
</event>
<event>
 5   0  0.3755872E-02  0.6946063E+03  0.7818609E-02  0.9726501E-01
        1   -1    0    0  501    0  0.00000000000E+00  0.00000000000E+00  0.59400788206E+03  0.59400788208E+03  0.50400001928E-02 0.  1.
       -1   -1    0    0    0  501  0.00000000000E+00  0.00000000000E+00 -0.20306037681E+03  0.20306037688E+03  0.50400001928E-02 0. -1.
    10030    2    1    2    0    0  0.00000000000E+00  0.00000000000E+00  0.39094750525E+03  0.79706825896E+03  0.69460626083E+03 0.  0.
        2    1    3    3  502    0  0.34616404545E+03  0.67570262198E+01  0.22677915872E+03  0.41388886262E+03  0.25500000920E-02 0. -1.
       -2    1    3    3    0  502 -0.34616404545E+03 -0.67570262198E+01  0.16416834653E+03  0.38317939633E+03  0.25500000920E-02 0.  1.
</event>
<event>
 5   0  0.3601475E-02  0.6871979E+03  0.7818609E-02  0.9739379E-01
       -1   -1    0    0    0  501  0.00000000000E+00  0.00000000000E+00  0.66275980860E+02  0.66275981051E+02  0.50400001928E-02 0. -1.
        1   -1    0    0  501    0  0.00000000000E+00  0.00000000000E+00 -0.17813428739E+04  0.17813428739E+04  0.50400001928E-02 0.  1.
    10030    2    1    2    0    0  0.00000000000E+00  0.00000000000E+00 -0.17150668930E+04  0.18476188549E+04  0.68719792316E+03 0.  0.
        5    1    3    3  502    0 -0.82084065310E+02 -0.33361502465E+03 -0.86068951935E+03  0.92673907718E+03  0.46999998093E+01 0. -1.
       -5    1    3    3    0  502  0.82084065310E+02  0.33361502465E+03 -0.85437737367E+03  0.92087977776E+03  0.46999998093E+01 0.  1.
</event>
<event>
 5   0  0.5987810E-02  0.7026266E+03  0.7818609E-02  0.9712751E-01
       -2   -1    0    0    0  501  0.00000000000E+00  0.00000000000E+00  0.68724546088E+02  0.68724546135E+02  0.25500000920E-02 0.  1.
        2   -1    0    0  501    0  0.00000000000E+00  0.00000000000E+00 -0.17958799342E+04  0.17958799342E+04  0.25500000920E-02 0. -1.
    10030    2    1    2    0    0  0.00000000000E+00  0.00000000000E+00 -0.17271553881E+04  0.18646044803E+04  0.70262659600E+03 0.  0.
        5    1    3    3  502    0 -0.29697982277E+03  0.75479933593E+02 -0.40774255785E+03  0.51006893553E+03  0.46999998093E+01 0.  1.
       -5    1    3    3    0  502  0.29697982277E+03 -0.75479933593E+02 -0.13194128302E+04  0.13545355448E+04  0.46999998093E+01 0. -1.
</event>
<event>
 5   0  0.5987810E-02  0.6791582E+03  0.7818609E-02  0.9753554E-01
        2   -1    0    0  501    0  0.00000000000E+00  0.00000000000E+00  0.13245266366E+03  0.13245266369E+03  0.25500000920E-02 0. -1.
       -2   -1    0    0    0  501  0.00000000000E+00  0.00000000000E+00 -0.87060520199E+03  0.87060520199E+03  0.25500000920E-02 0.  1.
    10030    2    1    2    0    0  0.00000000000E+00  0.00000000000E+00 -0.73815253833E+03  0.10030578657E+04  0.67915823787E+03 0.  0.
        5    1    3    3  502    0  0.31914114887E+03 -0.88611661379E+02 -0.47948765361E+03  0.58278091887E+03  0.46999998093E+01 0. -1.
       -5    1    3    3    0  502 -0.31914114887E+03  0.88611661379E+02 -0.25866488472E+03  0.42027694681E+03  0.46999998093E+01 0.  1.
</event>
<event>
 5   0  0.5987810E-02  0.7036130E+03  0.7818609E-02  0.9711073E-01
        2   -1    0    0  501    0  0.00000000000E+00  0.00000000000E+00  0.90377616313E+03  0.90377616313E+03  0.25500000920E-02 0.  1.
       -2   -1    0    0    0  501  0.00000000000E+00  0.00000000000E+00 -0.13694520769E+03  0.13694520771E+03  0.25500000920E-02 0. -1.
    10030    2    1    2    0    0  0.00000000000E+00  0.00000000000E+00  0.76683095544E+03  0.10407213708E+04  0.70361300266E+03 0.  0.
        5    1    3    3  502    0 -0.31781499558E+03 -0.85516731318E+02  0.56712458258E+03  0.65572239927E+03  0.46999998093E+01 0.  1.
       -5    1    3    3    0  502  0.31781499558E+03  0.85516731318E+02  0.19970637286E+03  0.38499897157E+03  0.46999998093E+01 0. -1.
</event>
<event>
 5   0  0.3749730E-02  0.6974714E+03  0.7818609E-02  0.9721566E-01
        1   -1    0    0  501    0  0.00000000000E+00  0.00000000000E+00  0.15769510537E+04  0.15769510537E+04  0.50400001928E-02 0. -1.
       -1   -1    0    0    0  501  0.00000000000E+00  0.00000000000E+00 -0.77121337565E+02  0.77121337729E+02  0.50400001928E-02 0.  1.
    10030    2    1    2    0    0  0.00000000000E+00  0.00000000000E+00  0.14998297162E+04  0.16540723915E+04  0.69747136050E+03 0.  0.
        4    1    3    3  502    0 -0.19975629971E+03 -0.28947096519E+02  0.14243400721E+04  0.14385710854E+04  0.12699999809E+01 0. -1.
       -4    1    3    3    0  502  0.19975629971E+03  0.28947096519E+02  0.75489644019E+02  0.21550130609E+03  0.12699999809E+01 0.  1.
</event>
<event>
 5   0  0.5899787E-02  0.6281845E+03  0.7818609E-02  0.9848598E-01
        2   -1    0    0  501    0  0.00000000000E+00  0.00000000000E+00  0.22447497853E+03  0.22447497855E+03  0.25500000920E-02 0. -1.
       -2   -1    0    0    0  501  0.00000000000E+00  0.00000000000E+00 -0.43948750301E+03  0.43948750301E+03  0.25500000920E-02 0.  1.
    10030    2    1    2    0    0  0.00000000000E+00  0.00000000000E+00 -0.21501252447E+03  0.66396248156E+03  0.62818452006E+03 0.  0.
        2    1    3    3  502    0  0.23307501697E+03  0.12288516477E+03 -0.28820908070E+03  0.39049865744E+03  0.25500000920E-02 0.  1.
       -2    1    3    3    0  502 -0.23307501697E+03 -0.12288516477E+03  0.73196556227E+02  0.27346382412E+03  0.25500000920E-02 0. -1.
</event>
<event>
 5   0  0.6248886E-02  0.7313623E+03  0.7818609E-02  0.9665052E-01
        2   -1    0    0  501    0  0.00000000000E+00  0.00000000000E+00  0.18879428997E+04  0.18879428997E+04  0.25500000920E-02 0. -1.
       -2   -1    0    0    0  501  0.00000000000E+00  0.00000000000E+00 -0.70829853625E+02  0.70829853671E+02  0.25500000920E-02 0.  1.
    10030    2    1    2    0    0  0.00000000000E+00  0.00000000000E+00  0.18171130461E+04  0.19587727534E+04  0.73136234327E+03 0.  0.
        3    1    3    3  502    0  0.76856850541E+02 -0.35488720287E+03  0.79271455295E+03  0.87192217250E+03  0.10100000352E+00 0.  1.
       -3    1    3    3    0  502 -0.76856850541E+02  0.35488720287E+03  0.10243984932E+04  0.10868505809E+04  0.10100000352E+00 0. -1.
</event>
<event>
 5   0  0.3439015E-02  0.6985620E+03  0.7818609E-02  0.9719694E-01
       -1   -1    0    0    0  501  0.00000000000E+00  0.00000000000E+00  0.13462785314E+03  0.13462785324E+03  0.50400001928E-02 0. -1.
        1   -1    0    0  501    0  0.00000000000E+00  0.00000000000E+00 -0.90618115158E+03  0.90618115160E+03  0.50400001928E-02 0.  1.
    10030    2    1    2    0    0  0.00000000000E+00  0.00000000000E+00 -0.77155329844E+03  0.10408090048E+04  0.69856201744E+03 0.  0.
        1    1    3    3  502    0 -0.13168720332E+03 -0.16427873646E+03 -0.80100566463E+03  0.82821440314E+03  0.50400001928E-02 0.  1.
       -1    1    3    3    0  502  0.13168720332E+03  0.16427873646E+03  0.29452366192E+02  0.21259460170E+03  0.50400001928E-02 0. -1.
</event>
<event>
 5   0  0.6248886E-02  0.6996076E+03  0.7818609E-02  0.9717904E-01
        2   -1    0    0  501    0  0.00000000000E+00  0.00000000000E+00  0.49476855083E+03  0.49476855083E+03  0.25500000920E-02 0. -1.
       -2   -1    0    0    0  501  0.00000000000E+00  0.00000000000E+00 -0.24731299468E+03  0.24731299469E+03  0.25500000920E-02 0.  1.
    10030    2    1    2    0    0  0.00000000000E+00  0.00000000000E+00  0.24745555615E+03  0.74208154552E+03  0.69960758139E+03 0.  0.
        3    1    3    3  502    0  0.96508266798E+02 -0.18162001952E+03 -0.17640475029E+03  0.27095815762E+03  0.10100000352E+00 0.  1.
       -3    1    3    3    0  502 -0.96508266798E+02  0.18162001952E+03  0.42386030644E+03  0.47112338790E+03  0.10100000352E+00 0. -1.
</event>
<event>
 5   0  0.3749730E-02  0.5682220E+03  0.7818609E-02  0.9973621E-01
        1   -1    0    0  501    0  0.00000000000E+00  0.00000000000E+00  0.12570768820E+03  0.12570768830E+03  0.50400001928E-02 0. -1.
       -1   -1    0    0    0  501  0.00000000000E+00  0.00000000000E+00 -0.64211717494E+03  0.64211717496E+03  0.50400001928E-02 0.  1.
    10030    2    1    2    0    0  0.00000000000E+00  0.00000000000E+00 -0.51640948674E+03  0.76782486326E+03  0.56822201879E+03 0.  0.
        4    1    3    3  502    0 -0.18812987039E+02  0.26343236268E+03 -0.11669500028E+03  0.28873841826E+03  0.12699999809E+01 0. -1.
       -4    1    3    3    0  502  0.18812987039E+02 -0.26343236268E+03 -0.39971448646E+03  0.47908644500E+03  0.12699999809E+01 0.  1.
</event>
<event>
 5   0  0.5987810E-02  0.6962569E+03  0.7818609E-02  0.9723655E-01
       -2   -1    0    0    0  501  0.00000000000E+00  0.00000000000E+00  0.78343622548E+02  0.78343622590E+02  0.25500000920E-02 0.  1.
        2   -1    0    0  501    0  0.00000000000E+00  0.00000000000E+00 -0.15469467838E+04  0.15469467838E+04  0.25500000920E-02 0. -1.
    10030    2    1    2    0    0  0.00000000000E+00  0.00000000000E+00 -0.14686031613E+04  0.16252904064E+04  0.69625689216E+03 0.  0.
        5    1    3    3  502    0  0.20882548103E+03  0.21988348791E+01 -0.13843952086E+04  0.14000661056E+04  0.46999998093E+01 0. -1.
       -5    1    3    3    0  502 -0.20882548103E+03 -0.21988348791E+01 -0.84207952712E+02  0.22522430087E+03  0.46999998093E+01 0.  1.
</event>
<event>
 5   0  0.3717372E-02  0.6127386E+03  0.7818609E-02  0.9879324E-01
        1   -1    0    0  501    0  0.00000000000E+00  0.00000000000E+00  0.78507270875E+03  0.78507270876E+03  0.50400001928E-02 0. -1.
       -1   -1    0    0    0  501  0.00000000000E+00  0.00000000000E+00 -0.11955854854E+03  0.11955854865E+03  0.50400001928E-02 0.  1.
    10030    2    1    2    0    0  0.00000000000E+00  0.00000000000E+00  0.66551416021E+03  0.90463125741E+03  0.61273861837E+03 0.  0.
        3    1    3    3  502    0  0.26651788349E+03 -0.11177217120E+03  0.48286402944E+03  0.56274548563E+03  0.10100000352E+00 0.  1.
       -3    1    3    3    0  502 -0.26651788349E+03  0.11177217120E+03  0.18265013077E+03  0.34188577178E+03  0.10100000352E+00 0. -1.
</event>
<event>
 5   0  0.5899787E-02  0.6897894E+03  0.7818609E-02  0.9734855E-01
        2   -1    0    0  501    0  0.00000000000E+00  0.00000000000E+00  0.18006252880E+04  0.18006252880E+04  0.25500000920E-02 0. -1.
       -2   -1    0    0    0  501  0.00000000000E+00  0.00000000000E+00 -0.66061694952E+02  0.66061695001E+02  0.25500000920E-02 0.  1.
    10030    2    1    2    0    0  0.00000000000E+00  0.00000000000E+00  0.17345635931E+04  0.18666869830E+04  0.68978941293E+03 0.  0.
        2    1    3    3  502    0 -0.33750431696E+02 -0.21427462235E+03  0.14164654588E+03  0.25906842607E+03  0.25500000920E-02 0.  1.
       -2    1    3    3    0  502  0.33750431696E+02  0.21427462235E+03  0.15929170472E+04  0.16076185570E+04  0.25500000920E-02 0. -1.
</event>
<event>
 5   0  0.3601475E-02  0.5826613E+03  0.7818609E-02  0.9942046E-01
       -1   -1    0    0    0  501  0.00000000000E+00  0.00000000000E+00  0.19252277708E+03  0.19252277714E+03  0.50400001928E-02 0. -1.
        1   -1    0    0  501    0  0.00000000000E+00  0.00000000000E+00 -0.44084932486E+03  0.44084932489E+03  0.50400001928E-02 0.  1.
    10030    2    1    2    0    0  0.00000000000E+00  0.00000000000E+00 -0.24832654778E+03  0.63337210203E+03  0.58266126119E+03 0.  0.
        5    1    3    3  502    0  0.16605208695E+03 -0.17741809847E+03 -0.29876992982E+03  0.38514417847E+03  0.46999998093E+01 0.  1.
       -5    1    3    3    0  502 -0.16605208695E+03  0.17741809847E+03  0.50443382042E+02  0.24822792356E+03  0.46999998093E+01 0. -1.
</event>
<event>
 5   0  0.3755872E-02  0.6629050E+03  0.7818609E-02  0.9782861E-01
       -1   -1    0    0    0  501  0.00000000000E+00  0.00000000000E+00  0.17629507012E+03  0.17629507019E+03  0.50400001928E-02 0. -1.
        1   -1    0    0  501    0  0.00000000000E+00  0.00000000000E+00 -0.62316401328E+03  0.62316401330E+03  0.50400001928E-02 0.  1.
    10030    2    1    2    0    0  0.00000000000E+00  0.00000000000E+00 -0.44686894317E+03  0.79945908349E+03  0.66290495081E+03 0.  0.
        2    1    3    3  502    0 -0.21525774959E+03  0.84429910208E+02  0.62964071592E+02  0.23964303206E+03  0.25500000920E-02 0. -1.
       -2    1    3    3    0  502  0.21525774959E+03 -0.84429910208E+02 -0.50983301476E+03  0.55981605143E+03  0.25500000920E-02 0.  1.
</event>
<event>
 5   0  0.3601475E-02  0.7064329E+03  0.7818609E-02  0.9706294E-01
        1   -1    0    0  501    0  0.00000000000E+00  0.00000000000E+00  0.22690668886E+04  0.22690668886E+04  0.50400001928E-02 0.  1.
       -1   -1    0    0    0  501  0.00000000000E+00  0.00000000000E+00 -0.54983774602E+02  0.54983774833E+02  0.50400001928E-02 0. -1.
    10030    2    1    2    0    0  0.00000000000E+00  0.00000000000E+00  0.22140831140E+04  0.23240506634E+04  0.70643290590E+03 0.  0.
        5    1    3    3  502    0  0.24913824851E+03 -0.11354515907E+03  0.18410326442E+04  0.18612860224E+04  0.46999998093E+01 0.  1.
       -5    1    3    3    0  502 -0.24913824851E+03  0.11354515907E+03  0.37305046980E+03  0.46276464108E+03  0.46999998093E+01 0. -1.
</event>
<event>
 5   0  0.5987810E-02  0.7144466E+03  0.7818609E-02  0.9692841E-01
        2   -1    0    0  501    0  0.00000000000E+00  0.00000000000E+00  0.47112225591E+03  0.47112225591E+03  0.25500000920E-02 0.  1.
       -2   -1    0    0    0  501  0.00000000000E+00  0.00000000000E+00 -0.27086063432E+03  0.27086063433E+03  0.25500000920E-02 0. -1.
    10030    2    1    2    0    0  0.00000000000E+00  0.00000000000E+00  0.20026162158E+03  0.74198289025E+03  0.71444656367E+03 0.  0.
        5    1    3    3  502    0  0.21183495344E+02 -0.20787943489E+03 -0.20073072325E+03  0.28978873887E+03  0.46999998093E+01 0. -1.
       -5    1    3    3    0  502 -0.21183495344E+02  0.20787943489E+03  0.40099234483E+03  0.45219415137E+03  0.46999998093E+01 0.  1.
</event>
<event>
 5   0  0.3601475E-02  0.6695851E+03  0.7818609E-02  0.9770708E-01
        1   -1    0    0  501    0  0.00000000000E+00  0.00000000000E+00  0.29325013491E+03  0.29325013495E+03  0.50400001928E-02 0. -1.
       -1   -1    0    0    0  501  0.00000000000E+00  0.00000000000E+00 -0.38221995083E+03  0.38221995086E+03  0.50400001928E-02 0.  1.
    10030    2    1    2    0    0  0.00000000000E+00  0.00000000000E+00 -0.88969815918E+02  0.67547008582E+03  0.66958510190E+03 0.  0.
        5    1    3    3  502    0  0.54260724425E+02 -0.36193682377E+02 -0.37571467902E+03  0.38136310635E+03  0.46999998093E+01 0.  1.
       -5    1    3    3    0  502 -0.54260724425E+02  0.36193682377E+02  0.28674486310E+03  0.29410697947E+03  0.46999998093E+01 0. -1.
</event>
<event>
 5   0  0.6131198E-02  0.6804534E+03  0.7818609E-02  0.9751256E-01
       -2   -1    0    0    0  501  0.00000000000E+00  0.00000000000E+00  0.18521198117E+03  0.18521198118E+03  0.25500000920E-02 0.  1.
        2   -1    0    0  501    0  0.00000000000E+00  0.00000000000E+00 -0.62498234466E+03  0.62498234467E+03  0.25500000920E-02 0. -1.
    10030    2    1    2    0    0  0.00000000000E+00  0.00000000000E+00 -0.43977036350E+03  0.81019432585E+03  0.68045343194E+03 0.  0.
        1    1    3    3  502    0  0.97401638698E+02 -0.77338671449E+02  0.15717498855E+03  0.20043035293E+03  0.50400001928E-02 0.  1.
       -1    1    3    3    0  502 -0.97401638698E+02  0.77338671449E+02 -0.59694535205E+03  0.60976397293E+03  0.50400001928E-02 0. -1.
</event>
<event>
 5   0  0.5987810E-02  0.7012356E+03  0.7818609E-02  0.9715122E-01
       -2   -1    0    0    0  501  0.00000000000E+00  0.00000000000E+00  0.29456812932E+03  0.29456812933E+03  0.25500000920E-02 0. -1.
        2   -1    0    0  501    0  0.00000000000E+00  0.00000000000E+00 -0.41733243795E+03  0.41733243796E+03  0.25500000920E-02 0.  1.
    10030    2    1    2    0    0  0.00000000000E+00  0.00000000000E+00 -0.12276430863E+03  0.71190056730E+03  0.70123558256E+03 0.  0.
        5    1    3    3  502    0  0.27142143620E+03 -0.22043865271E+03 -0.87224153919E+02  0.36040662961E+03  0.46999998093E+01 0.  1.
       -5    1    3    3    0  502 -0.27142143620E+03  0.22043865271E+03 -0.35540154711E+02  0.35149393769E+03  0.46999998093E+01 0. -1.
</event>
<event>
 5   0  0.5987810E-02  0.6935046E+03  0.7818609E-02  0.9728405E-01
        2   -1    0    0  501    0  0.00000000000E+00  0.00000000000E+00  0.56676685612E+03  0.56676685612E+03  0.25500000920E-02 0. -1.
       -2   -1    0    0    0  501  0.00000000000E+00  0.00000000000E+00 -0.21214569495E+03  0.21214569497E+03  0.25500000920E-02 0.  1.
    10030    2    1    2    0    0  0.00000000000E+00  0.00000000000E+00  0.35462116116E+03  0.77891255109E+03  0.69350457410E+03 0.  0.
        5    1    3    3  502    0  0.33349710428E+03  0.21107151121E+02  0.28115970196E+03  0.43673641753E+03  0.46999998093E+01 0.  1.
       -5    1    3    3    0  502 -0.33349710428E+03 -0.21107151121E+02  0.73461459203E+02  0.34217613356E+03  0.46999998093E+01 0. -1.
</event>
<event>
 5   0  0.3717372E-02  0.6983144E+03  0.7818609E-02  0.9720119E-01
        1   -1    0    0  501    0  0.00000000000E+00  0.00000000000E+00  0.28690428236E+03  0.28690428241E+03  0.50400001928E-02 0. -1.
       -1   -1    0    0    0  501  0.00000000000E+00  0.00000000000E+00 -0.42491790173E+03  0.42491790176E+03  0.50400001928E-02 0.  1.
    10030    2    1    2    0    0  0.00000000000E+00  0.00000000000E+00 -0.13801361937E+03  0.71182218417E+03  0.69831444403E+03 0.  0.
        3    1    3    3  502    0  0.15356607588E+03  0.18896782282E+03 -0.32408590473E+03  0.40536781023E+03  0.10100000352E+00 0.  1.
       -3    1    3    3    0  502 -0.15356607588E+03 -0.18896782282E+03  0.18607228537E+03  0.30645437394E+03  0.10100000352E+00 0. -1.
</event>
<event>
 5   0  0.3601475E-02  0.6988320E+03  0.7818609E-02  0.9719232E-01
       -1   -1    0    0    0  501  0.00000000000E+00  0.00000000000E+00  0.65620190522E+03  0.65620190524E+03  0.50400001928E-02 0. -1.
        1   -1    0    0  501    0  0.00000000000E+00  0.00000000000E+00 -0.18605787021E+03  0.18605787028E+03  0.50400001928E-02 0.  1.
    10030    2    1    2    0    0  0.00000000000E+00  0.00000000000E+00  0.47014403501E+03  0.84225977552E+03  0.69883196535E+03 0.  0.
        5    1    3    3  502    0 -0.20668012687E+03  0.23608833760E+03  0.49860566638E+02  0.31774603711E+03  0.46999998093E+01 0.  1.
       -5    1    3    3    0  502  0.20668012687E+03 -0.23608833760E+03  0.42028346837E+03  0.52451373841E+03  0.46999998093E+01 0. -1.
</event>
<event>
 5   0  0.5987810E-02  0.7014352E+03  0.7818609E-02  0.9714781E-01
        2   -1    0    0  501    0  0.00000000000E+00  0.00000000000E+00  0.11832407879E+04  0.11832407879E+04  0.25500000920E-02 0.  1.
       -2   -1    0    0    0  501  0.00000000000E+00  0.00000000000E+00 -0.10395419992E+03  0.10395419995E+03  0.25500000920E-02 0. -1.
    10030    2    1    2    0    0  0.00000000000E+00  0.00000000000E+00  0.10792865880E+04  0.12871949879E+04  0.70143524133E+03 0.  0.
        5    1    3    3  502    0 -0.18985016937E+03 -0.20439364224E+03  0.92961949873E+03  0.97058454048E+03  0.46999998093E+01 0.  1.
       -5    1    3    3    0  502  0.18985016937E+03  0.20439364224E+03  0.14966708928E+03  0.31661044741E+03  0.46999998093E+01 0. -1.
</event>
<event>
 5   0  0.3755872E-02  0.5091013E+03  0.7818609E-02  0.1011430E+00
        1   -1    0    0  501    0  0.00000000000E+00  0.00000000000E+00  0.41513988965E+03  0.41513988968E+03  0.50400001928E-02 0. -1.
       -1   -1    0    0    0  501  0.00000000000E+00  0.00000000000E+00 -0.15608239597E+03  0.15608239605E+03  0.50400001928E-02 0.  1.
    10030    2    1    2    0    0  0.00000000000E+00  0.00000000000E+00  0.25905749369E+03  0.57122228573E+03  0.50910128136E+03 0.  0.
        2    1    3    3  502    0  0.99001992836E+02 -0.22185785961E+03  0.44271958175E+02  0.24694596725E+03  0.25500000920E-02 0.  1.
       -2    1    3    3    0  502 -0.99001992836E+02  0.22185785961E+03  0.21478553551E+03  0.32427631848E+03  0.25500000920E-02 0. -1.
</event>
<event>
 5   0  0.6131198E-02  0.7215548E+03  0.7818609E-02  0.9681064E-01
        2   -1    0    0  501    0  0.00000000000E+00  0.00000000000E+00  0.65607798673E+03  0.65607798674E+03  0.25500000920E-02 0. -1.
       -2   -1    0    0    0  501  0.00000000000E+00  0.00000000000E+00 -0.19839157570E+03  0.19839157572E+03  0.25500000920E-02 0.  1.
    10030    2    1    2    0    0  0.00000000000E+00  0.00000000000E+00  0.45768641103E+03  0.85446956246E+03  0.72155483667E+03 0.  0.
        1    1    3    3  502    0  0.26948400422E+03 -0.16391393819E+03  0.43623462454E+03  0.53832151670E+03  0.50400001928E-02 0. -1.
       -1    1    3    3    0  502 -0.26948400422E+03  0.16391393819E+03  0.21451786485E+02  0.31614804576E+03  0.50400001928E-02 0.  1.
</event>
<event>
 5   0  0.3601475E-02  0.7080259E+03  0.7818609E-02  0.9703604E-01
       -1   -1    0    0    0  501  0.00000000000E+00  0.00000000000E+00  0.84858005244E+02  0.84858005394E+02  0.50400001928E-02 0.  1.
        1   -1    0    0  501    0  0.00000000000E+00  0.00000000000E+00 -0.14768810812E+04  0.14768810812E+04  0.50400001928E-02 0. -1.
    10030    2    1    2    0    0  0.00000000000E+00  0.00000000000E+00 -0.13920230760E+04  0.15617390866E+04  0.70802593924E+03 0.  0.
        5    1    3    3  502    0  0.20311346175E+03  0.11791719539E+03 -0.11182280056E+03  0.26016527831E+03  0.46999998093E+01 0.  1.
       -5    1    3    3    0  502 -0.20311346175E+03 -0.11791719539E+03 -0.12802002754E+04  0.13015738083E+04  0.46999998093E+01 0. -1.
</event>
<event>
 5   0  0.3439015E-02  0.7033746E+03  0.7818609E-02  0.9711479E-01
       -1   -1    0    0    0  501  0.00000000000E+00  0.00000000000E+00  0.15415265949E+03  0.15415265958E+03  0.50400001928E-02 0. -1.
        1   -1    0    0  501    0  0.00000000000E+00  0.00000000000E+00 -0.80234717110E+03  0.80234717111E+03  0.50400001928E-02 0.  1.
    10030    2    1    2    0    0  0.00000000000E+00  0.00000000000E+00 -0.64819451160E+03  0.95649983069E+03  0.70337458103E+03 0.  0.
        1    1    3    3  502    0 -0.42300807789E+02 -0.66084664442E+01  0.15059553325E+03  0.15656322949E+03  0.50400001928E-02 0. -1.
       -1    1    3    3    0  502  0.42300807789E+02  0.66084664442E+01 -0.79879004485E+03  0.79993660120E+03  0.50400001928E-02 0.  1.
</event>
<event>
 5   0  0.3439015E-02  0.6994050E+03  0.7818609E-02  0.9718250E-01
        1   -1    0    0  501    0  0.00000000000E+00  0.00000000000E+00  0.72800902624E+03  0.72800902626E+03  0.50400001928E-02 0. -1.
       -1   -1    0    0    0  501  0.00000000000E+00  0.00000000000E+00 -0.16798123548E+03  0.16798123556E+03  0.50400001928E-02 0.  1.
    10030    2    1    2    0    0  0.00000000000E+00  0.00000000000E+00  0.56002779076E+03  0.89599026182E+03  0.69940504920E+03 0.  0.
        1    1    3    3  502    0  0.22696839459E+03  0.16311670382E+03  0.54925349505E+03  0.61628006057E+03  0.50400001928E-02 0. -1.
       -1    1    3    3    0  502 -0.22696839459E+03 -0.16311670382E+03  0.10774295711E+02  0.27971020125E+03  0.50400001928E-02 0.  1.
</event>
<event>
 5   0  0.3755872E-02  0.6977580E+03  0.7818609E-02  0.9721074E-01
       -1   -1    0    0    0  501  0.00000000000E+00  0.00000000000E+00  0.23412070324E+03  0.23412070330E+03  0.50400001928E-02 0. -1.
        1   -1    0    0  501    0  0.00000000000E+00  0.00000000000E+00 -0.51988799677E+03  0.51988799680E+03  0.50400001928E-02 0.  1.
    10030    2    1    2    0    0  0.00000000000E+00  0.00000000000E+00 -0.28576729353E+03  0.75400870009E+03  0.69775796217E+03 0.  0.
        2    1    3    3  502    0 -0.31508786414E+03  0.29455318433E+02 -0.30158556900E+03  0.43715195682E+03  0.25500000920E-02 0.  1.
       -2    1    3    3    0  502  0.31508786414E+03 -0.29455318433E+02  0.15818275473E+02  0.31685674327E+03  0.25500000920E-02 0. -1.
</event>
<event>
 5   0  0.6167756E-02  0.7072577E+03  0.7818609E-02  0.9704900E-01
        2   -1    0    0  501    0  0.00000000000E+00  0.00000000000E+00  0.28064993115E+03  0.28064993116E+03  0.25500000920E-02 0.  1.
       -2   -1    0    0    0  501  0.00000000000E+00  0.00000000000E+00 -0.44558491631E+03  0.44558491632E+03  0.25500000920E-02 0. -1.
    10030    2    1    2    0    0  0.00000000000E+00  0.00000000000E+00 -0.16493498516E+03  0.72623484748E+03  0.70725773546E+03 0.  0.
        4    1    3    3  502    0  0.17283567519E+03 -0.65898961587E+02 -0.39194605924E+03  0.43340301107E+03  0.12699999809E+01 0. -1.
       -4    1    3    3    0  502 -0.17283567519E+03  0.65898961587E+02  0.22701107408E+03  0.29283183640E+03  0.12699999809E+01 0.  1.
</event>
<event>
 5   0  0.6131198E-02  0.6884829E+03  0.7818609E-02  0.9737133E-01
       -2   -1    0    0    0  501  0.00000000000E+00  0.00000000000E+00  0.90418039303E+02  0.90418039339E+02  0.25500000920E-02 0.  1.
        2   -1    0    0  501    0  0.00000000000E+00  0.00000000000E+00 -0.13106032944E+04  0.13106032944E+04  0.25500000920E-02 0. -1.
    10030    2    1    2    0    0  0.00000000000E+00  0.00000000000E+00 -0.12201852550E+04  0.14010213337E+04  0.68848291252E+03 0.  0.
        1    1    3    3  502    0  0.37925888544E+02  0.24786396113E+03 -0.13014325063E+03  0.28251049884E+03  0.50400001928E-02 0.  1.
       -1    1    3    3    0  502 -0.37925888544E+02 -0.24786396113E+03 -0.10900420044E+04  0.11185108349E+04  0.50400001928E-02 0. -1.
</event>
<event>
 5   0  0.3749730E-02  0.7147593E+03  0.7818609E-02  0.9692320E-01
       -1   -1    0    0    0  501  0.00000000000E+00  0.00000000000E+00  0.37692979303E+03  0.37692979307E+03  0.50400001928E-02 0. -1.
        1   -1    0    0  501    0  0.00000000000E+00  0.00000000000E+00 -0.33884349308E+03  0.33884349312E+03  0.50400001928E-02 0.  1.
    10030    2    1    2    0    0  0.00000000000E+00  0.00000000000E+00  0.38086299948E+02  0.71577328619E+03  0.71475928184E+03 0.  0.
        4    1    3    3  502    0 -0.31026798203E+03 -0.13057183071E+03  0.13922745559E+03  0.36428165057E+03  0.12699999809E+01 0.  1.
       -4    1    3    3    0  502  0.31026798203E+03  0.13057183071E+03 -0.10114115564E+03  0.35149163562E+03  0.12699999809E+01 0. -1.
</event>
<event>
 5   0  0.5987810E-02  0.7104261E+03  0.7818609E-02  0.9699566E-01
        2   -1    0    0  501    0  0.00000000000E+00  0.00000000000E+00  0.30087340829E+03  0.30087340830E+03  0.25500000920E-02 0. -1.
       -2   -1    0    0    0  501  0.00000000000E+00  0.00000000000E+00 -0.41936682833E+03  0.41936682834E+03  0.25500000920E-02 0.  1.
    10030    2    1    2    0    0  0.00000000000E+00  0.00000000000E+00 -0.11849342003E+03  0.72024023664E+03  0.71042614527E+03 0.  0.
        5    1    3    3  502    0  0.19358733659E+03  0.15008948268E+03 -0.31999875609E+03  0.40301886258E+03  0.46999998093E+01 0.  1.
       -5    1    3    3    0  502 -0.19358733659E+03 -0.15008948268E+03  0.20150533606E+03  0.31722137406E+03  0.46999998093E+01 0. -1.
</event>
<event>
 5   0  0.6248886E-02  0.6994539E+03  0.7818609E-02  0.9718167E-01
       -2   -1    0    0    0  501  0.00000000000E+00  0.00000000000E+00  0.77255547074E+02  0.77255547116E+02  0.25500000920E-02 0. -1.
        2   -1    0    0  501    0  0.00000000000E+00  0.00000000000E+00 -0.15831735494E+04  0.15831735494E+04  0.25500000920E-02 0.  1.
    10030    2    1    2    0    0  0.00000000000E+00  0.00000000000E+00 -0.15059180024E+04  0.16604290966E+04  0.69945389758E+03 0.  0.
        3    1    3    3  502    0 -0.12378866746E+03 -0.32700327909E+03 -0.77042766204E+03  0.84605766432E+03  0.10100000352E+00 0. -1.
       -3    1    3    3    0  502  0.12378866746E+03  0.32700327909E+03 -0.73549034033E+03  0.81437143223E+03  0.10100000352E+00 0.  1.
</event>
<event>
 5   0  0.6167756E-02  0.6922533E+03  0.7818609E-02  0.9730572E-01
        2   -1    0    0  501    0  0.00000000000E+00  0.00000000000E+00  0.75251190028E+03  0.75251190028E+03  0.25500000920E-02 0.  1.
       -2   -1    0    0    0  501  0.00000000000E+00  0.00000000000E+00 -0.15920501609E+03  0.15920501611E+03  0.25500000920E-02 0. -1.
    10030    2    1    2    0    0  0.00000000000E+00  0.00000000000E+00  0.59330688419E+03  0.91171691639E+03  0.69225333283E+03 0.  0.
        4    1    3    3  502    0 -0.94089200384E+02 -0.21961867428E+03 -0.33174395072E+02  0.24122042432E+03  0.12699999809E+01 0. -1.
       -4    1    3    3    0  502  0.94089200384E+02  0.21961867428E+03  0.62648127926E+03  0.67049649207E+03  0.12699999809E+01 0.  1.
</event>
<event>
 5   0  0.5899787E-02  0.7027179E+03  0.7818609E-02  0.9712595E-01
       -2   -1    0    0    0  501  0.00000000000E+00  0.00000000000E+00  0.99328750452E+03  0.99328750452E+03  0.25500000920E-02 0.  1.
        2   -1    0    0  501    0  0.00000000000E+00  0.00000000000E+00 -0.12428739614E+03  0.12428739617E+03  0.25500000920E-02 0. -1.
    10030    2    1    2    0    0  0.00000000000E+00  0.00000000000E+00  0.86900010837E+03  0.11175749007E+04  0.70271791659E+03 0.  0.
        2    1    3    3  502    0 -0.20277806178E+03  0.27215618464E+03  0.57908462131E+03  0.67121302864E+03  0.25500000920E-02 0. -1.
       -2    1    3    3    0  502  0.20277806178E+03 -0.27215618464E+03  0.28991548707E+03  0.44636187205E+03  0.25500000920E-02 0.  1.
</event>
<event>
 5   0  0.5899787E-02  0.7019968E+03  0.7818609E-02  0.9713823E-01
        2   -1    0    0  501    0  0.00000000000E+00  0.00000000000E+00  0.70438605274E+03  0.70438605275E+03  0.25500000920E-02 0. -1.
       -2   -1    0    0    0  501  0.00000000000E+00  0.00000000000E+00 -0.17490392286E+03  0.17490392288E+03  0.25500000920E-02 0.  1.
    10030    2    1    2    0    0  0.00000000000E+00  0.00000000000E+00  0.52948212988E+03  0.87928997563E+03  0.70199682006E+03 0.  0.
        2    1    3    3  502    0  0.73874879957E+02  0.19100544834E+03 -0.92312626956E+02  0.22463793154E+03  0.25500000920E-02 0.  1.
       -2    1    3    3    0  502 -0.73874879957E+02 -0.19100544834E+03  0.62179475684E+03  0.65465204409E+03  0.25500000920E-02 0. -1.
</event>
<event>
 5   0  0.5899787E-02  0.7307261E+03  0.7818609E-02  0.9666083E-01
       -2   -1    0    0    0  501  0.00000000000E+00  0.00000000000E+00  0.22538530652E+03  0.22538530653E+03  0.25500000920E-02 0. -1.
        2   -1    0    0  501    0  0.00000000000E+00  0.00000000000E+00 -0.59227526780E+03  0.59227526781E+03  0.25500000920E-02 0.  1.
    10030    2    1    2    0    0  0.00000000000E+00  0.00000000000E+00 -0.36688996129E+03  0.81766057434E+03  0.73072605752E+03 0.  0.
        2    1    3    3  502    0  0.27411023704E+03 -0.23197914265E+03 -0.10805431130E+03  0.37500197182E+03  0.25500000920E-02 0.  1.
       -2    1    3    3    0  502 -0.27411023704E+03  0.23197914265E+03 -0.25883564998E+03  0.44265860252E+03  0.25500000920E-02 0. -1.
</event>
<event>
 5   0  0.6248886E-02  0.7056981E+03  0.7818609E-02  0.9707537E-01
       -2   -1    0    0    0  501  0.00000000000E+00  0.00000000000E+00  0.17667743800E+03  0.17667743801E+03  0.25500000920E-02 0. -1.
        2   -1    0    0  501    0  0.00000000000E+00  0.00000000000E+00 -0.70468795671E+03  0.70468795671E+03  0.25500000920E-02 0.  1.
    10030    2    1    2    0    0  0.00000000000E+00  0.00000000000E+00 -0.52801051871E+03  0.88136539473E+03  0.70569813033E+03 0.  0.
        3    1    3    3  502    0  0.77251508924E+02  0.17390228820E+03  0.10710187757E+03  0.21835893353E+03  0.10100000352E+00 0. -1.
       -3    1    3    3    0  502 -0.77251508924E+02 -0.17390228820E+03 -0.63511239628E+03  0.66300646119E+03  0.10100000352E+00 0.  1.
</event>
<event>
 5   0  0.6167756E-02  0.7078375E+03  0.7818609E-02  0.9703922E-01
       -2   -1    0    0    0  501  0.00000000000E+00  0.00000000000E+00  0.16038646989E+03  0.16038646991E+03  0.25500000920E-02 0.  1.
        2   -1    0    0  501    0  0.00000000000E+00  0.00000000000E+00 -0.78097908562E+03  0.78097908563E+03  0.25500000920E-02 0. -1.
    10030    2    1    2    0    0  0.00000000000E+00  0.00000000000E+00 -0.62059261573E+03  0.94136555554E+03  0.70783749155E+03 0.  0.
        4    1    3    3  502    0 -0.14897794180E+03 -0.83937941405E+00  0.11665019852E+03  0.18921948477E+03  0.12699999809E+01 0.  1.
       -4    1    3    3    0  502  0.14897794180E+03  0.83937941405E+00 -0.73724281426E+03  0.75214607077E+03  0.12699999809E+01 0. -1.
</event>
<event>
 5   0  0.6131198E-02  0.5174014E+03  0.7818609E-02  0.1009334E+00
       -2   -1    0    0    0  501  0.00000000000E+00  0.00000000000E+00  0.55491996317E+02  0.55491996376E+02  0.25500000920E-02 0. -1.
        2   -1    0    0  501    0  0.00000000000E+00  0.00000000000E+00 -0.12060489298E+04  0.12060489298E+04  0.25500000920E-02 0.  1.
    10030    2    1    2    0    0  0.00000000000E+00  0.00000000000E+00 -0.11505569335E+04  0.12615409262E+04  0.51740144110E+03 0.  0.
        1    1    3    3  502    0 -0.20774462917E+03 -0.34329064107E+02 -0.20881608864E+03  0.29654759228E+03  0.50400001928E-02 0. -1.
       -1    1    3    3    0  502  0.20774462917E+03  0.34329064107E+02 -0.94174084489E+03  0.96499333394E+03  0.50400001928E-02 0.  1.
</event>
<event>
 5   0  0.3439015E-02  0.7160097E+03  0.7818609E-02  0.9690239E-01
        1   -1    0    0  501    0  0.00000000000E+00  0.00000000000E+00  0.64318470226E+03  0.64318470228E+03  0.50400001928E-02 0. -1.
       -1   -1    0    0    0  501  0.00000000000E+00  0.00000000000E+00 -0.19927009384E+03  0.19927009390E+03  0.50400001928E-02 0.  1.
    10030    2    1    2    0    0  0.00000000000E+00  0.00000000000E+00  0.44391460842E+03  0.84245479618E+03  0.71600970946E+03 0.  0.
        1    1    3    3  502    0 -0.22729186571E+03  0.20808051038E+03  0.43637053112E+03  0.53420813497E+03  0.50400001928E-02 0. -1.
       -1    1    3    3    0  502  0.22729186571E+03 -0.20808051038E+03  0.75440773028E+01  0.30824666121E+03  0.50400001928E-02 0.  1.
</event>
<event>
 5   0  0.3717372E-02  0.6948152E+03  0.7818609E-02  0.9726140E-01
        1   -1    0    0  501    0  0.00000000000E+00  0.00000000000E+00  0.41771370902E+03  0.41771370905E+03  0.50400001928E-02 0.  1.
       -1   -1    0    0    0  501  0.00000000000E+00  0.00000000000E+00 -0.28893486221E+03  0.28893486225E+03  0.50400001928E-02 0. -1.
    10030    2    1    2    0    0  0.00000000000E+00  0.00000000000E+00  0.12877884681E+03  0.70664857131E+03  0.69481523583E+03 0.  0.
        3    1    3    3  502    0 -0.12054923182E+03 -0.32477352845E+03  0.37827957715E+02  0.34848375380E+03  0.10100000352E+00 0. -1.
       -3    1    3    3    0  502  0.12054923182E+03  0.32477352845E+03  0.90950889098E+02  0.35816481751E+03  0.10100000352E+00 0.  1.
</event>
<event>
 5   0  0.3749730E-02  0.6949484E+03  0.7818609E-02  0.9725910E-01
       -1   -1    0    0    0  501  0.00000000000E+00  0.00000000000E+00  0.18370258708E+03  0.18370258714E+03  0.50400001928E-02 0. -1.
        1   -1    0    0  501    0  0.00000000000E+00  0.00000000000E+00 -0.65724890736E+03  0.65724890738E+03  0.50400001928E-02 0.  1.
    10030    2    1    2    0    0  0.00000000000E+00  0.00000000000E+00 -0.47354632029E+03  0.84095149453E+03  0.69494841441E+03 0.  0.
        4    1    3    3  502    0 -0.24082222145E+03  0.25037748274E+03 -0.22800641622E+03  0.41553912565E+03  0.12699999809E+01 0. -1.
       -4    1    3    3    0  502  0.24082222145E+03 -0.25037748274E+03 -0.24553990406E+03  0.42541236888E+03  0.12699999809E+01 0.  1.
</event>
<event>
 5   0  0.6167756E-02  0.7019919E+03  0.7818609E-02  0.9713832E-01
       -2   -1    0    0    0  501  0.00000000000E+00  0.00000000000E+00  0.22128468522E+03  0.22128468523E+03  0.25500000920E-02 0.  1.
        2   -1    0    0  501    0  0.00000000000E+00  0.00000000000E+00 -0.55674054602E+03  0.55674054602E+03  0.25500000920E-02 0. -1.
    10030    2    1    2    0    0  0.00000000000E+00  0.00000000000E+00 -0.33545586080E+03  0.77802523125E+03  0.70199189876E+03 0.  0.
        4    1    3    3  502    0 -0.11292973806E+03 -0.18174148249E+03  0.14064041909E+03  0.25605552636E+03  0.12699999809E+01 0.  1.
       -4    1    3    3    0  502  0.11292973806E+03  0.18174148249E+03 -0.47609627989E+03  0.52196970489E+03  0.12699999809E+01 0. -1.
</event>
<event>
 5   0  0.5899787E-02  0.7025430E+03  0.7818609E-02  0.9712893E-01
       -2   -1    0    0    0  501  0.00000000000E+00  0.00000000000E+00  0.23688959650E+03  0.23688959651E+03  0.25500000920E-02 0. -1.
        2   -1    0    0  501    0  0.00000000000E+00  0.00000000000E+00 -0.52088263662E+03  0.52088263663E+03  0.25500000920E-02 0.  1.
    10030    2    1    2    0    0  0.00000000000E+00  0.00000000000E+00 -0.28399304012E+03  0.75777223314E+03  0.70254303105E+03 0.  0.
        2    1    3    3  502    0 -0.13497965340E+03 -0.31580769878E+03 -0.22153405156E+03  0.40869468488E+03  0.25500000920E-02 0.  1.
       -2    1    3    3    0  502  0.13497965340E+03  0.31580769878E+03 -0.62458988562E+02  0.34907754826E+03  0.25500000920E-02 0. -1.
</event>
<event>
 5   0  0.5899787E-02  0.7024211E+03  0.7818609E-02  0.9713101E-01
        2   -1    0    0  501    0  0.00000000000E+00  0.00000000000E+00  0.54539781027E+03  0.54539781027E+03  0.25500000920E-02 0. -1.
       -2   -1    0    0    0  501  0.00000000000E+00  0.00000000000E+00 -0.22616310242E+03  0.22616310243E+03  0.25500000920E-02 0.  1.
    10030    2    1    2    0    0  0.00000000000E+00  0.00000000000E+00  0.31923470785E+03  0.77156091270E+03  0.70242112961E+03 0.  0.
        2    1    3    3  502    0 -0.33347301105E+02 -0.16478298954E+03 -0.17909026629E+03  0.24563957258E+03  0.25500000920E-02 0.  1.
       -2    1    3    3    0  502  0.33347301105E+02  0.16478298954E+03  0.49832497414E+03  0.52592134012E+03  0.25500000920E-02 0. -1.
</event>
<event>
 5   0  0.6131198E-02  0.6981039E+03  0.7818609E-02  0.9720480E-01
       -2   -1    0    0    0  501  0.00000000000E+00  0.00000000000E+00  0.24562745151E+03  0.24562745152E+03  0.25500000920E-02 0. -1.
        2   -1    0    0  501    0  0.00000000000E+00  0.00000000000E+00 -0.49602465507E+03  0.49602465508E+03  0.25500000920E-02 0.  1.
    10030    2    1    2    0    0  0.00000000000E+00  0.00000000000E+00 -0.25039720356E+03  0.74165210660E+03  0.69810392326E+03 0.  0.
        1    1    3    3  502    0  0.15828893513E+03 -0.30973998630E+03 -0.94352478626E+02  0.36041175944E+03  0.50400001928E-02 0. -1.
       -1    1    3    3    0  502 -0.15828893513E+03  0.30973998630E+03 -0.15604472493E+03  0.38124034716E+03  0.50400001928E-02 0.  1.
</event>
<event>
 5   0  0.5987810E-02  0.6752529E+03  0.7818609E-02  0.9760515E-01
       -2   -1    0    0    0  501  0.00000000000E+00  0.00000000000E+00  0.72780788635E+02  0.72780788680E+02  0.25500000920E-02 0.  1.
        2   -1    0    0  501    0  0.00000000000E+00  0.00000000000E+00 -0.15662322620E+04  0.15662322620E+04  0.25500000920E-02 0. -1.
    10030    2    1    2    0    0  0.00000000000E+00  0.00000000000E+00 -0.14934514734E+04  0.16390130507E+04  0.67525289857E+03 0.  0.
        5    1    3    3  502    0  0.21108153935E+03  0.16915555827E+03 -0.12370108999E+04  0.12662492155E+04  0.46999998093E+01 0. -1.
       -5    1    3    3    0  502 -0.21108153935E+03 -0.16915555827E+03 -0.25644057348E+03  0.37276383525E+03  0.46999998093E+01 0.  1.
</event>
<event>
 5   0  0.3755872E-02  0.6986386E+03  0.7818609E-02  0.9719563E-01
       -1   -1    0    0    0  501  0.00000000000E+00  0.00000000000E+00  0.81179516232E+03  0.81179516234E+03  0.50400001928E-02 0.  1.
        1   -1    0    0  501    0  0.00000000000E+00  0.00000000000E+00 -0.15031375979E+03  0.15031375988E+03  0.50400001928E-02 0. -1.
    10030    2    1    2    0    0  0.00000000000E+00  0.00000000000E+00  0.66148140253E+03  0.96210892222E+03  0.69863862785E+03 0.  0.
        2    1    3    3  502    0  0.53436704923E+02 -0.33708353850E+03  0.22821056865E+03  0.41056163607E+03  0.25500000920E-02 0. -1.
       -2    1    3    3    0  502 -0.53436704923E+02  0.33708353850E+03  0.43327083388E+03  0.55154728615E+03  0.25500000920E-02 0.  1.
</event>
<event>
 5   0  0.3717372E-02  0.6822386E+03  0.7818609E-02  0.9748098E-01
        1   -1    0    0  501    0  0.00000000000E+00  0.00000000000E+00  0.24290334171E+03  0.24290334177E+03  0.50400001928E-02 0.  1.
       -1   -1    0    0    0  501  0.00000000000E+00  0.00000000000E+00 -0.47904803922E+03  0.47904803925E+03  0.50400001928E-02 0. -1.
    10030    2    1    2    0    0  0.00000000000E+00  0.00000000000E+00 -0.23614469751E+03  0.72195138102E+03  0.68223857879E+03 0.  0.
        3    1    3    3  502    0 -0.30420085774E+03  0.13491150852E+03 -0.19742453599E+03  0.38693117552E+03  0.10100000352E+00 0.  1.
       -3    1    3    3    0  502  0.30420085774E+03 -0.13491150852E+03 -0.38720161521E+02  0.33502020549E+03  0.10100000352E+00 0. -1.
</event>
<event>
 5   0  0.3439015E-02  0.7044012E+03  0.7818609E-02  0.9709735E-01
        1   -1    0    0  501    0  0.00000000000E+00  0.00000000000E+00  0.78655078648E+02  0.78655078809E+02  0.50400001928E-02 0. -1.
       -1   -1    0    0    0  501  0.00000000000E+00  0.00000000000E+00 -0.15770786726E+04  0.15770786726E+04  0.50400001928E-02 0.  1.
    10030    2    1    2    0    0  0.00000000000E+00  0.00000000000E+00 -0.14984235939E+04  0.16557337514E+04  0.70440115606E+03 0.  0.
        1    1    3    3  502    0 -0.23361305541E+03  0.82779133977E+02 -0.16101947266E+03  0.29555831113E+03  0.50400001928E-02 0. -1.
       -1    1    3    3    0  502  0.23361305541E+03 -0.82779133977E+02 -0.13374041213E+04  0.13601754403E+04  0.50400001928E-02 0.  1.
</event>
<event>
 5   0  0.3755872E-02  0.6855232E+03  0.7818609E-02  0.9742315E-01
        1   -1    0    0  501    0  0.00000000000E+00  0.00000000000E+00  0.28692083040E+03  0.28692083045E+03  0.50400001928E-02 0.  1.
       -1   -1    0    0    0  501  0.00000000000E+00  0.00000000000E+00 -0.40947009939E+03  0.40947009942E+03  0.50400001928E-02 0. -1.
    10030    2    1    2    0    0  0.00000000000E+00  0.00000000000E+00 -0.12254926899E+03  0.69639092987E+03  0.68552316071E+03 0.  0.
        2    1    3    3  502    0  0.43802218346E+01 -0.90756139176E+02 -0.39701319236E+03  0.40727796167E+03  0.25500000920E-02 0. -1.
       -2    1    3    3    0  502 -0.43802218346E+01  0.90756139176E+02  0.27446392338E+03  0.28911296820E+03  0.25500000920E-02 0.  1.
</event>
<event>
 5   0  0.6248886E-02  0.6494169E+03  0.7818609E-02  0.9807874E-01
       -2   -1    0    0    0  501  0.00000000000E+00  0.00000000000E+00  0.47041462766E+03  0.47041462767E+03  0.25500000920E-02 0.  1.
        2   -1    0    0  501    0  0.00000000000E+00  0.00000000000E+00 -0.22413329260E+03  0.22413329262E+03  0.25500000920E-02 0. -1.
    10030    2    1    2    0    0  0.00000000000E+00  0.00000000000E+00  0.24628133506E+03  0.69454792028E+03  0.64941690582E+03 0.  0.
        3    1    3    3  502    0 -0.12880221479E+03  0.29353600893E+03  0.67751889404E+02  0.32763352667E+03  0.10100000352E+00 0. -1.
       -3    1    3    3    0  502  0.12880221479E+03 -0.29353600893E+03  0.17852944565E+03  0.36691439362E+03  0.10100000352E+00 0.  1.
</event>
<event>
 5   0  0.3755872E-02  0.7503005E+03  0.7818609E-02  0.9634879E-01
       -1   -1    0    0    0  501  0.00000000000E+00  0.00000000000E+00  0.87776123445E+02  0.87776123589E+02  0.50400001928E-02 0. -1.
        1   -1    0    0  501    0  0.00000000000E+00  0.00000000000E+00 -0.16033710344E+04  0.16033710344E+04  0.50400001928E-02 0.  1.
    10030    2    1    2    0    0  0.00000000000E+00  0.00000000000E+00 -0.15155949109E+04  0.16911471580E+04  0.75030045707E+03 0.  0.
        2    1    3    3  502    0  0.20230747815E+03  0.42281208689E+02 -0.52118356299E+02  0.21314863217E+03  0.25500000920E-02 0. -1.
       -2    1    3    3    0  502 -0.20230747815E+03 -0.42281208689E+02 -0.14634765546E+04  0.14779985258E+04  0.25500000920E-02 0.  1.
</event>
<event>
 5   0  0.5987810E-02  0.6942786E+03  0.7818609E-02  0.9727067E-01
        2   -1    0    0  501    0  0.00000000000E+00  0.00000000000E+00  0.67328695716E+03  0.67328695716E+03  0.25500000920E-02 0. -1.
       -2   -1    0    0    0  501  0.00000000000E+00  0.00000000000E+00 -0.17898115976E+03  0.17898115978E+03  0.25500000920E-02 0.  1.
    10030    2    1    2    0    0  0.00000000000E+00  0.00000000000E+00  0.49430579740E+03  0.85226811695E+03  0.69427856213E+03 0.  0.
        5    1    3    3  502    0 -0.26272906597E+03  0.11587522945E+03  0.48654257546E+03  0.56497734348E+03  0.46999998093E+01 0. -1.
       -5    1    3    3    0  502  0.26272906597E+03 -0.11587522945E+03  0.77632219304E+01  0.28729077347E+03  0.46999998093E+01 0.  1.
</event>
<event>
 5   0  0.6167756E-02  0.6927678E+03  0.7818609E-02  0.9729681E-01
        2   -1    0    0  501    0  0.00000000000E+00  0.00000000000E+00  0.41236899970E+03  0.41236899971E+03  0.25500000920E-02 0.  1.
       -2   -1    0    0    0  501  0.00000000000E+00  0.00000000000E+00 -0.29095740903E+03  0.29095740904E+03  0.25500000920E-02 0. -1.
    10030    2    1    2    0    0  0.00000000000E+00  0.00000000000E+00  0.12141159067E+03  0.70332640875E+03  0.69276782755E+03 0.  0.
        4    1    3    3  502    0 -0.47199230581E+02 -0.29332432968E+03  0.24150218246E+03  0.38287314712E+03  0.12699999809E+01 0.  1.
       -4    1    3    3    0  502  0.47199230581E+02  0.29332432968E+03 -0.12009059179E+03  0.32045326163E+03  0.12699999809E+01 0. -1.
</event>
<event>
 5   0  0.3601475E-02  0.7177750E+03  0.7818609E-02  0.9687308E-01
       -1   -1    0    0    0  501  0.00000000000E+00  0.00000000000E+00  0.74244704314E+02  0.74244704485E+02  0.50400001928E-02 0.  1.
        1   -1    0    0  501    0  0.00000000000E+00  0.00000000000E+00 -0.17348071659E+04  0.17348071659E+04  0.50400001928E-02 0. -1.
    10030    2    1    2    0    0  0.00000000000E+00  0.00000000000E+00 -0.16605624616E+04  0.18090518704E+04  0.71777502112E+03 0.  0.
        5    1    3    3  502    0 -0.21044063822E+03 -0.29957384593E+02 -0.10157246475E+03  0.23563056402E+03  0.46999998093E+01 0.  1.
       -5    1    3    3    0  502  0.21044063822E+03  0.29957384593E+02 -0.15589899968E+04  0.15734213064E+04  0.46999998093E+01 0. -1.
</event>
<event>
 5   0  0.3717372E-02  0.6942281E+03  0.7818609E-02  0.9727154E-01
       -1   -1    0    0    0  501  0.00000000000E+00  0.00000000000E+00  0.51104046746E+03  0.51104046748E+03  0.50400001928E-02 0. -1.
        1   -1    0    0  501    0  0.00000000000E+00  0.00000000000E+00 -0.23577028001E+03  0.23577028007E+03  0.50400001928E-02 0.  1.
    10030    2    1    2    0    0  0.00000000000E+00  0.00000000000E+00  0.27527018745E+03  0.74681074755E+03  0.69422807244E+03 0.  0.
        3    1    3    3  502    0 -0.10253354489E+02  0.34039242456E+03  0.20992636031E+03  0.40005152284E+03  0.10100000352E+00 0. -1.
       -3    1    3    3    0  502  0.10253354489E+02 -0.34039242456E+03  0.65343827134E+02  0.34675922471E+03  0.10100000352E+00 0.  1.
</event>
<event>
 5   0  0.3749730E-02  0.7043355E+03  0.7818609E-02  0.9709846E-01
        1   -1    0    0  501    0  0.00000000000E+00  0.00000000000E+00  0.14792721970E+04  0.14792721970E+04  0.50400001928E-02 0. -1.
       -1   -1    0    0    0  501  0.00000000000E+00  0.00000000000E+00 -0.83839971295E+02  0.83839971446E+02  0.50400001928E-02 0.  1.
    10030    2    1    2    0    0  0.00000000000E+00  0.00000000000E+00  0.13954322257E+04  0.15631121685E+04  0.70433554123E+03 0.  0.
        4    1    3    3  502    0  0.32174639556E+03 -0.75163782301E+02  0.42727262771E+03  0.54012391959E+03  0.12699999809E+01 0.  1.
       -4    1    3    3    0  502 -0.32174639556E+03  0.75163782301E+02  0.96815959800E+03  0.10229882489E+04  0.12699999809E+01 0. -1.
</event>
<event>
 5   0  0.3601475E-02  0.6595570E+03  0.7818609E-02  0.9789010E-01
        1   -1    0    0  501    0  0.00000000000E+00  0.00000000000E+00  0.23505695940E+03  0.23505695945E+03  0.50400001928E-02 0. -1.
       -1   -1    0    0    0  501  0.00000000000E+00  0.00000000000E+00 -0.46267026653E+03  0.46267026656E+03  0.50400001928E-02 0.  1.
    10030    2    1    2    0    0  0.00000000000E+00  0.00000000000E+00 -0.22761330713E+03  0.69772722601E+03  0.65955702129E+03 0.  0.
        5    1    3    3  502    0  0.26129960201E+03  0.18374807292E+03 -0.20033868160E+03  0.37709218191E+03  0.46999998093E+01 0.  1.
       -5    1    3    3    0  502 -0.26129960201E+03 -0.18374807292E+03 -0.27274625532E+02  0.32063504410E+03  0.46999998093E+01 0. -1.
</event>
<event>
 5   0  0.5899787E-02  0.7289900E+03  0.7818609E-02  0.9668901E-01
       -2   -1    0    0    0  501  0.00000000000E+00  0.00000000000E+00  0.12227717508E+03  0.12227717511E+03  0.25500000920E-02 0. -1.
        2   -1    0    0  501    0  0.00000000000E+00  0.00000000000E+00 -0.10865202201E+04  0.10865202201E+04  0.25500000920E-02 0.  1.
    10030    2    1    2    0    0  0.00000000000E+00  0.00000000000E+00 -0.96424304497E+03  0.12087973952E+04  0.72899004985E+03 0.  0.
        2    1    3    3  502    0 -0.36179381325E+03  0.38569773013E+02 -0.51823152920E+03  0.63320321269E+03  0.25500000920E-02 0.  1.
       -2    1    3    3    0  502  0.36179381325E+03 -0.38569773013E+02 -0.44601151577E+03  0.57559418247E+03  0.25500000920E-02 0. -1.
</event>
<event>
 5   0  0.3755872E-02  0.7090748E+03  0.7818609E-02  0.9701838E-01
        1   -1    0    0  501    0  0.00000000000E+00  0.00000000000E+00  0.49243090029E+03  0.49243090032E+03  0.50400001928E-02 0. -1.
       -1   -1    0    0    0  501  0.00000000000E+00  0.00000000000E+00 -0.25525765926E+03  0.25525765931E+03  0.50400001928E-02 0.  1.
    10030    2    1    2    0    0  0.00000000000E+00  0.00000000000E+00  0.23717324104E+03  0.74768855962E+03  0.70907477457E+03 0.  0.
        2    1    3    3  502    0  0.31350309597E+03 -0.13398551369E+03  0.16025065856E+02  0.34131087267E+03  0.25500000920E-02 0. -1.
       -2    1    3    3    0  502 -0.31350309597E+03  0.13398551369E+03  0.22114817518E+03  0.40637768695E+03  0.25500000920E-02 0.  1.
</event>
<event>
 5   0  0.5987810E-02  0.7695019E+03  0.7818609E-02  0.9605242E-01
        2   -1    0    0  501    0  0.00000000000E+00  0.00000000000E+00  0.10835844732E+04  0.10835844732E+04  0.25500000920E-02 0. -1.
       -2   -1    0    0    0  501  0.00000000000E+00  0.00000000000E+00 -0.13661445731E+03  0.13661445733E+03  0.25500000920E-02 0.  1.
    10030    2    1    2    0    0  0.00000000000E+00  0.00000000000E+00  0.94697001586E+03  0.12201989305E+04  0.76950192921E+03 0.  0.
        5    1    3    3  502    0 -0.14526042475E+03  0.17542945486E+03  0.96514173560E+03  0.99166362464E+03  0.46999998093E+01 0. -1.
       -5    1    3    3    0  502  0.14526042475E+03 -0.17542945486E+03 -0.18171719738E+02  0.22853530587E+03  0.46999998093E+01 0.  1.
</event>
<event>
 5   0  0.3439015E-02  0.7202910E+03  0.7818609E-02  0.9683148E-01
        1   -1    0    0  501    0  0.00000000000E+00  0.00000000000E+00  0.30070839984E+03  0.30070839988E+03  0.50400001928E-02 0. -1.
       -1   -1    0    0    0  501  0.00000000000E+00  0.00000000000E+00 -0.43133077760E+03  0.43133077763E+03  0.50400001928E-02 0.  1.
    10030    2    1    2    0    0  0.00000000000E+00  0.00000000000E+00 -0.13062237776E+03  0.73203917750E+03  0.72029101884E+03 0.  0.
        1    1    3    3  502    0  0.28187736714E+03  0.10350020434E+02  0.16226702259E+03  0.32541136993E+03  0.50400001928E-02 0. -1.
       -1    1    3    3    0  502 -0.28187736714E+03 -0.10350020434E+02 -0.29288940035E+03  0.40662780758E+03  0.50400001928E-02 0.  1.
</event>
<event>
 5   0  0.6248886E-02  0.7113493E+03  0.7818609E-02  0.9698018E-01
        2   -1    0    0  501    0  0.00000000000E+00  0.00000000000E+00  0.21061216556E+04  0.21061216556E+04  0.25500000920E-02 0.  1.
       -2   -1    0    0    0  501  0.00000000000E+00  0.00000000000E+00 -0.60065130072E+02  0.60065130126E+02  0.25500000920E-02 0. -1.
    10030    2    1    2    0    0  0.00000000000E+00  0.00000000000E+00  0.20460565255E+04  0.21661867857E+04  0.71134934104E+03 0.  0.
        3    1    3    3  502    0  0.40532906919E+02 -0.11019807198E+01 -0.53003789675E+02  0.66734869639E+02  0.10100000352E+00 0. -1.
       -3    1    3    3    0  502 -0.40532906919E+02  0.11019807198E+01  0.20990603152E+04  0.20994519161E+04  0.10100000352E+00 0.  1.
</event>
<event>
 5   0  0.5987810E-02  0.7194097E+03  0.7818609E-02  0.9684603E-01
       -2   -1    0    0    0  501  0.00000000000E+00  0.00000000000E+00  0.23044674886E+03  0.23044674887E+03  0.25500000920E-02 0.  1.
        2   -1    0    0  501    0  0.00000000000E+00  0.00000000000E+00 -0.56146411989E+03  0.56146411989E+03  0.25500000920E-02 0. -1.
    10030    2    1    2    0    0  0.00000000000E+00  0.00000000000E+00 -0.33101737103E+03  0.79191086877E+03  0.71940970535E+03 0.  0.
        5    1    3    3  502    0 -0.22418427966E+03  0.50221874871E+02  0.13912008255E+03  0.26862113716E+03  0.46999998093E+01 0.  1.
       -5    1    3    3    0  502  0.22418427966E+03 -0.50221874871E+02 -0.47013745357E+03  0.52328973161E+03  0.46999998093E+01 0. -1.
</event>
<event>
 5   0  0.5987810E-02  0.7175817E+03  0.7818609E-02  0.9687629E-01
       -2   -1    0    0    0  501  0.00000000000E+00  0.00000000000E+00  0.19726584932E+03  0.19726584933E+03  0.25500000920E-02 0. -1.
        2   -1    0    0  501    0  0.00000000000E+00  0.00000000000E+00 -0.65257557650E+03  0.65257557650E+03  0.25500000920E-02 0.  1.
    10030    2    1    2    0    0  0.00000000000E+00  0.00000000000E+00 -0.45530972718E+03  0.84984142583E+03  0.71758170364E+03 0.  0.
        5    1    3    3  502    0  0.15954188428E+03 -0.18220586399E+03  0.85810683790E+02  0.25697889634E+03  0.46999998093E+01 0. -1.
       -5    1    3    3    0  502 -0.15954188428E+03  0.18220586399E+03 -0.54112041097E+03  0.59286252950E+03  0.46999998093E+01 0.  1.
</event>
<event>
 5   0  0.6248886E-02  0.6519158E+03  0.7818609E-02  0.9803191E-01
       -2   -1    0    0    0  501  0.00000000000E+00  0.00000000000E+00  0.68904858109E+03  0.68904858110E+03  0.25500000920E-02 0.  1.
        2   -1    0    0  501    0  0.00000000000E+00  0.00000000000E+00 -0.15419602983E+03  0.15419602985E+03  0.25500000920E-02 0. -1.
    10030    2    1    2    0    0  0.00000000000E+00  0.00000000000E+00  0.53485255126E+03  0.84324461095E+03  0.65191580922E+03 0.  0.
        3    1    3    3  502    0 -0.88664289529E+01  0.17929664924E+03  0.61934660572E+03  0.64483806511E+03  0.10100000352E+00 0.  1.
       -3    1    3    3    0  502  0.88664289529E+01 -0.17929664924E+03 -0.84494054461E+02  0.19840654584E+03  0.10100000352E+00 0. -1.
</event>
<event>
 5   0  0.3439015E-02  0.7113706E+03  0.7818609E-02  0.9697982E-01
       -1   -1    0    0    0  501  0.00000000000E+00  0.00000000000E+00  0.30091515980E+03  0.30091515984E+03  0.50400001928E-02 0.  1.
        1   -1    0    0  501    0  0.00000000000E+00  0.00000000000E+00 -0.42042426795E+03  0.42042426798E+03  0.50400001928E-02 0. -1.
    10030    2    1    2    0    0  0.00000000000E+00  0.00000000000E+00 -0.11950910816E+03  0.72133942782E+03  0.71137060889E+03 0.  0.
        1    1    3    3  502    0 -0.28909037764E+03 -0.16194297406E+03 -0.19084600496E+03  0.38238850783E+03  0.50400001928E-02 0. -1.
       -1    1    3    3    0  502  0.28909037764E+03  0.16194297406E+03  0.71336896803E+02  0.33895091999E+03  0.50400001928E-02 0.  1.
</event>
<event>
 5   0  0.3755872E-02  0.6413512E+03  0.7818609E-02  0.9823145E-01
       -1   -1    0    0    0  501  0.00000000000E+00  0.00000000000E+00  0.10671009531E+03  0.10671009543E+03  0.50400001928E-02 0. -1.
        1   -1    0    0  501    0  0.00000000000E+00  0.00000000000E+00 -0.96366564555E+03  0.96366564556E+03  0.50400001928E-02 0.  1.
    10030    2    1    2    0    0  0.00000000000E+00  0.00000000000E+00 -0.85695555024E+03  0.10703757410E+04  0.64135123904E+03 0.  0.
        2    1    3    3  502    0  0.18258111949E+03  0.23051616751E+03 -0.64194070651E+03  0.70608883248E+03  0.25500000920E-02 0.  1.
       -2    1    3    3    0  502 -0.18258111949E+03 -0.23051616751E+03 -0.21501484373E+03  0.36428690851E+03  0.25500000920E-02 0. -1.
</event>
<event>
 5   0  0.3601475E-02  0.7002951E+03  0.7818609E-02  0.9716728E-01
       -1   -1    0    0    0  501  0.00000000000E+00  0.00000000000E+00  0.41401225147E+03  0.41401225150E+03  0.50400001928E-02 0. -1.
        1   -1    0    0  501    0  0.00000000000E+00  0.00000000000E+00 -0.29613450655E+03  0.29613450659E+03  0.50400001928E-02 0.  1.
    10030    2    1    2    0    0  0.00000000000E+00  0.00000000000E+00  0.11787774492E+03  0.71014675809E+03  0.70029512013E+03 0.  0.
        5    1    3    3  502    0 -0.21412702719E+03 -0.24472384373E+03 -0.72659943793E+02  0.33322920174E+03  0.46999998093E+01 0.  1.
       -5    1    3    3    0  502  0.21412702719E+03  0.24472384373E+03  0.19053768871E+03  0.37691755634E+03  0.46999998093E+01 0. -1.
</event>
<event>
 5   0  0.5899787E-02  0.7080346E+03  0.7818609E-02  0.9703590E-01
       -2   -1    0    0    0  501  0.00000000000E+00  0.00000000000E+00  0.28412576675E+03  0.28412576676E+03  0.25500000920E-02 0. -1.
        2   -1    0    0  501    0  0.00000000000E+00  0.00000000000E+00 -0.44110134537E+03  0.44110134537E+03  0.25500000920E-02 0.  1.
    10030    2    1    2    0    0  0.00000000000E+00  0.00000000000E+00 -0.15697557861E+03  0.72522711214E+03  0.70803462620E+03 0.  0.
        2    1    3    3  502    0  0.11986743020E+03 -0.98636325436E+02 -0.40438163031E+03  0.43315335443E+03  0.25500000920E-02 0.  1.
       -2    1    3    3    0  502 -0.11986743020E+03  0.98636325436E+02  0.24740605169E+03  0.29207375771E+03  0.25500000920E-02 0. -1.
</event>
<event>
 5   0  0.3717372E-02  0.6753655E+03  0.7818609E-02  0.9760313E-01
        1   -1    0    0  501    0  0.00000000000E+00  0.00000000000E+00  0.11536176207E+04  0.11536176207E+04  0.50400001928E-02 0. -1.
       -1   -1    0    0    0  501  0.00000000000E+00  0.00000000000E+00 -0.98845276192E+02  0.98845276320E+02  0.50400001928E-02 0.  1.
    10030    2    1    2    0    0  0.00000000000E+00  0.00000000000E+00  0.10547723445E+04  0.12524628971E+04  0.67536553785E+03 0.  0.
        3    1    3    3  502    0  0.67086656335E+02  0.72980744391E+02 -0.71253835665E+02  0.12208164403E+03  0.10100000352E+00 0.  1.
       -3    1    3    3    0  502 -0.67086656335E+02 -0.72980744391E+02  0.11260261802E+04  0.11303812530E+04  0.10100000352E+00 0. -1.
</event>
<event>
 5   0  0.3749730E-02  0.7753722E+03  0.7818609E-02  0.9596365E-01
       -1   -1    0    0    0  501  0.00000000000E+00  0.00000000000E+00  0.53421135196E+03  0.53421135198E+03  0.50400001928E-02 0.  1.
        1   -1    0    0  501    0  0.00000000000E+00  0.00000000000E+00 -0.28135031099E+03  0.28135031103E+03  0.50400001928E-02 0. -1.
    10030    2    1    2    0    0  0.00000000000E+00  0.00000000000E+00  0.25286104097E+03  0.81556166302E+03  0.77537224618E+03 0.  0.
        4    1    3    3  502    0  0.19453334528E+03  0.32293585167E+03  0.31368315689E+02  0.37830724398E+03  0.12699999809E+01 0. -1.
       -4    1    3    3    0  502 -0.19453334528E+03 -0.32293585167E+03  0.22149272528E+03  0.43725441904E+03  0.12699999809E+01 0.  1.
</event>
<event>
 5   0  0.6167756E-02  0.6942020E+03  0.7818609E-02  0.9727199E-01
       -2   -1    0    0    0  501  0.00000000000E+00  0.00000000000E+00  0.41947119801E+03  0.41947119802E+03  0.25500000920E-02 0.  1.
        2   -1    0    0  501    0  0.00000000000E+00  0.00000000000E+00 -0.28721667180E+03  0.28721667181E+03  0.25500000920E-02 0. -1.
    10030    2    1    2    0    0  0.00000000000E+00  0.00000000000E+00  0.13225452621E+03  0.70668786983E+03  0.69420204959E+03 0.  0.
        4    1    3    3  502    0  0.16335955674E+03  0.25524650849E+03  0.23840579444E+03  0.38558534801E+03  0.12699999809E+01 0. -1.
       -4    1    3    3    0  502 -0.16335955674E+03 -0.25524650849E+03 -0.10615126823E+03  0.32110252182E+03  0.12699999809E+01 0.  1.
</event>
<event>
 5   0  0.2439375E-02  0.6982979E+03  0.7818609E-02  0.9720148E-01
       -3   -1    0    0    0  501  0.00000000000E+00  0.00000000000E+00  0.35475981877E+03  0.35475983315E+03  0.10100000352E+00 0. -1.
        3   -1    0    0  501    0  0.00000000000E+00  0.00000000000E+00 -0.34362675102E+03  0.34362676586E+03  0.10100000352E+00 0.  1.
    10030    2    1    2    0    0  0.00000000000E+00  0.00000000000E+00  0.11133067754E+02  0.69838659901E+03  0.69829785656E+03 0.  0.
        4    1    3    3  502    0 -0.18707289828E+03  0.12830749967E+03  0.27101367228E+03  0.35342482540E+03  0.12699999809E+01 0. -1.
       -4    1    3    3    0  502  0.18707289828E+03 -0.12830749967E+03 -0.25988060453E+03  0.34496177361E+03  0.12699999809E+01 0.  1.
</event>
<event>
 5   0  0.3749730E-02  0.7024015E+03  0.7818609E-02  0.9713134E-01
       -1   -1    0    0    0  501  0.00000000000E+00  0.00000000000E+00  0.85593070704E+02  0.85593070853E+02  0.50400001928E-02 0.  1.
        1   -1    0    0  501    0  0.00000000000E+00  0.00000000000E+00 -0.14410274941E+04  0.14410274941E+04  0.50400001928E-02 0. -1.
    10030    2    1    2    0    0  0.00000000000E+00  0.00000000000E+00 -0.13554344234E+04  0.15266205650E+04  0.70240150430E+03 0.  0.
        4    1    3    3  502    0  0.18384253917E+03  0.21677559529E+03 -0.11260480461E+04  0.11613679662E+04  0.12699999809E+01 0. -1.
       -4    1    3    3    0  502 -0.18384253917E+03 -0.21677559529E+03 -0.22938637736E+03  0.36525259881E+03  0.12699999809E+01 0.  1.
</event>
<event>
 5   0  0.2439375E-02  0.7325528E+03  0.7818609E-02  0.9663127E-01
        3   -1    0    0  501    0  0.00000000000E+00  0.00000000000E+00  0.16298159110E+03  0.16298162240E+03  0.10100000352E+00 0.  1.
       -3   -1    0    0    0  501  0.00000000000E+00  0.00000000000E+00 -0.82315043787E+03  0.82315044407E+03  0.10100000352E+00 0. -1.
    10030    2    1    2    0    0  0.00000000000E+00  0.00000000000E+00 -0.66016884677E+03  0.98613206647E+03  0.73255276006E+03 0.  0.
        3    1    3    3  502    0  0.33618417731E+03  0.95146760156E+02 -0.18209471109E+03  0.39399390991E+03  0.10100000352E+00 0. -1.
       -3    1    3    3    0  502 -0.33618417731E+03 -0.95146760156E+02 -0.47807413568E+03  0.59213815656E+03  0.10100000352E+00 0.  1.
</event>
<event>
 5   0  0.3749730E-02  0.6997800E+03  0.7818609E-02  0.9717609E-01
        1   -1    0    0  501    0  0.00000000000E+00  0.00000000000E+00  0.48717793640E+03  0.48717793643E+03  0.50400001928E-02 0. -1.
       -1   -1    0    0    0  501  0.00000000000E+00  0.00000000000E+00 -0.25129012198E+03  0.25129012203E+03  0.50400001928E-02 0.  1.
    10030    2    1    2    0    0  0.00000000000E+00  0.00000000000E+00  0.23588781442E+03  0.73846805845E+03  0.69977997425E+03 0.  0.
        4    1    3    3  502    0 -0.98934792095E+02  0.17144612083E+03  0.42240724287E+03  0.46648832479E+03  0.12699999809E+01 0. -1.
       -4    1    3    3    0  502  0.98934792095E+02 -0.17144612083E+03 -0.18651942845E+03  0.27197973366E+03  0.12699999809E+01 0.  1.
</event>
<event>
 5   0  0.3439015E-02  0.7029925E+03  0.7818609E-02  0.9712128E-01
       -1   -1    0    0    0  501  0.00000000000E+00  0.00000000000E+00  0.21223805602E+03  0.21223805608E+03  0.50400001928E-02 0.  1.
        1   -1    0    0  501    0  0.00000000000E+00  0.00000000000E+00 -0.58212746380E+03  0.58212746383E+03  0.50400001928E-02 0. -1.
    10030    2    1    2    0    0  0.00000000000E+00  0.00000000000E+00 -0.36988940778E+03  0.79436551991E+03  0.70299246456E+03 0.  0.
        1    1    3    3  502    0 -0.11426496906E+03 -0.11348636464E+03  0.16809673786E+03  0.23279207765E+03  0.50400001928E-02 0.  1.
       -1    1    3    3    0  502  0.11426496906E+03  0.11348636464E+03 -0.53798614564E+03  0.56157344225E+03  0.50400001928E-02 0. -1.
</event>
<event>
 5   0  0.6131198E-02  0.7026333E+03  0.7818609E-02  0.9712739E-01
       -2   -1    0    0    0  501  0.00000000000E+00  0.00000000000E+00  0.10559522233E+03  0.10559522236E+03  0.25500000920E-02 0.  1.
        2   -1    0    0  501    0  0.00000000000E+00  0.00000000000E+00 -0.11688349312E+04  0.11688349312E+04  0.25500000920E-02 0. -1.
    10030    2    1    2    0    0  0.00000000000E+00  0.00000000000E+00 -0.10632397089E+04  0.12744301536E+04  0.70263328828E+03 0.  0.
        1    1    3    3  502    0  0.33052691576E+03 -0.76390435471E+02 -0.69726025584E+03  0.77540660629E+03  0.50400001928E-02 0. -1.
       -1    1    3    3    0  502 -0.33052691576E+03  0.76390435471E+02 -0.36597945301E+03  0.49902354726E+03  0.50400001928E-02 0.  1.
</event>
<event>
 5   0  0.3717372E-02  0.7099748E+03  0.7818609E-02  0.9700324E-01
       -1   -1    0    0    0  501  0.00000000000E+00  0.00000000000E+00  0.13075552793E+03  0.13075552803E+03  0.50400001928E-02 0.  1.
        1   -1    0    0  501    0  0.00000000000E+00  0.00000000000E+00 -0.96375313169E+03  0.96375313170E+03  0.50400001928E-02 0. -1.
    10030    2    1    2    0    0  0.00000000000E+00  0.00000000000E+00 -0.83299760376E+03  0.10945086597E+04  0.70997478713E+03 0.  0.
        3    1    3    3  502    0 -0.11651559675E+02  0.19443572572E+03 -0.87401099569E+03  0.89545309262E+03  0.10100000352E+00 0. -1.
       -3    1    3    3    0  502  0.11651559675E+02 -0.19443572572E+03  0.41013391937E+02  0.19905556712E+03  0.10100000352E+00 0.  1.
</event>
<event>
 5   0  0.5899787E-02  0.7038285E+03  0.7818609E-02  0.9710707E-01
        2   -1    0    0  501    0  0.00000000000E+00  0.00000000000E+00  0.33520481235E+03  0.33520481236E+03  0.25500000920E-02 0.  1.
       -2   -1    0    0    0  501  0.00000000000E+00  0.00000000000E+00 -0.36945667270E+03  0.36945667271E+03  0.25500000920E-02 0. -1.
    10030    2    1    2    0    0  0.00000000000E+00  0.00000000000E+00 -0.34251860357E+02  0.70466148507E+03  0.70382854347E+03 0.  0.
        2    1    3    3  502    0  0.13176694889E+03 -0.29233506720E+03  0.12803301335E+03  0.34527492358E+03  0.25500000920E-02 0.  1.
       -2    1    3    3    0  502 -0.13176694889E+03  0.29233506720E+03 -0.16228487371E+03  0.35938656149E+03  0.25500000920E-02 0. -1.
</event>
<event>
 5   0  0.6248886E-02  0.6950863E+03  0.7818609E-02  0.9725672E-01
        2   -1    0    0  501    0  0.00000000000E+00  0.00000000000E+00  0.37392365815E+03  0.37392365816E+03  0.25500000920E-02 0.  1.
       -2   -1    0    0    0  501  0.00000000000E+00  0.00000000000E+00 -0.32302379143E+03  0.32302379144E+03  0.25500000920E-02 0. -1.
    10030    2    1    2    0    0  0.00000000000E+00  0.00000000000E+00  0.50899866720E+02  0.69694744960E+03  0.69508629038E+03 0.  0.
        3    1    3    3  502    0  0.22321775218E+03 -0.20091437412E+03 -0.14992831542E+03  0.33566539974E+03  0.10100000352E+00 0. -1.
       -3    1    3    3    0  502 -0.22321775218E+03  0.20091437412E+03  0.20082818214E+03  0.36128204987E+03  0.10100000352E+00 0.  1.
</event>
<event>
 5   0  0.3601475E-02  0.7370208E+03  0.7818609E-02  0.9655936E-01
       -1   -1    0    0    0  501  0.00000000000E+00  0.00000000000E+00  0.68714970310E+03  0.68714970312E+03  0.50400001928E-02 0. -1.
        1   -1    0    0  501    0  0.00000000000E+00  0.00000000000E+00 -0.19762784665E+03  0.19762784671E+03  0.50400001928E-02 0.  1.
    10030    2    1    2    0    0  0.00000000000E+00  0.00000000000E+00  0.48952185645E+03  0.88477754983E+03  0.73702080346E+03 0.  0.
        5    1    3    3  502    0 -0.33333763710E+03  0.81223299286E+02  0.83402066626E+02  0.35311357857E+03  0.46999998093E+01 0.  1.
       -5    1    3    3    0  502  0.33333763710E+03 -0.81223299286E+02  0.40611978983E+03  0.53166397126E+03  0.46999998093E+01 0. -1.
</event>
<event>
 5   0  0.3601475E-02  0.7003143E+03  0.7818609E-02  0.9716695E-01
       -1   -1    0    0    0  501  0.00000000000E+00  0.00000000000E+00  0.91251646797E+02  0.91251646936E+02  0.50400001928E-02 0. -1.
        1   -1    0    0  501    0  0.00000000000E+00  0.00000000000E+00 -0.13436474495E+04  0.13436474495E+04  0.50400001928E-02 0.  1.
    10030    2    1    2    0    0  0.00000000000E+00  0.00000000000E+00 -0.12523958027E+04  0.14348990965E+04  0.70031433682E+03 0.  0.
        5    1    3    3  502    0 -0.42956508217E+02 -0.32742754024E+02 -0.13349952504E+04  0.13360957145E+04  0.46999998093E+01 0.  1.
       -5    1    3    3    0  502  0.42956508217E+02  0.32742754024E+02  0.82599447696E+02  0.98803382013E+02  0.46999998093E+01 0. -1.
</event>
<event>
 5   0  0.6167756E-02  0.7267576E+03  0.7818609E-02  0.9672537E-01
       -2   -1    0    0    0  501  0.00000000000E+00  0.00000000000E+00  0.28443369188E+03  0.28443369189E+03  0.25500000920E-02 0.  1.
        2   -1    0    0  501    0  0.00000000000E+00  0.00000000000E+00 -0.46423524545E+03  0.46423524545E+03  0.25500000920E-02 0. -1.
    10030    2    1    2    0    0  0.00000000000E+00  0.00000000000E+00 -0.17980155357E+03  0.74866893734E+03  0.72675757930E+03 0.  0.
        4    1    3    3  502    0  0.51245571384E+02 -0.61798094482E+02 -0.45498292873E+03  0.46201319398E+03  0.12699999809E+01 0. -1.
       -4    1    3    3    0  502 -0.51245571384E+02  0.61798094482E+02  0.27518137516E+03  0.28665574337E+03  0.12699999809E+01 0.  1.
</event>
<event>
 5   0  0.6167756E-02  0.7426617E+03  0.7818609E-02  0.9646934E-01
       -2   -1    0    0    0  501  0.00000000000E+00  0.00000000000E+00  0.13825194415E+03  0.13825194417E+03  0.25500000920E-02 0.  1.
        2   -1    0    0  501    0  0.00000000000E+00  0.00000000000E+00 -0.99735752197E+03  0.99735752197E+03  0.25500000920E-02 0. -1.
    10030    2    1    2    0    0  0.00000000000E+00  0.00000000000E+00 -0.85910557782E+03  0.11356094661E+04  0.74266174384E+03 0.  0.
        4    1    3    3  502    0  0.23807923299E+03 -0.85511300422E+02 -0.84520875311E+03  0.88225469844E+03  0.12699999809E+01 0. -1.
       -4    1    3    3    0  502 -0.23807923299E+03  0.85511300422E+02 -0.13896824706E+02  0.25335476771E+03  0.12699999809E+01 0.  1.
</event>
<event>
 5   0  0.5899787E-02  0.6504922E+03  0.7818609E-02  0.9805856E-01
       -2   -1    0    0    0  501  0.00000000000E+00  0.00000000000E+00  0.10607799979E+03  0.10607799982E+03  0.25500000920E-02 0.  1.
        2   -1    0    0  501    0  0.00000000000E+00  0.00000000000E+00 -0.99723823915E+03  0.99723823915E+03  0.25500000920E-02 0. -1.
    10030    2    1    2    0    0  0.00000000000E+00  0.00000000000E+00 -0.89116023936E+03  0.11033162390E+04  0.65049223744E+03 0.  0.
        2    1    3    3  502    0 -0.81369118151E+02  0.14266529095E+02 -0.97914715111E+03  0.98262587528E+03  0.25500000920E-02 0. -1.
       -2    1    3    3    0  502  0.81369118151E+02 -0.14266529095E+02  0.87986911755E+02  0.12069036369E+03  0.25500000920E-02 0.  1.
</event>
<event>
 5   0  0.3717372E-02  0.7057228E+03  0.7818609E-02  0.9707495E-01
        1   -1    0    0  501    0  0.00000000000E+00  0.00000000000E+00  0.14764868000E+03  0.14764868008E+03  0.50400001928E-02 0. -1.
       -1   -1    0    0    0  501  0.00000000000E+00  0.00000000000E+00 -0.84329340365E+03  0.84329340366E+03  0.50400001928E-02 0.  1.
    10030    2    1    2    0    0  0.00000000000E+00  0.00000000000E+00 -0.69564472365E+03  0.99094208375E+03  0.70572277262E+03 0.  0.
        3    1    3    3  502    0 -0.89219542932E+02 -0.12464043817E+03  0.98459006714E+02  0.18217999855E+03  0.10100000352E+00 0. -1.
       -3    1    3    3    0  502  0.89219542932E+02  0.12464043817E+03 -0.79410373037E+03  0.80876208520E+03  0.10100000352E+00 0.  1.
</event>
<event>
 5   0  0.6248886E-02  0.7028361E+03  0.7818609E-02  0.9712394E-01
       -2   -1    0    0    0  501  0.00000000000E+00  0.00000000000E+00  0.84349511875E+02  0.84349511914E+02  0.25500000920E-02 0.  1.
        2   -1    0    0  501    0  0.00000000000E+00  0.00000000000E+00 -0.14640825337E+04  0.14640825337E+04  0.25500000920E-02 0. -1.
    10030    2    1    2    0    0  0.00000000000E+00  0.00000000000E+00 -0.13797330218E+04  0.15484320456E+04  0.70283610349E+03 0.  0.
        3    1    3    3  502    0 -0.22031563894E+03  0.27045693835E+03 -0.59617042843E+03  0.69072796831E+03  0.10100000352E+00 0. -1.
       -3    1    3    3    0  502  0.22031563894E+03 -0.27045693835E+03 -0.78356259337E+03  0.85770407728E+03  0.10100000352E+00 0.  1.
</event>
<event>
 5   0  0.3601475E-02  0.7145856E+03  0.7818609E-02  0.9692609E-01
       -1   -1    0    0    0  501  0.00000000000E+00  0.00000000000E+00  0.16545030444E+03  0.16545030451E+03  0.50400001928E-02 0. -1.
        1   -1    0    0  501    0  0.00000000000E+00  0.00000000000E+00 -0.77157996650E+03  0.77157996652E+03  0.50400001928E-02 0.  1.
    10030    2    1    2    0    0  0.00000000000E+00  0.00000000000E+00 -0.60612966206E+03  0.93703027103E+03  0.71458558731E+03 0.  0.
        5    1    3    3  502    0  0.49276216526E+02 -0.10038158624E+03  0.14186993399E+03  0.18070355984E+03  0.46999998093E+01 0. -1.
       -5    1    3    3    0  502 -0.49276216526E+02  0.10038158624E+03 -0.74799959605E+03  0.75632671119E+03  0.46999998093E+01 0.  1.
</event>
<event>
 5   0  0.3717372E-02  0.7040918E+03  0.7818609E-02  0.9710260E-01
       -1   -1    0    0    0  501  0.00000000000E+00  0.00000000000E+00  0.80885011838E+02  0.80885011995E+02  0.50400001928E-02 0.  1.
        1   -1    0    0  501    0  0.00000000000E+00  0.00000000000E+00 -0.15322531894E+04  0.15322531894E+04  0.50400001928E-02 0. -1.
    10030    2    1    2    0    0  0.00000000000E+00  0.00000000000E+00 -0.14513681775E+04  0.16131382014E+04  0.70409180508E+03 0.  0.
        3    1    3    3  502    0  0.68741469548E+02 -0.32457644274E+03 -0.45594719065E+03  0.56388217536E+03  0.10100000352E+00 0.  1.
       -3    1    3    3    0  502 -0.68741469548E+02  0.32457644274E+03 -0.99542098688E+03  0.10492560260E+04  0.10100000352E+00 0. -1.
</event>
<event>
 5   0  0.3601475E-02  0.6989133E+03  0.7818609E-02  0.9719092E-01
       -1   -1    0    0    0  501  0.00000000000E+00  0.00000000000E+00  0.35225431748E+03  0.35225431752E+03  0.50400001928E-02 0.  1.
        1   -1    0    0  501    0  0.00000000000E+00  0.00000000000E+00 -0.34668124703E+03  0.34668124707E+03  0.50400001928E-02 0. -1.
    10030    2    1    2    0    0  0.00000000000E+00  0.00000000000E+00  0.55730704551E+01  0.69893556459E+03  0.69891334536E+03 0.  0.
        5    1    3    3  502    0 -0.10221044728E+03 -0.19377766422E+03 -0.26943732300E+03  0.34729716340E+03  0.46999998093E+01 0. -1.
       -5    1    3    3    0  502  0.10221044728E+03  0.19377766422E+03  0.27501039345E+03  0.35163840119E+03  0.46999998093E+01 0.  1.
</event>
<event>
 5   0  0.6167756E-02  0.6551826E+03  0.7818609E-02  0.9797103E-01
       -2   -1    0    0    0  501  0.00000000000E+00  0.00000000000E+00  0.87251522432E+02  0.87251522469E+02  0.25500000920E-02 0.  1.
        2   -1    0    0  501    0  0.00000000000E+00  0.00000000000E+00 -0.12299621634E+04  0.12299621634E+04  0.25500000920E-02 0. -1.
    10030    2    1    2    0    0  0.00000000000E+00  0.00000000000E+00 -0.11427106410E+04  0.13172136859E+04  0.65518263504E+03 0.  0.
        4    1    3    3  502    0  0.21217567862E+03  0.23827912110E+03 -0.72071179829E+03  0.78817673605E+03  0.12699999809E+01 0. -1.
       -4    1    3    3    0  502 -0.21217567862E+03 -0.23827912110E+03 -0.42199884267E+03  0.52903694981E+03  0.12699999809E+01 0.  1.
</event>
<event>
 5   0  0.3755872E-02  0.6726003E+03  0.7818609E-02  0.9765272E-01
       -1   -1    0    0    0  501  0.00000000000E+00  0.00000000000E+00  0.13465649253E+03  0.13465649263E+03  0.50400001928E-02 0.  1.
        1   -1    0    0  501    0  0.00000000000E+00  0.00000000000E+00 -0.83989842457E+03  0.83989842459E+03  0.50400001928E-02 0. -1.
    10030    2    1    2    0    0  0.00000000000E+00  0.00000000000E+00 -0.70524193204E+03  0.97455491722E+03  0.67260025570E+03 0.  0.
        2    1    3    3  502    0  0.87184104456E+02 -0.12398261846E+03 -0.78760365315E+03  0.80205503066E+03  0.25500000920E-02 0. -1.
       -2    1    3    3    0  502 -0.87184104456E+02  0.12398261846E+03  0.82361721107E+02  0.17249988655E+03  0.25500000920E-02 0.  1.
</event>
<event>
 5   0  0.3717372E-02  0.6959654E+03  0.7818609E-02  0.9724157E-01
       -1   -1    0    0    0  501  0.00000000000E+00  0.00000000000E+00  0.36355279293E+03  0.36355279297E+03  0.50400001928E-02 0.  1.
        1   -1    0    0  501    0  0.00000000000E+00  0.00000000000E+00 -0.33307946716E+03  0.33307946720E+03  0.50400001928E-02 0. -1.
    10030    2    1    2    0    0  0.00000000000E+00  0.00000000000E+00  0.30473325774E+02  0.69663226016E+03  0.69596543184E+03 0.  0.
        3    1    3    3  502    0  0.25709365028E+03 -0.13811521554E+03  0.20494134398E+03  0.35661452922E+03  0.10100000352E+00 0.  1.
       -3    1    3    3    0  502 -0.25709365028E+03  0.13811521554E+03 -0.17446801820E+03  0.34001773094E+03  0.10100000352E+00 0. -1.
</event>
<event>
 5   0  0.5899787E-02  0.6868059E+03  0.7818609E-02  0.9740066E-01
        2   -1    0    0  501    0  0.00000000000E+00  0.00000000000E+00  0.17412048342E+03  0.17412048343E+03  0.25500000920E-02 0.  1.
       -2   -1    0    0    0  501  0.00000000000E+00  0.00000000000E+00 -0.67726424197E+03  0.67726424197E+03  0.25500000920E-02 0. -1.
    10030    2    1    2    0    0  0.00000000000E+00  0.00000000000E+00 -0.50314375855E+03  0.85138472540E+03  0.68680587423E+03 0.  0.
        2    1    3    3  502    0 -0.59419439375E+02 -0.14038327550E+03 -0.63302225636E+03  0.65111850755E+03  0.25500000920E-02 0. -1.
       -2    1    3    3    0  502  0.59419439375E+02  0.14038327550E+03  0.12987849781E+03  0.20026621786E+03  0.25500000920E-02 0.  1.
</event>
<event>
 5   0  0.3717372E-02  0.6894753E+03  0.7818609E-02  0.9735402E-01
       -1   -1    0    0    0  501  0.00000000000E+00  0.00000000000E+00  0.27478941264E+03  0.27478941269E+03  0.50400001928E-02 0. -1.
        1   -1    0    0  501    0  0.00000000000E+00  0.00000000000E+00 -0.43249130977E+03  0.43249130979E+03  0.50400001928E-02 0.  1.
    10030    2    1    2    0    0  0.00000000000E+00  0.00000000000E+00 -0.15770189713E+03  0.70728072248E+03  0.68947525846E+03 0.  0.
        3    1    3    3  502    0  0.14542457302E+03 -0.11401622083E+03 -0.37739239348E+03  0.42020594226E+03  0.10100000352E+00 0.  1.
       -3    1    3    3    0  502 -0.14542457302E+03  0.11401622083E+03  0.21969049635E+03  0.28707478022E+03  0.10100000352E+00 0. -1.
</event>
<event>
 5   0  0.6167756E-02  0.6987350E+03  0.7818609E-02  0.9719398E-01
       -2   -1    0    0    0  501  0.00000000000E+00  0.00000000000E+00  0.16204876017E+03  0.16204876019E+03  0.25500000920E-02 0. -1.
        2   -1    0    0  501    0  0.00000000000E+00  0.00000000000E+00 -0.75321553968E+03  0.75321553969E+03  0.25500000920E-02 0.  1.
    10030    2    1    2    0    0  0.00000000000E+00  0.00000000000E+00 -0.59116677952E+03  0.91526429987E+03  0.69873498368E+03 0.  0.
        4    1    3    3  502    0  0.30631278509E+03 -0.13089198438E+03 -0.15760429298E+03  0.36851181792E+03  0.12699999809E+01 0.  1.
       -4    1    3    3    0  502 -0.30631278509E+03  0.13089198438E+03 -0.43356248654E+03  0.54675248195E+03  0.12699999809E+01 0. -1.
</event>
<event>
 5   0  0.6131198E-02  0.6984924E+03  0.7818609E-02  0.9719814E-01
       -2   -1    0    0    0  501  0.00000000000E+00  0.00000000000E+00  0.65724188706E+02  0.65724188755E+02  0.25500000920E-02 0.  1.
        2   -1    0    0  501    0  0.00000000000E+00  0.00000000000E+00 -0.18558300343E+04  0.18558300343E+04  0.25500000920E-02 0. -1.
    10030    2    1    2    0    0  0.00000000000E+00  0.00000000000E+00 -0.17901058456E+04  0.19215542231E+04  0.69849244357E+03 0.  0.
        1    1    3    3  502    0  0.30849968017E+03 -0.16302645940E+03 -0.93615663996E+03  0.99906903350E+03  0.50400001928E-02 0. -1.
       -1    1    3    3    0  502 -0.30849968017E+03  0.16302645940E+03 -0.85394920566E+03  0.92248518958E+03  0.50400001928E-02 0.  1.
</event>
<event>
 5   0  0.6131198E-02  0.6962703E+03  0.7818609E-02  0.9723632E-01
        2   -1    0    0  501    0  0.00000000000E+00  0.00000000000E+00  0.11741886604E+04  0.11741886604E+04  0.25500000920E-02 0. -1.
       -2   -1    0    0    0  501  0.00000000000E+00  0.00000000000E+00 -0.10321857272E+03  0.10321857275E+03  0.25500000920E-02 0.  1.
    10030    2    1    2    0    0  0.00000000000E+00  0.00000000000E+00  0.10709700877E+04  0.12774072332E+04  0.69627028559E+03 0.  0.
        1    1    3    3  502    0  0.18170249623E+03  0.19475071688E+03  0.94676611615E+03  0.98351904790E+03  0.50400001928E-02 0. -1.
       -1    1    3    3    0  502 -0.18170249623E+03 -0.19475071688E+03  0.12420397154E+03  0.29388818526E+03  0.50400001928E-02 0.  1.
</event>
<event>
 5   0  0.6248886E-02  0.6973260E+03  0.7818609E-02  0.9721816E-01
       -2   -1    0    0    0  501  0.00000000000E+00  0.00000000000E+00  0.17649173066E+03  0.17649173068E+03  0.25500000920E-02 0. -1.
        2   -1    0    0  501    0  0.00000000000E+00  0.00000000000E+00 -0.68879078510E+03  0.68879078511E+03  0.25500000920E-02 0.  1.
    10030    2    1    2    0    0  0.00000000000E+00  0.00000000000E+00 -0.51229905444E+03  0.86528251579E+03  0.69732597180E+03 0.  0.
        3    1    3    3  502    0  0.12790818952E+02 -0.32828127230E+02  0.17427722741E+03  0.17780284919E+03  0.10100000352E+00 0. -1.
       -3    1    3    3    0  502 -0.12790818952E+02  0.32828127230E+02 -0.68657628185E+03  0.68747966659E+03  0.10100000352E+00 0.  1.
</event>
<event>
 5   0  0.5987810E-02  0.6991419E+03  0.7818609E-02  0.9718701E-01
       -2   -1    0    0    0  501  0.00000000000E+00  0.00000000000E+00  0.21740627862E+03  0.21740627863E+03  0.25500000920E-02 0. -1.
        2   -1    0    0  501    0  0.00000000000E+00  0.00000000000E+00 -0.56208062424E+03  0.56208062424E+03  0.25500000920E-02 0.  1.
    10030    2    1    2    0    0  0.00000000000E+00  0.00000000000E+00 -0.34467434562E+03  0.77948690287E+03  0.69914192209E+03 0.  0.
        5    1    3    3  502    0  0.28248653622E+03 -0.10321019481E+03 -0.37092675972E+03  0.47755600565E+03  0.46999998093E+01 0.  1.
       -5    1    3    3    0  502 -0.28248653622E+03  0.10321019481E+03  0.26252414093E+02  0.30193089723E+03  0.46999998093E+01 0. -1.
</event>
<event>
 5   0  0.3717372E-02  0.6917637E+03  0.7818609E-02  0.9731422E-01
       -1   -1    0    0    0  501  0.00000000000E+00  0.00000000000E+00  0.95329131530E+02  0.95329131663E+02  0.50400001928E-02 0.  1.
        1   -1    0    0  501    0  0.00000000000E+00  0.00000000000E+00 -0.12549599495E+04  0.12549599495E+04  0.50400001928E-02 0. -1.
    10030    2    1    2    0    0  0.00000000000E+00  0.00000000000E+00 -0.11596308180E+04  0.13502890812E+04  0.69176366539E+03 0.  0.
        3    1    3    3  502    0  0.97522738879E+02  0.33173323696E+03 -0.59689993383E+03  0.68981676285E+03  0.10100000352E+00 0. -1.
       -3    1    3    3    0  502 -0.97522738879E+02 -0.33173323696E+03 -0.56273088414E+03  0.66047231832E+03  0.10100000352E+00 0.  1.
</event>
<event>
 5   0  0.3749730E-02  0.7060834E+03  0.7818609E-02  0.9706885E-01
        1   -1    0    0  501    0  0.00000000000E+00  0.00000000000E+00  0.18140299155E+04  0.18140299155E+04  0.50400001928E-02 0.  1.
       -1   -1    0    0    0  501  0.00000000000E+00  0.00000000000E+00 -0.68708043916E+02  0.68708044101E+02  0.50400001928E-02 0. -1.
    10030    2    1    2    0    0  0.00000000000E+00  0.00000000000E+00  0.17453218716E+04  0.18827379596E+04  0.70608341513E+03 0.  0.
        4    1    3    3  502    0 -0.13089490293E+03  0.17534101732E+03  0.16114121386E+04  0.16262006768E+04  0.12699999809E+01 0.  1.
       -4    1    3    3    0  502  0.13089490293E+03 -0.17534101732E+03  0.13390973298E+03  0.25653728278E+03  0.12699999809E+01 0. -1.
</event>
<event>
 5   0  0.6167756E-02  0.7205986E+03  0.7818609E-02  0.9682640E-01
       -2   -1    0    0    0  501  0.00000000000E+00  0.00000000000E+00  0.63489572600E+02  0.63489572651E+02  0.25500000920E-02 0.  1.
        2   -1    0    0  501    0  0.00000000000E+00  0.00000000000E+00 -0.20446755305E+04  0.20446755305E+04  0.25500000920E-02 0. -1.
    10030    2    1    2    0    0  0.00000000000E+00  0.00000000000E+00 -0.19811859579E+04  0.21081651031E+04  0.72059857228E+03 0.  0.
        4    1    3    3  502    0  0.16441713202E+02  0.35920787044E+03 -0.92430829750E+03  0.99179033361E+03  0.12699999809E+01 0. -1.
       -4    1    3    3    0  502 -0.16441713202E+02 -0.35920787044E+03 -0.10568776604E+04  0.11163747695E+04  0.12699999809E+01 0.  1.
</event>
<event>
 5   0  0.3717372E-02  0.5443290E+03  0.7818609E-02  0.1002815E+00
        1   -1    0    0  501    0  0.00000000000E+00  0.00000000000E+00  0.28969486787E+03  0.28969486791E+03  0.50400001928E-02 0.  1.
       -1   -1    0    0    0  501  0.00000000000E+00  0.00000000000E+00 -0.25569493719E+03  0.25569493724E+03  0.50400001928E-02 0. -1.
    10030    2    1    2    0    0  0.00000000000E+00  0.00000000000E+00  0.33999930674E+02  0.54538980516E+03  0.54432898534E+03 0.  0.
        3    1    3    3  502    0  0.18680893174E+03 -0.15547859076E+03 -0.10572274450E+03  0.26504429454E+03  0.10100000352E+00 0. -1.
       -3    1    3    3    0  502 -0.18680893174E+03  0.15547859076E+03  0.13972267517E+03  0.28034551061E+03  0.10100000352E+00 0.  1.
</event>
<event>
 5   0  0.3755872E-02  0.7098617E+03  0.7818609E-02  0.9700515E-01
       -1   -1    0    0    0  501  0.00000000000E+00  0.00000000000E+00  0.21044251069E+03  0.21044251075E+03  0.50400001928E-02 0. -1.
        1   -1    0    0  501    0  0.00000000000E+00  0.00000000000E+00 -0.59862378094E+03  0.59862378096E+03  0.50400001928E-02 0.  1.
    10030    2    1    2    0    0  0.00000000000E+00  0.00000000000E+00 -0.38818127025E+03  0.80906629171E+03  0.70986165258E+03 0.  0.
        2    1    3    3  502    0  0.33787812804E+03  0.80022641926E+02 -0.27792742943E+03  0.44475713447E+03  0.25500000920E-02 0.  1.
       -2    1    3    3    0  502 -0.33787812804E+03 -0.80022641926E+02 -0.11025384082E+03  0.36430915724E+03  0.25500000920E-02 0. -1.
</event>
<event>
 5   0  0.3717372E-02  0.7077574E+03  0.7818609E-02  0.9704057E-01
        1   -1    0    0  501    0  0.00000000000E+00  0.00000000000E+00  0.47001868665E+03  0.47001868668E+03  0.50400001928E-02 0.  1.
       -1   -1    0    0    0  501  0.00000000000E+00  0.00000000000E+00 -0.26643650323E+03  0.26643650327E+03  0.50400001928E-02 0. -1.
    10030    2    1    2    0    0  0.00000000000E+00  0.00000000000E+00  0.20358218343E+03  0.73645518995E+03  0.70775740293E+03 0.  0.
        3    1    3    3  502    0 -0.16405132947E+03  0.31069766195E+03  0.57837975150E+02  0.35607740368E+03  0.10100000352E+00 0. -1.
       -3    1    3    3    0  502  0.16405132947E+03 -0.31069766195E+03  0.14574420828E+03  0.38037778627E+03  0.10100000352E+00 0.  1.
</event>
<event>
 5   0  0.3439015E-02  0.7193510E+03  0.7818609E-02  0.9684700E-01
        1   -1    0    0  501    0  0.00000000000E+00  0.00000000000E+00  0.44990191164E+03  0.44990191167E+03  0.50400001928E-02 0.  1.
       -1   -1    0    0    0  501  0.00000000000E+00  0.00000000000E+00 -0.28754372603E+03  0.28754372607E+03  0.50400001928E-02 0. -1.
    10030    2    1    2    0    0  0.00000000000E+00  0.00000000000E+00  0.16235818561E+03  0.73744563774E+03  0.71935101876E+03 0.  0.
        1    1    3    3  502    0  0.12599853260E+03 -0.32451139875E+03 -0.11557378915E+02  0.34830568638E+03  0.50400001928E-02 0. -1.
       -1    1    3    3    0  502 -0.12599853260E+03  0.32451139875E+03  0.17391556452E+03  0.38913995136E+03  0.50400001928E-02 0.  1.
</event>
<event>
 5   0  0.3601475E-02  0.6940135E+03  0.7818609E-02  0.9727525E-01
       -1   -1    0    0    0  501  0.00000000000E+00  0.00000000000E+00  0.97549350836E+02  0.97549350966E+02  0.50400001928E-02 0. -1.
        1   -1    0    0  501    0  0.00000000000E+00  0.00000000000E+00 -0.12343873069E+04  0.12343873069E+04  0.50400001928E-02 0.  1.
    10030    2    1    2    0    0  0.00000000000E+00  0.00000000000E+00 -0.11368379561E+04  0.13319366579E+04  0.69401348853E+03 0.  0.
        5    1    3    3  502    0 -0.19638709942E+03 -0.15693953498E+03 -0.10944329000E+03  0.27422223503E+03  0.46999998093E+01 0. -1.
       -5    1    3    3    0  502  0.19638709942E+03  0.15693953498E+03 -0.10273946661E+04  0.10577144229E+04  0.46999998093E+01 0.  1.
</event>
<event>
 5   0  0.2439375E-02  0.7091432E+03  0.7818609E-02  0.9701723E-01
        4   -1    0    0  501    0  0.00000000000E+00  0.00000000000E+00  0.19841153417E+03  0.19841559866E+03  0.12699999809E+01 0.  1.
       -4   -1    0    0    0  501  0.00000000000E+00  0.00000000000E+00 -0.63362652939E+03  0.63362780214E+03  0.12699999809E+01 0. -1.
    10030    2    1    2    0    0  0.00000000000E+00  0.00000000000E+00 -0.43521499522E+03  0.83204340080E+03  0.70914323571E+03 0.  0.
        5    1    3    3  502    0  0.17642681455E+03 -0.13994505494E+03  0.10369020480E+03  0.24796126283E+03  0.46999998093E+01 0.  1.
       -5    1    3    3    0  502 -0.17642681455E+03  0.13994505494E+03 -0.53890520002E+03  0.58408213798E+03  0.46999998093E+01 0. -1.
</event>
<event>
 5   0  0.3601475E-02  0.6768700E+03  0.7818609E-02  0.9757626E-01
        1   -1    0    0  501    0  0.00000000000E+00  0.00000000000E+00  0.14742706718E+04  0.14742706718E+04  0.50400001928E-02 0.  1.
       -1   -1    0    0    0  501  0.00000000000E+00  0.00000000000E+00 -0.77691461048E+02  0.77691461211E+02  0.50400001928E-02 0. -1.
    10030    2    1    2    0    0  0.00000000000E+00  0.00000000000E+00  0.13965792107E+04  0.15519621330E+04  0.67686998044E+03 0.  0.
        5    1    3    3  502    0 -0.21736725557E+03 -0.25929662578E+03  0.68514041466E+03  0.76414837678E+03  0.46999998093E+01 0.  1.
       -5    1    3    3    0  502  0.21736725557E+03  0.25929662578E+03  0.71143879607E+03  0.78781375622E+03  0.46999998093E+01 0. -1.
</event>
<event>
 5   0  0.2439375E-02  0.7006222E+03  0.7818609E-02  0.9716169E-01
       -4   -1    0    0    0  501  0.00000000000E+00  0.00000000000E+00  0.56694871163E+03  0.56695013407E+03  0.12699999809E+01 0.  1.
        4   -1    0    0  501    0  0.00000000000E+00  0.00000000000E+00 -0.21644967719E+03  0.21645340296E+03  0.12699999809E+01 0. -1.
    10030    2    1    2    0    0  0.00000000000E+00  0.00000000000E+00  0.35049903444E+03  0.78340353703E+03  0.70062224393E+03 0.  0.
        1    1    3    3  502    0 -0.78835245823E+02 -0.12365040059E+02 -0.20615408043E+03  0.22105970936E+03  0.50400001928E-02 0. -1.
       -1    1    3    3    0  502  0.78835245823E+02  0.12365040059E+02  0.55665311487E+03  0.56234382767E+03  0.50400001928E-02 0.  1.
</event>
<event>
 5   0  0.5987810E-02  0.6989112E+03  0.7818609E-02  0.9719096E-01
       -2   -1    0    0    0  501  0.00000000000E+00  0.00000000000E+00  0.10031115924E+03  0.10031115928E+03  0.25500000920E-02 0. -1.
        2   -1    0    0  501    0  0.00000000000E+00  0.00000000000E+00 -0.12174039454E+04  0.12174039454E+04  0.25500000920E-02 0.  1.
    10030    2    1    2    0    0  0.00000000000E+00  0.00000000000E+00 -0.11170927862E+04  0.13177151047E+04  0.69891115618E+03 0.  0.
        5    1    3    3  502    0  0.94052310160E+02  0.26267916728E+03 -0.16193905244E+03  0.32263373766E+03  0.46999998093E+01 0. -1.
       -5    1    3    3    0  502 -0.94052310160E+02 -0.26267916728E+03 -0.95515373376E+03  0.99508136707E+03  0.46999998093E+01 0.  1.
</event>
<event>
 5   0  0.3439015E-02  0.7069342E+03  0.7818609E-02  0.9705447E-01
        1   -1    0    0  501    0  0.00000000000E+00  0.00000000000E+00  0.18622368449E+03  0.18622368456E+03  0.50400001928E-02 0. -1.
       -1   -1    0    0    0  501  0.00000000000E+00  0.00000000000E+00 -0.67090807975E+03  0.67090807977E+03  0.50400001928E-02 0.  1.
    10030    2    1    2    0    0  0.00000000000E+00  0.00000000000E+00 -0.48468439526E+03  0.85713176433E+03  0.70693415423E+03 0.  0.
        1    1    3    3  502    0  0.80106695696E+02  0.29424343287E+03 -0.45903994501E+03  0.55110248740E+03  0.50400001928E-02 0.  1.
       -1    1    3    3    0  502 -0.80106695696E+02 -0.29424343287E+03 -0.25644450248E+02  0.30602927693E+03  0.50400001928E-02 0. -1.
</event>
<event>
 5   0  0.5987810E-02  0.6897796E+03  0.7818609E-02  0.9734872E-01
       -2   -1    0    0    0  501  0.00000000000E+00  0.00000000000E+00  0.10352795675E+03  0.10352795678E+03  0.25500000920E-02 0. -1.
        2   -1    0    0  501    0  0.00000000000E+00  0.00000000000E+00 -0.11489552570E+04  0.11489552571E+04  0.25500000920E-02 0.  1.
    10030    2    1    2    0    0  0.00000000000E+00  0.00000000000E+00 -0.10454273003E+04  0.12524832138E+04  0.68977964651E+03 0.  0.
        5    1    3    3  502    0  0.18206811886E+03 -0.16504633916E+03 -0.83394879200E+02  0.25954939771E+03  0.46999998093E+01 0. -1.
       -5    1    3    3    0  502 -0.18206811886E+03  0.16504633916E+03 -0.96203242110E+03  0.99293381613E+03  0.46999998093E+01 0.  1.
</event>
<event>
 5   0  0.3717372E-02  0.6805869E+03  0.7818609E-02  0.9751019E-01
       -1   -1    0    0    0  501  0.00000000000E+00  0.00000000000E+00  0.12108283881E+03  0.12108283891E+03  0.50400001928E-02 0.  1.
        1   -1    0    0  501    0  0.00000000000E+00  0.00000000000E+00 -0.95636703575E+03  0.95636703577E+03  0.50400001928E-02 0. -1.
    10030    2    1    2    0    0  0.00000000000E+00  0.00000000000E+00 -0.83528419694E+03  0.10774498747E+04  0.68058691053E+03 0.  0.
        3    1    3    3  502    0 -0.45828087966E+02  0.30745295204E+03 -0.19843820737E+03  0.36878891484E+03  0.10100000352E+00 0.  1.
       -3    1    3    3    0  502  0.45828087966E+02 -0.30745295204E+03 -0.63684598957E+03  0.70866095984E+03  0.10100000352E+00 0. -1.
</event>
<event>
 5   0  0.6167756E-02  0.7099378E+03  0.7818609E-02  0.9700387E-01
       -2   -1    0    0    0  501  0.00000000000E+00  0.00000000000E+00  0.10097966603E+03  0.10097966606E+03  0.25500000920E-02 0.  1.
        2   -1    0    0  501    0  0.00000000000E+00  0.00000000000E+00 -0.12478049734E+04  0.12478049734E+04  0.25500000920E-02 0. -1.
    10030    2    1    2    0    0  0.00000000000E+00  0.00000000000E+00 -0.11468253074E+04  0.13487846395E+04  0.70993782688E+03 0.  0.
        4    1    3    3  502    0  0.21307723164E+03  0.12883062770E+02 -0.11122288070E+04  0.11325292102E+04  0.12699999809E+01 0. -1.
       -4    1    3    3    0  502 -0.21307723164E+03 -0.12883062770E+02 -0.34596500385E+02  0.21625542927E+03  0.12699999809E+01 0.  1.
</event>
<event>
 5   0  0.3749730E-02  0.6996266E+03  0.7818609E-02  0.9717871E-01
       -1   -1    0    0    0  501  0.00000000000E+00  0.00000000000E+00  0.76334289058E+02  0.76334289224E+02  0.50400001928E-02 0.  1.
        1   -1    0    0  501    0  0.00000000000E+00  0.00000000000E+00 -0.16030715746E+04  0.16030715746E+04  0.50400001928E-02 0. -1.
    10030    2    1    2    0    0  0.00000000000E+00  0.00000000000E+00 -0.15267372856E+04  0.16794058639E+04  0.69962655497E+03 0.  0.
        4    1    3    3  502    0 -0.27885910914E+02 -0.25329312123E+03 -0.18810232385E+03  0.31673194728E+03  0.12699999809E+01 0.  1.
       -4    1    3    3    0  502  0.27885910914E+02  0.25329312123E+03 -0.13386349617E+04  0.13626739166E+04  0.12699999809E+01 0. -1.
</event>
<event>
 5   0  0.6167756E-02  0.6950604E+03  0.7818609E-02  0.9725717E-01
        2   -1    0    0  501    0  0.00000000000E+00  0.00000000000E+00  0.48551587410E+03  0.48551587410E+03  0.25500000920E-02 0.  1.
       -2   -1    0    0    0  501  0.00000000000E+00  0.00000000000E+00 -0.24876066227E+03  0.24876066228E+03  0.25500000920E-02 0. -1.
    10030    2    1    2    0    0  0.00000000000E+00  0.00000000000E+00  0.23675521183E+03  0.73427653639E+03  0.69506043015E+03 0.  0.
        4    1    3    3  502    0 -0.26147987522E+03  0.22592420837E+03  0.15736748175E+03  0.37970990280E+03  0.12699999809E+01 0.  1.
       -4    1    3    3    0  502  0.26147987522E+03 -0.22592420837E+03  0.79387730080E+02  0.35456663359E+03  0.12699999809E+01 0. -1.
</event>
<event>
 5   0  0.5899787E-02  0.6852746E+03  0.7818609E-02  0.9742751E-01
        2   -1    0    0  501    0  0.00000000000E+00  0.00000000000E+00  0.49427929791E+03  0.49427929792E+03  0.25500000920E-02 0. -1.
       -2   -1    0    0    0  501  0.00000000000E+00  0.00000000000E+00 -0.23751815802E+03  0.23751815804E+03  0.25500000920E-02 0.  1.
    10030    2    1    2    0    0  0.00000000000E+00  0.00000000000E+00  0.25676113989E+03  0.73179745596E+03  0.68527456803E+03 0.  0.
        2    1    3    3  502    0 -0.78511971544E+02  0.14140923720E+03 -0.19418497958E+03  0.25272219599E+03  0.25500000920E-02 0.  1.
       -2    1    3    3    0  502  0.78511971544E+02 -0.14140923720E+03  0.45094611947E+03  0.47907525997E+03  0.25500000920E-02 0. -1.
</event>
<event>
 5   0  0.3439015E-02  0.5856808E+03  0.7818609E-02  0.9935567E-01
       -1   -1    0    0    0  501  0.00000000000E+00  0.00000000000E+00  0.10243127907E+04  0.10243127907E+04  0.50400001928E-02 0.  1.
        1   -1    0    0  501    0  0.00000000000E+00  0.00000000000E+00 -0.83720039958E+02  0.83720040110E+02  0.50400001928E-02 0. -1.
    10030    2    1    2    0    0  0.00000000000E+00  0.00000000000E+00  0.94059275077E+03  0.11080328308E+04  0.58568082728E+03 0.  0.
        1    1    3    3  502    0  0.17007733292E+02  0.17428632606E+03  0.26248227760E+02  0.17707048294E+03  0.50400001928E-02 0. -1.
       -1    1    3    3    0  502 -0.17007733292E+02 -0.17428632606E+03  0.91434452301E+03  0.93096234791E+03  0.50400001928E-02 0.  1.
</event>
<event>
 5   0  0.3601475E-02  0.6978563E+03  0.7818609E-02  0.9720905E-01
       -1   -1    0    0    0  501  0.00000000000E+00  0.00000000000E+00  0.27549707170E+03  0.27549707175E+03  0.50400001928E-02 0. -1.
        1   -1    0    0  501    0  0.00000000000E+00  0.00000000000E+00 -0.44193163210E+03  0.44193163213E+03  0.50400001928E-02 0.  1.
    10030    2    1    2    0    0  0.00000000000E+00  0.00000000000E+00 -0.16643456040E+03  0.71742870388E+03  0.69785634786E+03 0.  0.
        5    1    3    3  502    0 -0.23299340987E+03  0.12115185889E+03  0.15293166496E+03  0.30393072582E+03  0.46999998093E+01 0. -1.
       -5    1    3    3    0  502  0.23299340987E+03 -0.12115185889E+03 -0.31936622537E+03  0.41349797806E+03  0.46999998093E+01 0.  1.
</event>
<event>
 5   0  0.3439015E-02  0.6893744E+03  0.7818609E-02  0.9735578E-01
       -1   -1    0    0    0  501  0.00000000000E+00  0.00000000000E+00  0.81069809350E+03  0.81069809352E+03  0.50400001928E-02 0. -1.
        1   -1    0    0  501    0  0.00000000000E+00  0.00000000000E+00 -0.14655179034E+03  0.14655179043E+03  0.50400001928E-02 0.  1.
    10030    2    1    2    0    0  0.00000000000E+00  0.00000000000E+00  0.66414630316E+03  0.95724988395E+03  0.68937437458E+03 0.  0.
        1    1    3    3  502    0 -0.82741076553E+02  0.87973406860E+02  0.78035767401E+03  0.78964770973E+03  0.50400001928E-02 0. -1.
       -1    1    3    3    0  502  0.82741076553E+02 -0.87973406860E+02 -0.11621137085E+03  0.16760217422E+03  0.50400001928E-02 0.  1.
</event>
<event>
 5   0  0.5987810E-02  0.6923245E+03  0.7818609E-02  0.9730449E-01
        2   -1    0    0  501    0  0.00000000000E+00  0.00000000000E+00  0.49127836141E+03  0.49127836142E+03  0.25500000920E-02 0. -1.
       -2   -1    0    0    0  501  0.00000000000E+00  0.00000000000E+00 -0.24391122581E+03  0.24391122582E+03  0.25500000920E-02 0.  1.
    10030    2    1    2    0    0  0.00000000000E+00  0.00000000000E+00  0.24736713560E+03  0.73518958724E+03  0.69232451164E+03 0.  0.
        5    1    3    3  502    0  0.28739926145E+03 -0.15750751782E+03  0.54372603607E+01  0.32780879709E+03  0.46999998093E+01 0.  1.
       -5    1    3    3    0  502 -0.28739926145E+03  0.15750751782E+03  0.24192987524E+03  0.40738079015E+03  0.46999998093E+01 0. -1.
</event>
<event>
 5   0  0.6248886E-02  0.7091937E+03  0.7818609E-02  0.9701638E-01
       -2   -1    0    0    0  501  0.00000000000E+00  0.00000000000E+00  0.87406217166E+02  0.87406217204E+02  0.25500000920E-02 0. -1.
        2   -1    0    0  501    0  0.00000000000E+00  0.00000000000E+00 -0.14385579689E+04  0.14385579689E+04  0.25500000920E-02 0.  1.
    10030    2    1    2    0    0  0.00000000000E+00  0.00000000000E+00 -0.13511517517E+04  0.15259641861E+04  0.70919365554E+03 0.  0.
        3    1    3    3  502    0 -0.19181966862E+03  0.19493813936E+03 -0.18992657686E+03  0.33296813398E+03  0.10100000352E+00 0.  1.
       -3    1    3    3    0  502  0.19181966862E+03 -0.19493813936E+03 -0.11612251748E+04  0.11929960521E+04  0.10100000352E+00 0. -1.
</event>
<event>
 5   0  0.5987810E-02  0.7013035E+03  0.7818609E-02  0.9715006E-01
       -2   -1    0    0    0  501  0.00000000000E+00  0.00000000000E+00  0.31224744561E+03  0.31224744562E+03  0.25500000920E-02 0.  1.
        2   -1    0    0  501    0  0.00000000000E+00  0.00000000000E+00 -0.39377954786E+03  0.39377954787E+03  0.25500000920E-02 0. -1.
    10030    2    1    2    0    0  0.00000000000E+00  0.00000000000E+00 -0.81532102248E+02  0.70602699349E+03  0.70130352334E+03 0.  0.
        5    1    3    3  502    0  0.99534163880E+02 -0.10114748929E+03 -0.36354475925E+03  0.39028802998E+03  0.46999998093E+01 0. -1.
       -5    1    3    3    0  502 -0.99534163880E+02  0.10114748929E+03  0.28201265701E+03  0.31573896351E+03  0.46999998093E+01 0.  1.
</event>
<event>
 5   0  0.3755872E-02  0.6436830E+03  0.7818609E-02  0.9818705E-01
        1   -1    0    0  501    0  0.00000000000E+00  0.00000000000E+00  0.42121908042E+03  0.42121908045E+03  0.50400001928E-02 0.  1.
       -1   -1    0    0    0  501  0.00000000000E+00  0.00000000000E+00 -0.24590988678E+03  0.24590988683E+03  0.50400001928E-02 0. -1.
    10030    2    1    2    0    0  0.00000000000E+00  0.00000000000E+00  0.17530919365E+03  0.66712896728E+03  0.64368295426E+03 0.  0.
        2    1    3    3  502    0  0.21283340680E+03  0.79109580523E+02 -0.14874467628E+03  0.27144311284E+03  0.25500000920E-02 0. -1.
       -2    1    3    3    0  502 -0.21283340680E+03 -0.79109580523E+02  0.32405386992E+03  0.39568585444E+03  0.25500000920E-02 0.  1.
</event>
<event>
 5   0  0.6167756E-02  0.6515585E+03  0.7818609E-02  0.9803859E-01
        2   -1    0    0  501    0  0.00000000000E+00  0.00000000000E+00  0.26113811630E+03  0.26113811631E+03  0.25500000920E-02 0.  1.
       -2   -1    0    0    0  501  0.00000000000E+00  0.00000000000E+00 -0.40642137559E+03  0.40642137560E+03  0.25500000920E-02 0. -1.
    10030    2    1    2    0    0  0.00000000000E+00  0.00000000000E+00 -0.14528325930E+03  0.66755949191E+03  0.65155847766E+03 0.  0.
        4    1    3    3  502    0  0.51106232374E+02  0.17810493686E+03  0.20188885925E+03  0.27403273511E+03  0.12699999809E+01 0.  1.
       -4    1    3    3    0  502 -0.51106232374E+02 -0.17810493686E+03 -0.34717211855E+03  0.39352675680E+03  0.12699999809E+01 0. -1.
</event>
<event>
 5   0  0.3439015E-02  0.6427218E+03  0.7818609E-02  0.9820533E-01
       -1   -1    0    0    0  501  0.00000000000E+00  0.00000000000E+00  0.40532662260E+02  0.40532662573E+02  0.50400001928E-02 0.  1.
        1   -1    0    0  501    0  0.00000000000E+00  0.00000000000E+00 -0.25478914429E+04  0.25478914429E+04  0.50400001928E-02 0. -1.
    10030    2    1    2    0    0  0.00000000000E+00  0.00000000000E+00 -0.25073587806E+04  0.25884241055E+04  0.64272178659E+03 0.  0.
        1    1    3    3  502    0  0.27494540775E+03 -0.12815195845E+03 -0.16809309524E+04  0.17080827756E+04  0.50400001928E-02 0. -1.
       -1    1    3    3    0  502 -0.27494540775E+03  0.12815195845E+03 -0.82642782825E+03  0.88034132984E+03  0.50400001928E-02 0.  1.
</event>
<event>
 5   0  0.6248886E-02  0.6958312E+03  0.7818609E-02  0.9724388E-01
        2   -1    0    0  501    0  0.00000000000E+00  0.00000000000E+00  0.71742336021E+03  0.71742336022E+03  0.25500000920E-02 0.  1.
       -2   -1    0    0    0  501  0.00000000000E+00  0.00000000000E+00 -0.16872221727E+03  0.16872221729E+03  0.25500000920E-02 0. -1.
    10030    2    1    2    0    0  0.00000000000E+00  0.00000000000E+00  0.54870114294E+03  0.88614557751E+03  0.69583118662E+03 0.  0.
        3    1    3    3  502    0  0.11408152119E+03 -0.23591017616E+03 -0.17104543787E+02  0.26260384673E+03  0.10100000352E+00 0. -1.
       -3    1    3    3    0  502 -0.11408152119E+03  0.23591017616E+03  0.56580568673E+03  0.62354173078E+03  0.10100000352E+00 0.  1.
</event>
<event>
 5   0  0.3439015E-02  0.6940429E+03  0.7818609E-02  0.9727474E-01
       -1   -1    0    0    0  501  0.00000000000E+00  0.00000000000E+00  0.20680376875E+03  0.20680376881E+03  0.50400001928E-02 0. -1.
        1   -1    0    0  501    0  0.00000000000E+00  0.00000000000E+00 -0.58230997040E+03  0.58230997042E+03  0.50400001928E-02 0.  1.
    10030    2    1    2    0    0  0.00000000000E+00  0.00000000000E+00 -0.37550620165E+03  0.78911373924E+03  0.69404292805E+03 0.  0.
        1    1    3    3  502    0 -0.14405915018E+03 -0.17089023840E+03  0.11406643485E+03  0.25093358467E+03  0.50400001928E-02 0. -1.
       -1    1    3    3    0  502  0.14405915018E+03  0.17089023840E+03 -0.48957263650E+03  0.53818015456E+03  0.50400001928E-02 0.  1.
</event>
<event>
 5   0  0.2439375E-02  0.7030318E+03  0.7818609E-02  0.9712061E-01
        3   -1    0    0  501    0  0.00000000000E+00  0.00000000000E+00  0.45924627413E+03  0.45924628524E+03  0.10100000352E+00 0. -1.
       -3   -1    0    0    0  501  0.00000000000E+00  0.00000000000E+00 -0.26905701729E+03  0.26905703625E+03  0.10100000352E+00 0.  1.
    10030    2    1    2    0    0  0.00000000000E+00  0.00000000000E+00  0.19018925684E+03  0.72830332149E+03  0.70303184471E+03 0.  0.
        5    1    3    3  502    0  0.22323940710E+03 -0.26457477814E+03  0.15815737257E+03  0.38061987679E+03  0.46999998093E+01 0. -1.
       -5    1    3    3    0  502 -0.22323940710E+03  0.26457477814E+03  0.32031884263E+02  0.34768344470E+03  0.46999998093E+01 0.  1.
</event>
<event>
 5   0  0.5987810E-02  0.6973525E+03  0.7818609E-02  0.9721771E-01
        2   -1    0    0  501    0  0.00000000000E+00  0.00000000000E+00  0.18558297880E+04  0.18558297880E+04  0.25500000920E-02 0.  1.
       -2   -1    0    0    0  501  0.00000000000E+00  0.00000000000E+00 -0.65509841020E+02  0.65509841070E+02  0.25500000920E-02 0. -1.
    10030    2    1    2    0    0  0.00000000000E+00  0.00000000000E+00  0.17903199470E+04  0.19213396291E+04  0.69735246303E+03 0.  0.
        5    1    3    3  502    0  0.28874213380E+03  0.13125101170E+03  0.12939893141E+04  0.13323022491E+04  0.46999998093E+01 0.  1.
       -5    1    3    3    0  502 -0.28874213380E+03 -0.13125101170E+03  0.49633063295E+03  0.58903738006E+03  0.46999998093E+01 0. -1.
</event>
<event>
 5   0  0.3601475E-02  0.5767206E+03  0.7818609E-02  0.9954916E-01
       -1   -1    0    0    0  501  0.00000000000E+00  0.00000000000E+00  0.17187112595E+03  0.17187112602E+03  0.50400001928E-02 0.  1.
        1   -1    0    0  501    0  0.00000000000E+00  0.00000000000E+00 -0.48380235984E+03  0.48380235986E+03  0.50400001928E-02 0. -1.
    10030    2    1    2    0    0  0.00000000000E+00  0.00000000000E+00 -0.31193123389E+03  0.65567348589E+03  0.57672057829E+03 0.  0.
        5    1    3    3  502    0 -0.19212000583E+03 -0.14561864466E+02 -0.39982311992E+03  0.44384993157E+03  0.46999998093E+01 0. -1.
       -5    1    3    3    0  502  0.19212000583E+03  0.14561864466E+02  0.87891886028E+02  0.21182355432E+03  0.46999998093E+01 0.  1.
</event>
<event>
 5   0  0.3755872E-02  0.7123282E+03  0.7818609E-02  0.9696379E-01
        1   -1    0    0  501    0  0.00000000000E+00  0.00000000000E+00  0.11372709066E+03  0.11372709077E+03  0.50400001928E-02 0.  1.
       -1   -1    0    0    0  501  0.00000000000E+00  0.00000000000E+00 -0.11154147039E+04  0.11154147039E+04  0.50400001928E-02 0. -1.
    10030    2    1    2    0    0  0.00000000000E+00  0.00000000000E+00 -0.10016876132E+04  0.12291417947E+04  0.71232820869E+03 0.  0.
        2    1    3    3  502    0  0.16069427810E+03 -0.77939884994E+02 -0.10325627307E+04  0.10478945889E+04  0.25500000920E-02 0. -1.
       -2    1    3    3    0  502 -0.16069427810E+03  0.77939884994E+02  0.30875117500E+02  0.18124720570E+03  0.25500000920E-02 0.  1.
</event>
<event>
 5   0  0.5899787E-02  0.6877853E+03  0.7818609E-02  0.9738352E-01
        2   -1    0    0  501    0  0.00000000000E+00  0.00000000000E+00  0.14596831771E+04  0.14596831771E+04  0.25500000920E-02 0. -1.
       -2   -1    0    0    0  501  0.00000000000E+00  0.00000000000E+00 -0.81019060118E+02  0.81019060158E+02  0.25500000920E-02 0.  1.
    10030    2    1    2    0    0  0.00000000000E+00  0.00000000000E+00  0.13786641170E+04  0.15407022372E+04  0.68778531275E+03 0.  0.
        2    1    3    3  502    0  0.32516138666E+02  0.31070122282E+03  0.36727564179E+03  0.48216589075E+03  0.25500000920E-02 0.  1.
       -2    1    3    3    0  502 -0.32516138666E+02 -0.31070122282E+03  0.10113884752E+04  0.10585363465E+04  0.25500000920E-02 0. -1.
</event>
<event>
 5   0  0.6248886E-02  0.7366325E+03  0.7818609E-02  0.9656558E-01
       -2   -1    0    0    0  501  0.00000000000E+00  0.00000000000E+00  0.59835143596E+02  0.59835143651E+02  0.25500000920E-02 0. -1.
        2   -1    0    0  501    0  0.00000000000E+00  0.00000000000E+00 -0.22671767045E+04  0.22671767045E+04  0.25500000920E-02 0.  1.
    10030    2    1    2    0    0  0.00000000000E+00  0.00000000000E+00 -0.22073415609E+04  0.23270118481E+04  0.73663245580E+03 0.  0.
        3    1    3    3  502    0 -0.13427490942E+03 -0.28310593305E+03 -0.49211425815E+03  0.58339966909E+03  0.10100000352E+00 0. -1.
       -3    1    3    3    0  502  0.13427490942E+03  0.28310593305E+03 -0.17152273027E+04  0.17436121790E+04  0.10100000352E+00 0.  1.
</event>
<event>
 5   0  0.3717372E-02  0.6813818E+03  0.7818609E-02  0.9749612E-01
        1   -1    0    0  501    0  0.00000000000E+00  0.00000000000E+00  0.44983979815E+03  0.44983979817E+03  0.50400001928E-02 0. -1.
       -1   -1    0    0    0  501  0.00000000000E+00  0.00000000000E+00 -0.25802582540E+03  0.25802582545E+03  0.50400001928E-02 0.  1.
    10030    2    1    2    0    0  0.00000000000E+00  0.00000000000E+00  0.19181397275E+03  0.70786562362E+03  0.68138178796E+03 0.  0.
        3    1    3    3  502    0  0.22324555647E+03 -0.56810418576E+02 -0.16485561352E+03  0.28327263485E+03  0.10100000352E+00 0.  1.
       -3    1    3    3    0  502 -0.22324555647E+03  0.56810418576E+02  0.35666958627E+03  0.42459298877E+03  0.10100000352E+00 0. -1.
</event>
<event>
 5   0  0.2439375E-02  0.6987343E+03  0.7818609E-02  0.9719399E-01
        4   -1    0    0  501    0  0.00000000000E+00  0.00000000000E+00  0.37296231276E+03  0.37296447504E+03  0.12699999809E+01 0.  1.
       -4   -1    0    0    0  501  0.00000000000E+00  0.00000000000E+00 -0.32726040552E+03  0.32726286976E+03  0.12699999809E+01 0. -1.
    10030    2    1    2    0    0  0.00000000000E+00  0.00000000000E+00  0.45701907239E+02  0.70022734479E+03  0.69873433440E+03 0.  0.
        2    1    3    3  502    0 -0.15735371625E+03  0.55942369571E+02  0.33037417150E+03  0.37018486453E+03  0.25500000920E-02 0.  1.
       -2    1    3    3    0  502  0.15735371625E+03 -0.55942369571E+02 -0.28467226426E+03  0.33004248026E+03  0.25500000920E-02 0. -1.
</event>
<event>
 5   0  0.6167756E-02  0.6725621E+03  0.7818609E-02  0.9765340E-01
        2   -1    0    0  501    0  0.00000000000E+00  0.00000000000E+00  0.81724897423E+03  0.81724897423E+03  0.25500000920E-02 0. -1.
       -2   -1    0    0    0  501  0.00000000000E+00  0.00000000000E+00 -0.13837268820E+03  0.13837268823E+03  0.25500000920E-02 0.  1.
    10030    2    1    2    0    0  0.00000000000E+00  0.00000000000E+00  0.67887628603E+03  0.95562166246E+03  0.67256207894E+03 0.  0.
        4    1    3    3  502    0  0.43955704958E+02  0.83020689234E+02  0.79822391448E+03  0.80373351889E+03  0.12699999809E+01 0. -1.
       -4    1    3    3    0  502 -0.43955704958E+02 -0.83020689234E+02 -0.11934762845E+03  0.15188814357E+03  0.12699999809E+01 0.  1.
</event>
<event>
 5   0  0.5899787E-02  0.6764775E+03  0.7818609E-02  0.9758327E-01
        2   -1    0    0  501    0  0.00000000000E+00  0.00000000000E+00  0.46097040771E+03  0.46097040772E+03  0.25500000920E-02 0.  1.
       -2   -1    0    0    0  501  0.00000000000E+00  0.00000000000E+00 -0.24818391346E+03  0.24818391348E+03  0.25500000920E-02 0. -1.
    10030    2    1    2    0    0  0.00000000000E+00  0.00000000000E+00  0.21278649425E+03  0.70915432120E+03  0.67647746388E+03 0.  0.
        2    1    3    3  502    0 -0.14160079593E+03  0.20765309584E+03  0.34367816714E+03  0.42577608692E+03  0.25500000920E-02 0.  1.
       -2    1    3    3    0  502  0.14160079593E+03 -0.20765309584E+03 -0.13089167289E+03  0.28337823427E+03  0.25500000920E-02 0. -1.
</event>
<event>
 5   0  0.2439375E-02  0.6925027E+03  0.7818609E-02  0.9730140E-01
        4   -1    0    0  501    0  0.00000000000E+00  0.00000000000E+00  0.28910866431E+03  0.28911145374E+03  0.12699999809E+01 0. -1.
       -4   -1    0    0    0  501  0.00000000000E+00  0.00000000000E+00 -0.41468257296E+03  0.41468451770E+03  0.12699999809E+01 0.  1.
    10030    2    1    2    0    0  0.00000000000E+00  0.00000000000E+00 -0.12557390865E+03  0.70379597143E+03  0.69250268077E+03 0.  0.
        3    1    3    3  502    0  0.13965755572E+03  0.28320096724E+03 -0.20717051413E+03  0.37765944029E+03  0.10100000352E+00 0.  1.
       -3    1    3    3    0  502 -0.13965755572E+03 -0.28320096724E+03  0.81596605478E+02  0.32613653114E+03  0.10100000352E+00 0. -1.
</event>
<event>
 5   0  0.5899787E-02  0.6723752E+03  0.7818609E-02  0.9765677E-01
        2   -1    0    0  501    0  0.00000000000E+00  0.00000000000E+00  0.21837748423E+03  0.21837748424E+03  0.25500000920E-02 0. -1.
       -2   -1    0    0    0  501  0.00000000000E+00  0.00000000000E+00 -0.51755379182E+03  0.51755379182E+03  0.25500000920E-02 0.  1.
    10030    2    1    2    0    0  0.00000000000E+00  0.00000000000E+00 -0.29917630759E+03  0.73593127607E+03  0.67237517806E+03 0.  0.
        2    1    3    3  502    0  0.54204220095E+02  0.26839835393E+03  0.63904001994E+02  0.28117520400E+03  0.25500000920E-02 0. -1.
       -2    1    3    3    0  502 -0.54204220095E+02 -0.26839835393E+03 -0.36308030958E+03  0.45475607207E+03  0.25500000920E-02 0.  1.
</event>
<event>
 5   0  0.5987810E-02  0.7005088E+03  0.7818609E-02  0.9716362E-01
        2   -1    0    0  501    0  0.00000000000E+00  0.00000000000E+00  0.18960551604E+03  0.18960551606E+03  0.25500000920E-02 0. -1.
       -2   -1    0    0    0  501  0.00000000000E+00  0.00000000000E+00 -0.64701786898E+03  0.64701786899E+03  0.25500000920E-02 0.  1.
    10030    2    1    2    0    0  0.00000000000E+00  0.00000000000E+00 -0.45741235294E+03  0.83662338504E+03  0.70050883490E+03 0.  0.
        5    1    3    3  502    0  0.17867301822E+03  0.70184965198E+02  0.12113863665E+03  0.22703884264E+03  0.46999998093E+01 0. -1.
       -5    1    3    3    0  502 -0.17867301822E+03 -0.70184965198E+02 -0.57855098959E+03  0.60958454240E+03  0.46999998093E+01 0.  1.
</event>
<event>
 5   0  0.6167756E-02  0.7072689E+03  0.7818609E-02  0.9704882E-01
        2   -1    0    0  501    0  0.00000000000E+00  0.00000000000E+00  0.22368374285E+04  0.22368374285E+04  0.25500000920E-02 0.  1.
       -2   -1    0    0    0  501  0.00000000000E+00  0.00000000000E+00 -0.55908098902E+02  0.55908098960E+02  0.25500000920E-02 0. -1.
    10030    2    1    2    0    0  0.00000000000E+00  0.00000000000E+00  0.21809293296E+04  0.22927455274E+04  0.70726891137E+03 0.  0.
        4    1    3    3  502    0 -0.12276094117E+03  0.21323287052E+03  0.26706805587E+03  0.36313284775E+03  0.12699999809E+01 0. -1.
       -4    1    3    3    0  502  0.12276094117E+03 -0.21323287052E+03  0.19138612737E+04  0.19296126797E+04  0.12699999809E+01 0.  1.
</event>
<event>
 5   0  0.5899787E-02  0.7136571E+03  0.7818609E-02  0.9694158E-01
       -2   -1    0    0    0  501  0.00000000000E+00  0.00000000000E+00  0.74652326364E+02  0.74652326408E+02  0.25500000920E-02 0. -1.
        2   -1    0    0  501    0  0.00000000000E+00  0.00000000000E+00 -0.17055945955E+04  0.17055945955E+04  0.25500000920E-02 0.  1.
    10030    2    1    2    0    0  0.00000000000E+00  0.00000000000E+00 -0.16309422691E+04  0.17802469219E+04  0.71365707291E+03 0.  0.
        2    1    3    3  502    0  0.26331608055E+03 -0.13118832214E+03 -0.13192256059E+04  0.13516293624E+04  0.25500000920E-02 0.  1.
       -2    1    3    3    0  502 -0.26331608055E+03  0.13118832214E+03 -0.31171666325E+03  0.42861755948E+03  0.25500000920E-02 0. -1.
</event>
<event>
 5   0  0.5987810E-02  0.6691246E+03  0.7818609E-02  0.9771541E-01
       -2   -1    0    0    0  501  0.00000000000E+00  0.00000000000E+00  0.24213278155E+03  0.24213278156E+03  0.25500000920E-02 0. -1.
        2   -1    0    0  501    0  0.00000000000E+00  0.00000000000E+00 -0.46227496850E+03  0.46227496851E+03  0.25500000920E-02 0.  1.
    10030    2    1    2    0    0  0.00000000000E+00  0.00000000000E+00 -0.22014218696E+03  0.70440775007E+03  0.66912457426E+03 0.  0.
        5    1    3    3  502    0 -0.16727835584E+03 -0.28874067702E+03 -0.85234529897E+02  0.34444192832E+03  0.46999998093E+01 0. -1.
       -5    1    3    3    0  502  0.16727835584E+03  0.28874067702E+03 -0.13490765706E+03  0.35996582175E+03  0.46999998093E+01 0.  1.
</event>
<event>
 5   0  0.3439015E-02  0.6964317E+03  0.7818609E-02  0.9723354E-01
        1   -1    0    0  501    0  0.00000000000E+00  0.00000000000E+00  0.47892542156E+03  0.47892542158E+03  0.50400001928E-02 0.  1.
       -1   -1    0    0    0  501  0.00000000000E+00  0.00000000000E+00 -0.25317988598E+03  0.25317988603E+03  0.50400001928E-02 0. -1.
    10030    2    1    2    0    0  0.00000000000E+00  0.00000000000E+00  0.22574553558E+03  0.73210530761E+03  0.69643171568E+03 0.  0.
        1    1    3    3  502    0  0.28831209159E+03 -0.19440199081E+03  0.93538045053E+02  0.36009076923E+03  0.50400001928E-02 0.  1.
       -1    1    3    3    0  502 -0.28831209159E+03  0.19440199081E+03  0.13220749053E+03  0.37201453838E+03  0.50400001928E-02 0. -1.
</event>
<event>
 5   0  0.6248886E-02  0.6862921E+03  0.7818609E-02  0.9740966E-01
        2   -1    0    0  501    0  0.00000000000E+00  0.00000000000E+00  0.12409807506E+04  0.12409807506E+04  0.25500000920E-02 0.  1.
       -2   -1    0    0    0  501  0.00000000000E+00  0.00000000000E+00 -0.94883997784E+02  0.94883997818E+02  0.25500000920E-02 0. -1.
    10030    2    1    2    0    0  0.00000000000E+00  0.00000000000E+00  0.11460967528E+04  0.13358647484E+04  0.68629210927E+03 0.  0.
        3    1    3    3  502    0 -0.42512974754E+02  0.12333784027E+03 -0.44729143228E+02  0.13791403960E+03  0.10100000352E+00 0. -1.
       -3    1    3    3    0  502  0.42512974754E+02 -0.12333784027E+03  0.11908258960E+04  0.11979507088E+04  0.10100000352E+00 0.  1.
</event>
<event>
 5   0  0.3439015E-02  0.6961955E+03  0.7818609E-02  0.9723761E-01
       -1   -1    0    0    0  501  0.00000000000E+00  0.00000000000E+00  0.25702953250E+03  0.25702953255E+03  0.50400001928E-02 0. -1.
        1   -1    0    0  501    0  0.00000000000E+00  0.00000000000E+00 -0.47143232651E+03  0.47143232653E+03  0.50400001928E-02 0.  1.
    10030    2    1    2    0    0  0.00000000000E+00  0.00000000000E+00 -0.21440279401E+03  0.72846185908E+03  0.69619546254E+03 0.  0.
        1    1    3    3  502    0  0.16284654655E+03  0.28192986891E+03  0.21667502009E+02  0.32630189913E+03  0.50400001928E-02 0. -1.
       -1    1    3    3    0  502 -0.16284654655E+03 -0.28192986891E+03 -0.23607029601E+03  0.40215995995E+03  0.50400001928E-02 0.  1.
</event>
<event>
 5   0  0.5899787E-02  0.7016544E+03  0.7818609E-02  0.9714407E-01
        2   -1    0    0  501    0  0.00000000000E+00  0.00000000000E+00  0.19363117506E+04  0.19363117506E+04  0.25500000920E-02 0. -1.
       -2   -1    0    0    0  501  0.00000000000E+00  0.00000000000E+00 -0.63563994012E+02  0.63563994063E+02  0.25500000920E-02 0.  1.
    10030    2    1    2    0    0  0.00000000000E+00  0.00000000000E+00  0.18727477565E+04  0.19998757446E+04  0.70165435528E+03 0.  0.
        2    1    3    3  502    0 -0.11775850693E+03  0.38141761109E+02  0.74365113696E+00  0.12378373447E+03  0.25500000920E-02 0.  1.
       -2    1    3    3    0  502  0.11775850693E+03 -0.38141761109E+02  0.18720041054E+04  0.18760920101E+04  0.25500000920E-02 0. -1.
</event>
<event>
 5   0  0.5987810E-02  0.7004795E+03  0.7818609E-02  0.9716413E-01
       -2   -1    0    0    0  501  0.00000000000E+00  0.00000000000E+00  0.38423453662E+03  0.38423453663E+03  0.25500000920E-02 0. -1.
        2   -1    0    0  501    0  0.00000000000E+00  0.00000000000E+00 -0.31925258294E+03  0.31925258295E+03  0.25500000920E-02 0.  1.
    10030    2    1    2    0    0  0.00000000000E+00  0.00000000000E+00  0.64981953685E+02  0.70348711958E+03  0.70047945945E+03 0.  0.
        5    1    3    3  502    0 -0.65560643276E+02  0.75292539610E+02  0.36960862867E+03  0.38288352387E+03  0.46999998093E+01 0. -1.
       -5    1    3    3    0  502  0.65560643276E+02 -0.75292539610E+02 -0.30462667499E+03  0.32060359571E+03  0.46999998093E+01 0.  1.
</event>
<event>
 5   0  0.3439015E-02  0.6929050E+03  0.7818609E-02  0.9729443E-01
       -1   -1    0    0    0  501  0.00000000000E+00  0.00000000000E+00  0.14681164060E+03  0.14681164069E+03  0.50400001928E-02 0. -1.
        1   -1    0    0  501    0  0.00000000000E+00  0.00000000000E+00 -0.81757368380E+03  0.81757368381E+03  0.50400001928E-02 0.  1.
    10030    2    1    2    0    0  0.00000000000E+00  0.00000000000E+00 -0.67076204320E+03  0.96438532450E+03  0.69290499747E+03 0.  0.
        1    1    3    3  502    0 -0.39269116005E+02  0.27346160342E+03 -0.62635056898E+03  0.68457165242E+03  0.50400001928E-02 0.  1.
       -1    1    3    3    0  502  0.39269116005E+02 -0.27346160342E+03 -0.44411474218E+02  0.27981367208E+03  0.50400001928E-02 0. -1.
</event>
<event>
 5   0  0.3749730E-02  0.6386664E+03  0.7818609E-02  0.9828281E-01
       -1   -1    0    0    0  501  0.00000000000E+00  0.00000000000E+00  0.11586996511E+03  0.11586996522E+03  0.50400001928E-02 0. -1.
        1   -1    0    0  501    0  0.00000000000E+00  0.00000000000E+00 -0.88007006624E+03  0.88007006626E+03  0.50400001928E-02 0.  1.
    10030    2    1    2    0    0  0.00000000000E+00  0.00000000000E+00 -0.76420010113E+03  0.99594003148E+03  0.63866638532E+03 0.  0.
        4    1    3    3  502    0 -0.15348266971E+03  0.27621530324E+02  0.52446194896E+02  0.16453599940E+03  0.12699999809E+01 0. -1.
       -4    1    3    3    0  502  0.15348266971E+03 -0.27621530324E+02 -0.81664629603E+03  0.83140403208E+03  0.12699999809E+01 0.  1.
</event>
<event>
 5   0  0.3717372E-02  0.6842987E+03  0.7818609E-02  0.9744467E-01
        1   -1    0    0  501    0  0.00000000000E+00  0.00000000000E+00  0.16179384477E+04  0.16179384477E+04  0.50400001928E-02 0. -1.
       -1   -1    0    0    0  501  0.00000000000E+00  0.00000000000E+00 -0.72355144219E+02  0.72355144395E+02  0.50400001928E-02 0.  1.
    10030    2    1    2    0    0  0.00000000000E+00  0.00000000000E+00  0.15455833034E+04  0.16902935921E+04  0.68429867711E+03 0.  0.
        3    1    3    3  502    0 -0.26189179357E+02  0.25280557850E+03  0.13386014045E+04  0.13625161518E+04  0.10100000352E+00 0. -1.
       -3    1    3    3    0  502  0.26189179357E+02 -0.25280557850E+03  0.20698189892E+03  0.32777744023E+03  0.10100000352E+00 0.  1.
</event>
<event>
 5   0  0.3601475E-02  0.7178996E+03  0.7818609E-02  0.9687102E-01
       -1   -1    0    0    0  501  0.00000000000E+00  0.00000000000E+00  0.62016505029E+03  0.62016505031E+03  0.50400001928E-02 0.  1.
        1   -1    0    0  501    0  0.00000000000E+00  0.00000000000E+00 -0.20775912781E+03  0.20775912787E+03  0.50400001928E-02 0. -1.
    10030    2    1    2    0    0  0.00000000000E+00  0.00000000000E+00  0.41240592248E+03  0.82792417819E+03  0.71789957510E+03 0.  0.
        5    1    3    3  502    0  0.34100697302E+03 -0.65900853681E+02  0.10180796873E+03  0.36196081371E+03  0.46999998093E+01 0.  1.
       -5    1    3    3    0  502 -0.34100697302E+03  0.65900853681E+02  0.31059795375E+03  0.46596336448E+03  0.46999998093E+01 0. -1.
</event>
<event>
 5   0  0.3601475E-02  0.7107340E+03  0.7818609E-02  0.9699050E-01
        1   -1    0    0  501    0  0.00000000000E+00  0.00000000000E+00  0.37827949139E+03  0.37827949143E+03  0.50400001928E-02 0.  1.
       -1   -1    0    0    0  501  0.00000000000E+00  0.00000000000E+00 -0.33384232301E+03  0.33384232305E+03  0.50400001928E-02 0. -1.
    10030    2    1    2    0    0  0.00000000000E+00  0.00000000000E+00  0.44437168385E+02  0.71212181447E+03  0.71073399856E+03 0.  0.
        5    1    3    3  502    0  0.19951426488E+03  0.26718392840E+03 -0.10078276832E+03  0.34838549033E+03  0.46999998093E+01 0. -1.
       -5    1    3    3    0  502 -0.19951426488E+03 -0.26718392840E+03  0.14521993671E+03  0.36373632414E+03  0.46999998093E+01 0.  1.
</event>
<event>
 5   0  0.3439015E-02  0.6994264E+03  0.7818609E-02  0.9718214E-01
       -1   -1    0    0    0  501  0.00000000000E+00  0.00000000000E+00  0.55356871682E+03  0.55356871684E+03  0.50400001928E-02 0.  1.
        1   -1    0    0  501    0  0.00000000000E+00  0.00000000000E+00 -0.22092886389E+03  0.22092886395E+03  0.50400001928E-02 0. -1.
    10030    2    1    2    0    0  0.00000000000E+00  0.00000000000E+00  0.33263985293E+03  0.77449758079E+03  0.69942635845E+03 0.  0.
        1    1    3    3  502    0  0.14205897398E+03  0.21751489695E+03 -0.92913757224E+02  0.27591021871E+03  0.50400001928E-02 0. -1.
       -1    1    3    3    0  502 -0.14205897398E+03 -0.21751489695E+03  0.42555361015E+03  0.49858736207E+03  0.50400001928E-02 0.  1.
</event>
<event>
 5   0  0.5987810E-02  0.7060087E+03  0.7818609E-02  0.9707011E-01
       -2   -1    0    0    0  501  0.00000000000E+00  0.00000000000E+00  0.23011112165E+03  0.23011112167E+03  0.25500000920E-02 0.  1.
        2   -1    0    0  501    0  0.00000000000E+00  0.00000000000E+00 -0.54153000198E+03  0.54153000199E+03  0.25500000920E-02 0. -1.
    10030    2    1    2    0    0  0.00000000000E+00  0.00000000000E+00 -0.31141888033E+03  0.77164112365E+03  0.70600871432E+03 0.  0.
        5    1    3    3  502    0 -0.32865940962E+03 -0.12872922113E+03 -0.15716200035E+03  0.38640678598E+03  0.46999998093E+01 0. -1.
       -5    1    3    3    0  502  0.32865940962E+03  0.12872922113E+03 -0.15425687998E+03  0.38523433767E+03  0.46999998093E+01 0.  1.
</event>
<event>
 5   0  0.2439375E-02  0.7642396E+03  0.7818609E-02  0.9613272E-01
       -3   -1    0    0    0  501  0.00000000000E+00  0.00000000000E+00  0.45000580892E+03  0.45000582026E+03  0.10100000352E+00 0. -1.
        3   -1    0    0  501    0  0.00000000000E+00  0.00000000000E+00 -0.32447473621E+03  0.32447475193E+03  0.10100000352E+00 0.  1.
    10030    2    1    2    0    0  0.00000000000E+00  0.00000000000E+00  0.12553107271E+03  0.77448057218E+03  0.76423956092E+03 0.  0.
        1    1    3    3  502    0  0.88401694079E+01  0.30794562122E+03 -0.16633212963E+03  0.35010717159E+03  0.50400001928E-02 0.  1.
       -1    1    3    3    0  502 -0.88401694079E+01 -0.30794562122E+03  0.29186320235E+03  0.42437340060E+03  0.50400001928E-02 0. -1.
</event>
<event>
 5   0  0.3601475E-02  0.7073791E+03  0.7818609E-02  0.9704696E-01
        1   -1    0    0  501    0  0.00000000000E+00  0.00000000000E+00  0.61106925341E+03  0.61106925343E+03  0.50400001928E-02 0.  1.
       -1   -1    0    0    0  501  0.00000000000E+00  0.00000000000E+00 -0.20471705281E+03  0.20471705287E+03  0.50400001928E-02 0. -1.
    10030    2    1    2    0    0  0.00000000000E+00  0.00000000000E+00  0.40635220060E+03  0.81578630631E+03  0.70737909682E+03 0.  0.
        5    1    3    3  502    0 -0.34432803317E+03  0.57412133921E+02  0.13777279398E+03  0.37531504141E+03  0.46999998093E+01 0.  1.
       -5    1    3    3    0  502  0.34432803317E+03 -0.57412133921E+02  0.26857940662E+03  0.44047126490E+03  0.46999998093E+01 0. -1.
</event>
<event>
 5   0  0.5987810E-02  0.7005156E+03  0.7818609E-02  0.9716351E-01
       -2   -1    0    0    0  501  0.00000000000E+00  0.00000000000E+00  0.25944571480E+03  0.25944571481E+03  0.25500000920E-02 0. -1.
        2   -1    0    0  501    0  0.00000000000E+00  0.00000000000E+00 -0.47285619416E+03  0.47285619417E+03  0.25500000920E-02 0.  1.
    10030    2    1    2    0    0  0.00000000000E+00  0.00000000000E+00 -0.21341047937E+03  0.73230190898E+03  0.70051556242E+03 0.  0.
        5    1    3    3  502    0 -0.21424050335E+03 -0.14374703913E+03 -0.35429870168E+03  0.43830567478E+03  0.46999998093E+01 0.  1.
       -5    1    3    3    0  502  0.21424050335E+03  0.14374703913E+03  0.14088822231E+03  0.29399623419E+03  0.46999998093E+01 0. -1.
</event>
<event>
 5   0  0.3749730E-02  0.7390687E+03  0.7818609E-02  0.9652658E-01
       -1   -1    0    0    0  501  0.00000000000E+00  0.00000000000E+00  0.29821203159E+03  0.29821203163E+03  0.50400001928E-02 0. -1.
        1   -1    0    0  501    0  0.00000000000E+00  0.00000000000E+00 -0.45791459232E+03  0.45791459235E+03  0.50400001928E-02 0.  1.
    10030    2    1    2    0    0  0.00000000000E+00  0.00000000000E+00 -0.15970256073E+03  0.75612662398E+03  0.73906871371E+03 0.  0.
        4    1    3    3  502    0 -0.86828150356E+02 -0.28430618796E+03  0.14472565765E+03  0.33063010312E+03  0.12699999809E+01 0. -1.
       -4    1    3    3    0  502  0.86828150356E+02  0.28430618796E+03 -0.30442821839E+03  0.42549652085E+03  0.12699999809E+01 0.  1.
</event>
<event>
 5   0  0.3601475E-02  0.7056140E+03  0.7818609E-02  0.9707679E-01
        1   -1    0    0  501    0  0.00000000000E+00  0.00000000000E+00  0.35466517939E+03  0.35466517943E+03  0.50400001928E-02 0. -1.
       -1   -1    0    0    0  501  0.00000000000E+00  0.00000000000E+00 -0.35095852549E+03  0.35095852552E+03  0.50400001928E-02 0.  1.
    10030    2    1    2    0    0  0.00000000000E+00  0.00000000000E+00  0.37066539036E+01  0.70562370495E+03  0.70561396932E+03 0.  0.
        5    1    3    3  502    0  0.23804535102E+02  0.29031165600E+03 -0.19715485824E+03  0.35176645893E+03  0.46999998093E+01 0.  1.
       -5    1    3    3    0  502 -0.23804535102E+02 -0.29031165600E+03  0.20086151214E+03  0.35385724602E+03  0.46999998093E+01 0. -1.
</event>
<event>
 5   0  0.6248886E-02  0.6999090E+03  0.7818609E-02  0.9717388E-01
       -2   -1    0    0    0  501  0.00000000000E+00  0.00000000000E+00  0.11090263021E+03  0.11090263024E+03  0.25500000920E-02 0.  1.
        2   -1    0    0  501    0  0.00000000000E+00  0.00000000000E+00 -0.11042852410E+04  0.11042852410E+04  0.25500000920E-02 0. -1.
    10030    2    1    2    0    0  0.00000000000E+00  0.00000000000E+00 -0.99338261079E+03  0.12151878712E+04  0.69990895907E+03 0.  0.
        3    1    3    3  502    0  0.30156173834E+03 -0.11839077418E+03 -0.72645060413E+03  0.79541583331E+03  0.10100000352E+00 0. -1.
       -3    1    3    3    0  502 -0.30156173834E+03  0.11839077418E+03 -0.26693200666E+03  0.41977203793E+03  0.10100000352E+00 0.  1.
</event>
<event>
 5   0  0.5987810E-02  0.6983354E+03  0.7818609E-02  0.9720083E-01
        2   -1    0    0  501    0  0.00000000000E+00  0.00000000000E+00  0.86816414122E+03  0.86816414122E+03  0.25500000920E-02 0.  1.
       -2   -1    0    0    0  501  0.00000000000E+00  0.00000000000E+00 -0.14043208447E+03  0.14043208450E+03  0.25500000920E-02 0. -1.
    10030    2    1    2    0    0  0.00000000000E+00  0.00000000000E+00  0.72773205674E+03  0.10085962257E+04  0.69833544956E+03 0.  0.
        5    1    3    3  502    0 -0.12254507463E+03 -0.25830131547E+03  0.65329731802E+03  0.71313136281E+03  0.46999998093E+01 0.  1.
       -5    1    3    3    0  502  0.12254507463E+03  0.25830131547E+03  0.74434738724E+02  0.29546486291E+03  0.46999998093E+01 0. -1.
</event>
<event>
 5   0  0.3601475E-02  0.6949824E+03  0.7818609E-02  0.9725852E-01
        1   -1    0    0  501    0  0.00000000000E+00  0.00000000000E+00  0.10597763088E+04  0.10597763088E+04  0.50400001928E-02 0. -1.
       -1   -1    0    0    0  501  0.00000000000E+00  0.00000000000E+00 -0.11393925795E+03  0.11393925806E+03  0.50400001928E-02 0.  1.
    10030    2    1    2    0    0  0.00000000000E+00  0.00000000000E+00  0.94583705083E+03  0.11737155669E+04  0.69498237759E+03 0.  0.
        5    1    3    3  502    0  0.34687354289E+03 -0.89533828269E+01  0.50344027644E+03  0.61145369388E+03  0.46999998093E+01 0.  1.
       -5    1    3    3    0  502 -0.34687354289E+03  0.89533828269E+01  0.44239677439E+03  0.56226187298E+03  0.46999998093E+01 0. -1.
</event>
<event>
 5   0  0.6167756E-02  0.7243304E+03  0.7818609E-02  0.9676505E-01
       -2   -1    0    0    0  501  0.00000000000E+00  0.00000000000E+00  0.45714626839E+03  0.45714626839E+03  0.25500000920E-02 0.  1.
        2   -1    0    0  501    0  0.00000000000E+00  0.00000000000E+00 -0.28691829116E+03  0.28691829117E+03  0.25500000920E-02 0. -1.
    10030    2    1    2    0    0  0.00000000000E+00  0.00000000000E+00  0.17022797723E+03  0.74406455957E+03  0.72433038358E+03 0.  0.
        4    1    3    3  502    0 -0.92440353698E+02 -0.10603537109E+03  0.42793264558E+03  0.45046274093E+03  0.12699999809E+01 0.  1.
       -4    1    3    3    0  502  0.92440353698E+02  0.10603537109E+03 -0.25770466835E+03  0.29360181863E+03  0.12699999809E+01 0. -1.
</event>
<event>
 5   0  0.3439015E-02  0.7147073E+03  0.7818609E-02  0.9692406E-01
        1   -1    0    0  501    0  0.00000000000E+00  0.00000000000E+00  0.43512766554E+03  0.43512766557E+03  0.50400001928E-02 0.  1.
       -1   -1    0    0    0  501  0.00000000000E+00  0.00000000000E+00 -0.29348086214E+03  0.29348086218E+03  0.50400001928E-02 0. -1.
    10030    2    1    2    0    0  0.00000000000E+00  0.00000000000E+00  0.14164680340E+03  0.72860852775E+03  0.71470733156E+03 0.  0.
        1    1    3    3  502    0 -0.24521660170E+03  0.16446225076E+03 -0.13439429938E+03  0.32440844842E+03  0.50400001928E-02 0. -1.
       -1    1    3    3    0  502  0.24521660170E+03 -0.16446225076E+03  0.27604110278E+03  0.40420007933E+03  0.50400001928E-02 0.  1.
</event>
<event>
 5   0  0.3755872E-02  0.6915396E+03  0.7818609E-02  0.9731811E-01
       -1   -1    0    0    0  501  0.00000000000E+00  0.00000000000E+00  0.91638011009E+02  0.91638011147E+02  0.50400001928E-02 0. -1.
        1   -1    0    0  501    0  0.00000000000E+00  0.00000000000E+00 -0.13046634450E+04  0.13046634450E+04  0.50400001928E-02 0.  1.
    10030    2    1    2    0    0  0.00000000000E+00  0.00000000000E+00 -0.12130254340E+04  0.13963014562E+04  0.69153962501E+03 0.  0.
        2    1    3    3  502    0 -0.19392631401E+03  0.28625345842E+03 -0.61233167525E+03  0.70320590032E+03  0.25500000920E-02 0.  1.
       -2    1    3    3    0  502  0.19392631401E+03 -0.28625345842E+03 -0.60069375873E+03  0.69309555583E+03  0.25500000920E-02 0. -1.
</event>
<event>
 5   0  0.3749730E-02  0.6552579E+03  0.7818609E-02  0.9796963E-01
        1   -1    0    0  501    0  0.00000000000E+00  0.00000000000E+00  0.41196705539E+03  0.41196705542E+03  0.50400001928E-02 0. -1.
       -1   -1    0    0    0  501  0.00000000000E+00  0.00000000000E+00 -0.26055662192E+03  0.26055662196E+03  0.50400001928E-02 0.  1.
    10030    2    1    2    0    0  0.00000000000E+00  0.00000000000E+00  0.15141043347E+03  0.67252367738E+03  0.65525794713E+03 0.  0.
        4    1    3    3  502    0 -0.28268884592E+03 -0.11972675377E+03  0.19313885400E+03  0.36270057761E+03  0.12699999809E+01 0. -1.
       -4    1    3    3    0  502  0.28268884592E+03  0.11972675377E+03 -0.41728420529E+02  0.30982309977E+03  0.12699999809E+01 0.  1.
</event>
<event>
 5   0  0.3749730E-02  0.6992534E+03  0.7818609E-02  0.9718510E-01
       -1   -1    0    0    0  501  0.00000000000E+00  0.00000000000E+00  0.22194401260E+03  0.22194401265E+03  0.50400001928E-02 0.  1.
        1   -1    0    0  501    0  0.00000000000E+00  0.00000000000E+00 -0.55076430997E+03  0.55076431000E+03  0.50400001928E-02 0. -1.
    10030    2    1    2    0    0  0.00000000000E+00  0.00000000000E+00 -0.32882029738E+03  0.77270832265E+03  0.69925343326E+03 0.  0.
        4    1    3    3  502    0  0.98650223609E+02 -0.58017360502E+02  0.20065607947E+03  0.23100293475E+03  0.12699999809E+01 0.  1.
       -4    1    3    3    0  502 -0.98650223609E+02  0.58017360502E+02 -0.52947637685E+03  0.54170538790E+03  0.12699999809E+01 0. -1.
</event>
<event>
 5   0  0.3439015E-02  0.7051432E+03  0.7818609E-02  0.9708477E-01
        1   -1    0    0  501    0  0.00000000000E+00  0.00000000000E+00  0.17368785994E+03  0.17368786002E+03  0.50400001928E-02 0. -1.
       -1   -1    0    0    0  501  0.00000000000E+00  0.00000000000E+00 -0.71569037144E+03  0.71569037146E+03  0.50400001928E-02 0.  1.
    10030    2    1    2    0    0  0.00000000000E+00  0.00000000000E+00 -0.54200251150E+03  0.88937823148E+03  0.70514318841E+03 0.  0.
        1    1    3    3  502    0  0.13729950814E+03 -0.13805174375E+03 -0.64173254444E+03  0.67061918964E+03  0.50400001928E-02 0.  1.
       -1    1    3    3    0  502 -0.13729950814E+03  0.13805174375E+03  0.99730032944E+02  0.21875904184E+03  0.50400001928E-02 0. -1.
</event>
<event>
 5   0  0.3601475E-02  0.7144415E+03  0.7818609E-02  0.9692849E-01
        1   -1    0    0  501    0  0.00000000000E+00  0.00000000000E+00  0.58975503464E+03  0.58975503467E+03  0.50400001928E-02 0. -1.
       -1   -1    0    0    0  501  0.00000000000E+00  0.00000000000E+00 -0.21637229735E+03  0.21637229741E+03  0.50400001928E-02 0.  1.
    10030    2    1    2    0    0  0.00000000000E+00  0.00000000000E+00  0.37338273730E+03  0.80612733207E+03  0.71444146506E+03 0.  0.
        5    1    3    3  502    0 -0.14369279681E+02  0.49711705545E+02 -0.21208562095E+03  0.21835780379E+03  0.46999998093E+01 0.  1.
       -5    1    3    3    0  502  0.14369279681E+02 -0.49711705545E+02  0.58546835824E+03  0.58776952828E+03  0.46999998093E+01 0. -1.
</event>
<event>
 5   0  0.6167756E-02  0.6814232E+03  0.7818609E-02  0.9749539E-01
        2   -1    0    0  501    0  0.00000000000E+00  0.00000000000E+00  0.79115174990E+03  0.79115174990E+03  0.25500000920E-02 0. -1.
       -2   -1    0    0    0  501  0.00000000000E+00  0.00000000000E+00 -0.14672833877E+03  0.14672833879E+03  0.25500000920E-02 0.  1.
    10030    2    1    2    0    0  0.00000000000E+00  0.00000000000E+00  0.64442341113E+03  0.93788008869E+03  0.68142316365E+03 0.  0.
        4    1    3    3  502    0 -0.17241988428E+03 -0.11841248060E+03  0.69237859761E+03  0.72328408485E+03  0.12699999809E+01 0. -1.
       -4    1    3    3    0  502  0.17241988428E+03  0.11841248060E+03 -0.47955186487E+02  0.21459600385E+03  0.12699999809E+01 0.  1.
</event>
<event>
 5   0  0.3601475E-02  0.7399551E+03  0.7818609E-02  0.9651242E-01
       -1   -1    0    0    0  501  0.00000000000E+00  0.00000000000E+00  0.62627665892E+03  0.62627665894E+03  0.50400001928E-02 0. -1.
        1   -1    0    0  501    0  0.00000000000E+00  0.00000000000E+00 -0.21856699058E+03  0.21856699064E+03  0.50400001928E-02 0.  1.
    10030    2    1    2    0    0  0.00000000000E+00  0.00000000000E+00  0.40770966834E+03  0.84484364958E+03  0.73995514633E+03 0.  0.
        5    1    3    3  502    0 -0.21453073721E+03 -0.82078847176E+02  0.53496413077E+03  0.58221051654E+03  0.46999998093E+01 0. -1.
       -5    1    3    3    0  502  0.21453073721E+03  0.82078847176E+02 -0.12725446243E+03  0.26263313304E+03  0.46999998093E+01 0.  1.
</event>
<event>
 5   0  0.6167756E-02  0.6941499E+03  0.7818609E-02  0.9727289E-01
        2   -1    0    0  501    0  0.00000000000E+00  0.00000000000E+00  0.11449682619E+04  0.11449682619E+04  0.25500000920E-02 0.  1.
       -2   -1    0    0    0  501  0.00000000000E+00  0.00000000000E+00 -0.10520904247E+03  0.10520904250E+03  0.25500000920E-02 0. -1.
    10030    2    1    2    0    0  0.00000000000E+00  0.00000000000E+00  0.10397592195E+04  0.12501773044E+04  0.69414988156E+03 0.  0.
        4    1    3    3  502    0 -0.24087686641E+02 -0.14134818560E+03  0.10891267138E+04  0.10985254379E+04  0.12699999809E+01 0.  1.
       -4    1    3    3    0  502  0.24087686641E+02  0.14134818560E+03 -0.49367494315E+02  0.15165186650E+03  0.12699999809E+01 0. -1.
</event>
<event>
 5   0  0.3439015E-02  0.6935185E+03  0.7818609E-02  0.9728381E-01
       -1   -1    0    0    0  501  0.00000000000E+00  0.00000000000E+00  0.13404094186E+04  0.13404094186E+04  0.50400001928E-02 0. -1.
        1   -1    0    0  501    0  0.00000000000E+00  0.00000000000E+00 -0.89705397781E+02  0.89705397923E+02  0.50400001928E-02 0.  1.
    10030    2    1    2    0    0  0.00000000000E+00  0.00000000000E+00  0.12507040208E+04  0.14301148165E+04  0.69351845021E+03 0.  0.
        1    1    3    3  502    0  0.69209181481E+02  0.14940128145E+03  0.12546563613E+04  0.12654142558E+04  0.50400001928E-02 0. -1.
       -1    1    3    3    0  502 -0.69209181481E+02 -0.14940128145E+03 -0.39523404717E+01  0.16470056078E+03  0.50400001928E-02 0.  1.
</event>
<event>
 5   0  0.2439375E-02  0.7193284E+03  0.7818609E-02  0.9684737E-01
       -3   -1    0    0    0  501  0.00000000000E+00  0.00000000000E+00  0.13704903604E+03  0.13704907325E+03  0.10100000352E+00 0.  1.
        3   -1    0    0  501    0  0.00000000000E+00  0.00000000000E+00 -0.94388341229E+03  0.94388341769E+03  0.10100000352E+00 0. -1.
    10030    2    1    2    0    0  0.00000000000E+00  0.00000000000E+00 -0.80683437625E+03  0.10809324909E+04  0.71932839461E+03 0.  0.
        4    1    3    3  502    0  0.63842284145E+01 -0.34273216243E+03 -0.23983272344E+03  0.41836281105E+03  0.12699999809E+01 0.  1.
       -4    1    3    3    0  502 -0.63842284145E+01  0.34273216243E+03 -0.56700165281E+03  0.66256967990E+03  0.12699999809E+01 0. -1.
</event>
<event>
 5   0  0.6131198E-02  0.6875061E+03  0.7818609E-02  0.9738840E-01
        2   -1    0    0  501    0  0.00000000000E+00  0.00000000000E+00  0.49894064354E+03  0.49894064355E+03  0.25500000920E-02 0.  1.
       -2   -1    0    0    0  501  0.00000000000E+00  0.00000000000E+00 -0.23683412640E+03  0.23683412641E+03  0.25500000920E-02 0. -1.
    10030    2    1    2    0    0  0.00000000000E+00  0.00000000000E+00  0.26210651714E+03  0.73577476996E+03  0.68750613509E+03 0.  0.
        1    1    3    3  502    0  0.27005389275E+03  0.14981431044E+03  0.29262543330E+03  0.42544456377E+03  0.50400001928E-02 0.  1.
       -1    1    3    3    0  502 -0.27005389275E+03 -0.14981431044E+03 -0.30518916159E+02  0.31033020619E+03  0.50400001928E-02 0. -1.
</event>
<event>
 5   0  0.3439015E-02  0.7070251E+03  0.7818609E-02  0.9705293E-01
        1   -1    0    0  501    0  0.00000000000E+00  0.00000000000E+00  0.47887358899E+03  0.47887358901E+03  0.50400001928E-02 0. -1.
       -1   -1    0    0    0  501  0.00000000000E+00  0.00000000000E+00 -0.26096893443E+03  0.26096893447E+03  0.50400001928E-02 0.  1.
    10030    2    1    2    0    0  0.00000000000E+00  0.00000000000E+00  0.21790465456E+03  0.73984252349E+03  0.70702512055E+03 0.  0.
        1    1    3    3  502    0  0.59619116543E+02 -0.24467220708E+03 -0.15066055744E+03  0.29345788722E+03  0.50400001928E-02 0. -1.
       -1    1    3    3    0  502 -0.59619116543E+02  0.24467220708E+03  0.36856521200E+03  0.44638463627E+03  0.50400001928E-02 0.  1.
</event>
<event>
 5   0  0.5899787E-02  0.6976564E+03  0.7818609E-02  0.9721248E-01
        2   -1    0    0  501    0  0.00000000000E+00  0.00000000000E+00  0.15489341480E+04  0.15489341480E+04  0.25500000920E-02 0. -1.
       -2   -1    0    0    0  501  0.00000000000E+00  0.00000000000E+00 -0.78557965290E+02  0.78557965332E+02  0.25500000920E-02 0.  1.
    10030    2    1    2    0    0  0.00000000000E+00  0.00000000000E+00  0.14703761827E+04  0.16274921133E+04  0.69765640560E+03 0.  0.
        2    1    3    3  502    0  0.27248114350E+03 -0.85251026413E+02  0.12027231567E+04  0.12361459068E+04  0.25500000920E-02 0. -1.
       -2    1    3    3    0  502 -0.27248114350E+03  0.85251026413E+02  0.26765302594E+03  0.39134620653E+03  0.25500000920E-02 0.  1.
</event>
<event>
 5   0  0.3439015E-02  0.6926347E+03  0.7818609E-02  0.9729911E-01
       -1   -1    0    0    0  501  0.00000000000E+00  0.00000000000E+00  0.20964925687E+03  0.20964925693E+03  0.50400001928E-02 0. -1.
        1   -1    0    0  501    0  0.00000000000E+00  0.00000000000E+00 -0.57207794900E+03  0.57207794903E+03  0.50400001928E-02 0.  1.
    10030    2    1    2    0    0  0.00000000000E+00  0.00000000000E+00 -0.36242869213E+03  0.78172720596E+03  0.69263472888E+03 0.  0.
        1    1    3    3  502    0 -0.96150688794E+00  0.14017332985E+03  0.17619970008E+03  0.22515732551E+03  0.50400001928E-02 0. -1.
       -1    1    3    3    0  502  0.96150688794E+00 -0.14017332985E+03 -0.53862839221E+03  0.55656988045E+03  0.50400001928E-02 0.  1.
</event>
<event>
 5   0  0.3717372E-02  0.6921802E+03  0.7818609E-02  0.9730699E-01
        1   -1    0    0  501    0  0.00000000000E+00  0.00000000000E+00  0.10512626590E+04  0.10512626590E+04  0.50400001928E-02 0. -1.
       -1   -1    0    0    0  501  0.00000000000E+00  0.00000000000E+00 -0.11393760354E+03  0.11393760365E+03  0.50400001928E-02 0.  1.
    10030    2    1    2    0    0  0.00000000000E+00  0.00000000000E+00  0.93732505549E+03  0.11652002627E+04  0.69218017346E+03 0.  0.
        3    1    3    3  502    0 -0.18736411915E+03 -0.17573903276E+03  0.85907835506E+03  0.89666334324E+03  0.10100000352E+00 0. -1.
       -3    1    3    3    0  502  0.18736411915E+03  0.17573903276E+03  0.78246700435E+02  0.26853691946E+03  0.10100000352E+00 0.  1.
</event>
<event>
 5   0  0.3439015E-02  0.7561371E+03  0.7818609E-02  0.9625771E-01
       -1   -1    0    0    0  501  0.00000000000E+00  0.00000000000E+00  0.10228268118E+04  0.10228268118E+04  0.50400001928E-02 0. -1.
        1   -1    0    0  501    0  0.00000000000E+00  0.00000000000E+00 -0.13974588192E+03  0.13974588201E+03  0.50400001928E-02 0.  1.
    10030    2    1    2    0    0  0.00000000000E+00  0.00000000000E+00  0.88308092983E+03  0.11625726938E+04  0.75613711698E+03 0.  0.
        1    1    3    3  502    0 -0.23656478625E+03  0.19649203969E+02 -0.10883415360E+02  0.23762878206E+03  0.50400001928E-02 0. -1.
       -1    1    3    3    0  502  0.23656478625E+03 -0.19649203969E+02  0.89396434519E+03  0.92494391171E+03  0.50400001928E-02 0.  1.
</event>
<event>
 5   0  0.5987810E-02  0.6960412E+03  0.7818609E-02  0.9724026E-01
       -2   -1    0    0    0  501  0.00000000000E+00  0.00000000000E+00  0.14891262927E+03  0.14891262929E+03  0.25500000920E-02 0.  1.
        2   -1    0    0  501    0  0.00000000000E+00  0.00000000000E+00 -0.81335177908E+03  0.81335177908E+03  0.25500000920E-02 0. -1.
    10030    2    1    2    0    0  0.00000000000E+00  0.00000000000E+00 -0.66443914981E+03  0.96226440837E+03  0.69604124002E+03 0.  0.
        5    1    3    3  502    0 -0.12197189302E+03  0.35339434495E+02 -0.78013142583E+03  0.79041327790E+03  0.46999998093E+01 0. -1.
       -5    1    3    3    0  502  0.12197189302E+03 -0.35339434495E+02  0.11569227601E+03  0.17185113047E+03  0.46999998093E+01 0.  1.
</event>
<event>
 5   0  0.6248886E-02  0.7047970E+03  0.7818609E-02  0.9709064E-01
       -2   -1    0    0    0  501  0.00000000000E+00  0.00000000000E+00  0.10950069768E+03  0.10950069771E+03  0.25500000920E-02 0. -1.
        2   -1    0    0  501    0  0.00000000000E+00  0.00000000000E+00 -0.11340997561E+04  0.11340997561E+04  0.25500000920E-02 0.  1.
    10030    2    1    2    0    0  0.00000000000E+00  0.00000000000E+00 -0.10245990584E+04  0.12436004538E+04  0.70479703336E+03 0.  0.
        3    1    3    3  502    0  0.25497863746E+03 -0.24289229425E+03 -0.48902897182E+03  0.60262767746E+03  0.10100000352E+00 0. -1.
       -3    1    3    3    0  502 -0.25497863746E+03  0.24289229425E+03 -0.53557008661E+03  0.64097277637E+03  0.10100000352E+00 0.  1.
</event>
<event>
 5   0  0.6131198E-02  0.6707578E+03  0.7818609E-02  0.9768590E-01
       -2   -1    0    0    0  501  0.00000000000E+00  0.00000000000E+00  0.18380743118E+03  0.18380743119E+03  0.25500000920E-02 0. -1.
        2   -1    0    0  501    0  0.00000000000E+00  0.00000000000E+00 -0.61193931206E+03  0.61193931206E+03  0.25500000920E-02 0.  1.
    10030    2    1    2    0    0  0.00000000000E+00  0.00000000000E+00 -0.42813188088E+03  0.79574674325E+03  0.67075775953E+03 0.  0.
        1    1    3    3  502    0 -0.29748070028E+03 -0.15319634446E+03 -0.18714083226E+03  0.38338698220E+03  0.50400001928E-02 0. -1.
       -1    1    3    3    0  502  0.29748070028E+03  0.15319634446E+03 -0.24099104862E+03  0.41235976105E+03  0.50400001928E-02 0.  1.
</event>
<event>
 5   0  0.3755872E-02  0.7049994E+03  0.7818609E-02  0.9708721E-01
       -1   -1    0    0    0  501  0.00000000000E+00  0.00000000000E+00  0.77381048637E+02  0.77381048802E+02  0.50400001928E-02 0. -1.
        1   -1    0    0  501    0  0.00000000000E+00  0.00000000000E+00 -0.16057684540E+04  0.16057684540E+04  0.50400001928E-02 0.  1.
    10030    2    1    2    0    0  0.00000000000E+00  0.00000000000E+00 -0.15283874053E+04  0.16831495028E+04  0.70499942407E+03 0.  0.
        2    1    3    3  502    0  0.31366061058E+03 -0.16669961233E+02 -0.11461494342E+04  0.11884104475E+04  0.25500000920E-02 0.  1.
       -2    1    3    3    0  502 -0.31366061058E+03  0.16669961233E+02 -0.38223797119E+03  0.49473905532E+03  0.25500000920E-02 0. -1.
</event>
<event>
 5   0  0.3439015E-02  0.7011805E+03  0.7818609E-02  0.9715215E-01
        1   -1    0    0  501    0  0.00000000000E+00  0.00000000000E+00  0.80410145104E+03  0.80410145106E+03  0.50400001928E-02 0. -1.
       -1   -1    0    0    0  501  0.00000000000E+00  0.00000000000E+00 -0.15285823781E+03  0.15285823789E+03  0.50400001928E-02 0.  1.
    10030    2    1    2    0    0  0.00000000000E+00  0.00000000000E+00  0.65124321323E+03  0.95695968895E+03  0.70118052133E+03 0.  0.
        1    1    3    3  502    0  0.97386333421E+02  0.20315637692E+03  0.69223032839E+03  0.72796939427E+03  0.50400001928E-02 0. -1.
       -1    1    3    3    0  502 -0.97386333421E+02 -0.20315637692E+03 -0.40987115163E+02  0.22899029468E+03  0.50400001928E-02 0.  1.
</event>
<event>
 5   0  0.5987810E-02  0.6605423E+03  0.7818609E-02  0.9787196E-01
       -2   -1    0    0    0  501  0.00000000000E+00  0.00000000000E+00  0.89561438219E+02  0.89561438256E+02  0.25500000920E-02 0.  1.
        2   -1    0    0  501    0  0.00000000000E+00  0.00000000000E+00 -0.12179241914E+04  0.12179241914E+04  0.25500000920E-02 0. -1.
    10030    2    1    2    0    0  0.00000000000E+00  0.00000000000E+00 -0.11283627532E+04  0.13074856297E+04  0.66054232946E+03 0.  0.
        5    1    3    3  502    0  0.92245342730E+02 -0.60434777459E+01  0.63361717214E+02  0.11217185068E+03  0.46999998093E+01 0.  1.
       -5    1    3    3    0  502 -0.92245342730E+02  0.60434777459E+01 -0.11917244704E+04  0.11953137790E+04  0.46999998093E+01 0. -1.
</event>
<event>
 5   0  0.3717372E-02  0.7062372E+03  0.7818609E-02  0.9706625E-01
        1   -1    0    0  501    0  0.00000000000E+00  0.00000000000E+00  0.19171892798E+03  0.19171892804E+03  0.50400001928E-02 0.  1.
       -1   -1    0    0    0  501  0.00000000000E+00  0.00000000000E+00 -0.65039352941E+03  0.65039352943E+03  0.50400001928E-02 0. -1.
    10030    2    1    2    0    0  0.00000000000E+00  0.00000000000E+00 -0.45867460143E+03  0.84211245747E+03  0.70623721300E+03 0.  0.
        3    1    3    3  502    0  0.10785769762E+03  0.40828960395E+02  0.16862998994E+03  0.20429481308E+03  0.10100000352E+00 0.  1.
       -3    1    3    3    0  502 -0.10785769762E+03 -0.40828960395E+02 -0.62730459137E+03  0.63781764439E+03  0.10100000352E+00 0. -1.
</event>
<event>
 5   0  0.3749730E-02  0.6934167E+03  0.7818609E-02  0.9728557E-01
       -1   -1    0    0    0  501  0.00000000000E+00  0.00000000000E+00  0.25502981478E+03  0.25502981483E+03  0.50400001928E-02 0. -1.
        1   -1    0    0  501    0  0.00000000000E+00  0.00000000000E+00 -0.47134362456E+03  0.47134362459E+03  0.50400001928E-02 0.  1.
    10030    2    1    2    0    0  0.00000000000E+00  0.00000000000E+00 -0.21631380979E+03  0.72637343942E+03  0.69341669232E+03 0.  0.
        4    1    3    3  502    0 -0.44557602011E+02 -0.26213176485E+03 -0.34123277378E+03  0.43259664914E+03  0.12699999809E+01 0.  1.
       -4    1    3    3    0  502  0.44557602011E+02  0.26213176485E+03  0.12491896400E+03  0.29377679028E+03  0.12699999809E+01 0. -1.
</event>
<event>
 5   0  0.5987810E-02  0.6671400E+03  0.7818609E-02  0.9775138E-01
       -2   -1    0    0    0  501  0.00000000000E+00  0.00000000000E+00  0.18842243919E+03  0.18842243921E+03  0.25500000920E-02 0.  1.
        2   -1    0    0  501    0  0.00000000000E+00  0.00000000000E+00 -0.59052922294E+03  0.59052922294E+03  0.25500000920E-02 0. -1.
    10030    2    1    2    0    0  0.00000000000E+00  0.00000000000E+00 -0.40210678374E+03  0.77895166215E+03  0.66714003511E+03 0.  0.
        5    1    3    3  502    0  0.27218787635E+03  0.17920284208E+03 -0.11810484558E+03  0.34665652048E+03  0.46999998093E+01 0.  1.
       -5    1    3    3    0  502 -0.27218787635E+03 -0.17920284208E+03 -0.28400193816E+03  0.43229514168E+03  0.46999998093E+01 0. -1.
</event>
<event>
 5   0  0.3601475E-02  0.6954745E+03  0.7818609E-02  0.9725003E-01
       -1   -1    0    0    0  501  0.00000000000E+00  0.00000000000E+00  0.19263717741E+03  0.19263717748E+03  0.50400001928E-02 0. -1.
        1   -1    0    0  501    0  0.00000000000E+00  0.00000000000E+00 -0.62771471439E+03  0.62771471441E+03  0.50400001928E-02 0.  1.
    10030    2    1    2    0    0  0.00000000000E+00  0.00000000000E+00 -0.43507753698E+03  0.82035189189E+03  0.69547448791E+03 0.  0.
        5    1    3    3  502    0 -0.23614204526E+03 -0.20981473194E+03 -0.38893541552E+03  0.50107697485E+03  0.46999998093E+01 0.  1.
       -5    1    3    3    0  502  0.23614204526E+03  0.20981473194E+03 -0.46142121459E+02  0.31927491704E+03  0.46999998093E+01 0. -1.
</event>
<event>
 5   0  0.5987810E-02  0.6830132E+03  0.7818609E-02  0.9746731E-01
       -2   -1    0    0    0  501  0.00000000000E+00  0.00000000000E+00  0.57945424440E+02  0.57945424496E+02  0.25500000920E-02 0.  1.
        2   -1    0    0  501    0  0.00000000000E+00  0.00000000000E+00 -0.20127000081E+04  0.20127000082E+04  0.25500000920E-02 0. -1.
    10030    2    1    2    0    0  0.00000000000E+00  0.00000000000E+00 -0.19547545837E+04  0.20706454326E+04  0.68301319549E+03 0.  0.
        5    1    3    3  502    0 -0.21222095388E+03 -0.80743333271E+02 -0.20417742037E+03  0.30539765572E+03  0.46999998093E+01 0.  1.
       -5    1    3    3    0  502  0.21222095388E+03  0.80743333271E+02 -0.17505771633E+04  0.17652477769E+04  0.46999998093E+01 0. -1.
</event>
<event>
 5   0  0.6167756E-02  0.6895387E+03  0.7818609E-02  0.9735292E-01
       -2   -1    0    0    0  501  0.00000000000E+00  0.00000000000E+00  0.14308972714E+03  0.14308972716E+03  0.25500000920E-02 0. -1.
        2   -1    0    0  501    0  0.00000000000E+00  0.00000000000E+00 -0.83070880257E+03  0.83070880258E+03  0.25500000920E-02 0.  1.
    10030    2    1    2    0    0  0.00000000000E+00  0.00000000000E+00 -0.68761907543E+03  0.97379852974E+03  0.68953867449E+03 0.  0.
        4    1    3    3  502    0 -0.10416736743E+03 -0.10898391368E+03 -0.78168780814E+03  0.79609407495E+03  0.12699999809E+01 0.  1.
       -4    1    3    3    0  502  0.10416736743E+03  0.10898391368E+03  0.94068732706E+02  0.17770445479E+03  0.12699999809E+01 0. -1.
</event>
<event>
 5   0  0.6131198E-02  0.7009522E+03  0.7818609E-02  0.9715605E-01
        2   -1    0    0  501    0  0.00000000000E+00  0.00000000000E+00  0.30381384817E+03  0.30381384818E+03  0.25500000920E-02 0. -1.
       -2   -1    0    0    0  501  0.00000000000E+00  0.00000000000E+00 -0.40430512413E+03  0.40430512414E+03  0.25500000920E-02 0.  1.
    10030    2    1    2    0    0  0.00000000000E+00  0.00000000000E+00 -0.10049127596E+03  0.70811897233E+03  0.70095219696E+03 0.  0.
        1    1    3    3  502    0 -0.17631167939E+03  0.21998510573E+03  0.16010005341E+03  0.32420870155E+03  0.50400001928E-02 0.  1.
       -1    1    3    3    0  502  0.17631167939E+03 -0.21998510573E+03 -0.26059132937E+03  0.38391027077E+03  0.50400001928E-02 0. -1.
</event>
<event>
 5   0  0.6131198E-02  0.6950994E+03  0.7818609E-02  0.9725650E-01
        2   -1    0    0  501    0  0.00000000000E+00  0.00000000000E+00  0.54100601845E+03  0.54100601845E+03  0.25500000920E-02 0.  1.
       -2   -1    0    0    0  501  0.00000000000E+00  0.00000000000E+00 -0.22327067913E+03  0.22327067914E+03  0.25500000920E-02 0. -1.
    10030    2    1    2    0    0  0.00000000000E+00  0.00000000000E+00  0.31773533932E+03  0.76427669759E+03  0.69509936313E+03 0.  0.
        1    1    3    3  502    0  0.13158065154E+03 -0.15686110555E+03 -0.14992351815E+03  0.25376354272E+03  0.50400001928E-02 0. -1.
       -1    1    3    3    0  502 -0.13158065154E+03  0.15686110555E+03  0.46765885747E+03  0.51051315487E+03  0.50400001928E-02 0.  1.
</event>
<event>
 5   0  0.2439375E-02  0.7043547E+03  0.7818609E-02  0.9709814E-01
       -3   -1    0    0    0  501  0.00000000000E+00  0.00000000000E+00  0.30897240580E+03  0.30897242231E+03  0.10100000352E+00 0.  1.
        3   -1    0    0  501    0  0.00000000000E+00  0.00000000000E+00 -0.40142379274E+03  0.40142380545E+03  0.10100000352E+00 0. -1.
    10030    2    1    2    0    0  0.00000000000E+00  0.00000000000E+00 -0.92451386935E+02  0.71039622776E+03  0.70435469862E+03 0.  0.
        5    1    3    3  502    0 -0.19699624780E+03  0.15327640217E+03 -0.29676252726E+03  0.38780312620E+03  0.46999998093E+01 0. -1.
       -5    1    3    3    0  502  0.19699624780E+03 -0.15327640217E+03  0.20431114032E+03  0.32259310155E+03  0.46999998093E+01 0.  1.
</event>
<event>
 5   0  0.3755872E-02  0.7341818E+03  0.7818609E-02  0.9660499E-01
        1   -1    0    0  501    0  0.00000000000E+00  0.00000000000E+00  0.39251599425E+03  0.39251599428E+03  0.50400001928E-02 0. -1.
       -1   -1    0    0    0  501  0.00000000000E+00  0.00000000000E+00 -0.34331270337E+03  0.34331270341E+03  0.50400001928E-02 0.  1.
    10030    2    1    2    0    0  0.00000000000E+00  0.00000000000E+00  0.49203290876E+02  0.73582869769E+03  0.73418179527E+03 0.  0.
        2    1    3    3  502    0 -0.24850688237E+03  0.26572511048E+03 -0.24397922157E+02  0.36463785258E+03  0.25500000920E-02 0. -1.
       -2    1    3    3    0  502  0.24850688237E+03 -0.26572511048E+03  0.73601213033E+02  0.37119084510E+03  0.25500000920E-02 0.  1.
</event>
<event>
 5   0  0.6131198E-02  0.6960824E+03  0.7818609E-02  0.9723955E-01
       -2   -1    0    0    0  501  0.00000000000E+00  0.00000000000E+00  0.22591254691E+03  0.22591254693E+03  0.25500000920E-02 0.  1.
        2   -1    0    0  501    0  0.00000000000E+00  0.00000000000E+00 -0.53619277903E+03  0.53619277903E+03  0.25500000920E-02 0. -1.
    10030    2    1    2    0    0  0.00000000000E+00  0.00000000000E+00 -0.31028023211E+03  0.76210532596E+03  0.69608239844E+03 0.  0.
        1    1    3    3  502    0 -0.17103842585E+03 -0.37049582920E+02 -0.48451668270E+03  0.51515359899E+03  0.50400001928E-02 0. -1.
       -1    1    3    3    0  502  0.17103842585E+03  0.37049582920E+02  0.17423645059E+03  0.24695172697E+03  0.50400001928E-02 0.  1.
</event>
<event>
 5   0  0.3601475E-02  0.7241095E+03  0.7818609E-02  0.9676868E-01
       -1   -1    0    0    0  501  0.00000000000E+00  0.00000000000E+00  0.20611885958E+03  0.20611885965E+03  0.50400001928E-02 0.  1.
        1   -1    0    0  501    0  0.00000000000E+00  0.00000000000E+00 -0.63596135554E+03  0.63596135556E+03  0.50400001928E-02 0. -1.
    10030    2    1    2    0    0  0.00000000000E+00  0.00000000000E+00 -0.42984249595E+03  0.84208021520E+03  0.72410946514E+03 0.  0.
        5    1    3    3  502    0  0.61736247818E+01  0.25519799773E+03  0.83605606229E+02  0.26865613538E+03  0.46999998093E+01 0.  1.
       -5    1    3    3    0  502 -0.61736247818E+01 -0.25519799773E+03 -0.51344810218E+03  0.57342407982E+03  0.46999998093E+01 0. -1.
</event>
<event>
 5   0  0.3717372E-02  0.6814636E+03  0.7818609E-02  0.9749468E-01
        1   -1    0    0  501    0  0.00000000000E+00  0.00000000000E+00  0.30574335770E+03  0.30574335774E+03  0.50400001928E-02 0.  1.
       -1   -1    0    0    0  501  0.00000000000E+00  0.00000000000E+00 -0.37972427649E+03  0.37972427652E+03  0.50400001928E-02 0. -1.
    10030    2    1    2    0    0  0.00000000000E+00  0.00000000000E+00 -0.73980918796E+02  0.68546763426E+03  0.68146364633E+03 0.  0.
        3    1    3    3  502    0 -0.21385861505E+03 -0.10070379699E+03 -0.28383282283E+03  0.36937493617E+03  0.10100000352E+00 0. -1.
       -3    1    3    3    0  502  0.21385861505E+03  0.10070379699E+03  0.20985190403E+03  0.31609269809E+03  0.10100000352E+00 0.  1.
</event>
<event>
 5   0  0.6167756E-02  0.7160219E+03  0.7818609E-02  0.9690218E-01
        2   -1    0    0  501    0  0.00000000000E+00  0.00000000000E+00  0.23181512435E+03  0.23181512436E+03  0.25500000920E-02 0. -1.
       -2   -1    0    0    0  501  0.00000000000E+00  0.00000000000E+00 -0.55290540496E+03  0.55290540496E+03  0.25500000920E-02 0.  1.
    10030    2    1    2    0    0  0.00000000000E+00  0.00000000000E+00 -0.32109028061E+03  0.78472052933E+03  0.71602188573E+03 0.  0.
        4    1    3    3  502    0 -0.10449933712E+03 -0.15208237417E+03  0.17568150511E+03  0.25478375954E+03  0.12699999809E+01 0. -1.
       -4    1    3    3    0  502  0.10449933712E+03  0.15208237417E+03 -0.49677178571E+03  0.52993676979E+03  0.12699999809E+01 0.  1.
</event>
<event>
 5   0  0.3749730E-02  0.7097443E+03  0.7818609E-02  0.9700712E-01
        1   -1    0    0  501    0  0.00000000000E+00  0.00000000000E+00  0.96422683264E+03  0.96422683265E+03  0.50400001928E-02 0. -1.
       -1   -1    0    0    0  501  0.00000000000E+00  0.00000000000E+00 -0.13060645893E+03  0.13060645903E+03  0.50400001928E-02 0.  1.
    10030    2    1    2    0    0  0.00000000000E+00  0.00000000000E+00  0.83362037370E+03  0.10948332917E+04  0.70974432658E+03 0.  0.
        4    1    3    3  502    0 -0.11367864348E+03 -0.16176435651E+03 -0.37770750355E+02  0.20129278056E+03  0.12699999809E+01 0.  1.
       -4    1    3    3    0  502  0.11367864348E+03  0.16176435651E+03  0.87139112406E+03  0.89354051112E+03  0.12699999809E+01 0. -1.
</event>
<event>
 5   0  0.6248886E-02  0.6977959E+03  0.7818609E-02  0.9721009E-01
        2   -1    0    0  501    0  0.00000000000E+00  0.00000000000E+00  0.10574334071E+04  0.10574334072E+04  0.25500000920E-02 0. -1.
       -2   -1    0    0    0  501  0.00000000000E+00  0.00000000000E+00 -0.11511814080E+03  0.11511814083E+03  0.25500000920E-02 0.  1.
    10030    2    1    2    0    0  0.00000000000E+00  0.00000000000E+00  0.94231526634E+03  0.11725515480E+04  0.69779586663E+03 0.  0.
        3    1    3    3  502    0 -0.11938230635E+03  0.76627661920E+02 -0.64469850347E+02  0.15582138957E+03  0.10100000352E+00 0.  1.
       -3    1    3    3    0  502  0.11938230635E+03 -0.76627661920E+02  0.10067851167E+04  0.10167301584E+04  0.10100000352E+00 0. -1.
</event>
<event>
 5   0  0.6248886E-02  0.7010047E+03  0.7818609E-02  0.9715516E-01
        2   -1    0    0  501    0  0.00000000000E+00  0.00000000000E+00  0.27776105920E+03  0.27776105922E+03  0.25500000920E-02 0.  1.
       -2   -1    0    0    0  501  0.00000000000E+00  0.00000000000E+00 -0.44229345651E+03  0.44229345651E+03  0.25500000920E-02 0. -1.
    10030    2    1    2    0    0  0.00000000000E+00  0.00000000000E+00 -0.16453239730E+03  0.72005451573E+03  0.70100470459E+03 0.  0.
        3    1    3    3  502    0 -0.15178218247E+03 -0.13798276648E+03  0.20966628968E+03  0.29332070842E+03  0.10100000352E+00 0.  1.
       -3    1    3    3    0  502  0.15178218247E+03  0.13798276648E+03 -0.37419868698E+03  0.42673380731E+03  0.10100000352E+00 0. -1.
</event>
<event>
 5   0  0.6248886E-02  0.6690354E+03  0.7818609E-02  0.9771702E-01
        2   -1    0    0  501    0  0.00000000000E+00  0.00000000000E+00  0.22874422608E+04  0.22874422608E+04  0.25500000920E-02 0.  1.
       -2   -1    0    0    0  501  0.00000000000E+00  0.00000000000E+00 -0.48920179204E+02  0.48920179270E+02  0.25500000920E-02 0. -1.
    10030    2    1    2    0    0  0.00000000000E+00  0.00000000000E+00  0.22385220816E+04  0.23363624400E+04  0.66903538141E+03 0.  0.
        3    1    3    3  502    0  0.66769314462E+02  0.26440190799E+03  0.44269124100E+03  0.51994428102E+03  0.10100000352E+00 0. -1.
       -3    1    3    3    0  502 -0.66769314462E+02 -0.26440190799E+03  0.17958308406E+04  0.18164181590E+04  0.10100000352E+00 0.  1.
</event>
<event>
 5   0  0.3755872E-02  0.7018271E+03  0.7818609E-02  0.9714113E-01
        1   -1    0    0  501    0  0.00000000000E+00  0.00000000000E+00  0.48948180130E+03  0.48948180133E+03  0.50400001928E-02 0.  1.
       -1   -1    0    0    0  501  0.00000000000E+00  0.00000000000E+00 -0.25157282730E+03  0.25157282736E+03  0.50400001928E-02 0. -1.
    10030    2    1    2    0    0  0.00000000000E+00  0.00000000000E+00  0.23790897400E+03  0.74105462868E+03  0.70182710320E+03 0.  0.
        2    1    3    3  502    0  0.10363267160E+03 -0.12334177693E+03 -0.21021916194E+03  0.26484905250E+03  0.25500000920E-02 0. -1.
       -2    1    3    3    0  502 -0.10363267160E+03  0.12334177693E+03  0.44812813594E+03  0.47620557618E+03  0.25500000920E-02 0.  1.
</event>
<event>
 5   0  0.5987810E-02  0.7164512E+03  0.7818609E-02  0.9689505E-01
       -2   -1    0    0    0  501  0.00000000000E+00  0.00000000000E+00  0.19755091640E+03  0.19755091642E+03  0.25500000920E-02 0. -1.
        2   -1    0    0  501    0  0.00000000000E+00  0.00000000000E+00 -0.64958237103E+03  0.64958237103E+03  0.25500000920E-02 0.  1.
    10030    2    1    2    0    0  0.00000000000E+00  0.00000000000E+00 -0.45203145463E+03  0.84713328745E+03  0.71645123402E+03 0.  0.
        5    1    3    3  502    0 -0.24317217513E+03 -0.24211899333E+03 -0.34745933183E+03  0.48836911344E+03  0.46999998093E+01 0.  1.
       -5    1    3    3    0  502  0.24317217513E+03  0.24211899333E+03 -0.10457212279E+03  0.35876417401E+03  0.46999998093E+01 0. -1.
</event>
<event>
 5   0  0.5987810E-02  0.6456427E+03  0.7818609E-02  0.9814990E-01
       -2   -1    0    0    0  501  0.00000000000E+00  0.00000000000E+00  0.31101371043E+03  0.31101371044E+03  0.25500000920E-02 0. -1.
        2   -1    0    0  501    0  0.00000000000E+00  0.00000000000E+00 -0.33507731296E+03  0.33507731297E+03  0.25500000920E-02 0.  1.
    10030    2    1    2    0    0  0.00000000000E+00  0.00000000000E+00 -0.24063602531E+02  0.64609102341E+03  0.64564274453E+03 0.  0.
        5    1    3    3  502    0 -0.22819501665E+03  0.22333823939E+03 -0.59378641461E+02  0.32480894054E+03  0.46999998093E+01 0.  1.
       -5    1    3    3    0  502  0.22819501665E+03 -0.22333823939E+03  0.35315038930E+02  0.32128208287E+03  0.46999998093E+01 0. -1.
</event>
<event>
 5   0  0.6167756E-02  0.7043873E+03  0.7818609E-02  0.9709759E-01
        2   -1    0    0  501    0  0.00000000000E+00  0.00000000000E+00  0.53825421132E+03  0.53825421133E+03  0.25500000920E-02 0.  1.
       -2   -1    0    0    0  501  0.00000000000E+00  0.00000000000E+00 -0.23044940653E+03  0.23044940655E+03  0.25500000920E-02 0. -1.
    10030    2    1    2    0    0  0.00000000000E+00  0.00000000000E+00  0.30780480479E+03  0.76870361787E+03  0.70438728998E+03 0.  0.
        4    1    3    3  502    0  0.30051674704E+03 -0.59536802613E+02 -0.35695882392E+02  0.30843273990E+03  0.12699999809E+01 0. -1.
       -4    1    3    3    0  502 -0.30051674704E+03  0.59536802613E+02  0.34350068718E+03  0.46027087798E+03  0.12699999809E+01 0.  1.
</event>
<event>
 5   0  0.6167756E-02  0.7075093E+03  0.7818609E-02  0.9704476E-01
       -2   -1    0    0    0  501  0.00000000000E+00  0.00000000000E+00  0.71563038025E+02  0.71563038071E+02  0.25500000920E-02 0. -1.
        2   -1    0    0  501    0  0.00000000000E+00  0.00000000000E+00 -0.17487008692E+04  0.17487008692E+04  0.25500000920E-02 0.  1.
    10030    2    1    2    0    0  0.00000000000E+00  0.00000000000E+00 -0.16771378311E+04  0.18202639072E+04  0.70750928429E+03 0.  0.
        4    1    3    3  502    0 -0.30828827757E+03  0.14009869095E+03 -0.11018412253E+04  0.11527033460E+04  0.12699999809E+01 0. -1.
       -4    1    3    3    0  502  0.30828827757E+03 -0.14009869095E+03 -0.57529660590E+03  0.66756056126E+03  0.12699999809E+01 0.  1.
</event>
<event>
 5   0  0.3755872E-02  0.7422760E+03  0.7818609E-02  0.9647547E-01
       -1   -1    0    0    0  501  0.00000000000E+00  0.00000000000E+00  0.34662891070E+03  0.34662891074E+03  0.50400001928E-02 0.  1.
        1   -1    0    0  501    0  0.00000000000E+00  0.00000000000E+00 -0.39738002080E+03  0.39738002083E+03  0.50400001928E-02 0. -1.
    10030    2    1    2    0    0  0.00000000000E+00  0.00000000000E+00 -0.50751110099E+02  0.74400893157E+03  0.74227596963E+03 0.  0.
        2    1    3    3  502    0  0.21296757365E+03  0.17878238648E+03  0.22101346252E+03  0.35519752218E+03  0.25500000920E-02 0.  1.
       -2    1    3    3    0  502 -0.21296757365E+03 -0.17878238648E+03 -0.27176457262E+03  0.38881140940E+03  0.25500000920E-02 0. -1.
</event>
<event>
 5   0  0.6248886E-02  0.7291126E+03  0.7818609E-02  0.9668701E-01
       -2   -1    0    0    0  501  0.00000000000E+00  0.00000000000E+00  0.16999202524E+03  0.16999202526E+03  0.25500000920E-02 0.  1.
        2   -1    0    0  501    0  0.00000000000E+00  0.00000000000E+00 -0.78180906580E+03  0.78180906581E+03  0.25500000920E-02 0. -1.
    10030    2    1    2    0    0  0.00000000000E+00  0.00000000000E+00 -0.61181704056E+03  0.95180109107E+03  0.72911262905E+03 0.  0.
        3    1    3    3  502    0  0.31936669519E+03  0.25421827014E+02 -0.78825001204E+02  0.32993142666E+03  0.10100000352E+00 0.  1.
       -3    1    3    3    0  502 -0.31936669519E+03 -0.25421827014E+02 -0.53299203936E+03  0.62186966440E+03  0.10100000352E+00 0. -1.
</event>
<event>
 5   0  0.3749730E-02  0.5835613E+03  0.7818609E-02  0.9940111E-01
        1   -1    0    0  501    0  0.00000000000E+00  0.00000000000E+00  0.12397727495E+03  0.12397727505E+03  0.50400001928E-02 0.  1.
       -1   -1    0    0    0  501  0.00000000000E+00  0.00000000000E+00 -0.68670597700E+03  0.68670597702E+03  0.50400001928E-02 0. -1.
    10030    2    1    2    0    0  0.00000000000E+00  0.00000000000E+00 -0.56272870206E+03  0.81068325207E+03  0.58356125906E+03 0.  0.
        4    1    3    3  502    0  0.19221836453E+03  0.63100351365E+02 -0.57344266328E+03  0.60808523661E+03  0.12699999809E+01 0. -1.
       -4    1    3    3    0  502 -0.19221836453E+03 -0.63100351365E+02  0.10713961225E+02  0.20259801547E+03  0.12699999809E+01 0.  1.
</event>
<event>
 5   0  0.6131198E-02  0.7029503E+03  0.7818609E-02  0.9712200E-01
       -2   -1    0    0    0  501  0.00000000000E+00  0.00000000000E+00  0.35022511398E+03  0.35022511399E+03  0.25500000920E-02 0. -1.
        2   -1    0    0  501    0  0.00000000000E+00  0.00000000000E+00 -0.35272961909E+03  0.35272961910E+03  0.25500000920E-02 0.  1.
    10030    2    1    2    0    0  0.00000000000E+00  0.00000000000E+00 -0.25045051062E+01  0.70295473309E+03  0.70295027152E+03 0.  0.
        1    1    3    3  502    0 -0.23296703784E+03  0.25381472548E+03  0.68312658655E+02  0.35122951890E+03  0.50400001928E-02 0. -1.
       -1    1    3    3    0  502  0.23296703784E+03 -0.25381472548E+03 -0.70817163761E+02  0.35172521419E+03  0.50400001928E-02 0.  1.
</event>
<event>
 5   0  0.5899787E-02  0.6424561E+03  0.7818609E-02  0.9821039E-01
        2   -1    0    0  501    0  0.00000000000E+00  0.00000000000E+00  0.23216782765E+04  0.23216782765E+04  0.25500000920E-02 0. -1.
       -2   -1    0    0    0  501  0.00000000000E+00  0.00000000000E+00 -0.44445203408E+02  0.44445203481E+02  0.25500000920E-02 0.  1.
    10030    2    1    2    0    0  0.00000000000E+00  0.00000000000E+00  0.22772330731E+04  0.23661234800E+04  0.64245611005E+03 0.  0.
        2    1    3    3  502    0  0.86507390499E+02  0.27538762854E+03  0.61952414679E+03  0.68347058681E+03  0.25500000920E-02 0.  1.
       -2    1    3    3    0  502 -0.86507390499E+02 -0.27538762854E+03  0.16577089263E+04  0.16826528932E+04  0.25500000920E-02 0. -1.
</event>
<event>
 5   0  0.3749730E-02  0.7053395E+03  0.7818609E-02  0.9708144E-01
        1   -1    0    0  501    0  0.00000000000E+00  0.00000000000E+00  0.30522899362E+03  0.30522899366E+03  0.50400001928E-02 0. -1.
       -1   -1    0    0    0  501  0.00000000000E+00  0.00000000000E+00 -0.40748406912E+03  0.40748406915E+03  0.50400001928E-02 0.  1.
    10030    2    1    2    0    0  0.00000000000E+00  0.00000000000E+00 -0.10225507551E+03  0.71271306281E+03  0.70533949941E+03 0.  0.
        4    1    3    3  502    0 -0.15771224123E+02 -0.16835078138E+03 -0.36385220717E+03  0.40122407538E+03  0.12699999809E+01 0.  1.
       -4    1    3    3    0  502  0.15771224123E+02  0.16835078138E+03  0.26159713166E+03  0.31148898744E+03  0.12699999809E+01 0. -1.
</event>
<event>
 5   0  0.3755872E-02  0.6941996E+03  0.7818609E-02  0.9727203E-01
        1   -1    0    0  501    0  0.00000000000E+00  0.00000000000E+00  0.55339520188E+03  0.55339520190E+03  0.50400001928E-02 0. -1.
       -1   -1    0    0    0  501  0.00000000000E+00  0.00000000000E+00 -0.21770749950E+03  0.21770749956E+03  0.50400001928E-02 0.  1.
    10030    2    1    2    0    0  0.00000000000E+00  0.00000000000E+00  0.33568770238E+03  0.77110270146E+03  0.69419964180E+03 0.  0.
        2    1    3    3  502    0 -0.23763625205E+03  0.22941938028E+03  0.49380144715E+02  0.33397999796E+03  0.25500000920E-02 0.  1.
       -2    1    3    3    0  502  0.23763625205E+03 -0.22941938028E+03  0.28630755767E+03  0.43712270351E+03  0.25500000920E-02 0. -1.
</event>
<event>
 5   0  0.6167756E-02  0.7256825E+03  0.7818609E-02  0.9674292E-01
       -2   -1    0    0    0  501  0.00000000000E+00  0.00000000000E+00  0.11386606757E+03  0.11386606760E+03  0.25500000920E-02 0. -1.
        2   -1    0    0  501    0  0.00000000000E+00  0.00000000000E+00 -0.11562161550E+04  0.11562161550E+04  0.25500000920E-02 0.  1.
    10030    2    1    2    0    0  0.00000000000E+00  0.00000000000E+00 -0.10423500874E+04  0.12700822226E+04  0.72568253898E+03 0.  0.
        4    1    3    3  502    0 -0.20666448040E+03  0.28218758684E+03 -0.69006729818E+03  0.77365013446E+03  0.12699999809E+01 0.  1.
       -4    1    3    3    0  502  0.20666448040E+03 -0.28218758684E+03 -0.35228278922E+03  0.49643208811E+03  0.12699999809E+01 0. -1.
</event>
<event>
 5   0  0.6167756E-02  0.6803704E+03  0.7818609E-02  0.9751403E-01
        2   -1    0    0  501    0  0.00000000000E+00  0.00000000000E+00  0.12496957093E+04  0.12496957093E+04  0.25500000920E-02 0.  1.
       -2   -1    0    0    0  501  0.00000000000E+00  0.00000000000E+00 -0.92603317191E+02  0.92603317226E+02  0.25500000920E-02 0. -1.
    10030    2    1    2    0    0  0.00000000000E+00  0.00000000000E+00  0.11570923921E+04  0.13422990266E+04  0.68037039380E+03 0.  0.
        4    1    3    3  502    0  0.66656016898E+02  0.15297169427E+03  0.11634054179E+04  0.11753115090E+04  0.12699999809E+01 0.  1.
       -4    1    3    3    0  502 -0.66656016898E+02 -0.15297169427E+03 -0.63130257540E+01  0.16698751759E+03  0.12699999809E+01 0. -1.
</event>
<event>
 5   0  0.3749730E-02  0.7027756E+03  0.7818609E-02  0.9712497E-01
       -1   -1    0    0    0  501  0.00000000000E+00  0.00000000000E+00  0.17416545422E+03  0.17416545429E+03  0.50400001928E-02 0.  1.
        1   -1    0    0  501    0  0.00000000000E+00  0.00000000000E+00 -0.70894313373E+03  0.70894313375E+03  0.50400001928E-02 0. -1.
    10030    2    1    2    0    0  0.00000000000E+00  0.00000000000E+00 -0.53477767951E+03  0.88310858804E+03  0.70277564824E+03 0.  0.
        4    1    3    3  502    0 -0.17822000835E+03 -0.27908069290E+03 -0.11964662204E+03  0.35208710796E+03  0.12699999809E+01 0.  1.
       -4    1    3    3    0  502  0.17822000835E+03  0.27908069290E+03 -0.41513105747E+03  0.53102148008E+03  0.12699999809E+01 0. -1.
</event>
<event>
 5   0  0.3755872E-02  0.6781783E+03  0.7818609E-02  0.9755296E-01
        1   -1    0    0  501    0  0.00000000000E+00  0.00000000000E+00  0.51831090630E+03  0.51831090632E+03  0.50400001928E-02 0. -1.
       -1   -1    0    0    0  501  0.00000000000E+00  0.00000000000E+00 -0.22183873297E+03  0.22183873303E+03  0.50400001928E-02 0.  1.
    10030    2    1    2    0    0  0.00000000000E+00  0.00000000000E+00  0.29647217333E+03  0.74014963935E+03  0.67817825022E+03 0.  0.
        2    1    3    3  502    0  0.14518157155E+03  0.20114831696E+03 -0.10406638078E+03  0.26901328173E+03  0.25500000920E-02 0.  1.
       -2    1    3    3    0  502 -0.14518157155E+03 -0.20114831696E+03  0.40053855411E+03  0.47113635762E+03  0.25500000920E-02 0. -1.
</event>
<event>
 5   0  0.5987810E-02  0.7020179E+03  0.7818609E-02  0.9713787E-01
        2   -1    0    0  501    0  0.00000000000E+00  0.00000000000E+00  0.17564236370E+03  0.17564236372E+03  0.25500000920E-02 0. -1.
       -2   -1    0    0    0  501  0.00000000000E+00  0.00000000000E+00 -0.70146682602E+03  0.70146682602E+03  0.25500000920E-02 0.  1.
    10030    2    1    2    0    0  0.00000000000E+00  0.00000000000E+00 -0.52582446231E+03  0.87710918974E+03  0.70201792396E+03 0.  0.
        5    1    3    3  502    0  0.25011323429E+03 -0.19398742730E+03 -0.73440118673E+02  0.32496660282E+03  0.46999998093E+01 0. -1.
       -5    1    3    3    0  502 -0.25011323429E+03  0.19398742730E+03 -0.45238434364E+03  0.55214258692E+03  0.46999998093E+01 0.  1.
</event>
<event>
 5   0  0.5987810E-02  0.6951863E+03  0.7818609E-02  0.9725500E-01
       -2   -1    0    0    0  501  0.00000000000E+00  0.00000000000E+00  0.10686303503E+03  0.10686303506E+03  0.25500000920E-02 0.  1.
        2   -1    0    0  501    0  0.00000000000E+00  0.00000000000E+00 -0.11306154591E+04  0.11306154591E+04  0.25500000920E-02 0. -1.
    10030    2    1    2    0    0  0.00000000000E+00  0.00000000000E+00 -0.10237524241E+04  0.12374784942E+04  0.69518630432E+03 0.  0.
        5    1    3    3  502    0  0.10139709577E+03 -0.23603869927E+03 -0.92859174819E+03  0.96348345258E+03  0.46999998093E+01 0. -1.
       -5    1    3    3    0  502 -0.10139709577E+03  0.23603869927E+03 -0.95160675887E+02  0.27399504159E+03  0.46999998093E+01 0.  1.
</event>
<event>
 5   0  0.3717372E-02  0.6706126E+03  0.7818609E-02  0.9768852E-01
        1   -1    0    0  501    0  0.00000000000E+00  0.00000000000E+00  0.41861563063E+03  0.41861563066E+03  0.50400001928E-02 0. -1.
       -1   -1    0    0    0  501  0.00000000000E+00  0.00000000000E+00 -0.26857648617E+03  0.26857648622E+03  0.50400001928E-02 0.  1.
    10030    2    1    2    0    0  0.00000000000E+00  0.00000000000E+00  0.15003914446E+03  0.68719211688E+03  0.67061260101E+03 0.  0.
        3    1    3    3  502    0  0.26159846999E+03  0.11959013383E+03  0.25160150326E+03  0.38215034509E+03  0.10100000352E+00 0. -1.
       -3    1    3    3    0  502 -0.26159846999E+03 -0.11959013383E+03 -0.10156235880E+03  0.30504177179E+03  0.10100000352E+00 0.  1.
</event>
<event>
 5   0  0.5899787E-02  0.7027252E+03  0.7818609E-02  0.9712583E-01
       -2   -1    0    0    0  501  0.00000000000E+00  0.00000000000E+00  0.29335237456E+03  0.29335237457E+03  0.25500000920E-02 0. -1.
        2   -1    0    0  501    0  0.00000000000E+00  0.00000000000E+00 -0.42084432759E+03  0.42084432759E+03  0.25500000920E-02 0.  1.
    10030    2    1    2    0    0  0.00000000000E+00  0.00000000000E+00 -0.12749195303E+03  0.71419670216E+03  0.70272521749E+03 0.  0.
        2    1    3    3  502    0  0.77311623831E+02 -0.18414196616E+03  0.23005847084E+03  0.30465103133E+03  0.25500000920E-02 0. -1.
       -2    1    3    3    0  502 -0.77311623831E+02  0.18414196616E+03 -0.35755042387E+03  0.40954567083E+03  0.25500000920E-02 0.  1.
</event>
<event>
 5   0  0.3749730E-02  0.7034301E+03  0.7818609E-02  0.9711384E-01
        1   -1    0    0  501    0  0.00000000000E+00  0.00000000000E+00  0.18568985609E+03  0.18568985616E+03  0.50400001928E-02 0.  1.
       -1   -1    0    0    0  501  0.00000000000E+00  0.00000000000E+00 -0.66618318527E+03  0.66618318529E+03  0.50400001928E-02 0. -1.
    10030    2    1    2    0    0  0.00000000000E+00  0.00000000000E+00 -0.48049332917E+03  0.85187304145E+03  0.70343005293E+03 0.  0.
        4    1    3    3  502    0 -0.99865333000E+02  0.22829361275E+03  0.60348741806E+02  0.25638767891E+03  0.12699999809E+01 0.  1.
       -4    1    3    3    0  502  0.99865333000E+02 -0.22829361275E+03 -0.54084207098E+03  0.59548536254E+03  0.12699999809E+01 0. -1.
</event>
<event>
 5   0  0.6248886E-02  0.7057810E+03  0.7818609E-02  0.9707397E-01
        2   -1    0    0  501    0  0.00000000000E+00  0.00000000000E+00  0.71330056823E+03  0.71330056824E+03  0.25500000920E-02 0.  1.
       -2   -1    0    0    0  501  0.00000000000E+00  0.00000000000E+00 -0.17458517181E+03  0.17458517183E+03  0.25500000920E-02 0. -1.
    10030    2    1    2    0    0  0.00000000000E+00  0.00000000000E+00  0.53871539643E+03  0.88788574006E+03  0.70578099228E+03 0.  0.
        3    1    3    3  502    0  0.24917980199E+02 -0.24447604083E+03 -0.49252170902E+02  0.25062966068E+03  0.10100000352E+00 0. -1.
       -3    1    3    3    0  502 -0.24917980199E+02  0.24447604083E+03  0.58796756733E+03  0.63725607938E+03  0.10100000352E+00 0.  1.
</event>
<event>
 5   0  0.5987810E-02  0.6892193E+03  0.7818609E-02  0.9735848E-01
       -2   -1    0    0    0  501  0.00000000000E+00  0.00000000000E+00  0.24083723168E+03  0.24083723169E+03  0.25500000920E-02 0.  1.
        2   -1    0    0  501    0  0.00000000000E+00  0.00000000000E+00 -0.49309574608E+03  0.49309574608E+03  0.25500000920E-02 0. -1.
    10030    2    1    2    0    0  0.00000000000E+00  0.00000000000E+00 -0.25225851440E+03  0.73393297778E+03  0.68921931037E+03 0.  0.
        5    1    3    3  502    0 -0.97923390389E+02  0.27438158717E+03  0.69817959503E+02  0.29961789538E+03  0.46999998093E+01 0.  1.
       -5    1    3    3    0  502  0.97923390389E+02 -0.27438158717E+03 -0.32207647390E+03  0.43431508240E+03  0.46999998093E+01 0. -1.
</event>
<event>
 5   0  0.5899787E-02  0.4901702E+03  0.7818609E-02  0.1016377E+00
       -2   -1    0    0    0  501  0.00000000000E+00  0.00000000000E+00  0.10196454376E+03  0.10196454379E+03  0.25500000920E-02 0. -1.
        2   -1    0    0  501    0  0.00000000000E+00  0.00000000000E+00 -0.58909401996E+03  0.58909401996E+03  0.25500000920E-02 0.  1.
    10030    2    1    2    0    0  0.00000000000E+00  0.00000000000E+00 -0.48712947620E+03  0.69105856375E+03  0.49017018672E+03 0.  0.
        2    1    3    3  502    0  0.22693442289E+03 -0.64984611057E+02 -0.15063891590E+03  0.28002556125E+03  0.25500000920E-02 0.  1.
       -2    1    3    3    0  502 -0.22693442289E+03  0.64984611057E+02 -0.33649056030E+03  0.41103300250E+03  0.25500000920E-02 0. -1.
</event>
<event>
 5   0  0.3439015E-02  0.6994265E+03  0.7818609E-02  0.9718214E-01
       -1   -1    0    0    0  501  0.00000000000E+00  0.00000000000E+00  0.35226972003E+03  0.35226972007E+03  0.50400001928E-02 0.  1.
        1   -1    0    0  501    0  0.00000000000E+00  0.00000000000E+00 -0.34717529291E+03  0.34717529295E+03  0.50400001928E-02 0. -1.
    10030    2    1    2    0    0  0.00000000000E+00  0.00000000000E+00  0.50944271178E+01  0.69944501301E+03  0.69942646007E+03 0.  0.
        1    1    3    3  502    0  0.78475702850E+01 -0.34961471254E+03  0.52512916707E+01  0.34974220173E+03  0.50400001928E-02 0. -1.
       -1    1    3    3    0  502 -0.78475702850E+01  0.34961471254E+03 -0.15686455288E+00  0.34970281128E+03  0.50400001928E-02 0.  1.
</event>
<event>
 5   0  0.5899787E-02  0.6773848E+03  0.7818609E-02  0.9756708E-01
        2   -1    0    0  501    0  0.00000000000E+00  0.00000000000E+00  0.12127090093E+04  0.12127090093E+04  0.25500000920E-02 0.  1.
       -2   -1    0    0    0  501  0.00000000000E+00  0.00000000000E+00 -0.94591987141E+02  0.94591987175E+02  0.25500000920E-02 0. -1.
    10030    2    1    2    0    0  0.00000000000E+00  0.00000000000E+00  0.11181170222E+04  0.13073009965E+04  0.67738483904E+03 0.  0.
        2    1    3    3  502    0 -0.15692588258E+03  0.11411598461E+03  0.23302662623E+02  0.19542570112E+03  0.25500000920E-02 0. -1.
       -2    1    3    3    0  502  0.15692588258E+03 -0.11411598461E+03  0.10948143596E+04  0.11118752954E+04  0.25500000920E-02 0.  1.
</event>
<event>
 5   0  0.3717372E-02  0.6998483E+03  0.7818609E-02  0.9717492E-01
        1   -1    0    0  501    0  0.00000000000E+00  0.00000000000E+00  0.18551904071E+04  0.18551904071E+04  0.50400001928E-02 0.  1.
       -1   -1    0    0    0  501  0.00000000000E+00  0.00000000000E+00 -0.66002347190E+02  0.66002347383E+02  0.50400001928E-02 0. -1.
    10030    2    1    2    0    0  0.00000000000E+00  0.00000000000E+00  0.17891880599E+04  0.19211927545E+04  0.69984833083E+03 0.  0.
        3    1    3    3  502    0  0.16731695894E+03 -0.30182192598E+03  0.10536111165E+04  0.11086874378E+04  0.10100000352E+00 0.  1.
       -3    1    3    3    0  502 -0.16731695894E+03  0.30182192598E+03  0.73557694340E+03  0.81250531667E+03  0.10100000352E+00 0. -1.
</event>
<event>
 5   0  0.3749730E-02  0.6740787E+03  0.7818609E-02  0.9762618E-01
       -1   -1    0    0    0  501  0.00000000000E+00  0.00000000000E+00  0.10923387792E+03  0.10923387803E+03  0.50400001928E-02 0. -1.
        1   -1    0    0  501    0  0.00000000000E+00  0.00000000000E+00 -0.10399293341E+04  0.10399293341E+04  0.50400001928E-02 0.  1.
    10030    2    1    2    0    0  0.00000000000E+00  0.00000000000E+00 -0.93069545615E+03  0.11491632121E+04  0.67407867195E+03 0.  0.
        4    1    3    3  502    0 -0.13647957807E+03  0.19447314955E+03 -0.57808477511E+02  0.24451976218E+03  0.12699999809E+01 0. -1.
       -4    1    3    3    0  502  0.13647957807E+03 -0.19447314955E+03 -0.87288697864E+03  0.90464344993E+03  0.12699999809E+01 0.  1.
</event>
<event>
 5   0  0.6248886E-02  0.6831876E+03  0.7818609E-02  0.9746424E-01
       -2   -1    0    0    0  501  0.00000000000E+00  0.00000000000E+00  0.52350755014E+02  0.52350755076E+02  0.25500000920E-02 0. -1.
        2   -1    0    0  501    0  0.00000000000E+00  0.00000000000E+00 -0.22289330028E+04  0.22289330028E+04  0.25500000920E-02 0.  1.
    10030    2    1    2    0    0  0.00000000000E+00  0.00000000000E+00 -0.21765822478E+04  0.22812837579E+04  0.68318760424E+03 0.  0.
        3    1    3    3  502    0  0.65297476240E+02  0.13796357064E+03 -0.67853924701E+02  0.16703853605E+03  0.10100000352E+00 0. -1.
       -3    1    3    3    0  502 -0.65297476240E+02 -0.13796357064E+03 -0.21087283231E+04  0.21142452219E+04  0.10100000352E+00 0.  1.
</event>
<event>
 5   0  0.3439015E-02  0.7001959E+03  0.7818609E-02  0.9716897E-01
       -1   -1    0    0    0  501  0.00000000000E+00  0.00000000000E+00  0.11441129157E+03  0.11441129168E+03  0.50400001928E-02 0.  1.
        1   -1    0    0  501    0  0.00000000000E+00  0.00000000000E+00 -0.10712978475E+04  0.10712978475E+04  0.50400001928E-02 0. -1.
    10030    2    1    2    0    0  0.00000000000E+00  0.00000000000E+00 -0.95688655596E+03  0.11857091392E+04  0.70019588821E+03 0.  0.
        1    1    3    3  502    0 -0.96078015093E+02 -0.17121207193E+03  0.12419745591E+02  0.19672012775E+03  0.50400001928E-02 0.  1.
       -1    1    3    3    0  502  0.96078015093E+02  0.17121207193E+03 -0.96930630155E+03  0.98898901147E+03  0.50400001928E-02 0. -1.
</event>
<event>
 5   0  0.3755872E-02  0.7002188E+03  0.7818609E-02  0.9716858E-01
        1   -1    0    0  501    0  0.00000000000E+00  0.00000000000E+00  0.13750089893E+04  0.13750089893E+04  0.50400001928E-02 0. -1.
       -1   -1    0    0    0  501  0.00000000000E+00  0.00000000000E+00 -0.89146039820E+02  0.89146039963E+02  0.50400001928E-02 0.  1.
    10030    2    1    2    0    0  0.00000000000E+00  0.00000000000E+00  0.12858629495E+04  0.14641550293E+04  0.70021884071E+03 0.  0.
        2    1    3    3  502    0  0.25926245877E+03  0.58694203392E+01  0.11347608988E+04  0.11640162241E+04  0.25500000920E-02 0. -1.
       -2    1    3    3    0  502 -0.25926245877E+03 -0.58694203392E+01  0.15110205071E+03  0.30013880515E+03  0.25500000920E-02 0.  1.
</event>
<event>
 5   0  0.3755872E-02  0.7341075E+03  0.7818609E-02  0.9660618E-01
       -1   -1    0    0    0  501  0.00000000000E+00  0.00000000000E+00  0.11631663502E+03  0.11631663513E+03  0.50400001928E-02 0.  1.
        1   -1    0    0  501    0  0.00000000000E+00  0.00000000000E+00 -0.11582906479E+04  0.11582906479E+04  0.50400001928E-02 0. -1.
    10030    2    1    2    0    0  0.00000000000E+00  0.00000000000E+00 -0.10419740128E+04  0.12746072830E+04  0.73410754148E+03 0.  0.
        2    1    3    3  502    0  0.19491608994E+03  0.20634732337E+03 -0.11692883720E+03  0.30699161707E+03  0.25500000920E-02 0.  1.
       -2    1    3    3    0  502 -0.19491608994E+03 -0.20634732337E+03 -0.92504517564E+03  0.96761566593E+03  0.25500000920E-02 0. -1.
</event>
<event>
 5   0  0.6167756E-02  0.6933205E+03  0.7818609E-02  0.9728724E-01
       -2   -1    0    0    0  501  0.00000000000E+00  0.00000000000E+00  0.25652505547E+03  0.25652505548E+03  0.25500000920E-02 0.  1.
        2   -1    0    0  501    0  0.00000000000E+00  0.00000000000E+00 -0.46846619977E+03  0.46846619977E+03  0.25500000920E-02 0. -1.
    10030    2    1    2    0    0  0.00000000000E+00  0.00000000000E+00 -0.21194114429E+03  0.72499125526E+03  0.69332046815E+03 0.  0.
        4    1    3    3  502    0  0.31885914774E+02  0.22032448280E+02  0.25424992492E+03  0.25719015837E+03  0.12699999809E+01 0.  1.
       -4    1    3    3    0  502 -0.31885914774E+02 -0.22032448280E+02 -0.46619106921E+03  0.46780109689E+03  0.12699999809E+01 0. -1.
</event>
<event>
 5   0  0.3749730E-02  0.6650662E+03  0.7818609E-02  0.9778912E-01
       -1   -1    0    0    0  501  0.00000000000E+00  0.00000000000E+00  0.29833717805E+03  0.29833717810E+03  0.50400001928E-02 0.  1.
        1   -1    0    0  501    0  0.00000000000E+00  0.00000000000E+00 -0.37064856402E+03  0.37064856405E+03  0.50400001928E-02 0. -1.
    10030    2    1    2    0    0  0.00000000000E+00  0.00000000000E+00 -0.72311385963E+02  0.66898574215E+03  0.66506615209E+03 0.  0.
        4    1    3    3  502    0 -0.16136509312E+03  0.42559506349E+02  0.25316179134E+03  0.30322023407E+03  0.12699999809E+01 0.  1.
       -4    1    3    3    0  502  0.16136509312E+03 -0.42559506349E+02 -0.32547317730E+03  0.36576550808E+03  0.12699999809E+01 0. -1.
</event>
<event>
 5   0  0.3749730E-02  0.7038237E+03  0.7818609E-02  0.9710715E-01
       -1   -1    0    0    0  501  0.00000000000E+00  0.00000000000E+00  0.11005560166E+04  0.11005560166E+04  0.50400001928E-02 0.  1.
        1   -1    0    0  501    0  0.00000000000E+00  0.00000000000E+00 -0.11252672586E+03  0.11252672597E+03  0.50400001928E-02 0. -1.
    10030    2    1    2    0    0  0.00000000000E+00  0.00000000000E+00  0.98802929070E+03  0.12130827425E+04  0.70382374282E+03 0.  0.
        4    1    3    3  502    0  0.26043483619E+03  0.16287079160E+03  0.78998140508E+03  0.84759980647E+03  0.12699999809E+01 0.  1.
       -4    1    3    3    0  502 -0.26043483619E+03 -0.16287079160E+03  0.19804788562E+03  0.36548293607E+03  0.12699999809E+01 0. -1.
</event>
<event>
 5   0  0.5987810E-02  0.7003323E+03  0.7818609E-02  0.9716664E-01
        2   -1    0    0  501    0  0.00000000000E+00  0.00000000000E+00  0.28706472384E+03  0.28706472385E+03  0.25500000920E-02 0.  1.
       -2   -1    0    0    0  501  0.00000000000E+00  0.00000000000E+00 -0.42713823855E+03  0.42713823855E+03  0.25500000920E-02 0. -1.
    10030    2    1    2    0    0  0.00000000000E+00  0.00000000000E+00 -0.14007351471E+03  0.71420296241E+03  0.70033226542E+03 0.  0.
        5    1    3    3  502    0 -0.53363599527E+02 -0.28307354554E+03 -0.27301636551E+03  0.39691098722E+03  0.46999998093E+01 0. -1.
       -5    1    3    3    0  502  0.53363599527E+02  0.28307354554E+03  0.13294285080E+03  0.31729197519E+03  0.46999998093E+01 0.  1.
</event>
<event>
 5   0  0.6131198E-02  0.6908940E+03  0.7818609E-02  0.9732933E-01
       -2   -1    0    0    0  501  0.00000000000E+00  0.00000000000E+00  0.17266105516E+03  0.17266105518E+03  0.25500000920E-02 0. -1.
        2   -1    0    0  501    0  0.00000000000E+00  0.00000000000E+00 -0.69114378547E+03  0.69114378548E+03  0.25500000920E-02 0.  1.
    10030    2    1    2    0    0  0.00000000000E+00  0.00000000000E+00 -0.51848273032E+03  0.86380484065E+03  0.69089395793E+03 0.  0.
        1    1    3    3  502    0  0.11945600608E+03  0.28784532938E+03 -0.44556510617E+03  0.54373976762E+03  0.50400001928E-02 0.  1.
       -1    1    3    3    0  502 -0.11945600608E+03 -0.28784532938E+03 -0.72917624146E+02  0.32006507303E+03  0.50400001928E-02 0. -1.
</event>
<event>
 5   0  0.6131198E-02  0.6812769E+03  0.7818609E-02  0.9749798E-01
        2   -1    0    0  501    0  0.00000000000E+00  0.00000000000E+00  0.14961853329E+04  0.14961853329E+04  0.25500000920E-02 0. -1.
       -2   -1    0    0    0  501  0.00000000000E+00  0.00000000000E+00 -0.77553606803E+02  0.77553606845E+02  0.25500000920E-02 0.  1.
    10030    2    1    2    0    0  0.00000000000E+00  0.00000000000E+00  0.14186317261E+04  0.15737389398E+04  0.68127694531E+03 0.  0.
        1    1    3    3  502    0 -0.10548635179E+03  0.21321112955E+03  0.12725362934E+04  0.12945790722E+04  0.50400001928E-02 0. -1.
       -1    1    3    3    0  502  0.10548635179E+03 -0.21321112955E+03  0.14609543276E+03  0.27915986759E+03  0.50400001928E-02 0.  1.
</event>
<event>
 5   0  0.2439375E-02  0.7021093E+03  0.7818609E-02  0.9713632E-01
       -3   -1    0    0    0  501  0.00000000000E+00  0.00000000000E+00  0.12932656563E+03  0.12932660506E+03  0.10100000352E+00 0.  1.
        3   -1    0    0  501    0  0.00000000000E+00  0.00000000000E+00 -0.95293125435E+03  0.95293125970E+03  0.10100000352E+00 0. -1.
    10030    2    1    2    0    0  0.00000000000E+00  0.00000000000E+00 -0.82360468872E+03  0.10822578648E+04  0.70210925258E+03 0.  0.
        1    1    3    3  502    0  0.57864584866E+02  0.83812496685E+02 -0.92965784574E+03  0.93522005697E+03  0.50400001928E-02 0. -1.
       -1    1    3    3    0  502 -0.57864584866E+02 -0.83812496685E+02  0.10605315702E+03  0.14703780780E+03  0.50400001928E-02 0.  1.
</event>
<event>
 5   0  0.3439015E-02  0.7119697E+03  0.7818609E-02  0.9696979E-01
       -1   -1    0    0    0  501  0.00000000000E+00  0.00000000000E+00  0.99513913363E+02  0.99513913491E+02  0.50400001928E-02 0. -1.
        1   -1    0    0  501    0  0.00000000000E+00  0.00000000000E+00 -0.12734422652E+04  0.12734422652E+04  0.50400001928E-02 0.  1.
    10030    2    1    2    0    0  0.00000000000E+00  0.00000000000E+00 -0.11739283519E+04  0.13729561787E+04  0.71196972787E+03 0.  0.
        1    1    3    3  502    0  0.14124904699E+03 -0.12527137399E+03 -0.49828181366E+01  0.18886248680E+03  0.50400001928E-02 0. -1.
       -1    1    3    3    0  502 -0.14124904699E+03  0.12527137399E+03 -0.11689455337E+04  0.11840936919E+04  0.50400001928E-02 0.  1.
</event>
<event>
 5   0  0.5987810E-02  0.6934834E+03  0.7818609E-02  0.9728442E-01
        2   -1    0    0  501    0  0.00000000000E+00  0.00000000000E+00  0.45756741861E+03  0.45756741862E+03  0.25500000920E-02 0.  1.
       -2   -1    0    0    0  501  0.00000000000E+00  0.00000000000E+00 -0.26275868264E+03  0.26275868266E+03  0.25500000920E-02 0. -1.
    10030    2    1    2    0    0  0.00000000000E+00  0.00000000000E+00  0.19480873597E+03  0.72032610127E+03  0.69348341621E+03 0.  0.
        5    1    3    3  502    0 -0.13339379826E+03 -0.29247931648E+03  0.23231504325E+03  0.39664899509E+03  0.46999998093E+01 0.  1.
       -5    1    3    3    0  502  0.13339379826E+03  0.29247931648E+03 -0.37506307280E+02  0.32367710619E+03  0.46999998093E+01 0. -1.
</event>
<event>
 5   0  0.5899787E-02  0.6909464E+03  0.7818609E-02  0.9732841E-01
       -2   -1    0    0    0  501  0.00000000000E+00  0.00000000000E+00  0.22183306227E+03  0.22183306229E+03  0.25500000920E-02 0.  1.
        2   -1    0    0  501    0  0.00000000000E+00  0.00000000000E+00 -0.53802503282E+03  0.53802503283E+03  0.25500000920E-02 0. -1.
    10030    2    1    2    0    0  0.00000000000E+00  0.00000000000E+00 -0.31619197055E+03  0.75985809512E+03  0.69094642518E+03 0.  0.
        2    1    3    3  502    0 -0.17347563970E+03  0.18412718724E+03  0.10064607165E+03  0.27226136412E+03  0.25500000920E-02 0.  1.
       -2    1    3    3    0  502  0.17347563970E+03 -0.18412718724E+03 -0.41683804220E+03  0.48759673100E+03  0.25500000920E-02 0. -1.
</event>
<event>
 5   0  0.3601475E-02  0.6986569E+03  0.7818609E-02  0.9719532E-01
        1   -1    0    0  501    0  0.00000000000E+00  0.00000000000E+00  0.63610118053E+03  0.63610118055E+03  0.50400001928E-02 0.  1.
       -1   -1    0    0    0  501  0.00000000000E+00  0.00000000000E+00 -0.19184112454E+03  0.19184112461E+03  0.50400001928E-02 0. -1.
    10030    2    1    2    0    0  0.00000000000E+00  0.00000000000E+00  0.44426005599E+03  0.82794230516E+03  0.69865689958E+03 0.  0.
        5    1    3    3  502    0 -0.36769407195E+01 -0.17680564267E+03 -0.13483230925E+03  0.22243110572E+03  0.46999998093E+01 0. -1.
       -5    1    3    3    0  502  0.36769407195E+01  0.17680564267E+03  0.57909236524E+03  0.60551119944E+03  0.46999998093E+01 0.  1.
</event>
<event>
 5   0  0.6131198E-02  0.6946918E+03  0.7818609E-02  0.9726353E-01
        2   -1    0    0  501    0  0.00000000000E+00  0.00000000000E+00  0.15550883094E+04  0.15550883094E+04  0.25500000920E-02 0. -1.
       -2   -1    0    0    0  501  0.00000000000E+00  0.00000000000E+00 -0.77583480988E+02  0.77583481030E+02  0.25500000920E-02 0.  1.
    10030    2    1    2    0    0  0.00000000000E+00  0.00000000000E+00  0.14775048284E+04  0.16326717904E+04  0.69469177142E+03 0.  0.
        1    1    3    3  502    0 -0.20128715235E+03 -0.26206986079E+03  0.99025824678E+03  0.10439389470E+04  0.50400001928E-02 0. -1.
       -1    1    3    3    0  502  0.20128715235E+03  0.26206986079E+03  0.48724658158E+03  0.58873284342E+03  0.50400001928E-02 0.  1.
</event>
<event>
 5   0  0.6167756E-02  0.6933288E+03  0.7818609E-02  0.9728709E-01
        2   -1    0    0  501    0  0.00000000000E+00  0.00000000000E+00  0.10200528836E+04  0.10200528836E+04  0.25500000920E-02 0. -1.
       -2   -1    0    0    0  501  0.00000000000E+00  0.00000000000E+00 -0.11781370277E+03  0.11781370280E+03  0.25500000920E-02 0.  1.
    10030    2    1    2    0    0  0.00000000000E+00  0.00000000000E+00  0.90223918078E+03  0.11378665864E+04  0.69332880296E+03 0.  0.
        4    1    3    3  502    0 -0.31821921673E+03 -0.13559179941E+03  0.41348040807E+03  0.53908836635E+03  0.12699999809E+01 0.  1.
       -4    1    3    3    0  502  0.31821921673E+03  0.13559179941E+03  0.48875877271E+03  0.59877822002E+03  0.12699999809E+01 0. -1.
</event>
<event>
 5   0  0.6131198E-02  0.6991841E+03  0.7818609E-02  0.9718629E-01
       -2   -1    0    0    0  501  0.00000000000E+00  0.00000000000E+00  0.32173303295E+03  0.32173303296E+03  0.25500000920E-02 0.  1.
        2   -1    0    0  501    0  0.00000000000E+00  0.00000000000E+00 -0.37986337717E+03  0.37986337718E+03  0.25500000920E-02 0. -1.
    10030    2    1    2    0    0  0.00000000000E+00  0.00000000000E+00 -0.58130344226E+02  0.70159641014E+03  0.69918408578E+03 0.  0.
        1    1    3    3  502    0  0.23432655196E+03  0.12350039739E+02 -0.28909848304E+03  0.37234310703E+03  0.50400001928E-02 0. -1.
       -1    1    3    3    0  502 -0.23432655196E+03 -0.12350039739E+02  0.23096813882E+03  0.32925330311E+03  0.50400001928E-02 0.  1.
</event>
<event>
 5   0  0.5899787E-02  0.7274677E+03  0.7818609E-02  0.9671378E-01
       -2   -1    0    0    0  501  0.00000000000E+00  0.00000000000E+00  0.29351662250E+03  0.29351662252E+03  0.25500000920E-02 0.  1.
        2   -1    0    0  501    0  0.00000000000E+00  0.00000000000E+00 -0.45074902214E+03  0.45074902214E+03  0.25500000920E-02 0. -1.
    10030    2    1    2    0    0  0.00000000000E+00  0.00000000000E+00 -0.15723239963E+03  0.74426564466E+03  0.72746774659E+03 0.  0.
        2    1    3    3  502    0 -0.49199787434E+01  0.35347766711E+03  0.89860951439E+01  0.35362609809E+03  0.25500000920E-02 0. -1.
       -2    1    3    3    0  502  0.49199787434E+01 -0.35347766711E+03 -0.16621849478E+03  0.39063954657E+03  0.25500000920E-02 0.  1.
</event>
<event>
 5   0  0.3755872E-02  0.6660397E+03  0.7818609E-02  0.9777139E-01
       -1   -1    0    0    0  501  0.00000000000E+00  0.00000000000E+00  0.32689554187E+03  0.32689554191E+03  0.50400001928E-02 0.  1.
        1   -1    0    0  501    0  0.00000000000E+00  0.00000000000E+00 -0.33925891028E+03  0.33925891032E+03  0.50400001928E-02 0. -1.
    10030    2    1    2    0    0  0.00000000000E+00  0.00000000000E+00 -0.12363368413E+02  0.66615445223E+03  0.66603971454E+03 0.  0.
        2    1    3    3  502    0  0.31521105616E+03  0.50152274435E+02  0.88855549840E+02  0.33131340042E+03  0.25500000920E-02 0.  1.
       -2    1    3    3    0  502 -0.31521105616E+03 -0.50152274435E+02 -0.10121891825E+03  0.33484105181E+03  0.25500000920E-02 0. -1.
</event>
<event>
 5   0  0.3755872E-02  0.7561831E+03  0.7818609E-02  0.9625700E-01
        1   -1    0    0  501    0  0.00000000000E+00  0.00000000000E+00  0.95792029555E+03  0.95792029556E+03  0.50400001928E-02 0.  1.
       -1   -1    0    0    0  501  0.00000000000E+00  0.00000000000E+00 -0.14923290275E+03  0.14923290283E+03  0.50400001928E-02 0. -1.
    10030    2    1    2    0    0  0.00000000000E+00  0.00000000000E+00  0.80868739280E+03  0.11071531984E+04  0.75618311634E+03 0.  0.
        2    1    3    3  502    0 -0.15443077383E+03 -0.22268502325E+03  0.79037482509E+03  0.83554164925E+03  0.25500000920E-02 0. -1.
       -2    1    3    3    0  502  0.15443077383E+03  0.22268502325E+03  0.18312567715E+02  0.27161154915E+03  0.25500000920E-02 0.  1.
</event>
<event>
 5   0  0.6131198E-02  0.7124864E+03  0.7818609E-02  0.9696114E-01
       -2   -1    0    0    0  501  0.00000000000E+00  0.00000000000E+00  0.13102559699E+03  0.13102559702E+03  0.25500000920E-02 0. -1.
        2   -1    0    0  501    0  0.00000000000E+00  0.00000000000E+00 -0.96858337389E+03  0.96858337390E+03  0.25500000920E-02 0.  1.
    10030    2    1    2    0    0  0.00000000000E+00  0.00000000000E+00 -0.83755777690E+03  0.10996089709E+04  0.71248639233E+03 0.  0.
        1    1    3    3  502    0  0.91538054414E+02  0.21467310384E+03 -0.33781341197E+01  0.23339916181E+03  0.50400001928E-02 0. -1.
       -1    1    3    3    0  502 -0.91538054414E+02 -0.21467310384E+03 -0.83417964278E+03  0.86620980910E+03  0.50400001928E-02 0.  1.
</event>
<event>
 5   0  0.3439015E-02  0.7061986E+03  0.7818609E-02  0.9706690E-01
       -1   -1    0    0    0  501  0.00000000000E+00  0.00000000000E+00  0.26560978218E+03  0.26560978223E+03  0.50400001928E-02 0.  1.
        1   -1    0    0  501    0  0.00000000000E+00  0.00000000000E+00 -0.46940706470E+03  0.46940706473E+03  0.50400001928E-02 0. -1.
    10030    2    1    2    0    0  0.00000000000E+00  0.00000000000E+00 -0.20379728252E+03  0.73501684696E+03  0.70619857898E+03 0.  0.
        1    1    3    3  502    0  0.18635706927E+03  0.17716507497E+03  0.14997397435E+03  0.29767199073E+03  0.50400001928E-02 0.  1.
       -1    1    3    3    0  502 -0.18635706927E+03 -0.17716507497E+03 -0.35377125687E+03  0.43734485623E+03  0.50400001928E-02 0. -1.
</event>
<event>
 5   0  0.3601475E-02  0.7015251E+03  0.7818609E-02  0.9714628E-01
        1   -1    0    0  501    0  0.00000000000E+00  0.00000000000E+00  0.11383576113E+04  0.11383576113E+04  0.50400001928E-02 0.  1.
       -1   -1    0    0    0  501  0.00000000000E+00  0.00000000000E+00 -0.10808058195E+03  0.10808058207E+03  0.50400001928E-02 0. -1.
    10030    2    1    2    0    0  0.00000000000E+00  0.00000000000E+00  0.10302770294E+04  0.12464381934E+04  0.70152506207E+03 0.  0.
        5    1    3    3  502    0  0.15701398228E+03  0.16398442777E+03  0.99012725084E+03  0.10158338181E+04  0.46999998093E+01 0.  1.
       -5    1    3    3    0  502 -0.15701398228E+03 -0.16398442777E+03  0.40149778539E+02  0.23060437528E+03  0.46999998093E+01 0. -1.
</event>
<event>
 5   0  0.6131198E-02  0.6961949E+03  0.7818609E-02  0.9723762E-01
       -2   -1    0    0    0  501  0.00000000000E+00  0.00000000000E+00  0.61643977383E+02  0.61643977435E+02  0.25500000920E-02 0.  1.
        2   -1    0    0  501    0  0.00000000000E+00  0.00000000000E+00 -0.19656717000E+04  0.19656717000E+04  0.25500000920E-02 0. -1.
    10030    2    1    2    0    0  0.00000000000E+00  0.00000000000E+00 -0.19040277226E+04  0.20273156774E+04  0.69619486315E+03 0.  0.
        1    1    3    3  502    0 -0.27757480274E+03  0.18746445471E+01 -0.15636750950E+04  0.15881218745E+04  0.50400001928E-02 0. -1.
       -1    1    3    3    0  502  0.27757480274E+03 -0.18746445471E+01 -0.34035262755E+03  0.43919380291E+03  0.50400001928E-02 0.  1.
</event>
<event>
 5   0  0.3749730E-02  0.4944153E+03  0.7818609E-02  0.1015247E+00
       -1   -1    0    0    0  501  0.00000000000E+00  0.00000000000E+00  0.67665894221E+03  0.67665894223E+03  0.50400001928E-02 0.  1.
        1   -1    0    0  501    0  0.00000000000E+00  0.00000000000E+00 -0.90313759260E+02  0.90313759401E+02  0.50400001928E-02 0. -1.
    10030    2    1    2    0    0  0.00000000000E+00  0.00000000000E+00  0.58634518295E+03  0.76697270163E+03  0.49441526218E+03 0.  0.
        4    1    3    3  502    0  0.62691014723E+02  0.38177102356E+02  0.65935943133E+03  0.66343358903E+03  0.12699999809E+01 0.  1.
       -4    1    3    3    0  502 -0.62691014723E+02 -0.38177102356E+02 -0.73014248380E+02  0.10353911260E+03  0.12699999809E+01 0. -1.
</event>
<event>
 5   0  0.5899787E-02  0.6980961E+03  0.7818609E-02  0.9720494E-01
       -2   -1    0    0    0  501  0.00000000000E+00  0.00000000000E+00  0.62167040799E+02  0.62167040851E+02  0.25500000920E-02 0.  1.
        2   -1    0    0  501    0  0.00000000000E+00  0.00000000000E+00 -0.19597934096E+04  0.19597934096E+04  0.25500000920E-02 0. -1.
    10030    2    1    2    0    0  0.00000000000E+00  0.00000000000E+00 -0.18976263688E+04  0.20219604505E+04  0.69809614498E+03 0.  0.
        2    1    3    3  502    0 -0.25861156249E+03 -0.19372868055E+03 -0.56649140202E+03  0.65216811520E+03  0.25500000920E-02 0.  1.
       -2    1    3    3    0  502  0.25861156249E+03  0.19372868055E+03 -0.13311349668E+04  0.13697923353E+04  0.25500000920E-02 0. -1.
</event>
<event>
 5   0  0.3749730E-02  0.6880522E+03  0.7818609E-02  0.9737886E-01
       -1   -1    0    0    0  501  0.00000000000E+00  0.00000000000E+00  0.20951452779E+03  0.20951452785E+03  0.50400001928E-02 0.  1.
        1   -1    0    0  501    0  0.00000000000E+00  0.00000000000E+00 -0.56489613486E+03  0.56489613488E+03  0.50400001928E-02 0. -1.
    10030    2    1    2    0    0  0.00000000000E+00  0.00000000000E+00 -0.35538160706E+03  0.77441066273E+03  0.68805216947E+03 0.  0.
        4    1    3    3  502    0  0.70682870398E+02  0.11856342428E+03  0.17697747744E+03  0.22444597159E+03  0.12699999809E+01 0.  1.
       -4    1    3    3    0  502 -0.70682870398E+02 -0.11856342428E+03 -0.53235908450E+03  0.54996469114E+03  0.12699999809E+01 0. -1.
</event>
<event>
 5   0  0.3439015E-02  0.6976480E+03  0.7818609E-02  0.9721263E-01
       -1   -1    0    0    0  501  0.00000000000E+00  0.00000000000E+00  0.10810665747E+03  0.10810665759E+03  0.50400001928E-02 0.  1.
        1   -1    0    0  501    0  0.00000000000E+00  0.00000000000E+00 -0.11255382600E+04  0.11255382600E+04  0.50400001928E-02 0. -1.
    10030    2    1    2    0    0  0.00000000000E+00  0.00000000000E+00 -0.10174316025E+04  0.12336449176E+04  0.69764798925E+03 0.  0.
        1    1    3    3  502    0  0.79311876845E+02  0.23298775447E+03 -0.94582552312E+03  0.97732266307E+03  0.50400001928E-02 0. -1.
       -1    1    3    3    0  502 -0.79311876845E+02 -0.23298775447E+03 -0.71606079426E+02  0.25632225455E+03  0.50400001928E-02 0.  1.
</event>
<event>
 5   0  0.5987810E-02  0.7027972E+03  0.7818609E-02  0.9712461E-01
        2   -1    0    0  501    0  0.00000000000E+00  0.00000000000E+00  0.15508799788E+04  0.15508799788E+04  0.25500000920E-02 0. -1.
       -2   -1    0    0    0  501  0.00000000000E+00  0.00000000000E+00 -0.79619935441E+02  0.79619935482E+02  0.25500000920E-02 0.  1.
    10030    2    1    2    0    0  0.00000000000E+00  0.00000000000E+00  0.14712600434E+04  0.16304999143E+04  0.70279716513E+03 0.  0.
        5    1    3    3  502    0  0.11852257294E+03 -0.88929555142E+02  0.14747753004E+04  0.14822079283E+04  0.46999998093E+01 0. -1.
       -5    1    3    3    0  502 -0.11852257294E+03  0.88929555142E+02 -0.35152570383E+01  0.14829198598E+03  0.46999998093E+01 0.  1.
</event>
<event>
 5   0  0.3717372E-02  0.6139459E+03  0.7818609E-02  0.9876888E-01
       -1   -1    0    0    0  501  0.00000000000E+00  0.00000000000E+00  0.15170227907E+03  0.15170227915E+03  0.50400001928E-02 0. -1.
        1   -1    0    0  501    0  0.00000000000E+00  0.00000000000E+00 -0.62116668312E+03  0.62116668314E+03  0.50400001928E-02 0.  1.
    10030    2    1    2    0    0  0.00000000000E+00  0.00000000000E+00 -0.46946440405E+03  0.77286896229E+03  0.61394593100E+03 0.  0.
        3    1    3    3  502    0 -0.42681122823E+02 -0.30103760271E+03 -0.18151560330E+03  0.35410908056E+03  0.10100000352E+00 0.  1.
       -3    1    3    3    0  502  0.42681122823E+02  0.30103760271E+03 -0.28794880075E+03  0.41875988173E+03  0.10100000352E+00 0. -1.
</event>
<event>
 5   0  0.2439375E-02  0.7057554E+03  0.7818609E-02  0.9707440E-01
        3   -1    0    0  501    0  0.00000000000E+00  0.00000000000E+00  0.50794119918E+03  0.50794120922E+03  0.10100000352E+00 0.  1.
       -3   -1    0    0    0  501  0.00000000000E+00  0.00000000000E+00 -0.24515171846E+03  0.24515173927E+03  0.10100000352E+00 0. -1.
    10030    2    1    2    0    0  0.00000000000E+00  0.00000000000E+00  0.26278948072E+03  0.75309294849E+03  0.70575539523E+03 0.  0.
        3    1    3    3  502    0  0.23658349898E+03  0.69119219722E+02 -0.13807766489E+03  0.28251490273E+03  0.10100000352E+00 0. -1.
       -3    1    3    3    0  502 -0.23658349898E+03 -0.69119219722E+02  0.40086714561E+03  0.47057804576E+03  0.10100000352E+00 0.  1.
</event>
<event>
 5   0  0.3717372E-02  0.6851177E+03  0.7818609E-02  0.9743027E-01
        1   -1    0    0  501    0  0.00000000000E+00  0.00000000000E+00  0.37124508901E+03  0.37124508904E+03  0.50400001928E-02 0. -1.
       -1   -1    0    0    0  501  0.00000000000E+00  0.00000000000E+00 -0.31608924909E+03  0.31608924913E+03  0.50400001928E-02 0.  1.
    10030    2    1    2    0    0  0.00000000000E+00  0.00000000000E+00  0.55155839914E+02  0.68733433817E+03  0.68511774591E+03 0.  0.
        3    1    3    3  502    0  0.23406863685E+03  0.13980411509E+02 -0.22295586409E+03  0.32356283191E+03  0.10100000352E+00 0.  1.
       -3    1    3    3    0  502 -0.23406863685E+03 -0.13980411509E+02  0.27811170401E+03  0.36377150626E+03  0.10100000352E+00 0. -1.
</event>
<event>
 5   0  0.5899787E-02  0.6834527E+03  0.7818609E-02  0.9745956E-01
        2   -1    0    0  501    0  0.00000000000E+00  0.00000000000E+00  0.45610967280E+03  0.45610967281E+03  0.25500000920E-02 0. -1.
       -2   -1    0    0    0  501  0.00000000000E+00  0.00000000000E+00 -0.25602807729E+03  0.25602807730E+03  0.25500000920E-02 0.  1.
    10030    2    1    2    0    0  0.00000000000E+00  0.00000000000E+00  0.20008159551E+03  0.71213775011E+03  0.68345265401E+03 0.  0.
        2    1    3    3  502    0 -0.97106659932E+02  0.14270651511E+03  0.40734630449E+03  0.44240915976E+03  0.25500000920E-02 0. -1.
       -2    1    3    3    0  502  0.97106659932E+02 -0.14270651511E+03 -0.20726470898E+03  0.26972859035E+03  0.25500000920E-02 0.  1.
</event>
<event>
 5   0  0.6167756E-02  0.7009028E+03  0.7818609E-02  0.9715689E-01
        2   -1    0    0  501    0  0.00000000000E+00  0.00000000000E+00  0.21449414414E+03  0.21449414415E+03  0.25500000920E-02 0. -1.
       -2   -1    0    0    0  501  0.00000000000E+00  0.00000000000E+00 -0.57258532734E+03  0.57258532735E+03  0.25500000920E-02 0.  1.
    10030    2    1    2    0    0  0.00000000000E+00  0.00000000000E+00 -0.35809118321E+03  0.78707947150E+03  0.70090284560E+03 0.  0.
        4    1    3    3  502    0 -0.31955147906E+03 -0.14134501153E+03 -0.14885038839E+03  0.37980206829E+03  0.12699999809E+01 0. -1.
       -4    1    3    3    0  502  0.31955147906E+03  0.14134501153E+03 -0.20924079482E+03  0.40727740321E+03  0.12699999809E+01 0.  1.
</event>
<event>
 5   0  0.3717372E-02  0.7052158E+03  0.7818609E-02  0.9708354E-01
        1   -1    0    0  501    0  0.00000000000E+00  0.00000000000E+00  0.14069713770E+03  0.14069713779E+03  0.50400001928E-02 0. -1.
       -1   -1    0    0    0  501  0.00000000000E+00  0.00000000000E+00 -0.88368766785E+03  0.88368766786E+03  0.50400001928E-02 0.  1.
    10030    2    1    2    0    0  0.00000000000E+00  0.00000000000E+00 -0.74299053014E+03  0.10243848057E+04  0.70521578412E+03 0.  0.
        3    1    3    3  502    0 -0.34530702749E+03  0.68852158477E+02 -0.34413604172E+03  0.49234864514E+03  0.10100000352E+00 0.  1.
       -3    1    3    3    0  502  0.34530702749E+03 -0.68852158477E+02 -0.39885448842E+03  0.53203616051E+03  0.10100000352E+00 0. -1.
</event>
<event>
 5   0  0.5899787E-02  0.7156266E+03  0.7818609E-02  0.9690876E-01
        2   -1    0    0  501    0  0.00000000000E+00  0.00000000000E+00  0.37164677725E+03  0.37164677726E+03  0.25500000920E-02 0. -1.
       -2   -1    0    0    0  501  0.00000000000E+00  0.00000000000E+00 -0.34449470505E+03  0.34449470506E+03  0.25500000920E-02 0.  1.
    10030    2    1    2    0    0  0.00000000000E+00  0.00000000000E+00  0.27152072208E+02  0.71614148232E+03  0.71562656999E+03 0.  0.
        2    1    3    3  502    0  0.13618465280E+03  0.12430198422E+03 -0.29329278162E+03  0.34643599509E+03  0.25500000920E-02 0.  1.
       -2    1    3    3    0  502 -0.13618465280E+03 -0.12430198422E+03  0.32044485382E+03  0.36970548723E+03  0.25500000920E-02 0. -1.
</event>
<event>
 5   0  0.6167756E-02  0.7076199E+03  0.7818609E-02  0.9704289E-01
       -2   -1    0    0    0  501  0.00000000000E+00  0.00000000000E+00  0.70672438411E+02  0.70672438457E+02  0.25500000920E-02 0. -1.
        2   -1    0    0  501    0  0.00000000000E+00  0.00000000000E+00 -0.17712916102E+04  0.17712916102E+04  0.25500000920E-02 0.  1.
    10030    2    1    2    0    0  0.00000000000E+00  0.00000000000E+00 -0.17006191718E+04  0.18419640487E+04  0.70761994679E+03 0.  0.
        4    1    3    3  502    0  0.28366863708E+03 -0.19111712361E+03 -0.10858270704E+04  0.11384268489E+04  0.12699999809E+01 0.  1.
       -4    1    3    3    0  502 -0.28366863708E+03  0.19111712361E+03 -0.61479210138E+03  0.70353719975E+03  0.12699999809E+01 0. -1.
</event>
<event>
 5   0  0.6248886E-02  0.6897845E+03  0.7818609E-02  0.9734863E-01
       -2   -1    0    0    0  501  0.00000000000E+00  0.00000000000E+00  0.10948754903E+03  0.10948754906E+03  0.25500000920E-02 0.  1.
        2   -1    0    0  501    0  0.00000000000E+00  0.00000000000E+00 -0.10864309663E+04  0.10864309663E+04  0.25500000920E-02 0. -1.
    10030    2    1    2    0    0  0.00000000000E+00  0.00000000000E+00 -0.97694341724E+03  0.11959185153E+04  0.68978449883E+03 0.  0.
        3    1    3    3  502    0  0.19244876092E+02 -0.19534460776E+03 -0.98014008912E+03  0.99960216363E+03  0.10100000352E+00 0. -1.
       -3    1    3    3    0  502 -0.19244876092E+02  0.19534460776E+03  0.31966718710E+01  0.19631635171E+03  0.10100000352E+00 0.  1.
</event>
<event>
 5   0  0.3717372E-02  0.7122406E+03  0.7818609E-02  0.9696525E-01
        1   -1    0    0  501    0  0.00000000000E+00  0.00000000000E+00  0.14105824724E+04  0.14105824724E+04  0.50400001928E-02 0.  1.
       -1   -1    0    0    0  501  0.00000000000E+00  0.00000000000E+00 -0.89907297825E+02  0.89907297966E+02  0.50400001928E-02 0. -1.
    10030    2    1    2    0    0  0.00000000000E+00  0.00000000000E+00  0.13206751746E+04  0.15004897704E+04  0.71224057331E+03 0.  0.
        3    1    3    3  502    0  0.29957416000E+03 -0.12948963478E+02  0.10650757968E+04  0.11064803732E+04  0.10100000352E+00 0.  1.
       -3    1    3    3    0  502 -0.29957416000E+03  0.12948963478E+02  0.25559937775E+03  0.39400939722E+03  0.10100000352E+00 0. -1.
</event>
<event>
 5   0  0.5899787E-02  0.6971316E+03  0.7818609E-02  0.9722150E-01
        2   -1    0    0  501    0  0.00000000000E+00  0.00000000000E+00  0.15048363547E+04  0.15048363547E+04  0.25500000920E-02 0.  1.
       -2   -1    0    0    0  501  0.00000000000E+00  0.00000000000E+00 -0.80738428307E+02  0.80738428347E+02  0.25500000920E-02 0. -1.
    10030    2    1    2    0    0  0.00000000000E+00  0.00000000000E+00  0.14240979264E+04  0.15855747830E+04  0.69713161503E+03 0.  0.
        2    1    3    3  502    0  0.29116460584E+03 -0.16434627415E+03  0.93618788050E+03  0.99409972997E+03  0.25500000920E-02 0. -1.
       -2    1    3    3    0  502 -0.29116460584E+03  0.16434627415E+03  0.48791004588E+03  0.59147505306E+03  0.25500000920E-02 0.  1.
</event>
<event>
 5   0  0.3601475E-02  0.7187442E+03  0.7818609E-02  0.9685703E-01
        1   -1    0    0  501    0  0.00000000000E+00  0.00000000000E+00  0.11206730573E+04  0.11206730573E+04  0.50400001928E-02 0.  1.
       -1   -1    0    0    0  501  0.00000000000E+00  0.00000000000E+00 -0.11524173967E+03  0.11524173978E+03  0.50400001928E-02 0. -1.
    10030    2    1    2    0    0  0.00000000000E+00  0.00000000000E+00  0.10054313176E+04  0.12359147971E+04  0.71874421819E+03 0.  0.
        5    1    3    3  502    0  0.91446811115E+01  0.25751571137E+03  0.72044514362E+02  0.26760132444E+03  0.46999998093E+01 0. -1.
       -5    1    3    3    0  502 -0.91446811115E+01 -0.25751571137E+03  0.93338680324E+03  0.96831347262E+03  0.46999998093E+01 0.  1.
</event>
<event>
 5   0  0.3755872E-02  0.6890408E+03  0.7818609E-02  0.9736160E-01
       -1   -1    0    0    0  501  0.00000000000E+00  0.00000000000E+00  0.20827908944E+03  0.20827908950E+03  0.50400001928E-02 0. -1.
        1   -1    0    0  501    0  0.00000000000E+00  0.00000000000E+00 -0.56988102367E+03  0.56988102370E+03  0.50400001928E-02 0.  1.
    10030    2    1    2    0    0  0.00000000000E+00  0.00000000000E+00 -0.36160193423E+03  0.77816011320E+03  0.68904078467E+03 0.  0.
        2    1    3    3  502    0  0.34159433733E+02  0.23608793336E+03 -0.46152711034E+03  0.51953022316E+03  0.25500000920E-02 0.  1.
       -2    1    3    3    0  502 -0.34159433733E+02 -0.23608793336E+03  0.99925176113E+02  0.25862989003E+03  0.25500000920E-02 0. -1.
</event>
<event>
 5   0  0.5899787E-02  0.6218537E+03  0.7818609E-02  0.9861076E-01
       -2   -1    0    0    0  501  0.00000000000E+00  0.00000000000E+00  0.21270960499E+03  0.21270960501E+03  0.25500000920E-02 0.  1.
        2   -1    0    0  501    0  0.00000000000E+00  0.00000000000E+00 -0.45449521698E+03  0.45449521699E+03  0.25500000920E-02 0. -1.
    10030    2    1    2    0    0  0.00000000000E+00  0.00000000000E+00 -0.24178561199E+03  0.66720482200E+03  0.62185367437E+03 0.  0.
        2    1    3    3  502    0 -0.25425430531E+03  0.12117923486E+03  0.20415806269E+02  0.28239416404E+03  0.25500000920E-02 0.  1.
       -2    1    3    3    0  502  0.25425430531E+03 -0.12117923486E+03 -0.26220141826E+03  0.38481065796E+03  0.25500000920E-02 0. -1.
</event>
<event>
 5   0  0.3717372E-02  0.6963216E+03  0.7818609E-02  0.9723544E-01
        1   -1    0    0  501    0  0.00000000000E+00  0.00000000000E+00  0.74961796388E+03  0.74961796390E+03  0.50400001928E-02 0.  1.
       -1   -1    0    0    0  501  0.00000000000E+00  0.00000000000E+00 -0.16170361052E+03  0.16170361060E+03  0.50400001928E-02 0. -1.
    10030    2    1    2    0    0  0.00000000000E+00  0.00000000000E+00  0.58791435336E+03  0.91132157450E+03  0.69632156742E+03 0.  0.
        3    1    3    3  502    0  0.17048517848E+03 -0.18777923480E+03 -0.18203767493E+02  0.25427863547E+03  0.10100000352E+00 0. -1.
       -3    1    3    3    0  502 -0.17048517848E+03  0.18777923480E+03  0.60611812086E+03  0.65704293903E+03  0.10100000352E+00 0.  1.
</event>
<event>
 5   0  0.3717372E-02  0.6919892E+03  0.7818609E-02  0.9731031E-01
       -1   -1    0    0    0  501  0.00000000000E+00  0.00000000000E+00  0.34140445036E+03  0.34140445040E+03  0.50400001928E-02 0.  1.
        1   -1    0    0  501    0  0.00000000000E+00  0.00000000000E+00 -0.35064644845E+03  0.35064644849E+03  0.50400001928E-02 0. -1.
    10030    2    1    2    0    0  0.00000000000E+00  0.00000000000E+00 -0.92419980902E+01  0.69205089888E+03  0.69198918497E+03 0.  0.
        3    1    3    3  502    0  0.19350129727E+03  0.19484919032E+03  0.20588123705E+03  0.34321429600E+03  0.10100000352E+00 0.  1.
       -3    1    3    3    0  502 -0.19350129727E+03 -0.19484919032E+03 -0.21512323514E+03  0.34883660288E+03  0.10100000352E+00 0. -1.
</event>
<event>
 5   0  0.3717372E-02  0.7117721E+03  0.7818609E-02  0.9697309E-01
        1   -1    0    0  501    0  0.00000000000E+00  0.00000000000E+00  0.14315263763E+03  0.14315263772E+03  0.50400001928E-02 0. -1.
       -1   -1    0    0    0  501  0.00000000000E+00  0.00000000000E+00 -0.88475407613E+03  0.88475407614E+03  0.50400001928E-02 0.  1.
    10030    2    1    2    0    0  0.00000000000E+00  0.00000000000E+00 -0.74160143849E+03  0.10279067139E+04  0.71177209754E+03 0.  0.
        3    1    3    3  502    0  0.16124153256E+03  0.12779692128E+03  0.48560536221E+02  0.21139777858E+03  0.10100000352E+00 0. -1.
       -3    1    3    3    0  502 -0.16124153256E+03 -0.12779692128E+03 -0.79016197472E+03  0.81650893528E+03  0.10100000352E+00 0.  1.
</event>
<event>
 5   0  0.3755872E-02  0.6994138E+03  0.7818609E-02  0.9718235E-01
        1   -1    0    0  501    0  0.00000000000E+00  0.00000000000E+00  0.10870280790E+04  0.10870280790E+04  0.50400001928E-02 0. -1.
       -1   -1    0    0    0  501  0.00000000000E+00  0.00000000000E+00 -0.11250390169E+03  0.11250390180E+03  0.50400001928E-02 0.  1.
    10030    2    1    2    0    0  0.00000000000E+00  0.00000000000E+00  0.97452417729E+03  0.11995319808E+04  0.69941375509E+03 0.  0.
        2    1    3    3  502    0 -0.26058828413E+03 -0.93479153123E+02  0.12082497561E+03  0.30206502716E+03  0.25500000920E-02 0.  1.
       -2    1    3    3    0  502  0.26058828413E+03  0.93479153123E+02  0.85369920168E+03  0.89746695362E+03  0.25500000920E-02 0. -1.
</event>
<event>
 5   0  0.5987810E-02  0.6925703E+03  0.7818609E-02  0.9730023E-01
        2   -1    0    0  501    0  0.00000000000E+00  0.00000000000E+00  0.33413485998E+03  0.33413485999E+03  0.25500000920E-02 0. -1.
       -2   -1    0    0    0  501  0.00000000000E+00  0.00000000000E+00 -0.35887725159E+03  0.35887725160E+03  0.25500000920E-02 0.  1.
    10030    2    1    2    0    0  0.00000000000E+00  0.00000000000E+00 -0.24742391608E+02  0.69301211158E+03  0.69257028586E+03 0.  0.
        5    1    3    3  502    0  0.27432089971E+03  0.10190044124E+03 -0.19757210038E+03  0.35311822495E+03  0.46999998093E+01 0.  1.
       -5    1    3    3    0  502 -0.27432089971E+03 -0.10190044124E+03  0.17282970877E+03  0.33989388664E+03  0.46999998093E+01 0. -1.
</event>
<event>
 5   0  0.3749730E-02  0.6785530E+03  0.7818609E-02  0.9754629E-01
       -1   -1    0    0    0  501  0.00000000000E+00  0.00000000000E+00  0.40134921118E+03  0.40134921121E+03  0.50400001928E-02 0. -1.
        1   -1    0    0  501    0  0.00000000000E+00  0.00000000000E+00 -0.28680399658E+03  0.28680399662E+03  0.50400001928E-02 0.  1.
    10030    2    1    2    0    0  0.00000000000E+00  0.00000000000E+00  0.11454521460E+03  0.68815320783E+03  0.67855304233E+03 0.  0.
        4    1    3    3  502    0  0.20372201421E+03 -0.27100875920E+03  0.44503268578E+02  0.34195110827E+03  0.12699999809E+01 0. -1.
       -4    1    3    3    0  502 -0.20372201421E+03  0.27100875920E+03  0.70041946023E+02  0.34620209956E+03  0.12699999809E+01 0.  1.
</event>
<event>
 5   0  0.3717372E-02  0.7243490E+03  0.7818609E-02  0.9676475E-01
        1   -1    0    0  501    0  0.00000000000E+00  0.00000000000E+00  0.25833773411E+03  0.25833773416E+03  0.50400001928E-02 0. -1.
       -1   -1    0    0    0  501  0.00000000000E+00  0.00000000000E+00 -0.50774766105E+03  0.50774766108E+03  0.50400001928E-02 0.  1.
    10030    2    1    2    0    0  0.00000000000E+00  0.00000000000E+00 -0.24940992694E+03  0.76608539524E+03  0.72434903268E+03 0.  0.
        3    1    3    3  502    0  0.16878400146E+03  0.26920889809E+03 -0.30852665373E+03  0.44288844670E+03  0.10100000352E+00 0.  1.
       -3    1    3    3    0  502 -0.16878400146E+03 -0.26920889809E+03  0.59116726795E+02  0.32319694854E+03  0.10100000352E+00 0. -1.
</event>
<event>
 5   0  0.2439375E-02  0.7061483E+03  0.7818609E-02  0.9706775E-01
        3   -1    0    0  501    0  0.00000000000E+00  0.00000000000E+00  0.48191114552E+03  0.48191115610E+03  0.10100000352E+00 0. -1.
       -3   -1    0    0    0  501  0.00000000000E+00  0.00000000000E+00 -0.25868114527E+03  0.25868116499E+03  0.10100000352E+00 0.  1.
    10030    2    1    2    0    0  0.00000000000E+00  0.00000000000E+00  0.22323000025E+03  0.74059232109E+03  0.70614825147E+03 0.  0.
        5    1    3    3  502    0  0.15462067772E+03  0.26371350300E+03 -0.73597075811E+02  0.31446937086E+03  0.46999998093E+01 0.  1.
       -5    1    3    3    0  502 -0.15462067772E+03 -0.26371350300E+03  0.29682707606E+03  0.42612295024E+03  0.46999998093E+01 0. -1.
</event>
<event>
 5   0  0.5899787E-02  0.7161787E+03  0.7818609E-02  0.9689958E-01
       -2   -1    0    0    0  501  0.00000000000E+00  0.00000000000E+00  0.13679146663E+03  0.13679146666E+03  0.25500000920E-02 0. -1.
        2   -1    0    0  501    0  0.00000000000E+00  0.00000000000E+00 -0.93739756872E+03  0.93739756872E+03  0.25500000920E-02 0.  1.
    10030    2    1    2    0    0  0.00000000000E+00  0.00000000000E+00 -0.80060610208E+03  0.10741890354E+04  0.71617871585E+03 0.  0.
        2    1    3    3  502    0  0.19994457994E+03 -0.12026414040E+03 -0.80772865558E+03  0.84075375679E+03  0.25500000920E-02 0.  1.
       -2    1    3    3    0  502 -0.19994457994E+03  0.12026414040E+03  0.71225534966E+01  0.23343527858E+03  0.25500000920E-02 0. -1.
</event>
<event>
 5   0  0.2439375E-02  0.7104650E+03  0.7818609E-02  0.9699501E-01
       -4   -1    0    0    0  501  0.00000000000E+00  0.00000000000E+00  0.75524086523E+03  0.75524193304E+03  0.12699999809E+01 0. -1.
        4   -1    0    0  501    0  0.00000000000E+00  0.00000000000E+00 -0.16708232576E+03  0.16708715235E+03  0.12699999809E+01 0.  1.
    10030    2    1    2    0    0  0.00000000000E+00  0.00000000000E+00  0.58815853947E+03  0.92232908539E+03  0.71046497043E+03 0.  0.
        1    1    3    3  502    0 -0.12035615642E+03  0.70513530700E+02 -0.13004320094E+03  0.19070657182E+03  0.50400001928E-02 0.  1.
       -1    1    3    3    0  502  0.12035615642E+03 -0.70513530700E+02  0.71820174041E+03  0.73162251357E+03  0.50400001928E-02 0. -1.
</event>
<event>
 5   0  0.5987810E-02  0.6865582E+03  0.7818609E-02  0.9740500E-01
       -2   -1    0    0    0  501  0.00000000000E+00  0.00000000000E+00  0.39875888457E+02  0.39875888539E+02  0.25500000920E-02 0. -1.
        2   -1    0    0  501    0  0.00000000000E+00  0.00000000000E+00 -0.29551829480E+04  0.29551829480E+04  0.25500000920E-02 0.  1.
    10030    2    1    2    0    0  0.00000000000E+00  0.00000000000E+00 -0.29153070595E+04  0.29950588365E+04  0.68655821524E+03 0.  0.
        5    1    3    3  502    0 -0.21431739421E+03 -0.16849925297E+03 -0.54785501934E+03  0.61195682522E+03  0.46999998093E+01 0. -1.
       -5    1    3    3    0  502  0.21431739421E+03  0.16849925297E+03 -0.23674520402E+04  0.23831020113E+04  0.46999998093E+01 0.  1.
</event>
<event>
 5   0  0.3439015E-02  0.7886500E+03  0.7818609E-02  0.9576593E-01
       -1   -1    0    0    0  501  0.00000000000E+00  0.00000000000E+00  0.16112275846E+03  0.16112275854E+03  0.50400001928E-02 0.  1.
        1   -1    0    0  501    0  0.00000000000E+00  0.00000000000E+00 -0.96505430241E+03  0.96505430242E+03  0.50400001928E-02 0. -1.
    10030    2    1    2    0    0  0.00000000000E+00  0.00000000000E+00 -0.80393154394E+03  0.11261770610E+04  0.78865001445E+03 0.  0.
        1    1    3    3  502    0  0.42628831145E+02  0.16364594872E+03 -0.91064571287E+03  0.92621424528E+03  0.50400001928E-02 0. -1.
       -1    1    3    3    0  502 -0.42628831145E+02 -0.16364594872E+03  0.10671416892E+03  0.19996281568E+03  0.50400001928E-02 0.  1.
</event>
<event>
 5   0  0.6248886E-02  0.6044683E+03  0.7818609E-02  0.9896179E-01
       -2   -1    0    0    0  501  0.00000000000E+00  0.00000000000E+00  0.12039254054E+03  0.12039254057E+03  0.25500000920E-02 0.  1.
        2   -1    0    0  501    0  0.00000000000E+00  0.00000000000E+00 -0.75873049091E+03  0.75873049092E+03  0.25500000920E-02 0. -1.
    10030    2    1    2    0    0  0.00000000000E+00  0.00000000000E+00 -0.63833795037E+03  0.87912303149E+03  0.60446833301E+03 0.  0.
        3    1    3    3  502    0 -0.54464955289E+02 -0.14705862625E+03 -0.69492926416E+03  0.71240393268E+03  0.10100000352E+00 0. -1.
       -3    1    3    3    0  502  0.54464955289E+02  0.14705862625E+03  0.56591313793E+02  0.16671909881E+03  0.10100000352E+00 0.  1.
</event>
<event>
 5   0  0.5987810E-02  0.7104102E+03  0.7818609E-02  0.9699593E-01
       -2   -1    0    0    0  501  0.00000000000E+00  0.00000000000E+00  0.52139725733E+02  0.52139725796E+02  0.25500000920E-02 0. -1.
        2   -1    0    0  501    0  0.00000000000E+00  0.00000000000E+00 -0.24198569219E+04  0.24198569219E+04  0.25500000920E-02 0.  1.
    10030    2    1    2    0    0  0.00000000000E+00  0.00000000000E+00 -0.23677171961E+04  0.24719966477E+04  0.71041023725E+03 0.  0.
        5    1    3    3  502    0  0.27297346726E+03 -0.22127310662E+03 -0.13637374195E+04  0.14082890829E+04  0.46999998093E+01 0. -1.
       -5    1    3    3    0  502 -0.27297346726E+03  0.22127310662E+03 -0.10039797766E+04  0.10637075648E+04  0.46999998093E+01 0.  1.
</event>
<event>
 5   0  0.3439015E-02  0.6979840E+03  0.7818609E-02  0.9720686E-01
       -1   -1    0    0    0  501  0.00000000000E+00  0.00000000000E+00  0.35483068300E+03  0.35483068304E+03  0.50400001928E-02 0.  1.
        1   -1    0    0  501    0  0.00000000000E+00  0.00000000000E+00 -0.34324941036E+03  0.34324941040E+03  0.50400001928E-02 0. -1.
    10030    2    1    2    0    0  0.00000000000E+00  0.00000000000E+00  0.11581272643E+02  0.69808009344E+03  0.69798401914E+03 0.  0.
        1    1    3    3  502    0 -0.12380902915E+03 -0.63368739237E+00  0.33212735918E+03  0.35445403087E+03  0.50400001928E-02 0.  1.
       -1    1    3    3    0  502  0.12380902915E+03  0.63368739237E+00 -0.32054608653E+03  0.34362606257E+03  0.50400001928E-02 0. -1.
</event>
<event>
 5   0  0.5899787E-02  0.7093303E+03  0.7818609E-02  0.9701408E-01
        2   -1    0    0  501    0  0.00000000000E+00  0.00000000000E+00  0.22123242185E+03  0.22123242186E+03  0.25500000920E-02 0. -1.
       -2   -1    0    0    0  501  0.00000000000E+00  0.00000000000E+00 -0.56857569175E+03  0.56857569175E+03  0.25500000920E-02 0.  1.
    10030    2    1    2    0    0  0.00000000000E+00  0.00000000000E+00 -0.34734326990E+03  0.78980811362E+03  0.70933032445E+03 0.  0.
        2    1    3    3  502    0 -0.49256607274E+02 -0.33622026574E+03 -0.28676882573E+03  0.44464214810E+03  0.25500000920E-02 0.  1.
       -2    1    3    3    0  502  0.49256607274E+02  0.33622026574E+03 -0.60574444172E+02  0.34516596551E+03  0.25500000920E-02 0. -1.
</event>
<event>
 5   0  0.5987810E-02  0.6893395E+03  0.7818609E-02  0.9735639E-01
        2   -1    0    0  501    0  0.00000000000E+00  0.00000000000E+00  0.38111230131E+03  0.38111230132E+03  0.25500000920E-02 0. -1.
       -2   -1    0    0    0  501  0.00000000000E+00  0.00000000000E+00 -0.31171192057E+03  0.31171192058E+03  0.25500000920E-02 0.  1.
    10030    2    1    2    0    0  0.00000000000E+00  0.00000000000E+00  0.69400380736E+02  0.69282422190E+03  0.68933953144E+03 0.  0.
        5    1    3    3  502    0  0.70651258586E+02 -0.18363047415E+03  0.31908533660E+03  0.37489904429E+03  0.46999998093E+01 0. -1.
       -5    1    3    3    0  502 -0.70651258586E+02  0.18363047415E+03 -0.24968495587E+03  0.31792517761E+03  0.46999998093E+01 0.  1.
</event>
<event>
 5   0  0.3755872E-02  0.7138213E+03  0.7818609E-02  0.9693884E-01
       -1   -1    0    0    0  501  0.00000000000E+00  0.00000000000E+00  0.87813182991E+03  0.87813182993E+03  0.50400001928E-02 0.  1.
        1   -1    0    0  501    0  0.00000000000E+00  0.00000000000E+00 -0.14506387037E+03  0.14506387046E+03  0.50400001928E-02 0. -1.
    10030    2    1    2    0    0  0.00000000000E+00  0.00000000000E+00  0.73306795954E+03  0.10231957004E+04  0.71382127174E+03 0.  0.
        2    1    3    3  502    0 -0.69896392350E+02  0.12534301773E+03  0.83495041345E+03  0.84719452943E+03  0.25500000920E-02 0.  1.
       -2    1    3    3    0  502  0.69896392350E+02 -0.12534301773E+03 -0.10188245391E+03  0.17600117096E+03  0.25500000920E-02 0. -1.
</event>
<event>
 5   0  0.5987810E-02  0.6663877E+03  0.7818609E-02  0.9776506E-01
       -2   -1    0    0    0  501  0.00000000000E+00  0.00000000000E+00  0.14499100245E+03  0.14499100248E+03  0.25500000920E-02 0.  1.
        2   -1    0    0  501    0  0.00000000000E+00  0.00000000000E+00 -0.76568991040E+03  0.76568991041E+03  0.25500000920E-02 0. -1.
    10030    2    1    2    0    0  0.00000000000E+00  0.00000000000E+00 -0.62069890795E+03  0.91068091288E+03  0.66638771805E+03 0.  0.
        5    1    3    3  502    0 -0.89752652195E+02  0.25802346871E+03 -0.57095131645E+03  0.63296061863E+03  0.46999998093E+01 0. -1.
       -5    1    3    3    0  502  0.89752652195E+02 -0.25802346871E+03 -0.49747591498E+02  0.27772029425E+03  0.46999998093E+01 0.  1.
</event>
<event>
 5   0  0.3749730E-02  0.6834286E+03  0.7818609E-02  0.9745999E-01
       -1   -1    0    0    0  501  0.00000000000E+00  0.00000000000E+00  0.71232783174E+02  0.71232783353E+02  0.50400001928E-02 0.  1.
        1   -1    0    0  501    0  0.00000000000E+00  0.00000000000E+00 -0.16392546364E+04  0.16392546364E+04  0.50400001928E-02 0. -1.
    10030    2    1    2    0    0  0.00000000000E+00  0.00000000000E+00 -0.15680218532E+04  0.17104874198E+04  0.68342862171E+03 0.  0.
        4    1    3    3  502    0 -0.44434276971E+02  0.20982659646E+03 -0.11822078028E+03  0.24490686259E+03  0.12699999809E+01 0.  1.
       -4    1    3    3    0  502  0.44434276971E+02 -0.20982659646E+03 -0.14498010729E+04  0.14655805572E+04  0.12699999809E+01 0. -1.
</event>
<event>
 5   0  0.3601475E-02  0.6980925E+03  0.7818609E-02  0.9720500E-01
       -1   -1    0    0    0  501  0.00000000000E+00  0.00000000000E+00  0.48608935300E+03  0.48608935303E+03  0.50400001928E-02 0. -1.
        1   -1    0    0  501    0  0.00000000000E+00  0.00000000000E+00 -0.25063969334E+03  0.25063969339E+03  0.50400001928E-02 0.  1.
    10030    2    1    2    0    0  0.00000000000E+00  0.00000000000E+00  0.23544965966E+03  0.73672904642E+03  0.69809250505E+03 0.  0.
        5    1    3    3  502    0  0.11979418098E+03  0.79180920996E+02  0.45343586423E+03  0.47565369442E+03  0.46999998093E+01 0. -1.
       -5    1    3    3    0  502 -0.11979418098E+03 -0.79180920996E+02 -0.21798620456E+03  0.26107535201E+03  0.46999998093E+01 0.  1.
</event>
<event>
 5   0  0.3601475E-02  0.7060780E+03  0.7818609E-02  0.9706894E-01
        1   -1    0    0  501    0  0.00000000000E+00  0.00000000000E+00  0.27137196878E+03  0.27137196882E+03  0.50400001928E-02 0.  1.
       -1   -1    0    0    0  501  0.00000000000E+00  0.00000000000E+00 -0.45928296855E+03  0.45928296858E+03  0.50400001928E-02 0. -1.
    10030    2    1    2    0    0  0.00000000000E+00  0.00000000000E+00 -0.18791099977E+03  0.73065493740E+03  0.70607796574E+03 0.  0.
        5    1    3    3  502    0 -0.98508454090E+02  0.28081356503E+02  0.25562263952E+03  0.27542240639E+03  0.46999998093E+01 0.  1.
       -5    1    3    3    0  502  0.98508454090E+02 -0.28081356503E+02 -0.44353363929E+03  0.45523253101E+03  0.46999998093E+01 0. -1.
</event>
<event>
 5   0  0.3601475E-02  0.6859680E+03  0.7818609E-02  0.9741534E-01
        1   -1    0    0  501    0  0.00000000000E+00  0.00000000000E+00  0.11969841945E+04  0.11969841945E+04  0.50400001928E-02 0. -1.
       -1   -1    0    0    0  501  0.00000000000E+00  0.00000000000E+00 -0.98278680846E+02  0.98278680975E+02  0.50400001928E-02 0.  1.
    10030    2    1    2    0    0  0.00000000000E+00  0.00000000000E+00  0.10987055136E+04  0.12952628755E+04  0.68596801009E+03 0.  0.
        5    1    3    3  502    0  0.80887345949E+02  0.34961791347E+02 -0.76476356145E+02  0.11677248236E+03  0.46999998093E+01 0.  1.
       -5    1    3    3    0  502 -0.80887345949E+02 -0.34961791347E+02  0.11751818698E+04  0.11784903931E+04  0.46999998093E+01 0. -1.
</event>
<event>
 5   0  0.6248886E-02  0.6932282E+03  0.7818609E-02  0.9728883E-01
       -2   -1    0    0    0  501  0.00000000000E+00  0.00000000000E+00  0.61659131302E+02  0.61659131354E+02  0.25500000920E-02 0.  1.
        2   -1    0    0  501    0  0.00000000000E+00  0.00000000000E+00 -0.19484762267E+04  0.19484762267E+04  0.25500000920E-02 0. -1.
    10030    2    1    2    0    0  0.00000000000E+00  0.00000000000E+00 -0.18868170954E+04  0.20101353581E+04  0.69322824973E+03 0.  0.
        3    1    3    3  502    0  0.26762473557E+03  0.92922100866E+02 -0.15225003991E+04  0.15486332656E+04  0.10100000352E+00 0.  1.
       -3    1    3    3    0  502 -0.26762473557E+03 -0.92922100866E+02 -0.36431669628E+03  0.46150209242E+03  0.10100000352E+00 0. -1.
</event>
<event>
 5   0  0.3717372E-02  0.6758037E+03  0.7818609E-02  0.9759530E-01
       -1   -1    0    0    0  501  0.00000000000E+00  0.00000000000E+00  0.55200188730E+02  0.55200188960E+02  0.50400001928E-02 0. -1.
        1   -1    0    0  501    0  0.00000000000E+00  0.00000000000E+00 -0.20684286841E+04  0.20684286841E+04  0.50400001928E-02 0.  1.
    10030    2    1    2    0    0  0.00000000000E+00  0.00000000000E+00 -0.20132284954E+04  0.21236288731E+04  0.67580368152E+03 0.  0.
        3    1    3    3  502    0  0.30013686992E+03  0.87665172106E-01 -0.51883199149E+03  0.59939035191E+03  0.10100000352E+00 0. -1.
       -3    1    3    3    0  502 -0.30013686992E+03 -0.87665172106E-01 -0.14943965039E+04  0.15242385212E+04  0.10100000352E+00 0.  1.
</event>
<event>
 5   0  0.3601475E-02  0.6918346E+03  0.7818609E-02  0.9731299E-01
       -1   -1    0    0    0  501  0.00000000000E+00  0.00000000000E+00  0.22396594596E+03  0.22396594601E+03  0.50400001928E-02 0. -1.
        1   -1    0    0  501    0  0.00000000000E+00  0.00000000000E+00 -0.53427212753E+03  0.53427212755E+03  0.50400001928E-02 0.  1.
    10030    2    1    2    0    0  0.00000000000E+00  0.00000000000E+00 -0.31030618157E+03  0.75823807356E+03  0.69183455384E+03 0.  0.
        5    1    3    3  502    0 -0.34201439258E+03  0.49794514121E+02 -0.16999278545E+03  0.38519212800E+03  0.46999998093E+01 0. -1.
       -5    1    3    3    0  502  0.34201439258E+03 -0.49794514121E+02 -0.14031339613E+03  0.37304594556E+03  0.46999998093E+01 0.  1.
</event>
<event>
 5   0  0.6248886E-02  0.7095600E+03  0.7818609E-02  0.9701022E-01
        2   -1    0    0  501    0  0.00000000000E+00  0.00000000000E+00  0.10934269129E+04  0.10934269129E+04  0.25500000920E-02 0. -1.
       -2   -1    0    0    0  501  0.00000000000E+00  0.00000000000E+00 -0.11511408020E+03  0.11511408023E+03  0.25500000920E-02 0.  1.
    10030    2    1    2    0    0  0.00000000000E+00  0.00000000000E+00  0.97831283272E+03  0.12085409932E+04  0.70955995762E+03 0.  0.
        3    1    3    3  502    0  0.27913877534E+03 -0.25818283269E+02  0.11879273089E+03  0.30446143067E+03  0.10100000352E+00 0.  1.
       -3    1    3    3    0  502 -0.27913877534E+03  0.25818283269E+02  0.85952010183E+03  0.90407956248E+03  0.10100000352E+00 0. -1.
</event>
<event>
 5   0  0.6131198E-02  0.6103936E+03  0.7818609E-02  0.9884074E-01
        2   -1    0    0  501    0  0.00000000000E+00  0.00000000000E+00  0.15446304806E+04  0.15446304806E+04  0.25500000920E-02 0.  1.
       -2   -1    0    0    0  501  0.00000000000E+00  0.00000000000E+00 -0.60302502137E+02  0.60302502191E+02  0.25500000920E-02 0. -1.
    10030    2    1    2    0    0  0.00000000000E+00  0.00000000000E+00  0.14843279785E+04  0.16049329828E+04  0.61039358746E+03 0.  0.
        1    1    3    3  502    0 -0.16042590710E+03 -0.16623067212E+03  0.12665575571E+04  0.12874537481E+04  0.50400001928E-02 0.  1.
       -1    1    3    3    0  502  0.16042590710E+03  0.16623067212E+03  0.21777042140E+03  0.31747923473E+03  0.50400001928E-02 0. -1.
</event>
<event>
 5   0  0.6167756E-02  0.7372819E+03  0.7818609E-02  0.9655517E-01
        2   -1    0    0  501    0  0.00000000000E+00  0.00000000000E+00  0.61369705996E+03  0.61369705997E+03  0.25500000920E-02 0.  1.
       -2   -1    0    0    0  501  0.00000000000E+00  0.00000000000E+00 -0.22143848674E+03  0.22143848676E+03  0.25500000920E-02 0. -1.
    10030    2    1    2    0    0  0.00000000000E+00  0.00000000000E+00  0.39225857322E+03  0.83513554672E+03  0.73728189530E+03 0.  0.
        4    1    3    3  502    0  0.25077665907E+03 -0.21638381161E+03  0.12839408308E+02  0.33147752558E+03  0.12699999809E+01 0.  1.
       -4    1    3    3    0  502 -0.25077665907E+03  0.21638381161E+03  0.37941916491E+03  0.50365802114E+03  0.12699999809E+01 0. -1.
</event>
<event>
 5   0  0.2439375E-02  0.6813539E+03  0.7818609E-02  0.9749662E-01
        3   -1    0    0  501    0  0.00000000000E+00  0.00000000000E+00  0.27512262159E+03  0.27512264013E+03  0.10100000352E+00 0. -1.
       -3   -1    0    0    0  501  0.00000000000E+00  0.00000000000E+00 -0.42185107434E+03  0.42185108643E+03  0.10100000352E+00 0.  1.
    10030    2    1    2    0    0  0.00000000000E+00  0.00000000000E+00 -0.14672845275E+03  0.69697372656E+03  0.68135389973E+03 0.  0.
        5    1    3    3  502    0  0.18706851443E+03  0.16393247256E+03  0.16471632451E+03  0.29836561835E+03  0.46999998093E+01 0. -1.
       -5    1    3    3    0  502 -0.18706851443E+03 -0.16393247256E+03 -0.31144477727E+03  0.39860810822E+03  0.46999998093E+01 0.  1.
</event>
<event>
 5   0  0.3755872E-02  0.7180854E+03  0.7818609E-02  0.9686794E-01
        1   -1    0    0  501    0  0.00000000000E+00  0.00000000000E+00  0.49369080823E+03  0.49369080826E+03  0.50400001928E-02 0.  1.
       -1   -1    0    0    0  501  0.00000000000E+00  0.00000000000E+00 -0.26111818592E+03  0.26111818597E+03  0.50400001928E-02 0. -1.
    10030    2    1    2    0    0  0.00000000000E+00  0.00000000000E+00  0.23257262231E+03  0.75480899423E+03  0.71808536618E+03 0.  0.
        2    1    3    3  502    0 -0.32268890753E+02  0.35758903682E+03  0.11698964221E+03  0.37762120829E+03  0.25500000920E-02 0. -1.
       -2    1    3    3    0  502  0.32268890753E+02 -0.35758903682E+03  0.11558298010E+03  0.37718778593E+03  0.25500000920E-02 0.  1.
</event>
<event>
 5   0  0.5987810E-02  0.7063220E+03  0.7818609E-02  0.9706481E-01
        2   -1    0    0  501    0  0.00000000000E+00  0.00000000000E+00  0.62850899969E+03  0.62850899969E+03  0.25500000920E-02 0. -1.
       -2   -1    0    0    0  501  0.00000000000E+00  0.00000000000E+00 -0.19844216501E+03  0.19844216503E+03  0.25500000920E-02 0.  1.
    10030    2    1    2    0    0  0.00000000000E+00  0.00000000000E+00  0.43006683468E+03  0.82695116472E+03  0.70632198503E+03 0.  0.
        5    1    3    3  502    0 -0.11155902882E+03 -0.31879568270E+03  0.33571228715E+03  0.47623621656E+03  0.46999998093E+01 0. -1.
       -5    1    3    3    0  502  0.11155902882E+03  0.31879568270E+03  0.94354547523E+02  0.35071494815E+03  0.46999998093E+01 0.  1.
</event>
<event>
 5   0  0.3749730E-02  0.6693152E+03  0.7818609E-02  0.9771196E-01
       -1   -1    0    0    0  501  0.00000000000E+00  0.00000000000E+00  0.34283466145E+03  0.34283466148E+03  0.50400001928E-02 0.  1.
        1   -1    0    0  501    0  0.00000000000E+00  0.00000000000E+00 -0.32667561739E+03  0.32667561742E+03  0.50400001928E-02 0. -1.
    10030    2    1    2    0    0  0.00000000000E+00  0.00000000000E+00  0.16159044062E+02  0.66951027891E+03  0.66931524625E+03 0.  0.
        4    1    3    3  502    0  0.18591910461E+03  0.15053426712E+03 -0.22601352583E+03  0.32910515917E+03  0.12699999809E+01 0. -1.
       -4    1    3    3    0  502 -0.18591910461E+03 -0.15053426712E+03  0.24217256989E+03  0.34040511974E+03  0.12699999809E+01 0.  1.
</event>
<event>
 5   0  0.6131198E-02  0.7043782E+03  0.7818609E-02  0.9709774E-01
       -2   -1    0    0    0  501  0.00000000000E+00  0.00000000000E+00  0.13195506295E+03  0.13195506298E+03  0.25500000920E-02 0.  1.
        2   -1    0    0  501    0  0.00000000000E+00  0.00000000000E+00 -0.93999554030E+03  0.93999554031E+03  0.25500000920E-02 0. -1.
    10030    2    1    2    0    0  0.00000000000E+00  0.00000000000E+00 -0.80804047735E+03  0.10719506033E+04  0.70437822429E+03 0.  0.
        1    1    3    3  502    0  0.16534001504E+03 -0.69413010318E+01 -0.87714265955E+03  0.89261679765E+03  0.50400001928E-02 0. -1.
       -1    1    3    3    0  502 -0.16534001504E+03  0.69413010318E+01  0.69102182197E+02  0.17933380563E+03  0.50400001928E-02 0.  1.
</event>
<event>
 5   0  0.5987810E-02  0.6681768E+03  0.7818609E-02  0.9773257E-01
       -2   -1    0    0    0  501  0.00000000000E+00  0.00000000000E+00  0.22182166125E+03  0.22182166127E+03  0.25500000920E-02 0. -1.
        2   -1    0    0  501    0  0.00000000000E+00  0.00000000000E+00 -0.50317471042E+03  0.50317471042E+03  0.25500000920E-02 0.  1.
    10030    2    1    2    0    0  0.00000000000E+00  0.00000000000E+00 -0.28135304917E+03  0.72499637169E+03  0.66817677353E+03 0.  0.
        5    1    3    3  502    0  0.25025446038E+03  0.22112565819E+03 -0.13165644732E+03  0.35899771834E+03  0.46999998093E+01 0.  1.
       -5    1    3    3    0  502 -0.25025446038E+03 -0.22112565819E+03 -0.14969660185E+03  0.36599865335E+03  0.46999998093E+01 0. -1.
</event>
<event>
 5   0  0.5899787E-02  0.7045858E+03  0.7818609E-02  0.9709422E-01
       -2   -1    0    0    0  501  0.00000000000E+00  0.00000000000E+00  0.60117075470E+03  0.60117075471E+03  0.25500000920E-02 0. -1.
        2   -1    0    0  501    0  0.00000000000E+00  0.00000000000E+00 -0.20644763770E+03  0.20644763772E+03  0.25500000920E-02 0.  1.
    10030    2    1    2    0    0  0.00000000000E+00  0.00000000000E+00  0.39472311700E+03  0.80761839242E+03  0.70458578518E+03 0.  0.
        2    1    3    3  502    0 -0.34837678396E+03  0.44068274659E+02  0.16490304956E+03  0.38794511493E+03  0.25500000920E-02 0. -1.
       -2    1    3    3    0  502  0.34837678396E+03 -0.44068274659E+02  0.22982006745E+03  0.41967327750E+03  0.25500000920E-02 0.  1.
</event>
<event>
 5   0  0.3439015E-02  0.6881477E+03  0.7818609E-02  0.9737719E-01
       -1   -1    0    0    0  501  0.00000000000E+00  0.00000000000E+00  0.80415780600E+02  0.80415780758E+02  0.50400001928E-02 0. -1.
        1   -1    0    0  501    0  0.00000000000E+00  0.00000000000E+00 -0.14721837514E+04  0.14721837514E+04  0.50400001928E-02 0.  1.
    10030    2    1    2    0    0  0.00000000000E+00  0.00000000000E+00 -0.13917679708E+04  0.15525995322E+04  0.68814767510E+03 0.  0.
        1    1    3    3  502    0 -0.65133858645E+02 -0.14633384715E+03 -0.13829362681E+04  0.13921812871E+04  0.50400001928E-02 0.  1.
       -1    1    3    3    0  502  0.65133858645E+02  0.14633384715E+03 -0.88317026838E+01  0.16041824510E+03  0.50400001928E-02 0. -1.
</event>
<event>
 5   0  0.3749730E-02  0.7100272E+03  0.7818609E-02  0.9700236E-01
        1   -1    0    0  501    0  0.00000000000E+00  0.00000000000E+00  0.10455695668E+04  0.10455695668E+04  0.50400001928E-02 0.  1.
       -1   -1    0    0    0  501  0.00000000000E+00  0.00000000000E+00 -0.12054164047E+03  0.12054164057E+03  0.50400001928E-02 0. -1.
    10030    2    1    2    0    0  0.00000000000E+00  0.00000000000E+00  0.92502792632E+03  0.11661112074E+04  0.71002724137E+03 0.  0.
        4    1    3    3  502    0 -0.16225653364E+03  0.29912481986E+02 -0.53745310378E+02  0.17352841432E+03  0.12699999809E+01 0. -1.
       -4    1    3    3    0  502  0.16225653364E+03 -0.29912481986E+02  0.97877323670E+03  0.99258279306E+03  0.12699999809E+01 0.  1.
</event>
<event>
 5   0  0.5899787E-02  0.7013280E+03  0.7818609E-02  0.9714964E-01
        2   -1    0    0  501    0  0.00000000000E+00  0.00000000000E+00  0.17172695661E+03  0.17172695663E+03  0.25500000920E-02 0. -1.
       -2   -1    0    0    0  501  0.00000000000E+00  0.00000000000E+00 -0.71605083543E+03  0.71605083544E+03  0.25500000920E-02 0.  1.
    10030    2    1    2    0    0  0.00000000000E+00  0.00000000000E+00 -0.54432387882E+03  0.88777779207E+03  0.70132797109E+03 0.  0.
        2    1    3    3  502    0 -0.16857577786E+03 -0.11126853222E+03 -0.63501532163E+03  0.66636546868E+03  0.25500000920E-02 0.  1.
       -2    1    3    3    0  502  0.16857577786E+03  0.11126853222E+03  0.90691442808E+02  0.22141232339E+03  0.25500000920E-02 0. -1.
</event>
<event>
 5   0  0.5987810E-02  0.6941009E+03  0.7818609E-02  0.9727374E-01
        2   -1    0    0  501    0  0.00000000000E+00  0.00000000000E+00  0.18485307586E+03  0.18485307587E+03  0.25500000920E-02 0.  1.
       -2   -1    0    0    0  501  0.00000000000E+00  0.00000000000E+00 -0.65156621850E+03  0.65156621850E+03  0.25500000920E-02 0. -1.
    10030    2    1    2    0    0  0.00000000000E+00  0.00000000000E+00 -0.46671314264E+03  0.83641929437E+03  0.69410091377E+03 0.  0.
        5    1    3    3  502    0  0.16869783066E+03 -0.27159769962E+03 -0.70798247348E+02  0.32750381728E+03  0.46999998093E+01 0. -1.
       -5    1    3    3    0  502 -0.16869783066E+03  0.27159769962E+03 -0.39591489529E+03  0.50891547709E+03  0.46999998093E+01 0.  1.
</event>
<event>
 5   0  0.3749730E-02  0.8502977E+03  0.7818609E-02  0.9489938E-01
        1   -1    0    0  501    0  0.00000000000E+00  0.00000000000E+00  0.11369376148E+04  0.11369376148E+04  0.50400001928E-02 0. -1.
       -1   -1    0    0    0  501  0.00000000000E+00  0.00000000000E+00 -0.15898104722E+03  0.15898104730E+03  0.50400001928E-02 0.  1.
    10030    2    1    2    0    0  0.00000000000E+00  0.00000000000E+00  0.97795656757E+03  0.12959186621E+04  0.85029767183E+03 0.  0.
        4    1    3    3  502    0  0.27933639486E+03 -0.21522900886E+03  0.12703797057E+03  0.37482343392E+03  0.12699999809E+01 0.  1.
       -4    1    3    3    0  502 -0.27933639486E+03  0.21522900886E+03  0.85091859700E+03  0.92109522818E+03  0.12699999809E+01 0. -1.
</event>
<event>
 5   0  0.3755872E-02  0.6974924E+03  0.7818609E-02  0.9721530E-01
       -1   -1    0    0    0  501  0.00000000000E+00  0.00000000000E+00  0.15220856251E+03  0.15220856260E+03  0.50400001928E-02 0. -1.
        1   -1    0    0  501    0  0.00000000000E+00  0.00000000000E+00 -0.79906094724E+03  0.79906094726E+03  0.50400001928E-02 0.  1.
    10030    2    1    2    0    0  0.00000000000E+00  0.00000000000E+00 -0.64685238473E+03  0.95126950986E+03  0.69749241770E+03 0.  0.
        2    1    3    3  502    0  0.73770365776E+02 -0.12089849206E+03  0.11122111188E+03  0.18007956015E+03  0.25500000920E-02 0. -1.
       -2    1    3    3    0  502 -0.73770365776E+02  0.12089849206E+03 -0.75807349662E+03  0.77118994971E+03  0.25500000920E-02 0.  1.
</event>
<event>
 5   0  0.2439375E-02  0.7029735E+03  0.7818609E-02  0.9712161E-01
        3   -1    0    0  501    0  0.00000000000E+00  0.00000000000E+00  0.59772548789E+03  0.59772549643E+03  0.10100000352E+00 0.  1.
       -3   -1    0    0    0  501  0.00000000000E+00  0.00000000000E+00 -0.20668838323E+03  0.20668840791E+03  0.10100000352E+00 0. -1.
    10030    2    1    2    0    0  0.00000000000E+00  0.00000000000E+00  0.39103710466E+03  0.80441390434E+03  0.70297347907E+03 0.  0.
        4    1    3    3  502    0 -0.22104090183E+02  0.28334062202E+03  0.43217285092E+03  0.51724799165E+03  0.12699999809E+01 0.  1.
       -4    1    3    3    0  502  0.22104090183E+02 -0.28334062202E+03 -0.41135746262E+02  0.28716591269E+03  0.12699999809E+01 0. -1.
</event>
<event>
 5   0  0.6167756E-02  0.7126723E+03  0.7818609E-02  0.9695803E-01
       -2   -1    0    0    0  501  0.00000000000E+00  0.00000000000E+00  0.10581318846E+03  0.10581318849E+03  0.25500000920E-02 0. -1.
        2   -1    0    0  501    0  0.00000000000E+00  0.00000000000E+00 -0.11999966202E+04  0.11999966202E+04  0.25500000920E-02 0.  1.
    10030    2    1    2    0    0  0.00000000000E+00  0.00000000000E+00 -0.10941834317E+04  0.13058098087E+04  0.71267234698E+03 0.  0.
        4    1    3    3  502    0 -0.25097324959E+03 -0.11773743009E+03 -0.13687470623E+03  0.30916981185E+03  0.12699999809E+01 0. -1.
       -4    1    3    3    0  502  0.25097324959E+03  0.11773743009E+03 -0.95730872548E+03  0.99663999681E+03  0.12699999809E+01 0.  1.
</event>
<event>
 5   0  0.3601475E-02  0.7062498E+03  0.7818609E-02  0.9706603E-01
       -1   -1    0    0    0  501  0.00000000000E+00  0.00000000000E+00  0.37152147192E+03  0.37152147196E+03  0.50400001928E-02 0. -1.
        1   -1    0    0  501    0  0.00000000000E+00  0.00000000000E+00 -0.33563927534E+03  0.33563927538E+03  0.50400001928E-02 0.  1.
    10030    2    1    2    0    0  0.00000000000E+00  0.00000000000E+00  0.35882196582E+02  0.70716074733E+03  0.70624980746E+03 0.  0.
        5    1    3    3  502    0  0.87302498796E+02  0.27818942333E+02  0.35937870902E+03  0.37090533339E+03  0.46999998093E+01 0. -1.
       -5    1    3    3    0  502 -0.87302498796E+02 -0.27818942333E+02 -0.32349651243E+03  0.33625541394E+03  0.46999998093E+01 0.  1.
</event>
<event>
 5   0  0.6167756E-02  0.6299470E+03  0.7818609E-02  0.9845152E-01
        2   -1    0    0  501    0  0.00000000000E+00  0.00000000000E+00  0.55345421626E+03  0.55345421627E+03  0.25500000920E-02 0.  1.
       -2   -1    0    0    0  501  0.00000000000E+00  0.00000000000E+00 -0.17925297872E+03  0.17925297874E+03  0.25500000920E-02 0. -1.
    10030    2    1    2    0    0  0.00000000000E+00  0.00000000000E+00  0.37420123754E+03  0.73270719501E+03  0.62994703542E+03 0.  0.
        4    1    3    3  502    0  0.11221413022E+03  0.29355837598E+03  0.16275341217E+03  0.35391922413E+03  0.12699999809E+01 0. -1.
       -4    1    3    3    0  502 -0.11221413022E+03 -0.29355837598E+03  0.21144782537E+03  0.37878797088E+03  0.12699999809E+01 0.  1.
</event>
<event>
 5   0  0.6167756E-02  0.7236012E+03  0.7818609E-02  0.9677701E-01
        2   -1    0    0  501    0  0.00000000000E+00  0.00000000000E+00  0.81425334043E+03  0.81425334044E+03  0.25500000920E-02 0. -1.
       -2   -1    0    0    0  501  0.00000000000E+00  0.00000000000E+00 -0.16076038194E+03  0.16076038196E+03  0.25500000920E-02 0.  1.
    10030    2    1    2    0    0  0.00000000000E+00  0.00000000000E+00  0.65349295849E+03  0.97501372240E+03  0.72360121065E+03 0.  0.
        4    1    3    3  502    0 -0.12759426192E+03 -0.30409483520E+03  0.12623443414E+03  0.35311571720E+03  0.12699999809E+01 0.  1.
       -4    1    3    3    0  502  0.12759426192E+03  0.30409483520E+03  0.52725852436E+03  0.62189800520E+03  0.12699999809E+01 0. -1.
</event>
<event>
 5   0  0.6248886E-02  0.7237976E+03  0.7818609E-02  0.9677379E-01
        2   -1    0    0  501    0  0.00000000000E+00  0.00000000000E+00  0.98464340189E+03  0.98464340190E+03  0.25500000920E-02 0.  1.
       -2   -1    0    0    0  501  0.00000000000E+00  0.00000000000E+00 -0.13301336889E+03  0.13301336892E+03  0.25500000920E-02 0. -1.
    10030    2    1    2    0    0  0.00000000000E+00  0.00000000000E+00  0.85163003300E+03  0.11176567708E+04  0.72379758513E+03 0.  0.
        3    1    3    3  502    0 -0.70347330395E+02  0.30718260363E+03  0.15105568509E+03  0.34946777973E+03  0.10100000352E+00 0. -1.
       -3    1    3    3    0  502  0.70347330395E+02 -0.30718260363E+03  0.70057434791E+03  0.76818899109E+03  0.10100000352E+00 0.  1.
</event>
<event>
 5   0  0.3755872E-02  0.6943560E+03  0.7818609E-02  0.9726933E-01
       -1   -1    0    0    0  501  0.00000000000E+00  0.00000000000E+00  0.61992466228E+02  0.61992466433E+02  0.50400001928E-02 0.  1.
        1   -1    0    0  501    0  0.00000000000E+00  0.00000000000E+00 -0.19443098138E+04  0.19443098138E+04  0.50400001928E-02 0. -1.
    10030    2    1    2    0    0  0.00000000000E+00  0.00000000000E+00 -0.18823173476E+04  0.20063022802E+04  0.69435599135E+03 0.  0.
        2    1    3    3  502    0 -0.42906295590E+02 -0.80396333425E+02 -0.19091352961E+04  0.19113090015E+04  0.25500000920E-02 0. -1.
       -2    1    3    3    0  502  0.42906295590E+02  0.80396333425E+02  0.26817948507E+02  0.94993278700E+02  0.25500000920E-02 0.  1.
</event>
<event>
 5   0  0.3749730E-02  0.6891033E+03  0.7818609E-02  0.9736051E-01
        1   -1    0    0  501    0  0.00000000000E+00  0.00000000000E+00  0.11932769647E+04  0.11932769647E+04  0.50400001928E-02 0. -1.
       -1   -1    0    0    0  501  0.00000000000E+00  0.00000000000E+00 -0.99487259269E+02  0.99487259397E+02  0.50400001928E-02 0.  1.
    10030    2    1    2    0    0  0.00000000000E+00  0.00000000000E+00  0.10937897054E+04  0.12927642241E+04  0.68910334451E+03 0.  0.
        4    1    3    3  502    0  0.22055123555E+03  0.89507674162E+02  0.10142424891E+04  0.10417984022E+04  0.12699999809E+01 0. -1.
       -4    1    3    3    0  502 -0.22055123555E+03 -0.89507674162E+02  0.79547216331E+02  0.25096582190E+03  0.12699999809E+01 0.  1.
</event>
<event>
 5   0  0.3601475E-02  0.6790979E+03  0.7818609E-02  0.9753661E-01
        1   -1    0    0  501    0  0.00000000000E+00  0.00000000000E+00  0.26361695326E+03  0.26361695331E+03  0.50400001928E-02 0.  1.
       -1   -1    0    0    0  501  0.00000000000E+00  0.00000000000E+00 -0.43735239647E+03  0.43735239650E+03  0.50400001928E-02 0. -1.
    10030    2    1    2    0    0  0.00000000000E+00  0.00000000000E+00 -0.17373544321E+03  0.70096934981E+03  0.67909794960E+03 0.  0.
        5    1    3    3  502    0  0.86825710287E+02 -0.56822991569E+01 -0.42561461074E+03  0.43444318313E+03  0.46999998093E+01 0. -1.
       -5    1    3    3    0  502 -0.86825710287E+02  0.56822991569E+01  0.25187916753E+03  0.26652616668E+03  0.46999998093E+01 0.  1.
</event>
<event>
 5   0  0.6131198E-02  0.7111758E+03  0.7818609E-02  0.9698309E-01
       -2   -1    0    0    0  501  0.00000000000E+00  0.00000000000E+00  0.82513576407E+03  0.82513576407E+03  0.25500000920E-02 0. -1.
        2   -1    0    0  501    0  0.00000000000E+00  0.00000000000E+00 -0.15323873476E+03  0.15323873478E+03  0.25500000920E-02 0.  1.
    10030    2    1    2    0    0  0.00000000000E+00  0.00000000000E+00  0.67189702931E+03  0.97837449885E+03  0.71117581653E+03 0.  0.
        1    1    3    3  502    0  0.20675452272E+03  0.25428568791E+03  0.52574777191E+03  0.61953156774E+03  0.50400001928E-02 0. -1.
       -1    1    3    3    0  502 -0.20675452272E+03 -0.25428568791E+03  0.14614925740E+03  0.35884293111E+03  0.50400001928E-02 0.  1.
</event>
<event>
 5   0  0.5987810E-02  0.7012455E+03  0.7818609E-02  0.9715105E-01
       -2   -1    0    0    0  501  0.00000000000E+00  0.00000000000E+00  0.88098350073E+02  0.88098350110E+02  0.25500000920E-02 0. -1.
        2   -1    0    0  501    0  0.00000000000E+00  0.00000000000E+00 -0.13954441770E+04  0.13954441770E+04  0.25500000920E-02 0.  1.
    10030    2    1    2    0    0  0.00000000000E+00  0.00000000000E+00 -0.13073458269E+04  0.14835425271E+04  0.70124554798E+03 0.  0.
        5    1    3    3  502    0 -0.32386849722E+03 -0.13377314288E+03 -0.62972078731E+03  0.72066387256E+03  0.46999998093E+01 0.  1.
       -5    1    3    3    0  502  0.32386849722E+03  0.13377314288E+03 -0.67762503961E+03  0.76287865454E+03  0.46999998093E+01 0. -1.
</event>
<event>
 5   0  0.6167756E-02  0.6949855E+03  0.7818609E-02  0.9725846E-01
        2   -1    0    0  501    0  0.00000000000E+00  0.00000000000E+00  0.44547146908E+03  0.44547146909E+03  0.25500000920E-02 0.  1.
       -2   -1    0    0    0  501  0.00000000000E+00  0.00000000000E+00 -0.27106383963E+03  0.27106383964E+03  0.25500000920E-02 0. -1.
    10030    2    1    2    0    0  0.00000000000E+00  0.00000000000E+00  0.17440762946E+03  0.71653530873E+03  0.69498548722E+03 0.  0.
        4    1    3    3  502    0  0.16632543349E+03 -0.63148498640E+02  0.39495174040E+03  0.43317476017E+03  0.12699999809E+01 0.  1.
       -4    1    3    3    0  502 -0.16632543349E+03  0.63148498640E+02 -0.22054411094E+03  0.28336054856E+03  0.12699999809E+01 0. -1.
</event>
<event>
 5   0  0.3601475E-02  0.7177924E+03  0.7818609E-02  0.9687279E-01
        1   -1    0    0  501    0  0.00000000000E+00  0.00000000000E+00  0.70188880496E+03  0.70188880498E+03  0.50400001928E-02 0.  1.
       -1   -1    0    0    0  501  0.00000000000E+00  0.00000000000E+00 -0.18351410957E+03  0.18351410964E+03  0.50400001928E-02 0. -1.
    10030    2    1    2    0    0  0.00000000000E+00  0.00000000000E+00  0.51837469539E+03  0.88540291461E+03  0.71779244659E+03 0.  0.
        5    1    3    3  502    0 -0.23014032739E+03 -0.17622283772E+03 -0.17961558114E+01  0.28990407896E+03  0.46999998093E+01 0. -1.
       -5    1    3    3    0  502  0.23014032739E+03  0.17622283772E+03  0.52017085120E+03  0.59549883565E+03  0.46999998093E+01 0.  1.
</event>
<event>
 5   0  0.3439015E-02  0.6911355E+03  0.7818609E-02  0.9732513E-01
        1   -1    0    0  501    0  0.00000000000E+00  0.00000000000E+00  0.10792747031E+04  0.10792747031E+04  0.50400001928E-02 0.  1.
       -1   -1    0    0    0  501  0.00000000000E+00  0.00000000000E+00 -0.11064567753E+03  0.11064567764E+03  0.50400001928E-02 0. -1.
    10030    2    1    2    0    0  0.00000000000E+00  0.00000000000E+00  0.96862902558E+03  0.11899203808E+04  0.69113553184E+03 0.  0.
        1    1    3    3  502    0 -0.18777362745E+02 -0.58207061719E+02 -0.10125319611E+03  0.11829142460E+03  0.50400001928E-02 0. -1.
       -1    1    3    3    0  502  0.18777362745E+02  0.58207061719E+02  0.10698822217E+04  0.10716289562E+04  0.50400001928E-02 0.  1.
</event>
<event>
 5   0  0.2439375E-02  0.7025341E+03  0.7818609E-02  0.9712908E-01
        4   -1    0    0  501    0  0.00000000000E+00  0.00000000000E+00  0.10704702207E+04  0.10704709741E+04  0.12699999809E+01 0.  1.
       -4   -1    0    0    0  501  0.00000000000E+00  0.00000000000E+00 -0.11526145299E+03  0.11526844947E+03  0.12699999809E+01 0. -1.
    10030    2    1    2    0    0  0.00000000000E+00  0.00000000000E+00  0.95520876775E+03  0.11857394236E+04  0.70253412061E+03 0.  0.
        3    1    3    3  502    0 -0.74798723836E+02  0.33757377058E+03  0.58216155592E+03  0.67709894924E+03  0.10100000352E+00 0.  1.
       -3    1    3    3    0  502  0.74798723836E+02 -0.33757377058E+03  0.37304721183E+03  0.50864047433E+03  0.10100000352E+00 0. -1.
</event>
<event>
 5   0  0.3755872E-02  0.6950721E+03  0.7818609E-02  0.9725697E-01
        1   -1    0    0  501    0  0.00000000000E+00  0.00000000000E+00  0.34831685472E+03  0.34831685476E+03  0.50400001928E-02 0. -1.
       -1   -1    0    0    0  501  0.00000000000E+00  0.00000000000E+00 -0.34675695924E+03  0.34675695928E+03  0.50400001928E-02 0.  1.
    10030    2    1    2    0    0  0.00000000000E+00  0.00000000000E+00  0.15598954748E+01  0.69507381404E+03  0.69507206366E+03 0.  0.
        2    1    3    3  502    0 -0.17416993999E+03 -0.29249195517E+03  0.70741410208E+02  0.34769391562E+03  0.25500000920E-02 0. -1.
       -2    1    3    3    0  502  0.17416993999E+03  0.29249195517E+03 -0.69181514733E+02  0.34737989842E+03  0.25500000920E-02 0.  1.
</event>
<event>
 5   0  0.3717372E-02  0.7071466E+03  0.7818609E-02  0.9705088E-01
        1   -1    0    0  501    0  0.00000000000E+00  0.00000000000E+00  0.36008905109E+03  0.36008905113E+03  0.50400001928E-02 0. -1.
       -1   -1    0    0    0  501  0.00000000000E+00  0.00000000000E+00 -0.34717545780E+03  0.34717545784E+03  0.50400001928E-02 0.  1.
    10030    2    1    2    0    0  0.00000000000E+00  0.00000000000E+00  0.12913593288E+02  0.70726450897E+03  0.70714660768E+03 0.  0.
        3    1    3    3  502    0 -0.63295308411E+01  0.39439694051E+02 -0.34491149545E+03  0.34721679441E+03  0.10100000352E+00 0.  1.
       -3    1    3    3    0  502  0.63295308411E+01 -0.39439694051E+02  0.35782508874E+03  0.36004771456E+03  0.10100000352E+00 0. -1.
</event>
<event>
 5   0  0.6131198E-02  0.6895936E+03  0.7818609E-02  0.9735196E-01
        2   -1    0    0  501    0  0.00000000000E+00  0.00000000000E+00  0.57046239187E+03  0.57046239187E+03  0.25500000920E-02 0.  1.
       -2   -1    0    0    0  501  0.00000000000E+00  0.00000000000E+00 -0.20840081368E+03  0.20840081370E+03  0.25500000920E-02 0. -1.
    10030    2    1    2    0    0  0.00000000000E+00  0.00000000000E+00  0.36206157819E+03  0.77886320557E+03  0.68959358073E+03 0.  0.
        1    1    3    3  502    0  0.19812003970E+03 -0.27280615870E+03  0.26255564089E+03  0.42732916463E+03  0.50400001928E-02 0.  1.
       -1    1    3    3    0  502 -0.19812003970E+03  0.27280615870E+03  0.99505937291E+02  0.35153404094E+03  0.50400001928E-02 0. -1.
</event>
<event>
 5   0  0.3755872E-02  0.7107243E+03  0.7818609E-02  0.9699066E-01
       -1   -1    0    0    0  501  0.00000000000E+00  0.00000000000E+00  0.98363302128E+02  0.98363302257E+02  0.50400001928E-02 0.  1.
        1   -1    0    0  501    0  0.00000000000E+00  0.00000000000E+00 -0.12838349377E+04  0.12838349377E+04  0.50400001928E-02 0. -1.
    10030    2    1    2    0    0  0.00000000000E+00  0.00000000000E+00 -0.11854716356E+04  0.13821982400E+04  0.71072426147E+03 0.  0.
        2    1    3    3  502    0 -0.11049731583E+03  0.57103694317E+02  0.54648405974E+02  0.13585631009E+03  0.25500000920E-02 0.  1.
       -2    1    3    3    0  502  0.11049731583E+03 -0.57103694317E+02 -0.12401200416E+04  0.12463419299E+04  0.25500000920E-02 0. -1.
</event>
<event>
 5   0  0.3749730E-02  0.8404435E+03  0.7818609E-02  0.9503254E-01
       -1   -1    0    0    0  501  0.00000000000E+00  0.00000000000E+00  0.30860844831E+03  0.30860844835E+03  0.50400001928E-02 0.  1.
        1   -1    0    0  501    0  0.00000000000E+00  0.00000000000E+00 -0.57220189841E+03  0.57220189843E+03  0.50400001928E-02 0. -1.
    10030    2    1    2    0    0  0.00000000000E+00  0.00000000000E+00 -0.26359345010E+03  0.88081034679E+03  0.84044354960E+03 0.  0.
        4    1    3    3  502    0 -0.40697992716E+03 -0.52739394433E+02 -0.22652975460E+03  0.46875521059E+03  0.12699999809E+01 0. -1.
       -4    1    3    3    0  502  0.40697992716E+03  0.52739394433E+02 -0.37063695498E+02  0.41205513619E+03  0.12699999809E+01 0.  1.
</event>
<event>
 5   0  0.6167756E-02  0.7766428E+03  0.7818609E-02  0.9594455E-01
        2   -1    0    0  501    0  0.00000000000E+00  0.00000000000E+00  0.36143924482E+03  0.36143924483E+03  0.25500000920E-02 0.  1.
       -2   -1    0    0    0  501  0.00000000000E+00  0.00000000000E+00 -0.41720290437E+03  0.41720290438E+03  0.25500000920E-02 0. -1.
    10030    2    1    2    0    0  0.00000000000E+00  0.00000000000E+00 -0.55763659551E+02  0.77864214921E+03  0.77664278198E+03 0.  0.
        4    1    3    3  502    0 -0.17626983829E+03  0.29713661058E+03  0.14986153948E+03  0.37659170882E+03  0.12699999809E+01 0.  1.
       -4    1    3    3    0  502  0.17626983829E+03 -0.29713661058E+03 -0.20562519903E+03  0.40205044039E+03  0.12699999809E+01 0. -1.
</event>
<event>
 5   0  0.3601475E-02  0.7135258E+03  0.7818609E-02  0.9694377E-01
        1   -1    0    0  501    0  0.00000000000E+00  0.00000000000E+00  0.52115258683E+03  0.52115258685E+03  0.50400001928E-02 0. -1.
       -1   -1    0    0    0  501  0.00000000000E+00  0.00000000000E+00 -0.24422745894E+03  0.24422745899E+03  0.50400001928E-02 0.  1.
    10030    2    1    2    0    0  0.00000000000E+00  0.00000000000E+00  0.27692512789E+03  0.76538004584E+03  0.71352581461E+03 0.  0.
        5    1    3    3  502    0  0.19709089706E+03 -0.28551872257E+03  0.22751330545E+03  0.41490981767E+03  0.46999998093E+01 0. -1.
       -5    1    3    3    0  502 -0.19709089706E+03  0.28551872257E+03  0.49411822437E+02  0.35047022817E+03  0.46999998093E+01 0.  1.
</event>
<event>
 5   0  0.3601475E-02  0.7026385E+03  0.7818609E-02  0.9712731E-01
        1   -1    0    0  501    0  0.00000000000E+00  0.00000000000E+00  0.55576125110E+03  0.55576125113E+03  0.50400001928E-02 0.  1.
       -1   -1    0    0    0  501  0.00000000000E+00  0.00000000000E+00 -0.22208316142E+03  0.22208316148E+03  0.50400001928E-02 0. -1.
    10030    2    1    2    0    0  0.00000000000E+00  0.00000000000E+00  0.33367808968E+03  0.77784441261E+03  0.70263850072E+03 0.  0.
        5    1    3    3  502    0 -0.34238953230E+02  0.34397628687E+03  0.97606207278E+02  0.35922284663E+03  0.46999998093E+01 0. -1.
       -5    1    3    3    0  502  0.34238953230E+02 -0.34397628687E+03  0.23607188240E+03  0.41862156598E+03  0.46999998093E+01 0.  1.
</event>
<event>
 5   0  0.2439375E-02  0.6982487E+03  0.7818609E-02  0.9720232E-01
        3   -1    0    0  501    0  0.00000000000E+00  0.00000000000E+00  0.13904824551E+03  0.13904828219E+03  0.10100000352E+00 0.  1.
       -3   -1    0    0    0  501  0.00000000000E+00  0.00000000000E+00 -0.87658631163E+03  0.87658631745E+03  0.10100000352E+00 0. -1.
    10030    2    1    2    0    0  0.00000000000E+00  0.00000000000E+00 -0.73753806612E+03  0.10156345996E+04  0.69824869567E+03 0.  0.
        1    1    3    3  502    0 -0.30470587582E+03  0.84564107009E+02 -0.15355991709E+03  0.35153578355E+03  0.50400001928E-02 0.  1.
       -1    1    3    3    0  502  0.30470587582E+03 -0.84564107009E+02 -0.58397814903E+03  0.66409881608E+03  0.50400001928E-02 0. -1.
</event>
<event>
 5   0  0.3755872E-02  0.6740595E+03  0.7818609E-02  0.9762652E-01
        1   -1    0    0  501    0  0.00000000000E+00  0.00000000000E+00  0.56103898622E+03  0.56103898624E+03  0.50400001928E-02 0. -1.
       -1   -1    0    0    0  501  0.00000000000E+00  0.00000000000E+00 -0.20246194283E+03  0.20246194290E+03  0.50400001928E-02 0.  1.
    10030    2    1    2    0    0  0.00000000000E+00  0.00000000000E+00  0.35857704338E+03  0.76350092913E+03  0.67405947271E+03 0.  0.
        2    1    3    3  502    0 -0.31958588799E+02  0.26802215747E+03  0.40788957877E+03  0.48911260132E+03  0.25500000920E-02 0. -1.
       -2    1    3    3    0  502  0.31958588799E+02 -0.26802215747E+03 -0.49312535387E+02  0.27438832782E+03  0.25500000920E-02 0.  1.
</event>
<event>
 5   0  0.6131198E-02  0.6971254E+03  0.7818609E-02  0.9722161E-01
        2   -1    0    0  501    0  0.00000000000E+00  0.00000000000E+00  0.75010504371E+03  0.75010504371E+03  0.25500000920E-02 0. -1.
       -2   -1    0    0    0  501  0.00000000000E+00  0.00000000000E+00 -0.16197191292E+03  0.16197191294E+03  0.25500000920E-02 0.  1.
    10030    2    1    2    0    0  0.00000000000E+00  0.00000000000E+00  0.58813313079E+03  0.91207695665E+03  0.69712537991E+03 0.  0.
        1    1    3    3  502    0 -0.28680187118E+03  0.18819474643E+03  0.21316742281E+03  0.40387241311E+03  0.50400001928E-02 0.  1.
       -1    1    3    3    0  502  0.28680187118E+03 -0.18819474643E+03  0.37496570798E+03  0.50820454355E+03  0.50400001928E-02 0. -1.
</event>
<event>
 5   0  0.3755872E-02  0.7073518E+03  0.7818609E-02  0.9704742E-01
       -1   -1    0    0    0  501  0.00000000000E+00  0.00000000000E+00  0.13255379154E+03  0.13255379163E+03  0.50400001928E-02 0. -1.
        1   -1    0    0  501    0  0.00000000000E+00  0.00000000000E+00 -0.94366712140E+03  0.94366712141E+03  0.50400001928E-02 0.  1.
    10030    2    1    2    0    0  0.00000000000E+00  0.00000000000E+00 -0.81111332986E+03  0.10762209130E+04  0.70735183594E+03 0.  0.
        2    1    3    3  502    0 -0.26829913714E+03 -0.19459950399E+02 -0.56200657266E+02  0.27481199127E+03  0.25500000920E-02 0. -1.
       -2    1    3    3    0  502  0.26829913714E+03  0.19459950399E+02 -0.75491267260E+03  0.80140892178E+03  0.25500000920E-02 0.  1.
</event>
<event>
 5   0  0.6131198E-02  0.6709522E+03  0.7818609E-02  0.9768239E-01
        2   -1    0    0  501    0  0.00000000000E+00  0.00000000000E+00  0.19047658863E+04  0.19047658863E+04  0.25500000920E-02 0.  1.
       -2   -1    0    0    0  501  0.00000000000E+00  0.00000000000E+00 -0.59085596606E+02  0.59085596661E+02  0.25500000920E-02 0. -1.
    10030    2    1    2    0    0  0.00000000000E+00  0.00000000000E+00  0.18456802897E+04  0.19638514829E+04  0.67095224521E+03 0.  0.
        1    1    3    3  502    0  0.15461869351E+03 -0.22730130589E+03  0.36004543474E+03  0.45299618005E+03  0.50400001928E-02 0.  1.
       -1    1    3    3    0  502 -0.15461869351E+03  0.22730130589E+03  0.14856348549E+04  0.15108553029E+04  0.50400001928E-02 0. -1.
</event>
<event>
 5   0  0.6248886E-02  0.6964194E+03  0.7818609E-02  0.9723375E-01
       -2   -1    0    0    0  501  0.00000000000E+00  0.00000000000E+00  0.18737543919E+03  0.18737543921E+03  0.25500000920E-02 0.  1.
        2   -1    0    0  501    0  0.00000000000E+00  0.00000000000E+00 -0.64709658640E+03  0.64709658641E+03  0.25500000920E-02 0. -1.
    10030    2    1    2    0    0  0.00000000000E+00  0.00000000000E+00 -0.45972114721E+03  0.83447202562E+03  0.69641943421E+03 0.  0.
        3    1    3    3  502    0  0.21604484549E+03  0.21525193277E+03 -0.28496178651E+02  0.30630183190E+03  0.10100000352E+00 0.  1.
       -3    1    3    3    0  502 -0.21604484549E+03 -0.21525193277E+03 -0.43122496856E+03  0.52817019372E+03  0.10100000352E+00 0. -1.
</event>
<event>
 5   0  0.6248886E-02  0.7365178E+03  0.7818609E-02  0.9656742E-01
       -2   -1    0    0    0  501  0.00000000000E+00  0.00000000000E+00  0.22036003400E+03  0.22036003402E+03  0.25500000920E-02 0.  1.
        2   -1    0    0  501    0  0.00000000000E+00  0.00000000000E+00 -0.61542295004E+03  0.61542295004E+03  0.25500000920E-02 0. -1.
    10030    2    1    2    0    0  0.00000000000E+00  0.00000000000E+00 -0.39506291603E+03  0.83578298406E+03  0.73651781297E+03 0.  0.
        3    1    3    3  502    0 -0.11239582161E+03  0.22955872341E+03 -0.49837473371E+03  0.56009589680E+03  0.10100000352E+00 0. -1.
       -3    1    3    3    0  502  0.11239582161E+03 -0.22955872341E+03  0.10331181768E+03  0.27568708726E+03  0.10100000352E+00 0.  1.
</event>
<event>
 5   0  0.3439015E-02  0.7001282E+03  0.7818609E-02  0.9717013E-01
       -1   -1    0    0    0  501  0.00000000000E+00  0.00000000000E+00  0.60361910338E+03  0.60361910341E+03  0.50400001928E-02 0. -1.
        1   -1    0    0  501    0  0.00000000000E+00  0.00000000000E+00 -0.20301690175E+03  0.20301690181E+03  0.50400001928E-02 0.  1.
    10030    2    1    2    0    0  0.00000000000E+00  0.00000000000E+00  0.40060220163E+03  0.80663600522E+03  0.70012821752E+03 0.  0.
        1    1    3    3  502    0 -0.27093924483E+03  0.19120479380E+03  0.71090618190E+02  0.33914779017E+03  0.50400001928E-02 0. -1.
       -1    1    3    3    0  502  0.27093924483E+03 -0.19120479380E+03  0.32951158344E+03  0.46748821505E+03  0.50400001928E-02 0.  1.
</event>
<event>
 5   0  0.3717372E-02  0.7312005E+03  0.7818609E-02  0.9665314E-01
       -1   -1    0    0    0  501  0.00000000000E+00  0.00000000000E+00  0.18240483070E+03  0.18240483077E+03  0.50400001928E-02 0. -1.
        1   -1    0    0  501    0  0.00000000000E+00  0.00000000000E+00 -0.73278518183E+03  0.73278518185E+03  0.50400001928E-02 0.  1.
    10030    2    1    2    0    0  0.00000000000E+00  0.00000000000E+00 -0.55038035114E+03  0.91519001262E+03  0.73120053903E+03 0.  0.
        3    1    3    3  502    0 -0.25978672130E+02 -0.28323729319E+03 -0.56269751706E+03  0.63049723359E+03  0.10100000352E+00 0.  1.
       -3    1    3    3    0  502  0.25978672130E+02  0.28323729319E+03  0.12317165922E+02  0.28469277903E+03  0.10100000352E+00 0. -1.
</event>
<event>
 5   0  0.6248886E-02  0.7011229E+03  0.7818609E-02  0.9715314E-01
        2   -1    0    0  501    0  0.00000000000E+00  0.00000000000E+00  0.14020226562E+03  0.14020226564E+03  0.25500000920E-02 0.  1.
       -2   -1    0    0    0  501  0.00000000000E+00  0.00000000000E+00 -0.87654309280E+03  0.87654309280E+03  0.25500000920E-02 0. -1.
    10030    2    1    2    0    0  0.00000000000E+00  0.00000000000E+00 -0.73634082718E+03  0.10167453584E+04  0.70112289233E+03 0.  0.
        3    1    3    3  502    0  0.19903735016E+03 -0.21279058936E+03 -0.85489670824E+02  0.30365143783E+03  0.10100000352E+00 0.  1.
       -3    1    3    3    0  502 -0.19903735016E+03  0.21279058936E+03 -0.65085115636E+03  0.71309392061E+03  0.10100000352E+00 0. -1.
</event>
<event>
 5   0  0.3717372E-02  0.7113700E+03  0.7818609E-02  0.9697983E-01
        1   -1    0    0  501    0  0.00000000000E+00  0.00000000000E+00  0.98074381019E+03  0.98074381021E+03  0.50400001928E-02 0.  1.
       -1   -1    0    0    0  501  0.00000000000E+00  0.00000000000E+00 -0.12899578239E+03  0.12899578249E+03  0.50400001928E-02 0. -1.
    10030    2    1    2    0    0  0.00000000000E+00  0.00000000000E+00  0.85174802780E+03  0.11097395927E+04  0.71136998864E+03 0.  0.
        3    1    3    3  502    0 -0.75983064992E+02 -0.11804300184E+02 -0.11587416761E+03  0.13906689250E+03  0.10100000352E+00 0. -1.
       -3    1    3    3    0  502  0.75983064992E+02  0.11804300184E+02  0.96762219541E+03  0.97067270020E+03  0.10100000352E+00 0.  1.
</event>
<event>
 5   0  0.5899787E-02  0.6874820E+03  0.7818609E-02  0.9738882E-01
        2   -1    0    0  501    0  0.00000000000E+00  0.00000000000E+00  0.13219320683E+04  0.13219320683E+04  0.25500000920E-02 0.  1.
       -2   -1    0    0    0  501  0.00000000000E+00  0.00000000000E+00 -0.89382712876E+02  0.89382712913E+02  0.25500000920E-02 0. -1.
    10030    2    1    2    0    0  0.00000000000E+00  0.00000000000E+00  0.12325493555E+04  0.14113147812E+04  0.68748199841E+03 0.  0.
        2    1    3    3  502    0 -0.31237745200E+03  0.14124480098E+03  0.56482533958E+03  0.66072492806E+03  0.25500000920E-02 0. -1.
       -2    1    3    3    0  502  0.31237745200E+03 -0.14124480098E+03  0.66772401587E+03  0.75058985318E+03  0.25500000920E-02 0.  1.
</event>
<event>
 5   0  0.3439015E-02  0.7097236E+03  0.7818609E-02  0.9700747E-01
       -1   -1    0    0    0  501  0.00000000000E+00  0.00000000000E+00  0.34015615702E+03  0.34015615705E+03  0.50400001928E-02 0. -1.
        1   -1    0    0  501    0  0.00000000000E+00  0.00000000000E+00 -0.37020318992E+03  0.37020318996E+03  0.50400001928E-02 0.  1.
    10030    2    1    2    0    0  0.00000000000E+00  0.00000000000E+00 -0.30047032907E+02  0.71035934701E+03  0.70972359246E+03 0.  0.
        1    1    3    3  502    0  0.26322443280E+03  0.21563943373E+03 -0.11580843833E+03  0.35944271006E+03  0.50400001928E-02 0. -1.
       -1    1    3    3    0  502 -0.26322443280E+03 -0.21563943373E+03  0.85761405421E+02  0.35091663695E+03  0.50400001928E-02 0.  1.
</event>
<event>
 5   0  0.3439015E-02  0.7061577E+03  0.7818609E-02  0.9706759E-01
       -1   -1    0    0    0  501  0.00000000000E+00  0.00000000000E+00  0.13395903522E+03  0.13395903531E+03  0.50400001928E-02 0. -1.
        1   -1    0    0  501    0  0.00000000000E+00  0.00000000000E+00 -0.93061778532E+03  0.93061778533E+03  0.50400001928E-02 0.  1.
    10030    2    1    2    0    0  0.00000000000E+00  0.00000000000E+00 -0.79665875010E+03  0.10645768206E+04  0.70615766153E+03 0.  0.
        1    1    3    3  502    0  0.14248480853E+03  0.14479775621E+03  0.37030953089E+02  0.20649358919E+03  0.50400001928E-02 0. -1.
       -1    1    3    3    0  502 -0.14248480853E+03 -0.14479775621E+03 -0.83368970319E+03  0.85808323145E+03  0.50400001928E-02 0.  1.
</event>
<event>
 5   0  0.3755872E-02  0.6438795E+03  0.7818609E-02  0.9818332E-01
        1   -1    0    0  501    0  0.00000000000E+00  0.00000000000E+00  0.20703756699E+04  0.20703756699E+04  0.50400001928E-02 0. -1.
       -1   -1    0    0    0  501  0.00000000000E+00  0.00000000000E+00 -0.50061066950E+02  0.50061067203E+02  0.50400001928E-02 0.  1.
    10030    2    1    2    0    0  0.00000000000E+00  0.00000000000E+00  0.20203146029E+04  0.21204367371E+04  0.64387953934E+03 0.  0.
        2    1    3    3  502    0  0.50266043620E+02 -0.92836349110E+02  0.20117506918E+04  0.20145188281E+04  0.25500000920E-02 0. -1.
       -2    1    3    3    0  502 -0.50266043620E+02  0.92836349110E+02  0.85639111085E+01  0.10591790895E+03  0.25500000920E-02 0.  1.
</event>
<event>
 5   0  0.6167756E-02  0.7068250E+03  0.7818609E-02  0.9705631E-01
       -2   -1    0    0    0  501  0.00000000000E+00  0.00000000000E+00  0.51018955700E+02  0.51018955764E+02  0.25500000920E-02 0. -1.
        2   -1    0    0  501    0  0.00000000000E+00  0.00000000000E+00 -0.24481171812E+04  0.24481171812E+04  0.25500000920E-02 0.  1.
    10030    2    1    2    0    0  0.00000000000E+00  0.00000000000E+00 -0.23970982255E+04  0.24991361370E+04  0.70682496305E+03 0.  0.
        4    1    3    3  502    0  0.26395278453E+03  0.12162167226E+03 -0.48756252649E+03  0.56761054762E+03  0.12699999809E+01 0. -1.
       -4    1    3    3    0  502 -0.26395278453E+03 -0.12162167226E+03 -0.19095356990E+04  0.19315255893E+04  0.12699999809E+01 0.  1.
</event>
<event>
 5   0  0.3717372E-02  0.7171279E+03  0.7818609E-02  0.9688381E-01
       -1   -1    0    0    0  501  0.00000000000E+00  0.00000000000E+00  0.64288266705E+03  0.64288266707E+03  0.50400001928E-02 0. -1.
        1   -1    0    0  501    0  0.00000000000E+00  0.00000000000E+00 -0.19998690888E+03  0.19998690894E+03  0.50400001928E-02 0.  1.
    10030    2    1    2    0    0  0.00000000000E+00  0.00000000000E+00  0.44289575817E+03  0.84286957601E+03  0.71712793110E+03 0.  0.
        3    1    3    3  502    0  0.12162133191E+03 -0.10935463589E+03 -0.15359062308E+03  0.22436638444E+03  0.10100000352E+00 0.  1.
       -3    1    3    3    0  502 -0.12162133191E+03  0.10935463589E+03  0.59648638125E+03  0.61850319157E+03  0.10100000352E+00 0. -1.
</event>
<event>
 5   0  0.3601475E-02  0.7045048E+03  0.7818609E-02  0.9709559E-01
       -1   -1    0    0    0  501  0.00000000000E+00  0.00000000000E+00  0.11553498921E+03  0.11553498932E+03  0.50400001928E-02 0.  1.
        1   -1    0    0  501    0  0.00000000000E+00  0.00000000000E+00 -0.10739754482E+04  0.10739754482E+04  0.50400001928E-02 0. -1.
    10030    2    1    2    0    0  0.00000000000E+00  0.00000000000E+00 -0.95844045902E+03  0.11895104376E+04  0.70450476761E+03 0.  0.
        5    1    3    3  502    0 -0.25890537000E+03 -0.22153207358E+03 -0.62977714368E+03  0.71606549347E+03  0.46999998093E+01 0. -1.
       -5    1    3    3    0  502  0.25890537000E+03  0.22153207358E+03 -0.32866331534E+03  0.47344494410E+03  0.46999998093E+01 0.  1.
</event>
<event>
 5   0  0.3755872E-02  0.5834617E+03  0.7818609E-02  0.9940325E-01
        1   -1    0    0  501    0  0.00000000000E+00  0.00000000000E+00  0.35747441832E+03  0.35747441835E+03  0.50400001928E-02 0. -1.
       -1   -1    0    0    0  501  0.00000000000E+00  0.00000000000E+00 -0.23807825483E+03  0.23807825489E+03  0.50400001928E-02 0.  1.
    10030    2    1    2    0    0  0.00000000000E+00  0.00000000000E+00  0.11939616348E+03  0.59555267324E+03  0.58346168918E+03 0.  0.
        2    1    3    3  502    0 -0.78927321879E+01 -0.96384770183E+02  0.34063721754E+03  0.35409890302E+03  0.25500000920E-02 0. -1.
       -2    1    3    3    0  502  0.78927321879E+01  0.96384770183E+02 -0.22124105405E+03  0.24145377021E+03  0.25500000920E-02 0.  1.
</event>
<event>
 5   0  0.5899787E-02  0.6981636E+03  0.7818609E-02  0.9720378E-01
       -2   -1    0    0    0  501  0.00000000000E+00  0.00000000000E+00  0.89510866010E+02  0.89510866046E+02  0.25500000920E-02 0. -1.
        2   -1    0    0  501    0  0.00000000000E+00  0.00000000000E+00 -0.13613777298E+04  0.13613777298E+04  0.25500000920E-02 0.  1.
    10030    2    1    2    0    0  0.00000000000E+00  0.00000000000E+00 -0.12718668638E+04  0.14508885959E+04  0.69816358997E+03 0.  0.
        2    1    3    3  502    0  0.14265698878E+03 -0.44508028051E+02 -0.12915431835E+04  0.13001599039E+04  0.25500000920E-02 0.  1.
       -2    1    3    3    0  502 -0.14265698878E+03  0.44508028051E+02  0.19676319667E+02  0.15072869193E+03  0.25500000920E-02 0. -1.
</event>
<event>
 5   0  0.2439375E-02  0.7133517E+03  0.7818609E-02  0.9694668E-01
       -3   -1    0    0    0  501  0.00000000000E+00  0.00000000000E+00  0.64008395595E+03  0.64008396391E+03  0.10100000352E+00 0. -1.
        3   -1    0    0  501    0  0.00000000000E+00  0.00000000000E+00 -0.19875147527E+03  0.19875150093E+03  0.10100000352E+00 0.  1.
    10030    2    1    2    0    0  0.00000000000E+00  0.00000000000E+00  0.44133248068E+03  0.83883546484E+03  0.71335165141E+03 0.  0.
        2    1    3    3  502    0  0.72944398397E+01  0.22459004558E+02 -0.19783129437E+03  0.19923563129E+03  0.25500000920E-02 0.  1.
       -2    1    3    3    0  502 -0.72944398397E+01 -0.22459004558E+02  0.63916377505E+03  0.63959983355E+03  0.25500000920E-02 0. -1.
</event>
<event>
 5   0  0.6167756E-02  0.7265539E+03  0.7818609E-02  0.9672869E-01
        2   -1    0    0  501    0  0.00000000000E+00  0.00000000000E+00  0.91856385235E+03  0.91856385235E+03  0.25500000920E-02 0. -1.
       -2   -1    0    0    0  501  0.00000000000E+00  0.00000000000E+00 -0.14367006407E+03  0.14367006409E+03  0.25500000920E-02 0.  1.
    10030    2    1    2    0    0  0.00000000000E+00  0.00000000000E+00  0.77489378828E+03  0.10622339164E+04  0.72655385907E+03 0.  0.
        4    1    3    3  502    0  0.25996620877E+03 -0.16239320709E+03  0.10239287428E+03  0.32317162161E+03  0.12699999809E+01 0.  1.
       -4    1    3    3    0  502 -0.25996620877E+03  0.16239320709E+03  0.67250091400E+03  0.73906229484E+03  0.12699999809E+01 0. -1.
</event>
<event>
 5   0  0.6167756E-02  0.7001958E+03  0.7818609E-02  0.9716897E-01
        2   -1    0    0  501    0  0.00000000000E+00  0.00000000000E+00  0.10985637460E+04  0.10985637460E+04  0.25500000920E-02 0. -1.
       -2   -1    0    0    0  501  0.00000000000E+00  0.00000000000E+00 -0.11157161406E+03  0.11157161409E+03  0.25500000920E-02 0.  1.
    10030    2    1    2    0    0  0.00000000000E+00  0.00000000000E+00  0.98699213197E+03  0.12101353601E+04  0.70019577352E+03 0.  0.
        4    1    3    3  502    0 -0.28564519421E+03  0.83150788450E+02  0.81245501479E+03  0.86521210957E+03  0.12699999809E+01 0. -1.
       -4    1    3    3    0  502  0.28564519421E+03 -0.83150788450E+02  0.17453711718E+03  0.34492325055E+03  0.12699999809E+01 0.  1.
</event>
<event>
 5   0  0.3749730E-02  0.7043227E+03  0.7818609E-02  0.9709868E-01
       -1   -1    0    0    0  501  0.00000000000E+00  0.00000000000E+00  0.98104190123E+03  0.98104190124E+03  0.50400001928E-02 0. -1.
        1   -1    0    0  501    0  0.00000000000E+00  0.00000000000E+00 -0.12641417146E+03  0.12641417156E+03  0.50400001928E-02 0.  1.
    10030    2    1    2    0    0  0.00000000000E+00  0.00000000000E+00  0.85462772977E+03  0.11074560728E+04  0.70432265098E+03 0.  0.
        4    1    3    3  502    0  0.12584069876E+03  0.31831832647E+03  0.29714336347E+03  0.45327500459E+03  0.12699999809E+01 0. -1.
       -4    1    3    3    0  502 -0.12584069876E+03 -0.31831832647E+03  0.55748436630E+03  0.65418106821E+03  0.12699999809E+01 0.  1.
</event>
<event>
 5   0  0.5899787E-02  0.7007264E+03  0.7818609E-02  0.9715991E-01
       -2   -1    0    0    0  501  0.00000000000E+00  0.00000000000E+00  0.15560458801E+03  0.15560458803E+03  0.25500000920E-02 0. -1.
        2   -1    0    0  501    0  0.00000000000E+00  0.00000000000E+00 -0.78888669666E+03  0.78888669667E+03  0.25500000920E-02 0.  1.
    10030    2    1    2    0    0  0.00000000000E+00  0.00000000000E+00 -0.63328210866E+03  0.94449128469E+03  0.70072644999E+03 0.  0.
        2    1    3    3  502    0 -0.16918425170E+03 -0.21314204229E+03 -0.61409574898E+03  0.67168923628E+03  0.25500000920E-02 0. -1.
       -2    1    3    3    0  502  0.16918425170E+03  0.21314204229E+03 -0.19186359675E+02  0.27280204841E+03  0.25500000920E-02 0.  1.
</event>
<event>
 5   0  0.2439375E-02  0.7073181E+03  0.7818609E-02  0.9704798E-01
        3   -1    0    0  501    0  0.00000000000E+00  0.00000000000E+00  0.21610641185E+03  0.21610643546E+03  0.10100000352E+00 0. -1.
       -3   -1    0    0    0  501  0.00000000000E+00  0.00000000000E+00 -0.57876452925E+03  0.57876453806E+03  0.10100000352E+00 0.  1.
    10030    2    1    2    0    0  0.00000000000E+00  0.00000000000E+00 -0.36265811739E+03  0.79487097352E+03  0.70731814230E+03 0.  0.
        4    1    3    3  502    0  0.53734428777E+02  0.42826580038E+02 -0.57118828117E+03  0.57530789169E+03  0.12699999809E+01 0.  1.
       -4    1    3    3    0  502 -0.53734428777E+02 -0.42826580038E+02  0.20853016378E+03  0.21956308182E+03  0.12699999809E+01 0. -1.
</event>
<event>
 5   0  0.6167756E-02  0.6894169E+03  0.7818609E-02  0.9735504E-01
        2   -1    0    0  501    0  0.00000000000E+00  0.00000000000E+00  0.21889470881E+04  0.21889470881E+04  0.25500000920E-02 0. -1.
       -2   -1    0    0    0  501  0.00000000000E+00  0.00000000000E+00 -0.54283600725E+02  0.54283600785E+02  0.25500000920E-02 0.  1.
    10030    2    1    2    0    0  0.00000000000E+00  0.00000000000E+00  0.21346634873E+04  0.22432306889E+04  0.68941694150E+03 0.  0.
        4    1    3    3  502    0  0.28815680915E+03 -0.41318231945E+02  0.16680166381E+04  0.16932284727E+04  0.12699999809E+01 0. -1.
       -4    1    3    3    0  502 -0.28815680915E+03  0.41318231945E+02  0.46664684928E+03  0.55000221617E+03  0.12699999809E+01 0.  1.
</event>
<event>
 5   0  0.5987810E-02  0.7008302E+03  0.7818609E-02  0.9715813E-01
       -2   -1    0    0    0  501  0.00000000000E+00  0.00000000000E+00  0.16314434138E+03  0.16314434140E+03  0.25500000920E-02 0.  1.
        2   -1    0    0  501    0  0.00000000000E+00  0.00000000000E+00 -0.75265102968E+03  0.75265102968E+03  0.25500000920E-02 0. -1.
    10030    2    1    2    0    0  0.00000000000E+00  0.00000000000E+00 -0.58950668829E+03  0.91579537109E+03  0.70083024061E+03 0.  0.
        5    1    3    3  502    0  0.12149886074E+03 -0.31436795217E+03 -0.16955610669E+03  0.37730696499E+03  0.46999998093E+01 0.  1.
       -5    1    3    3    0  502 -0.12149886074E+03  0.31436795217E+03 -0.41995058160E+03  0.53848840609E+03  0.46999998093E+01 0. -1.
</event>
<event>
 5   0  0.2439375E-02  0.7027722E+03  0.7818609E-02  0.9712503E-01
       -4   -1    0    0    0  501  0.00000000000E+00  0.00000000000E+00  0.10519637749E+04  0.10519645415E+04  0.12699999809E+01 0.  1.
        4   -1    0    0  501    0  0.00000000000E+00  0.00000000000E+00 -0.11736879115E+03  0.11737566202E+03  0.12699999809E+01 0. -1.
    10030    2    1    2    0    0  0.00000000000E+00  0.00000000000E+00  0.93459498377E+03  0.11693402036E+04  0.70277217359E+03 0.  0.
        2    1    3    3  502    0 -0.11687577890E+03 -0.29143561842E+03  0.20485761862E+03  0.37491507210E+03  0.25500000920E-02 0. -1.
       -2    1    3    3    0  502  0.11687577890E+03  0.29143561842E+03  0.72973736515E+03  0.79442513146E+03  0.25500000920E-02 0.  1.
</event>
<event>
 5   0  0.5987810E-02  0.7160323E+03  0.7818609E-02  0.9690201E-01
        2   -1    0    0  501    0  0.00000000000E+00  0.00000000000E+00  0.10869806301E+04  0.10869806301E+04  0.25500000920E-02 0. -1.
       -2   -1    0    0    0  501  0.00000000000E+00  0.00000000000E+00 -0.11791890821E+03  0.11791890824E+03  0.25500000920E-02 0.  1.
    10030    2    1    2    0    0  0.00000000000E+00  0.00000000000E+00  0.96906172193E+03  0.12048995384E+04  0.71603231540E+03 0.  0.
        5    1    3    3  502    0  0.22810943825E+03 -0.18947960244E+03  0.82199162548E+03  0.87385854571E+03  0.46999998093E+01 0. -1.
       -5    1    3    3    0  502 -0.22810943825E+03  0.18947960244E+03  0.14707009645E+03  0.33104099267E+03  0.46999998093E+01 0.  1.
</event>
<event>
 5   0  0.3601475E-02  0.6704883E+03  0.7818609E-02  0.9769076E-01
       -1   -1    0    0    0  501  0.00000000000E+00  0.00000000000E+00  0.43942510467E+03  0.43942510470E+03  0.50400001928E-02 0.  1.
        1   -1    0    0  501    0  0.00000000000E+00  0.00000000000E+00 -0.25576292412E+03  0.25576292417E+03  0.50400001928E-02 0. -1.
    10030    2    1    2    0    0  0.00000000000E+00  0.00000000000E+00  0.18366218055E+03  0.69518802886E+03  0.67048832869E+03 0.  0.
        5    1    3    3  502    0 -0.90673909001E+02  0.85547792595E+02  0.41446343459E+03  0.43283046473E+03  0.46999998093E+01 0.  1.
       -5    1    3    3    0  502  0.90673909001E+02 -0.85547792595E+02 -0.23080125404E+03  0.26235756413E+03  0.46999998093E+01 0. -1.
</event>
<event>
 5   0  0.3755872E-02  0.6839079E+03  0.7818609E-02  0.9745155E-01
       -1   -1    0    0    0  501  0.00000000000E+00  0.00000000000E+00  0.37270176150E+03  0.37270176153E+03  0.50400001928E-02 0.  1.
        1   -1    0    0  501    0  0.00000000000E+00  0.00000000000E+00 -0.31374283825E+03  0.31374283830E+03  0.50400001928E-02 0. -1.
    10030    2    1    2    0    0  0.00000000000E+00  0.00000000000E+00  0.58958923243E+02  0.68644459983E+03  0.68390791339E+03 0.  0.
        2    1    3    3  502    0  0.54182540149E+02  0.13861181736E+02 -0.30912121887E+03  0.31413979051E+03  0.25500000920E-02 0. -1.
       -2    1    3    3    0  502 -0.54182540149E+02 -0.13861181736E+02  0.36808014212E+03  0.37230480932E+03  0.25500000920E-02 0.  1.
</event>
<event>
 5   0  0.6131198E-02  0.6838946E+03  0.7818609E-02  0.9745178E-01
       -2   -1    0    0    0  501  0.00000000000E+00  0.00000000000E+00  0.11925924260E+03  0.11925924262E+03  0.25500000920E-02 0.  1.
        2   -1    0    0  501    0  0.00000000000E+00  0.00000000000E+00 -0.98045203540E+03  0.98045203541E+03  0.25500000920E-02 0. -1.
    10030    2    1    2    0    0  0.00000000000E+00  0.00000000000E+00 -0.86119279281E+03  0.10997112780E+04  0.68389463270E+03 0.  0.
        1    1    3    3  502    0  0.19174387007E+03 -0.10653191896E+03 -0.87781337800E+01  0.21952634722E+03  0.50400001928E-02 0.  1.
       -1    1    3    3    0  502 -0.19174387007E+03  0.10653191896E+03 -0.85241465903E+03  0.88018493081E+03  0.50400001928E-02 0. -1.
</event>
<event>
 5   0  0.3749730E-02  0.6779889E+03  0.7818609E-02  0.9755633E-01
       -1   -1    0    0    0  501  0.00000000000E+00  0.00000000000E+00  0.88313008450E+03  0.88313008451E+03  0.50400001928E-02 0.  1.
        1   -1    0    0  501    0  0.00000000000E+00  0.00000000000E+00 -0.13012491544E+03  0.13012491554E+03  0.50400001928E-02 0. -1.
    10030    2    1    2    0    0  0.00000000000E+00  0.00000000000E+00  0.75300516906E+03  0.10132550001E+04  0.67798887196E+03 0.  0.
        4    1    3    3  502    0  0.11936415986E+03 -0.83582714422E+01  0.85051613631E+03  0.85889287713E+03  0.12699999809E+01 0.  1.
       -4    1    3    3    0  502 -0.11936415986E+03  0.83582714422E+01 -0.97510967247E+02  0.15436212292E+03  0.12699999809E+01 0. -1.
</event>
<event>
 5   0  0.6248886E-02  0.6810287E+03  0.7818609E-02  0.9750237E-01
        2   -1    0    0  501    0  0.00000000000E+00  0.00000000000E+00  0.30547428409E+03  0.30547428410E+03  0.25500000920E-02 0. -1.
       -2   -1    0    0    0  501  0.00000000000E+00  0.00000000000E+00 -0.37957375951E+03  0.37957375952E+03  0.25500000920E-02 0.  1.
    10030    2    1    2    0    0  0.00000000000E+00  0.00000000000E+00 -0.74099475415E+02  0.68504804362E+03  0.68102869970E+03 0.  0.
        3    1    3    3  502    0 -0.22090551827E+03 -0.22524277710E+03 -0.16593264216E+03  0.35646487705E+03  0.10100000352E+00 0.  1.
       -3    1    3    3    0  502  0.22090551827E+03  0.22524277710E+03  0.91833166741E+02  0.32858316657E+03  0.10100000352E+00 0. -1.
</event>
<event>
 5   0  0.3717372E-02  0.7072964E+03  0.7818609E-02  0.9704835E-01
       -1   -1    0    0    0  501  0.00000000000E+00  0.00000000000E+00  0.19443716246E+03  0.19443716252E+03  0.50400001928E-02 0.  1.
        1   -1    0    0  501    0  0.00000000000E+00  0.00000000000E+00 -0.64322612479E+03  0.64322612481E+03  0.50400001928E-02 0. -1.
    10030    2    1    2    0    0  0.00000000000E+00  0.00000000000E+00 -0.44878896233E+03  0.83766328734E+03  0.70729643732E+03 0.  0.
        3    1    3    3  502    0 -0.17249990449E+03  0.19273614963E+03 -0.51001782251E+03  0.57185805048E+03  0.10100000352E+00 0. -1.
       -3    1    3    3    0  502  0.17249990449E+03 -0.19273614963E+03  0.61228860175E+02  0.26580523686E+03  0.10100000352E+00 0.  1.
</event>
<event>
 5   0  0.3717372E-02  0.6777143E+03  0.7818609E-02  0.9756121E-01
       -1   -1    0    0    0  501  0.00000000000E+00  0.00000000000E+00  0.57896363036E+03  0.57896363039E+03  0.50400001928E-02 0. -1.
        1   -1    0    0  501    0  0.00000000000E+00  0.00000000000E+00 -0.19832709728E+03  0.19832709734E+03  0.50400001928E-02 0.  1.
    10030    2    1    2    0    0  0.00000000000E+00  0.00000000000E+00  0.38063653309E+03  0.77729072773E+03  0.67771432410E+03 0.  0.
        3    1    3    3  502    0 -0.20336477252E+02  0.10029856626E+03 -0.18017873334E+03  0.20721428727E+03  0.10100000352E+00 0.  1.
       -3    1    3    3    0  502  0.20336477252E+02 -0.10029856626E+03  0.56081526643E+03  0.57007644045E+03  0.10100000352E+00 0. -1.
</event>
<event>
 5   0  0.3601475E-02  0.7056306E+03  0.7818609E-02  0.9707651E-01
       -1   -1    0    0    0  501  0.00000000000E+00  0.00000000000E+00  0.18477477740E+03  0.18477477747E+03  0.50400001928E-02 0.  1.
        1   -1    0    0  501    0  0.00000000000E+00  0.00000000000E+00 -0.67367756332E+03  0.67367756334E+03  0.50400001928E-02 0. -1.
    10030    2    1    2    0    0  0.00000000000E+00  0.00000000000E+00 -0.48890278592E+03  0.85845234080E+03  0.70563056010E+03 0.  0.
        5    1    3    3  502    0  0.12303493424E+03  0.16940573310E+03  0.10098008713E+03  0.23249723750E+03  0.46999998093E+01 0.  1.
       -5    1    3    3    0  502 -0.12303493424E+03 -0.16940573310E+03 -0.58988287304E+03  0.62595510331E+03  0.46999998093E+01 0. -1.
</event>
<event>
 5   0  0.5899787E-02  0.7031600E+03  0.7818609E-02  0.9711843E-01
       -2   -1    0    0    0  501  0.00000000000E+00  0.00000000000E+00  0.39229365848E+03  0.39229365849E+03  0.25500000920E-02 0.  1.
        2   -1    0    0  501    0  0.00000000000E+00  0.00000000000E+00 -0.31509177781E+03  0.31509177782E+03  0.25500000920E-02 0. -1.
    10030    2    1    2    0    0  0.00000000000E+00  0.00000000000E+00  0.77201880670E+02  0.70738543632E+03  0.70316002811E+03 0.  0.
        2    1    3    3  502    0 -0.16898044591E+03  0.19268268620E+03  0.28072855494E+03  0.38011778468E+03  0.25500000920E-02 0.  1.
       -2    1    3    3    0  502  0.16898044591E+03 -0.19268268620E+03 -0.20352667427E+03  0.32726765164E+03  0.25500000920E-02 0. -1.
</event>
<event>
 5   0  0.5987810E-02  0.7099213E+03  0.7818609E-02  0.9700414E-01
        2   -1    0    0  501    0  0.00000000000E+00  0.00000000000E+00  0.24599252652E+03  0.24599252653E+03  0.25500000920E-02 0.  1.
       -2   -1    0    0    0  501  0.00000000000E+00  0.00000000000E+00 -0.51219876085E+03  0.51219876085E+03  0.25500000920E-02 0. -1.
    10030    2    1    2    0    0  0.00000000000E+00  0.00000000000E+00 -0.26620623433E+03  0.75819128739E+03  0.70992131189E+03 0.  0.
        5    1    3    3  502    0  0.15380895582E+03  0.55875060742E+02 -0.46947147122E+03  0.49719691229E+03  0.46999998093E+01 0. -1.
       -5    1    3    3    0  502 -0.15380895582E+03 -0.55875060742E+02  0.20326523689E+03  0.26099437509E+03  0.46999998093E+01 0.  1.
</event>
<event>
 5   0  0.3749730E-02  0.7070105E+03  0.7818609E-02  0.9705318E-01
        1   -1    0    0  501    0  0.00000000000E+00  0.00000000000E+00  0.12814734091E+04  0.12814734091E+04  0.50400001928E-02 0.  1.
       -1   -1    0    0    0  501  0.00000000000E+00  0.00000000000E+00 -0.97517405577E+02  0.97517405708E+02  0.50400001928E-02 0. -1.
    10030    2    1    2    0    0  0.00000000000E+00  0.00000000000E+00  0.11839560036E+04  0.13789908149E+04  0.70701050140E+03 0.  0.
        4    1    3    3  502    0 -0.75967702007E+02  0.54010488709E+02  0.12570685614E+04  0.12605202123E+04  0.12699999809E+01 0.  1.
       -4    1    3    3    0  502  0.75967702007E+02 -0.54010488709E+02 -0.73112557889E+02  0.11847060251E+03  0.12699999809E+01 0. -1.
</event>
<event>
 5   0  0.6167756E-02  0.5738703E+03  0.7818609E-02  0.9961151E-01
       -2   -1    0    0    0  501  0.00000000000E+00  0.00000000000E+00  0.63629568800E+02  0.63629568851E+02  0.25500000920E-02 0.  1.
        2   -1    0    0  501    0  0.00000000000E+00  0.00000000000E+00 -0.12939233839E+04  0.12939233839E+04  0.25500000920E-02 0. -1.
    10030    2    1    2    0    0  0.00000000000E+00  0.00000000000E+00 -0.12302938151E+04  0.13575529528E+04  0.57387032339E+03 0.  0.
        4    1    3    3  502    0 -0.11096507211E+02 -0.71781599807E+02  0.41515049108E+02  0.83671038869E+02  0.12699999809E+01 0.  1.
       -4    1    3    3    0  502  0.11096507211E+02  0.71781599807E+02 -0.12718088642E+04  0.12738819139E+04  0.12699999809E+01 0. -1.
</event>
<event>
 5   0  0.3601475E-02  0.7033310E+03  0.7818609E-02  0.9711553E-01
       -1   -1    0    0    0  501  0.00000000000E+00  0.00000000000E+00  0.71862805439E+03  0.71862805441E+03  0.50400001928E-02 0. -1.
        1   -1    0    0  501    0  0.00000000000E+00  0.00000000000E+00 -0.17208990525E+03  0.17208990533E+03  0.50400001928E-02 0.  1.
    10030    2    1    2    0    0  0.00000000000E+00  0.00000000000E+00  0.54653814914E+03  0.89071795974E+03  0.70333102828E+03 0.  0.
        5    1    3    3  502    0 -0.13388749091E+03  0.27403411541E+02  0.68357943747E+03  0.69712247454E+03  0.46999998093E+01 0. -1.
       -5    1    3    3    0  502  0.13388749091E+03 -0.27403411541E+02 -0.13704128833E+03  0.19359548520E+03  0.46999998093E+01 0.  1.
</event>
<event>
 5   0  0.5899787E-02  0.7034773E+03  0.7818609E-02  0.9711304E-01
        2   -1    0    0  501    0  0.00000000000E+00  0.00000000000E+00  0.69372745240E+03  0.69372745241E+03  0.25500000920E-02 0.  1.
       -2   -1    0    0    0  501  0.00000000000E+00  0.00000000000E+00 -0.17834102897E+03  0.17834102899E+03  0.25500000920E-02 0. -1.
    10030    2    1    2    0    0  0.00000000000E+00  0.00000000000E+00  0.51538642343E+03  0.87206848140E+03  0.70347727099E+03 0.  0.
        2    1    3    3  502    0 -0.15026099022E+03  0.30990669021E+03  0.16916814317E+03  0.38371653924E+03  0.25500000920E-02 0. -1.
       -2    1    3    3    0  502  0.15026099022E+03 -0.30990669021E+03  0.34621828026E+03  0.48835194216E+03  0.25500000920E-02 0.  1.
</event>
<event>
 5   0  0.6248886E-02  0.6997560E+03  0.7818609E-02  0.9717650E-01
       -2   -1    0    0    0  501  0.00000000000E+00  0.00000000000E+00  0.73682185528E+03  0.73682185529E+03  0.25500000920E-02 0.  1.
        2   -1    0    0  501    0  0.00000000000E+00  0.00000000000E+00 -0.16613867032E+03  0.16613867034E+03  0.25500000920E-02 0. -1.
    10030    2    1    2    0    0  0.00000000000E+00  0.00000000000E+00  0.57068318496E+03  0.90296052563E+03  0.69975596693E+03 0.  0.
        3    1    3    3  502    0  0.15037561571E+03 -0.12905190157E+03  0.65743024294E+03  0.68664528953E+03  0.10100000352E+00 0.  1.
       -3    1    3    3    0  502 -0.15037561571E+03  0.12905190157E+03 -0.86747057983E+02  0.21631523610E+03  0.10100000352E+00 0. -1.
</event>
<event>
 5   0  0.3755872E-02  0.6980254E+03  0.7818609E-02  0.9720615E-01
        1   -1    0    0  501    0  0.00000000000E+00  0.00000000000E+00  0.10288372340E+04  0.10288372340E+04  0.50400001928E-02 0. -1.
       -1   -1    0    0    0  501  0.00000000000E+00  0.00000000000E+00 -0.11839566522E+03  0.11839566533E+03  0.50400001928E-02 0.  1.
    10030    2    1    2    0    0  0.00000000000E+00  0.00000000000E+00  0.91044156878E+03  0.11472328993E+04  0.69802541155E+03 0.  0.
        2    1    3    3  502    0  0.16713508446E+03  0.13571905522E+03  0.37522869251E+01  0.21533201822E+03  0.25500000920E-02 0.  1.
       -2    1    3    3    0  502 -0.16713508446E+03 -0.13571905522E+03  0.90668928185E+03  0.93190088112E+03  0.25500000920E-02 0. -1.
</event>
<event>
 5   0  0.3601475E-02  0.7009621E+03  0.7818609E-02  0.9715588E-01
        1   -1    0    0  501    0  0.00000000000E+00  0.00000000000E+00  0.92206643750E+03  0.92206643751E+03  0.50400001928E-02 0. -1.
       -1   -1    0    0    0  501  0.00000000000E+00  0.00000000000E+00 -0.13321919818E+03  0.13321919827E+03  0.50400001928E-02 0.  1.
    10030    2    1    2    0    0  0.00000000000E+00  0.00000000000E+00  0.78884723932E+03  0.10552856358E+04  0.70096205753E+03 0.  0.
        5    1    3    3  502    0  0.56121541509E+01 -0.13711616537E+02  0.92154730040E+03  0.92167837209E+03  0.46999998093E+01 0. -1.
       -5    1    3    3    0  502 -0.56121541509E+01  0.13711616537E+02 -0.13270006108E+03  0.13360726369E+03  0.46999998093E+01 0.  1.
</event>
<event>
 5   0  0.6248886E-02  0.7142168E+03  0.7818609E-02  0.9693224E-01
        2   -1    0    0  501    0  0.00000000000E+00  0.00000000000E+00  0.42032490558E+03  0.42032490559E+03  0.25500000920E-02 0. -1.
       -2   -1    0    0    0  501  0.00000000000E+00  0.00000000000E+00 -0.30339961212E+03  0.30339961213E+03  0.25500000920E-02 0.  1.
    10030    2    1    2    0    0  0.00000000000E+00  0.00000000000E+00  0.11692529346E+03  0.72372451772E+03  0.71421681113E+03 0.  0.
        3    1    3    3  502    0  0.28276136828E+03 -0.19437334482E+03  0.15873147419E+03  0.37806174055E+03  0.10100000352E+00 0. -1.
       -3    1    3    3    0  502 -0.28276136828E+03  0.19437334482E+03 -0.41806180736E+02  0.34566277717E+03  0.10100000352E+00 0.  1.
</event>
<event>
 5   0  0.6248886E-02  0.7286714E+03  0.7818609E-02  0.9669419E-01
       -2   -1    0    0    0  501  0.00000000000E+00  0.00000000000E+00  0.95185077600E+02  0.95185077634E+02  0.25500000920E-02 0.  1.
        2   -1    0    0  501    0  0.00000000000E+00  0.00000000000E+00 -0.13945516633E+04  0.13945516633E+04  0.25500000920E-02 0. -1.
    10030    2    1    2    0    0  0.00000000000E+00  0.00000000000E+00 -0.12993665857E+04  0.14897367410E+04  0.72867141653E+03 0.  0.
        3    1    3    3  502    0 -0.25941013347E+02  0.36333042409E+03 -0.66532904354E+03  0.75851478537E+03  0.10100000352E+00 0.  1.
       -3    1    3    3    0  502  0.25941013347E+02 -0.36333042409E+03 -0.63403754217E+03  0.73122195558E+03  0.10100000352E+00 0. -1.
</event>
<event>
 5   0  0.5899787E-02  0.6908857E+03  0.7818609E-02  0.9732947E-01
       -2   -1    0    0    0  501  0.00000000000E+00  0.00000000000E+00  0.28070844370E+03  0.28070844371E+03  0.25500000920E-02 0. -1.
        2   -1    0    0  501    0  0.00000000000E+00  0.00000000000E+00 -0.42510566000E+03  0.42510566000E+03  0.25500000920E-02 0.  1.
    10030    2    1    2    0    0  0.00000000000E+00  0.00000000000E+00 -0.14439721630E+03  0.70581410372E+03  0.69088565836E+03 0.  0.
        2    1    3    3  502    0 -0.11017385666E+03  0.25165457875E+03  0.14176039254E+03  0.30913478386E+03  0.25500000920E-02 0. -1.
       -2    1    3    3    0  502  0.11017385666E+03 -0.25165457875E+03 -0.28615760884E+03  0.39667931985E+03  0.25500000920E-02 0.  1.
</event>
<event>
 5   0  0.3439015E-02  0.7229994E+03  0.7818609E-02  0.9678689E-01
       -1   -1    0    0    0  501  0.00000000000E+00  0.00000000000E+00  0.31681364741E+03  0.31681364745E+03  0.50400001928E-02 0. -1.
        1   -1    0    0  501    0  0.00000000000E+00  0.00000000000E+00 -0.41248863331E+03  0.41248863334E+03  0.50400001928E-02 0.  1.
    10030    2    1    2    0    0  0.00000000000E+00  0.00000000000E+00 -0.95674985897E+02  0.72930228080E+03  0.72299938717E+03 0.  0.
        1    1    3    3  502    0  0.49045683511E+01  0.16875827261E+03  0.27460305987E+03  0.32235112824E+03  0.50400001928E-02 0. -1.
       -1    1    3    3    0  502 -0.49045683511E+01 -0.16875827261E+03 -0.37027804576E+03  0.40695115255E+03  0.50400001928E-02 0.  1.
</event>
<event>
 5   0  0.6167756E-02  0.6939983E+03  0.7818609E-02  0.9727551E-01
        2   -1    0    0  501    0  0.00000000000E+00  0.00000000000E+00  0.16508696603E+03  0.16508696605E+03  0.25500000920E-02 0. -1.
       -2   -1    0    0    0  501  0.00000000000E+00  0.00000000000E+00 -0.72936361336E+03  0.72936361336E+03  0.25500000920E-02 0.  1.
    10030    2    1    2    0    0  0.00000000000E+00  0.00000000000E+00 -0.56427664733E+03  0.89445057941E+03  0.69399834603E+03 0.  0.
        4    1    3    3  502    0  0.13564510851E+03  0.31728887014E+03 -0.23504742072E+03  0.41751733552E+03  0.12699999809E+01 0.  1.
       -4    1    3    3    0  502 -0.13564510851E+03 -0.31728887014E+03 -0.32922922661E+03  0.47693324389E+03  0.12699999809E+01 0. -1.
</event>
<event>
 5   0  0.6248886E-02  0.7104122E+03  0.7818609E-02  0.9699590E-01
        2   -1    0    0  501    0  0.00000000000E+00  0.00000000000E+00  0.72241110236E+03  0.72241110236E+03  0.25500000920E-02 0. -1.
       -2   -1    0    0    0  501  0.00000000000E+00  0.00000000000E+00 -0.17465315854E+03  0.17465315855E+03  0.25500000920E-02 0.  1.
    10030    2    1    2    0    0  0.00000000000E+00  0.00000000000E+00  0.54775794382E+03  0.89706426092E+03  0.71041222061E+03 0.  0.
        3    1    3    3  502    0 -0.92412080216E+02  0.34216381006E+03  0.30363527458E+03  0.46670167736E+03  0.10100000352E+00 0. -1.
       -3    1    3    3    0  502  0.92412080216E+02 -0.34216381006E+03  0.24412266925E+03  0.43036258356E+03  0.10100000352E+00 0.  1.
</event>
<event>
 5   0  0.2439375E-02  0.7007660E+03  0.7818609E-02  0.9715923E-01
        4   -1    0    0  501    0  0.00000000000E+00  0.00000000000E+00  0.39352049729E+03  0.39352254661E+03  0.12699999809E+01 0. -1.
       -4   -1    0    0    0  501  0.00000000000E+00  0.00000000000E+00 -0.31197009306E+03  0.31197267807E+03  0.12699999809E+01 0.  1.
    10030    2    1    2    0    0  0.00000000000E+00  0.00000000000E+00  0.81550404236E+02  0.70549522468E+03  0.70076604057E+03 0.  0.
        3    1    3    3  502    0 -0.16878463092E+03 -0.28398909372E+03  0.15831151019E+03  0.36633400258E+03  0.10100000352E+00 0. -1.
       -3    1    3    3    0  502  0.16878463092E+03  0.28398909372E+03 -0.76761105949E+02  0.33916122210E+03  0.10100000352E+00 0.  1.
</event>
<event>
 5   0  0.3749730E-02  0.6976185E+03  0.7818609E-02  0.9721314E-01
       -1   -1    0    0    0  501  0.00000000000E+00  0.00000000000E+00  0.91598029175E+02  0.91598029314E+02  0.50400001928E-02 0.  1.
        1   -1    0    0  501    0  0.00000000000E+00  0.00000000000E+00 -0.13282807663E+04  0.13282807663E+04  0.50400001928E-02 0. -1.
    10030    2    1    2    0    0  0.00000000000E+00  0.00000000000E+00 -0.12366827372E+04  0.14198787957E+04  0.69761852181E+03 0.  0.
        4    1    3    3  502    0 -0.24356594463E+02  0.34000235421E+03 -0.46779017198E+03  0.57881266612E+03  0.12699999809E+01 0.  1.
       -4    1    3    3    0  502  0.24356594463E+02 -0.34000235421E+03 -0.76889256518E+03  0.84106612954E+03  0.12699999809E+01 0. -1.
</event>
<event>
 5   0  0.6131198E-02  0.6663391E+03  0.7818609E-02  0.9776594E-01
        2   -1    0    0  501    0  0.00000000000E+00  0.00000000000E+00  0.84875852987E+03  0.84875852987E+03  0.25500000920E-02 0. -1.
       -2   -1    0    0    0  501  0.00000000000E+00  0.00000000000E+00 -0.13078155595E+03  0.13078155597E+03  0.25500000920E-02 0.  1.
    10030    2    1    2    0    0  0.00000000000E+00  0.00000000000E+00  0.71797697392E+03  0.97954008585E+03  0.66633913640E+03 0.  0.
        1    1    3    3  502    0  0.10235577087E+03 -0.22525570966E+03  0.30986343216E+02  0.24935314727E+03  0.50400001928E-02 0.  1.
       -1    1    3    3    0  502 -0.10235577087E+03  0.22525570966E+03  0.68699063070E+03  0.73018693857E+03  0.50400001928E-02 0. -1.
</event>
<event>
 5   0  0.3601475E-02  0.7064911E+03  0.7818609E-02  0.9706195E-01
       -1   -1    0    0    0  501  0.00000000000E+00  0.00000000000E+00  0.28447238370E+03  0.28447238374E+03  0.50400001928E-02 0.  1.
        1   -1    0    0  501    0  0.00000000000E+00  0.00000000000E+00 -0.43864513269E+03  0.43864513272E+03  0.50400001928E-02 0. -1.
    10030    2    1    2    0    0  0.00000000000E+00  0.00000000000E+00 -0.15417274900E+03  0.72311751646E+03  0.70649112243E+03 0.  0.
        5    1    3    3  502    0  0.27389327987E+03 -0.21561791454E+03 -0.18720509843E+02  0.34911482540E+03  0.46999998093E+01 0. -1.
       -5    1    3    3    0  502 -0.27389327987E+03  0.21561791454E+03 -0.13545223915E+03  0.37400269106E+03  0.46999998093E+01 0.  1.
</event>
<event>
 5   0  0.3749730E-02  0.6960354E+03  0.7818609E-02  0.9724036E-01
        1   -1    0    0  501    0  0.00000000000E+00  0.00000000000E+00  0.16117260351E+03  0.16117260358E+03  0.50400001928E-02 0. -1.
       -1   -1    0    0    0  501  0.00000000000E+00  0.00000000000E+00 -0.75146970214E+03  0.75146970216E+03  0.50400001928E-02 0.  1.
    10030    2    1    2    0    0  0.00000000000E+00  0.00000000000E+00 -0.59029709864E+03  0.91264230575E+03  0.69603542552E+03 0.  0.
        4    1    3    3  502    0  0.26532127086E+03 -0.98280330395E+02 -0.56084172092E+03  0.62817151236E+03  0.12699999809E+01 0.  1.
       -4    1    3    3    0  502 -0.26532127086E+03  0.98280330395E+02 -0.29455377721E+02  0.28447079339E+03  0.12699999809E+01 0. -1.
</event>
<event>
 5   0  0.6248886E-02  0.7291068E+03  0.7818609E-02  0.9668711E-01
       -2   -1    0    0    0  501  0.00000000000E+00  0.00000000000E+00  0.21595357717E+03  0.21595357719E+03  0.25500000920E-02 0.  1.
        2   -1    0    0  501    0  0.00000000000E+00  0.00000000000E+00 -0.61540629437E+03  0.61540629437E+03  0.25500000920E-02 0. -1.
    10030    2    1    2    0    0  0.00000000000E+00  0.00000000000E+00 -0.39945271719E+03  0.83135987156E+03  0.72910682535E+03 0.  0.
        3    1    3    3  502    0  0.22155601883E+03 -0.21100299047E+03 -0.42574178072E+03  0.52427607758E+03  0.10100000352E+00 0.  1.
       -3    1    3    3    0  502 -0.22155601883E+03  0.21100299047E+03  0.26289063525E+02  0.30708379399E+03  0.10100000352E+00 0. -1.
</event>
<event>
 5   0  0.3749730E-02  0.6800755E+03  0.7818609E-02  0.9751926E-01
       -1   -1    0    0    0  501  0.00000000000E+00  0.00000000000E+00  0.12516050879E+03  0.12516050889E+03  0.50400001928E-02 0. -1.
        1   -1    0    0  501    0  0.00000000000E+00  0.00000000000E+00 -0.92381913463E+03  0.92381913464E+03  0.50400001928E-02 0.  1.
    10030    2    1    2    0    0  0.00000000000E+00  0.00000000000E+00 -0.79865862584E+03  0.10489796435E+04  0.68007550456E+03 0.  0.
        4    1    3    3  502    0 -0.35184363739E+02  0.35241060176E+02 -0.91816047585E+03  0.91951081782E+03  0.12699999809E+01 0.  1.
       -4    1    3    3    0  502  0.35184363739E+02 -0.35241060176E+02  0.11950185001E+03  0.12946882571E+03  0.12699999809E+01 0. -1.
</event>
<event>
 5   0  0.3439015E-02  0.6931981E+03  0.7818609E-02  0.9728936E-01
       -1   -1    0    0    0  501  0.00000000000E+00  0.00000000000E+00  0.23337852529E+03  0.23337852534E+03  0.50400001928E-02 0. -1.
        1   -1    0    0  501    0  0.00000000000E+00  0.00000000000E+00 -0.51474696520E+03  0.51474696522E+03  0.50400001928E-02 0.  1.
    10030    2    1    2    0    0  0.00000000000E+00  0.00000000000E+00 -0.28136843991E+03  0.74812549057E+03  0.69319806020E+03 0.  0.
        1    1    3    3  502    0  0.10951282378E+03 -0.31376086251E+03 -0.24693269398E+03  0.41402257523E+03  0.50400001928E-02 0.  1.
       -1    1    3    3    0  502 -0.10951282378E+03  0.31376086251E+03 -0.34435745922E+02  0.33410291534E+03  0.50400001928E-02 0. -1.
</event>
<event>
 5   0  0.3755872E-02  0.7019525E+03  0.7818609E-02  0.9713899E-01
        1   -1    0    0  501    0  0.00000000000E+00  0.00000000000E+00  0.43952577935E+03  0.43952577938E+03  0.50400001928E-02 0.  1.
       -1   -1    0    0    0  501  0.00000000000E+00  0.00000000000E+00 -0.28026645332E+03  0.28026645337E+03  0.50400001928E-02 0. -1.
    10030    2    1    2    0    0  0.00000000000E+00  0.00000000000E+00  0.15925932603E+03  0.71979223274E+03  0.70195250936E+03 0.  0.
        2    1    3    3  502    0  0.17887577979E+03  0.29032072888E+03  0.16481723511E+03  0.37874449331E+03  0.25500000920E-02 0. -1.
       -2    1    3    3    0  502 -0.17887577979E+03 -0.29032072888E+03 -0.55579090879E+01  0.34104773944E+03  0.25500000920E-02 0.  1.
</event>
<event>
 5   0  0.6131198E-02  0.6879989E+03  0.7818609E-02  0.9737979E-01
       -2   -1    0    0    0  501  0.00000000000E+00  0.00000000000E+00  0.49385609715E+03  0.49385609716E+03  0.25500000920E-02 0.  1.
        2   -1    0    0  501    0  0.00000000000E+00  0.00000000000E+00 -0.23961556823E+03  0.23961556824E+03  0.25500000920E-02 0. -1.
    10030    2    1    2    0    0  0.00000000000E+00  0.00000000000E+00  0.25424052892E+03  0.73347166540E+03  0.68799886439E+03 0.  0.
        1    1    3    3  502    0 -0.29778393310E+03  0.15022504036E+03  0.37335275226E+02  0.33561399906E+03  0.50400001928E-02 0. -1.
       -1    1    3    3    0  502  0.29778393310E+03 -0.15022504036E+03  0.21690525370E+03  0.39785766634E+03  0.50400001928E-02 0.  1.
</event>
<event>
 5   0  0.3601475E-02  0.7098550E+03  0.7818609E-02  0.9700526E-01
        1   -1    0    0  501    0  0.00000000000E+00  0.00000000000E+00  0.28638921239E+03  0.28638921243E+03  0.50400001928E-02 0.  1.
       -1   -1    0    0    0  501  0.00000000000E+00  0.00000000000E+00 -0.43986822430E+03  0.43986822433E+03  0.50400001928E-02 0. -1.
    10030    2    1    2    0    0  0.00000000000E+00  0.00000000000E+00 -0.15347901191E+03  0.72625743676E+03  0.70985495516E+03 0.  0.
        5    1    3    3  502    0 -0.17225084530E+03 -0.31003306169E+03 -0.63775031130E+02  0.36038895327E+03  0.46999998093E+01 0. -1.
       -5    1    3    3    0  502  0.17225084530E+03  0.31003306169E+03 -0.89703980780E+02  0.36586848349E+03  0.46999998093E+01 0.  1.
</event>
<event>
 5   0  0.6248886E-02  0.7002083E+03  0.7818609E-02  0.9716876E-01
        2   -1    0    0  501    0  0.00000000000E+00  0.00000000000E+00  0.47041746029E+03  0.47041746029E+03  0.25500000920E-02 0.  1.
       -2   -1    0    0    0  501  0.00000000000E+00  0.00000000000E+00 -0.26056197412E+03  0.26056197414E+03  0.25500000920E-02 0. -1.
    10030    2    1    2    0    0  0.00000000000E+00  0.00000000000E+00  0.20985548616E+03  0.73097943443E+03  0.70020826080E+03 0.  0.
        3    1    3    3  502    0 -0.89625691413E+02  0.17975056342E+03  0.40428701231E+03  0.45143219661E+03  0.10100000352E+00 0.  1.
       -3    1    3    3    0  502  0.89625691413E+02 -0.17975056342E+03 -0.19443152615E+03  0.27954723782E+03  0.10100000352E+00 0. -1.
</event>
<event>
 5   0  0.5899787E-02  0.7053638E+03  0.7818609E-02  0.9708103E-01
        2   -1    0    0  501    0  0.00000000000E+00  0.00000000000E+00  0.92453241125E+03  0.92453241125E+03  0.25500000920E-02 0. -1.
       -2   -1    0    0    0  501  0.00000000000E+00  0.00000000000E+00 -0.13453776334E+03  0.13453776336E+03  0.25500000920E-02 0.  1.
    10030    2    1    2    0    0  0.00000000000E+00  0.00000000000E+00  0.78999464791E+03  0.10590701746E+04  0.70536380048E+03 0.  0.
        2    1    3    3  502    0 -0.32486295786E+03 -0.64736984439E+02  0.21321797375E+03  0.39393999908E+03  0.25500000920E-02 0.  1.
       -2    1    3    3    0  502  0.32486295786E+03  0.64736984439E+02  0.57677667416E+03  0.66513017553E+03  0.25500000920E-02 0. -1.
</event>
<event>
 5   0  0.6167756E-02  0.7102519E+03  0.7818609E-02  0.9699859E-01
       -2   -1    0    0    0  501  0.00000000000E+00  0.00000000000E+00  0.24723469193E+03  0.24723469195E+03  0.25500000920E-02 0. -1.
        2   -1    0    0  501    0  0.00000000000E+00  0.00000000000E+00 -0.51010006077E+03  0.51010006077E+03  0.25500000920E-02 0.  1.
    10030    2    1    2    0    0  0.00000000000E+00  0.00000000000E+00 -0.26286536883E+03  0.75733475272E+03  0.71025187472E+03 0.  0.
        4    1    3    3  502    0 -0.13509474693E+02 -0.34576482938E+03 -0.46282901025E+02  0.34911250761E+03  0.12699999809E+01 0. -1.
       -4    1    3    3    0  502  0.13509474693E+02  0.34576482938E+03 -0.21658246781E+03  0.40822224511E+03  0.12699999809E+01 0.  1.
</event>
<event>
 5   0  0.6248886E-02  0.6944892E+03  0.7818609E-02  0.9726703E-01
       -2   -1    0    0    0  501  0.00000000000E+00  0.00000000000E+00  0.16401986825E+03  0.16401986827E+03  0.25500000920E-02 0.  1.
        2   -1    0    0  501    0  0.00000000000E+00  0.00000000000E+00 -0.73514756737E+03  0.73514756738E+03  0.25500000920E-02 0. -1.
    10030    2    1    2    0    0  0.00000000000E+00  0.00000000000E+00 -0.57112769912E+03  0.89916743565E+03  0.69448918540E+03 0.  0.
        3    1    3    3  502    0 -0.18965811330E+03 -0.12293532006E+03 -0.62687732695E+03  0.66637713503E+03  0.10100000352E+00 0. -1.
       -3    1    3    3    0  502  0.18965811330E+03  0.12293532006E+03  0.55749627826E+02  0.23279030062E+03  0.10100000352E+00 0.  1.
</event>
<event>
 5   0  0.3439015E-02  0.5953954E+03  0.7818609E-02  0.9915005E-01
        1   -1    0    0  501    0  0.00000000000E+00  0.00000000000E+00  0.72790135903E+03  0.72790135905E+03  0.50400001928E-02 0. -1.
       -1   -1    0    0    0  501  0.00000000000E+00  0.00000000000E+00 -0.12175264101E+03  0.12175264111E+03  0.50400001928E-02 0.  1.
    10030    2    1    2    0    0  0.00000000000E+00  0.00000000000E+00  0.60614871803E+03  0.84965400016E+03  0.59539537421E+03 0.  0.
        1    1    3    3  502    0  0.89263265062E+02 -0.23199812478E+03  0.69314427241E+02  0.25806113663E+03  0.50400001928E-02 0.  1.
       -1    1    3    3    0  502 -0.89263265062E+02  0.23199812478E+03  0.53683429079E+03  0.59159286353E+03  0.50400001928E-02 0. -1.
</event>
<event>
 5   0  0.3601475E-02  0.6937771E+03  0.7818609E-02  0.9727934E-01
        1   -1    0    0  501    0  0.00000000000E+00  0.00000000000E+00  0.59362800219E+03  0.59362800222E+03  0.50400001928E-02 0. -1.
       -1   -1    0    0    0  501  0.00000000000E+00  0.00000000000E+00 -0.20270549811E+03  0.20270549817E+03  0.50400001928E-02 0.  1.
    10030    2    1    2    0    0  0.00000000000E+00  0.00000000000E+00  0.39092250409E+03  0.79633350039E+03  0.69377708209E+03 0.  0.
        5    1    3    3  502    0  0.49393286197E+02 -0.16023890404E+03  0.54397898016E+03  0.56925514837E+03  0.46999998093E+01 0. -1.
       -5    1    3    3    0  502 -0.49393286197E+02  0.16023890404E+03 -0.15305647607E+03  0.22707835202E+03  0.46999998093E+01 0.  1.
</event>
<event>
 5   0  0.3601475E-02  0.6895752E+03  0.7818609E-02  0.9735228E-01
       -1   -1    0    0    0  501  0.00000000000E+00  0.00000000000E+00  0.81771448645E+02  0.81771448800E+02  0.50400001928E-02 0. -1.
        1   -1    0    0  501    0  0.00000000000E+00  0.00000000000E+00 -0.14537898168E+04  0.14537898169E+04  0.50400001928E-02 0.  1.
    10030    2    1    2    0    0  0.00000000000E+00  0.00000000000E+00 -0.13720183682E+04  0.15355612657E+04  0.68957523005E+03 0.  0.
        5    1    3    3  502    0  0.28766172502E+03 -0.99754386989E+02 -0.32586794776E+03  0.44599575686E+03  0.46999998093E+01 0. -1.
       -5    1    3    3    0  502 -0.28766172502E+03  0.99754386989E+02 -0.10461504204E+04  0.10895655088E+04  0.46999998093E+01 0.  1.
</event>
<event>
 5   0  0.6167756E-02  0.7084265E+03  0.7818609E-02  0.9702929E-01
       -2   -1    0    0    0  501  0.00000000000E+00  0.00000000000E+00  0.57419358735E+03  0.57419358735E+03  0.25500000920E-02 0. -1.
        2   -1    0    0  501    0  0.00000000000E+00  0.00000000000E+00 -0.21850996051E+03  0.21850996053E+03  0.25500000920E-02 0.  1.
    10030    2    1    2    0    0  0.00000000000E+00  0.00000000000E+00  0.35568362684E+03  0.79270354788E+03  0.70842647637E+03 0.  0.
        4    1    3    3  502    0  0.12330678150E+03 -0.20007109569E+03 -0.11869920264E+03  0.26329473846E+03  0.12699999809E+01 0.  1.
       -4    1    3    3    0  502 -0.12330678150E+03  0.20007109569E+03  0.47438282947E+03  0.52940880942E+03  0.12699999809E+01 0. -1.
</event>
<event>
 5   0  0.5899787E-02  0.7468177E+03  0.7818609E-02  0.9640356E-01
        2   -1    0    0  501    0  0.00000000000E+00  0.00000000000E+00  0.13494430274E+04  0.13494430274E+04  0.25500000920E-02 0. -1.
       -2   -1    0    0    0  501  0.00000000000E+00  0.00000000000E+00 -0.10332721006E+03  0.10332721009E+03  0.25500000920E-02 0.  1.
    10030    2    1    2    0    0  0.00000000000E+00  0.00000000000E+00  0.12461158173E+04  0.14527702375E+04  0.74681773728E+03 0.  0.
        2    1    3    3  502    0  0.24417618644E+03  0.12202328665E+02  0.74008545990E+02  0.25543721682E+03  0.25500000920E-02 0.  1.
       -2    1    3    3    0  502 -0.24417618644E+03 -0.12202328665E+02  0.11721072713E+04  0.11973330207E+04  0.25500000920E-02 0. -1.
</event>
<event>
 5   0  0.3755872E-02  0.7043059E+03  0.7818609E-02  0.9709897E-01
        1   -1    0    0  501    0  0.00000000000E+00  0.00000000000E+00  0.94224924907E+03  0.94224924908E+03  0.50400001928E-02 0.  1.
       -1   -1    0    0    0  501  0.00000000000E+00  0.00000000000E+00 -0.13161240923E+03  0.13161240933E+03  0.50400001928E-02 0. -1.
    10030    2    1    2    0    0  0.00000000000E+00  0.00000000000E+00  0.81063683984E+03  0.10738616584E+04  0.70430588191E+03 0.  0.
        2    1    3    3  502    0 -0.33299391857E+03 -0.10001272461E+03  0.49054133014E+03  0.60126391167E+03  0.25500000920E-02 0. -1.
       -2    1    3    3    0  502  0.33299391857E+03  0.10001272461E+03  0.32009550970E+03  0.47259774674E+03  0.25500000920E-02 0.  1.
</event>
<event>
 5   0  0.2439375E-02  0.6980619E+03  0.7818609E-02  0.9720552E-01
       -4   -1    0    0    0  501  0.00000000000E+00  0.00000000000E+00  0.27630511815E+03  0.27630803683E+03  0.12699999809E+01 0.  1.
        4   -1    0    0  501    0  0.00000000000E+00  0.00000000000E+00 -0.44089272263E+03  0.44089455175E+03  0.12699999809E+01 0. -1.
    10030    2    1    2    0    0  0.00000000000E+00  0.00000000000E+00 -0.16458760448E+03  0.71720258858E+03  0.69806194103E+03 0.  0.
        4    1    3    3  502    0  0.15649900968E+03  0.27549389426E+03  0.68117703389E+02  0.32408403265E+03  0.12699999809E+01 0.  1.
       -4    1    3    3    0  502 -0.15649900968E+03 -0.27549389426E+03 -0.23270530786E+03  0.39311855593E+03  0.12699999809E+01 0. -1.
</event>
<event>
 5   0  0.6131198E-02  0.7150099E+03  0.7818609E-02  0.9691902E-01
       -2   -1    0    0    0  501  0.00000000000E+00  0.00000000000E+00  0.87217677211E+03  0.87217677211E+03  0.25500000920E-02 0.  1.
        2   -1    0    0  501    0  0.00000000000E+00  0.00000000000E+00 -0.14654116560E+03  0.14654116562E+03  0.25500000920E-02 0. -1.
    10030    2    1    2    0    0  0.00000000000E+00  0.00000000000E+00  0.72563560651E+03  0.10187179377E+04  0.71500993226E+03 0.  0.
        1    1    3    3  502    0  0.65089542045E+02 -0.30426920108E+03  0.11198950692E+03  0.33069327919E+03  0.50400001928E-02 0.  1.
       -1    1    3    3    0  502 -0.65089542045E+02  0.30426920108E+03  0.61364609958E+03  0.68802465855E+03  0.50400001928E-02 0. -1.
</event>
<event>
 5   0  0.3749730E-02  0.7319680E+03  0.7818609E-02  0.9664072E-01
        1   -1    0    0  501    0  0.00000000000E+00  0.00000000000E+00  0.33864935454E+03  0.33864935458E+03  0.50400001928E-02 0.  1.
       -1   -1    0    0    0  501  0.00000000000E+00  0.00000000000E+00 -0.39552504795E+03  0.39552504799E+03  0.50400001928E-02 0. -1.
    10030    2    1    2    0    0  0.00000000000E+00  0.00000000000E+00 -0.56875693413E+02  0.73417440257E+03  0.73196803816E+03 0.  0.
        4    1    3    3  502    0 -0.15062417674E+03 -0.11779529818E+03 -0.34143506447E+03  0.39133475573E+03  0.12699999809E+01 0. -1.
       -4    1    3    3    0  502  0.15062417674E+03  0.11779529818E+03  0.28455937105E+03  0.34283964684E+03  0.12699999809E+01 0.  1.
</event>
<event>
 5   0  0.3601475E-02  0.7062501E+03  0.7818609E-02  0.9706603E-01
       -1   -1    0    0    0  501  0.00000000000E+00  0.00000000000E+00  0.21319470482E+03  0.21319470488E+03  0.50400001928E-02 0. -1.
        1   -1    0    0  501    0  0.00000000000E+00  0.00000000000E+00 -0.58489872758E+03  0.58489872760E+03  0.50400001928E-02 0.  1.
    10030    2    1    2    0    0  0.00000000000E+00  0.00000000000E+00 -0.37170402276E+03  0.79809343247E+03  0.70625013021E+03 0.  0.
        5    1    3    3  502    0 -0.88761774241E+02  0.26800347373E+03 -0.42549242156E+03  0.51065683713E+03  0.46999998093E+01 0.  1.
       -5    1    3    3    0  502  0.88761774241E+02 -0.26800347373E+03  0.53788398805E+02  0.28743659535E+03  0.46999998093E+01 0. -1.
</event>
<event>
 5   0  0.3439015E-02  0.6847638E+03  0.7818609E-02  0.9743649E-01
        1   -1    0    0  501    0  0.00000000000E+00  0.00000000000E+00  0.35009336462E+03  0.35009336465E+03  0.50400001928E-02 0.  1.
       -1   -1    0    0    0  501  0.00000000000E+00  0.00000000000E+00 -0.33484025347E+03  0.33484025351E+03  0.50400001928E-02 0. -1.
    10030    2    1    2    0    0  0.00000000000E+00  0.00000000000E+00  0.15253111145E+02  0.68493361816E+03  0.68476375772E+03 0.  0.
        1    1    3    3  502    0  0.69193948494E+02 -0.23116851384E+03 -0.23533010794E+03  0.33705629207E+03  0.50400001928E-02 0. -1.
       -1    1    3    3    0  502 -0.69193948494E+02  0.23116851384E+03  0.25058321908E+03  0.34787732609E+03  0.50400001928E-02 0.  1.
</event>
<event>
 5   0  0.3717372E-02  0.8592444E+03  0.7818609E-02  0.9478013E-01
       -1   -1    0    0    0  501  0.00000000000E+00  0.00000000000E+00  0.48287691239E+03  0.48287691242E+03  0.50400001928E-02 0. -1.
        1   -1    0    0  501    0  0.00000000000E+00  0.00000000000E+00 -0.38224076928E+03  0.38224076931E+03  0.50400001928E-02 0.  1.
    10030    2    1    2    0    0  0.00000000000E+00  0.00000000000E+00  0.10063614312E+03  0.86511768173E+03  0.85924441805E+03 0.  0.
        3    1    3    3  502    0 -0.28171094373E+03 -0.54230305191E+01  0.37685694794E+03  0.47054397721E+03  0.10100000352E+00 0. -1.
       -3    1    3    3    0  502  0.28171094373E+03  0.54230305191E+01 -0.27622080483E+03  0.39457370452E+03  0.10100000352E+00 0.  1.
</event>
<event>
 5   0  0.6248886E-02  0.6919817E+03  0.7818609E-02  0.9731044E-01
       -2   -1    0    0    0  501  0.00000000000E+00  0.00000000000E+00  0.77019159603E+02  0.77019159645E+02  0.25500000920E-02 0. -1.
        2   -1    0    0  501    0  0.00000000000E+00  0.00000000000E+00 -0.15542843475E+04  0.15542843475E+04  0.25500000920E-02 0.  1.
    10030    2    1    2    0    0  0.00000000000E+00  0.00000000000E+00 -0.14772651879E+04  0.16313035071E+04  0.69198171729E+03 0.  0.
        3    1    3    3  502    0  0.29639720881E+03  0.55494687515E+02 -0.11385549875E+04  0.11778108658E+04  0.10100000352E+00 0.  1.
       -3    1    3    3    0  502 -0.29639720881E+03 -0.55494687515E+02 -0.33871020034E+03  0.45349264134E+03  0.10100000352E+00 0. -1.
</event>
<event>
 5   0  0.6131198E-02  0.7052633E+03  0.7818609E-02  0.9708273E-01
       -2   -1    0    0    0  501  0.00000000000E+00  0.00000000000E+00  0.19872147578E+03  0.19872147580E+03  0.25500000920E-02 0.  1.
        2   -1    0    0  501    0  0.00000000000E+00  0.00000000000E+00 -0.62574553479E+03  0.62574553479E+03  0.25500000920E-02 0. -1.
    10030    2    1    2    0    0  0.00000000000E+00  0.00000000000E+00 -0.42702405900E+03  0.82446701060E+03  0.70526328743E+03 0.  0.
        1    1    3    3  502    0  0.33149072989E+03 -0.94328262416E+02 -0.12630319486E+03  0.36706460215E+03  0.50400001928E-02 0.  1.
       -1    1    3    3    0  502 -0.33149072989E+03  0.94328262416E+02 -0.30072086414E+03  0.45740240844E+03  0.50400001928E-02 0. -1.
</event>
<event>
 5   0  0.3601475E-02  0.5996339E+03  0.7818609E-02  0.9906166E-01
        1   -1    0    0  501    0  0.00000000000E+00  0.00000000000E+00  0.99210481561E+03  0.99210481562E+03  0.50400001928E-02 0.  1.
       -1   -1    0    0    0  501  0.00000000000E+00  0.00000000000E+00 -0.90605536045E+02  0.90605536185E+02  0.50400001928E-02 0. -1.
    10030    2    1    2    0    0  0.00000000000E+00  0.00000000000E+00  0.90149927957E+03  0.10827103518E+04  0.59963385066E+03 0.  0.
        5    1    3    3  502    0  0.25596184968E+03  0.23156977078E+02  0.72939700918E+03  0.77336589081E+03  0.46999998093E+01 0.  1.
       -5    1    3    3    0  502 -0.25596184968E+03 -0.23156977078E+02  0.17210227039E+03  0.30934446100E+03  0.46999998093E+01 0. -1.
</event>
<event>
 5   0  0.6167756E-02  0.7055709E+03  0.7818609E-02  0.9707752E-01
        2   -1    0    0  501    0  0.00000000000E+00  0.00000000000E+00  0.58738098342E+03  0.58738098342E+03  0.25500000920E-02 0.  1.
       -2   -1    0    0    0  501  0.00000000000E+00  0.00000000000E+00 -0.21188557994E+03  0.21188557995E+03  0.25500000920E-02 0. -1.
    10030    2    1    2    0    0  0.00000000000E+00  0.00000000000E+00  0.37549540348E+03  0.79926656337E+03  0.70557086199E+03 0.  0.
        4    1    3    3  502    0  0.13608876616E+03 -0.77556354905E+02  0.54582680231E+03  0.56785883059E+03  0.12699999809E+01 0.  1.
       -4    1    3    3    0  502 -0.13608876616E+03  0.77556354905E+02 -0.17033139883E+03  0.23140773278E+03  0.12699999809E+01 0. -1.
</event>
<event>
 5   0  0.3755872E-02  0.6926332E+03  0.7818609E-02  0.9729914E-01
       -1   -1    0    0    0  501  0.00000000000E+00  0.00000000000E+00  0.72061030747E+02  0.72061030923E+02  0.50400001928E-02 0.  1.
        1   -1    0    0  501    0  0.00000000000E+00  0.00000000000E+00 -0.16643558041E+04  0.16643558041E+04  0.50400001928E-02 0. -1.
    10030    2    1    2    0    0  0.00000000000E+00  0.00000000000E+00 -0.15922947734E+04  0.17364168351E+04  0.69263322165E+03 0.  0.
        2    1    3    3  502    0 -0.96931605048E+02 -0.31832476507E+03 -0.10367233626E+04  0.10888166616E+04  0.25500000920E-02 0.  1.
       -2    1    3    3    0  502  0.96931605048E+02  0.31832476507E+03 -0.55557141078E+03  0.64760017341E+03  0.25500000920E-02 0. -1.
</event>
<event>
 5   0  0.5987810E-02  0.7031253E+03  0.7818609E-02  0.9711902E-01
        2   -1    0    0  501    0  0.00000000000E+00  0.00000000000E+00  0.38668437303E+03  0.38668437304E+03  0.25500000920E-02 0.  1.
       -2   -1    0    0    0  501  0.00000000000E+00  0.00000000000E+00 -0.31963099272E+03  0.31963099273E+03  0.25500000920E-02 0. -1.
    10030    2    1    2    0    0  0.00000000000E+00  0.00000000000E+00  0.67053380308E+02  0.70631536577E+03  0.70312533742E+03 0.  0.
        5    1    3    3  502    0  0.17380081222E+03 -0.22015881307E+03  0.24637854735E+03  0.37336457236E+03  0.46999998093E+01 0.  1.
       -5    1    3    3    0  502 -0.17380081222E+03  0.22015881307E+03 -0.17932516704E+03  0.33295079341E+03  0.46999998093E+01 0. -1.
</event>
<event>
 5   0  0.5987810E-02  0.6957481E+03  0.7818609E-02  0.9724531E-01
        2   -1    0    0  501    0  0.00000000000E+00  0.00000000000E+00  0.12831166753E+04  0.12831166753E+04  0.25500000920E-02 0. -1.
       -2   -1    0    0    0  501  0.00000000000E+00  0.00000000000E+00 -0.94314389122E+02  0.94314389157E+02  0.25500000920E-02 0.  1.
    10030    2    1    2    0    0  0.00000000000E+00  0.00000000000E+00  0.11888022862E+04  0.13774310645E+04  0.69574813095E+03 0.  0.
        5    1    3    3  502    0  0.19817545503E+03 -0.17695172941E+03  0.14990170185E+03  0.30508693144E+03  0.46999998093E+01 0.  1.
       -5    1    3    3    0  502 -0.19817545503E+03  0.17695172941E+03  0.10389005843E+04  0.10723441330E+04  0.46999998093E+01 0. -1.
</event>
<event>
 5   0  0.6248886E-02  0.7079147E+03  0.7818609E-02  0.9703792E-01
       -2   -1    0    0    0  501  0.00000000000E+00  0.00000000000E+00  0.37692306106E+03  0.37692306107E+03  0.25500000920E-02 0.  1.
        2   -1    0    0  501    0  0.00000000000E+00  0.00000000000E+00 -0.33239095767E+03  0.33239095768E+03  0.25500000920E-02 0. -1.
    10030    2    1    2    0    0  0.00000000000E+00  0.00000000000E+00  0.44532103389E+02  0.70931401875E+03  0.70791473284E+03 0.  0.
        3    1    3    3  502    0 -0.28723799714E+01 -0.31972739301E+03  0.17439484937E+03  0.36420794897E+03  0.10100000352E+00 0.  1.
       -3    1    3    3    0  502  0.28723799714E+01  0.31972739301E+03 -0.12986274598E+03  0.34510606978E+03  0.10100000352E+00 0. -1.
</event>
<event>
 5   0  0.5987810E-02  0.7007514E+03  0.7818609E-02  0.9715948E-01
        2   -1    0    0  501    0  0.00000000000E+00  0.00000000000E+00  0.19691940407E+04  0.19691940407E+04  0.25500000920E-02 0.  1.
       -2   -1    0    0    0  501  0.00000000000E+00  0.00000000000E+00 -0.62341817017E+02  0.62341817070E+02  0.25500000920E-02 0. -1.
    10030    2    1    2    0    0  0.00000000000E+00  0.00000000000E+00  0.19068522237E+04  0.20315358578E+04  0.70075140987E+03 0.  0.
        5    1    3    3  502    0 -0.30571260288E+03 -0.10590643774E+03  0.13430769317E+04  0.13815042901E+04  0.46999998093E+01 0. -1.
       -5    1    3    3    0  502  0.30571260288E+03  0.10590643774E+03  0.56377529195E+03  0.65003156764E+03  0.46999998093E+01 0.  1.
</event>
<event>
 5   0  0.5899787E-02  0.7249337E+03  0.7818609E-02  0.9675517E-01
        2   -1    0    0  501    0  0.00000000000E+00  0.00000000000E+00  0.44627078886E+03  0.44627078887E+03  0.25500000920E-02 0. -1.
       -2   -1    0    0    0  501  0.00000000000E+00  0.00000000000E+00 -0.29440024398E+03  0.29440024399E+03  0.25500000920E-02 0.  1.
    10030    2    1    2    0    0  0.00000000000E+00  0.00000000000E+00  0.15187054488E+03  0.74067103286E+03  0.72493373250E+03 0.  0.
        2    1    3    3  502    0 -0.33948640372E+03 -0.12273234098E+03  0.42545821356E+02  0.36348919208E+03  0.25500000920E-02 0.  1.
       -2    1    3    3    0  502  0.33948640372E+03  0.12273234098E+03  0.10932472352E+03  0.37718184078E+03  0.25500000920E-02 0. -1.
</event>
<event>
 5   0  0.5987810E-02  0.7124115E+03  0.7818609E-02  0.9696239E-01
       -2   -1    0    0    0  501  0.00000000000E+00  0.00000000000E+00  0.56407809500E+02  0.56407809557E+02  0.25500000920E-02 0.  1.
        2   -1    0    0  501    0  0.00000000000E+00  0.00000000000E+00 -0.22493791244E+04  0.22493791244E+04  0.25500000920E-02 0. -1.
    10030    2    1    2    0    0  0.00000000000E+00  0.00000000000E+00 -0.21929713149E+04  0.23057869340E+04  0.71241153616E+03 0.  0.
        5    1    3    3  502    0 -0.33232732989E+02  0.31605947761E+03 -0.16169884613E+04  0.16479295440E+04  0.46999998093E+01 0. -1.
       -5    1    3    3    0  502  0.33232732989E+02 -0.31605947761E+03 -0.57598285367E+03  0.65785739005E+03  0.46999998093E+01 0.  1.
</event>
<event>
 5   0  0.5899787E-02  0.7066178E+03  0.7818609E-02  0.9705981E-01
       -2   -1    0    0    0  501  0.00000000000E+00  0.00000000000E+00  0.43618434906E+03  0.43618434907E+03  0.25500000920E-02 0.  1.
        2   -1    0    0  501    0  0.00000000000E+00  0.00000000000E+00 -0.28617983878E+03  0.28617983879E+03  0.25500000920E-02 0. -1.
    10030    2    1    2    0    0  0.00000000000E+00  0.00000000000E+00  0.15000451028E+03  0.72236418786E+03  0.70661776570E+03 0.  0.
        2    1    3    3  502    0 -0.18567769042E+03  0.59979143458E+02 -0.22610073487E+03  0.29865572937E+03  0.25500000920E-02 0. -1.
       -2    1    3    3    0  502  0.18567769042E+03 -0.59979143458E+02  0.37610524514E+03  0.42370845849E+03  0.25500000920E-02 0.  1.
</event>
<event>
 5   0  0.6167756E-02  0.7030557E+03  0.7818609E-02  0.9712021E-01
        2   -1    0    0  501    0  0.00000000000E+00  0.00000000000E+00  0.92890937589E+03  0.92890937589E+03  0.25500000920E-02 0.  1.
       -2   -1    0    0    0  501  0.00000000000E+00  0.00000000000E+00 -0.13302895062E+03  0.13302895064E+03  0.25500000920E-02 0. -1.
    10030    2    1    2    0    0  0.00000000000E+00  0.00000000000E+00  0.79588042527E+03  0.10619383265E+04  0.70305572896E+03 0.  0.
        4    1    3    3  502    0  0.20965082480E+03  0.19025698576E+03  0.71267854573E+03  0.76685299205E+03  0.12699999809E+01 0.  1.
       -4    1    3    3    0  502 -0.20965082480E+03 -0.19025698576E+03  0.83201879545E+02  0.29508533449E+03  0.12699999809E+01 0. -1.
</event>
<event>
 5   0  0.6131198E-02  0.7029977E+03  0.7818609E-02  0.9712119E-01
        2   -1    0    0  501    0  0.00000000000E+00  0.00000000000E+00  0.91312945252E+03  0.91312945252E+03  0.25500000920E-02 0. -1.
       -2   -1    0    0    0  501  0.00000000000E+00  0.00000000000E+00 -0.13530551572E+03  0.13530551574E+03  0.25500000920E-02 0.  1.
    10030    2    1    2    0    0  0.00000000000E+00  0.00000000000E+00  0.77782393680E+03  0.10484349683E+04  0.70299772832E+03 0.  0.
        1    1    3    3  502    0  0.12326472824E+03 -0.17924268482E+03 -0.22852239599E+02  0.21873353235E+03  0.50400001928E-02 0.  1.
       -1    1    3    3    0  502 -0.12326472824E+03  0.17924268482E+03  0.80067617640E+03  0.82970143592E+03  0.50400001928E-02 0. -1.
</event>
<event>
 5   0  0.3439015E-02  0.6840145E+03  0.7818609E-02  0.9744967E-01
        1   -1    0    0  501    0  0.00000000000E+00  0.00000000000E+00  0.78616565724E+03  0.78616565726E+03  0.50400001928E-02 0. -1.
       -1   -1    0    0    0  501  0.00000000000E+00  0.00000000000E+00 -0.14878409897E+03  0.14878409905E+03  0.50400001928E-02 0.  1.
    10030    2    1    2    0    0  0.00000000000E+00  0.00000000000E+00  0.63738155828E+03  0.93494975632E+03  0.68401447061E+03 0.  0.
        1    1    3    3  502    0  0.31846348770E+03  0.26212628656E+02  0.15205276160E+03  0.35387305242E+03  0.50400001928E-02 0.  1.
       -1    1    3    3    0  502 -0.31846348770E+03 -0.26212628656E+02  0.48532879668E+03  0.58107670389E+03  0.50400001928E-02 0. -1.
</event>
<event>
 5   0  0.3601475E-02  0.7049414E+03  0.7818609E-02  0.9708819E-01
       -1   -1    0    0    0  501  0.00000000000E+00  0.00000000000E+00  0.33276944311E+03  0.33276944314E+03  0.50400001928E-02 0.  1.
        1   -1    0    0  501    0  0.00000000000E+00  0.00000000000E+00 -0.37333832420E+03  0.37333832424E+03  0.50400001928E-02 0. -1.
    10030    2    1    2    0    0  0.00000000000E+00  0.00000000000E+00 -0.40568881097E+02  0.70610776738E+03  0.70494137702E+03 0.  0.
        5    1    3    3  502    0 -0.17034706022E+03 -0.21788647158E+03  0.19852805588E+03  0.34048217926E+03  0.46999998093E+01 0.  1.
       -5    1    3    3    0  502  0.17034706022E+03  0.21788647158E+03 -0.23909693698E+03  0.36562558812E+03  0.46999998093E+01 0. -1.
</event>
<event>
 5   0  0.3755872E-02  0.6808140E+03  0.7818609E-02  0.9750617E-01
       -1   -1    0    0    0  501  0.00000000000E+00  0.00000000000E+00  0.73070513379E+02  0.73070513553E+02  0.50400001928E-02 0.  1.
        1   -1    0    0  501    0  0.00000000000E+00  0.00000000000E+00 -0.15858231309E+04  0.15858231309E+04  0.50400001928E-02 0. -1.
    10030    2    1    2    0    0  0.00000000000E+00  0.00000000000E+00 -0.15127526175E+04  0.16588936445E+04  0.68081395536E+03 0.  0.
        2    1    3    3  502    0 -0.24275607843E+03 -0.82790305048E+02 -0.21102672862E+03  0.33214007350E+03  0.25500000920E-02 0.  1.
       -2    1    3    3    0  502  0.24275607843E+03  0.82790305048E+02 -0.13017258889E+04  0.13267535710E+04  0.25500000920E-02 0. -1.
</event>
<event>
 5   0  0.3601475E-02  0.6859046E+03  0.7818609E-02  0.9741645E-01
        1   -1    0    0  501    0  0.00000000000E+00  0.00000000000E+00  0.51209605266E+03  0.51209605269E+03  0.50400001928E-02 0.  1.
       -1   -1    0    0    0  501  0.00000000000E+00  0.00000000000E+00 -0.22967621319E+03  0.22967621325E+03  0.50400001928E-02 0. -1.
    10030    2    1    2    0    0  0.00000000000E+00  0.00000000000E+00  0.28241983947E+03  0.74177226594E+03  0.68590460619E+03 0.  0.
        5    1    3    3  502    0 -0.21039878037E+03  0.20857645966E+03 -0.45547648565E+02  0.29978069417E+03  0.46999998093E+01 0. -1.
       -5    1    3    3    0  502  0.21039878037E+03 -0.20857645966E+03  0.32796748804E+03  0.44199157177E+03  0.46999998093E+01 0.  1.
</event>
<event>
 5   0  0.6131198E-02  0.6911334E+03  0.7818609E-02  0.9732517E-01
        2   -1    0    0  501    0  0.00000000000E+00  0.00000000000E+00  0.79216554986E+03  0.79216554987E+03  0.25500000920E-02 0.  1.
       -2   -1    0    0    0  501  0.00000000000E+00  0.00000000000E+00 -0.15074668885E+03  0.15074668887E+03  0.25500000920E-02 0. -1.
    10030    2    1    2    0    0  0.00000000000E+00  0.00000000000E+00  0.64141886101E+03  0.94291223874E+03  0.69113336969E+03 0.  0.
        1    1    3    3  502    0 -0.13372466640E+02  0.31517088859E+02 -0.14842715710E+03  0.15232455726E+03  0.50400001928E-02 0. -1.
       -1    1    3    3    0  502  0.13372466640E+02 -0.31517088859E+02  0.78984601811E+03  0.79058768148E+03  0.50400001928E-02 0.  1.
</event>
<event>
 5   0  0.6167756E-02  0.6903466E+03  0.7818609E-02  0.9733885E-01
       -2   -1    0    0    0  501  0.00000000000E+00  0.00000000000E+00  0.25535787634E+03  0.25535787635E+03  0.25500000920E-02 0.  1.
        2   -1    0    0  501    0  0.00000000000E+00  0.00000000000E+00 -0.46657887383E+03  0.46657887384E+03  0.25500000920E-02 0. -1.
    10030    2    1    2    0    0  0.00000000000E+00  0.00000000000E+00 -0.21122099749E+03  0.72193675019E+03  0.69034655173E+03 0.  0.
        4    1    3    3  502    0  0.63598336522E+02 -0.34980206376E+02  0.24728445616E+03  0.25771996121E+03  0.12699999809E+01 0.  1.
       -4    1    3    3    0  502 -0.63598336522E+02  0.34980206376E+02 -0.45850545365E+03  0.46421678898E+03  0.12699999809E+01 0. -1.
</event>
<event>
 5   0  0.3749730E-02  0.6051165E+03  0.7818609E-02  0.9894848E-01
       -1   -1    0    0    0  501  0.00000000000E+00  0.00000000000E+00  0.10497603781E+03  0.10497603793E+03  0.50400001928E-02 0.  1.
        1   -1    0    0  501    0  0.00000000000E+00  0.00000000000E+00 -0.87202264554E+03  0.87202264555E+03  0.50400001928E-02 0. -1.
    10030    2    1    2    0    0  0.00000000000E+00  0.00000000000E+00 -0.76704660773E+03  0.97699868348E+03  0.60511645911E+03 0.  0.
        4    1    3    3  502    0 -0.88298860396E+02 -0.27387164496E+03 -0.23260265128E+03  0.37001077409E+03  0.12699999809E+01 0.  1.
       -4    1    3    3    0  502  0.88298860396E+02  0.27387164496E+03 -0.53444395645E+03  0.60698790939E+03  0.12699999809E+01 0. -1.
</event>
<event>
 5   0  0.3755872E-02  0.7024530E+03  0.7818609E-02  0.9713046E-01
       -1   -1    0    0    0  501  0.00000000000E+00  0.00000000000E+00  0.95295628063E+02  0.95295628196E+02  0.50400001928E-02 0. -1.
        1   -1    0    0  501    0  0.00000000000E+00  0.00000000000E+00 -0.12944985830E+04  0.12944985830E+04  0.50400001928E-02 0.  1.
    10030    2    1    2    0    0  0.00000000000E+00  0.00000000000E+00 -0.11992029549E+04  0.13897942112E+04  0.70245300367E+03 0.  0.
        2    1    3    3  502    0  0.14303420532E+03  0.15221517447E+02  0.34347215991E+02  0.14788579965E+03  0.25500000920E-02 0. -1.
       -2    1    3    3    0  502 -0.14303420532E+03 -0.15221517447E+02 -0.12335501709E+04  0.12419084115E+04  0.25500000920E-02 0.  1.
</event>
<event>
 5   0  0.3755872E-02  0.7065197E+03  0.7818609E-02  0.9706147E-01
        1   -1    0    0  501    0  0.00000000000E+00  0.00000000000E+00  0.12128415424E+04  0.12128415424E+04  0.50400001928E-02 0.  1.
       -1   -1    0    0    0  501  0.00000000000E+00  0.00000000000E+00 -0.10289269394E+03  0.10289269407E+03  0.50400001928E-02 0. -1.
    10030    2    1    2    0    0  0.00000000000E+00  0.00000000000E+00  0.11099488485E+04  0.13157342365E+04  0.70651973422E+03 0.  0.
        2    1    3    3  502    0 -0.14586421187E+03 -0.16650157061E+03  0.10676699785E+04  0.10903753135E+04  0.25500000920E-02 0.  1.
       -2    1    3    3    0  502  0.14586421187E+03  0.16650157061E+03  0.42278869984E+02  0.22535892299E+03  0.25500000920E-02 0. -1.
</event>
<event>
 5   0  0.5899787E-02  0.7110322E+03  0.7818609E-02  0.9698549E-01
        2   -1    0    0  501    0  0.00000000000E+00  0.00000000000E+00  0.88763494778E+03  0.88763494779E+03  0.25500000920E-02 0. -1.
       -2   -1    0    0    0  501  0.00000000000E+00  0.00000000000E+00 -0.14239154799E+03  0.14239154801E+03  0.25500000920E-02 0.  1.
    10030    2    1    2    0    0  0.00000000000E+00  0.00000000000E+00  0.74524339980E+03  0.10300264958E+04  0.71103224758E+03 0.  0.
        2    1    3    3  502    0  0.18285308758E+03  0.11934605945E+03 -0.33805044032E+02  0.22095591088E+03  0.25500000920E-02 0.  1.
       -2    1    3    3    0  502 -0.18285308758E+03 -0.11934605945E+03  0.77904844383E+03  0.80907058492E+03  0.25500000920E-02 0. -1.
</event>
<event>
 5   0  0.3749730E-02  0.6902312E+03  0.7818609E-02  0.9734086E-01
        1   -1    0    0  501    0  0.00000000000E+00  0.00000000000E+00  0.28514753558E+03  0.28514753562E+03  0.50400001928E-02 0.  1.
       -1   -1    0    0    0  501  0.00000000000E+00  0.00000000000E+00 -0.41769527624E+03  0.41769527628E+03  0.50400001928E-02 0. -1.
    10030    2    1    2    0    0  0.00000000000E+00  0.00000000000E+00 -0.13254774067E+03  0.70284281190E+03  0.69023120379E+03 0.  0.
        4    1    3    3  502    0  0.23669061306E+03 -0.24589583186E+03 -0.14192894535E+02  0.34159955737E+03  0.12699999809E+01 0.  1.
       -4    1    3    3    0  502 -0.23669061306E+03  0.24589583186E+03 -0.11835484613E+03  0.36124325453E+03  0.12699999809E+01 0. -1.
</event>
<event>
 5   0  0.3755872E-02  0.7134812E+03  0.7818609E-02  0.9694451E-01
        1   -1    0    0  501    0  0.00000000000E+00  0.00000000000E+00  0.12510215015E+04  0.12510215015E+04  0.50400001928E-02 0. -1.
       -1   -1    0    0    0  501  0.00000000000E+00  0.00000000000E+00 -0.10172793894E+03  0.10172793906E+03  0.50400001928E-02 0.  1.
    10030    2    1    2    0    0  0.00000000000E+00  0.00000000000E+00  0.11492935625E+04  0.13527494406E+04  0.71348115323E+03 0.  0.
        2    1    3    3  502    0  0.22012130089E+03 -0.32230808190E+02  0.45902784689E+02  0.22715474407E+03  0.25500000920E-02 0.  1.
       -2    1    3    3    0  502 -0.22012130089E+03  0.32230808190E+02  0.11033907779E+04  0.11255946965E+04  0.25500000920E-02 0. -1.
</event>
<event>
 5   0  0.3717372E-02  0.7049799E+03  0.7818609E-02  0.9708754E-01
       -1   -1    0    0    0  501  0.00000000000E+00  0.00000000000E+00  0.13888978229E+03  0.13888978238E+03  0.50400001928E-02 0. -1.
        1   -1    0    0  501    0  0.00000000000E+00  0.00000000000E+00 -0.89458834201E+03  0.89458834202E+03  0.50400001928E-02 0.  1.
    10030    2    1    2    0    0  0.00000000000E+00  0.00000000000E+00 -0.75569855972E+03  0.10334781244E+04  0.70497994331E+03 0.  0.
        3    1    3    3  502    0 -0.28222562543E+03  0.92539721526E+02 -0.99569040539E+02  0.31325533953E+03  0.10100000352E+00 0. -1.
       -3    1    3    3    0  502  0.28222562543E+03 -0.92539721526E+02 -0.65612951918E+03  0.72022278487E+03  0.10100000352E+00 0.  1.
</event>
<event>
 5   0  0.3749730E-02  0.7084695E+03  0.7818609E-02  0.9702857E-01
       -1   -1    0    0    0  501  0.00000000000E+00  0.00000000000E+00  0.25128209526E+03  0.25128209531E+03  0.50400001928E-02 0. -1.
        1   -1    0    0  501    0  0.00000000000E+00  0.00000000000E+00 -0.49936803381E+03  0.49936803383E+03  0.50400001928E-02 0.  1.
    10030    2    1    2    0    0  0.00000000000E+00  0.00000000000E+00 -0.24808593855E+03  0.75065012914E+03  0.70846946545E+03 0.  0.
        4    1    3    3  502    0 -0.45480602951E+02 -0.25633619463E+03  0.13047533506E+03  0.29120809721E+03  0.12699999809E+01 0. -1.
       -4    1    3    3    0  502  0.45480602951E+02  0.25633619463E+03 -0.37856127361E+03  0.45944203193E+03  0.12699999809E+01 0.  1.
</event>
<event>
 5   0  0.6167756E-02  0.6807012E+03  0.7818609E-02  0.9750817E-01
       -2   -1    0    0    0  501  0.00000000000E+00  0.00000000000E+00  0.67164990662E+02  0.67164990710E+02  0.25500000920E-02 0.  1.
        2   -1    0    0  501    0  0.00000000000E+00  0.00000000000E+00 -0.17246860524E+04  0.17246860524E+04  0.25500000920E-02 0. -1.
    10030    2    1    2    0    0  0.00000000000E+00  0.00000000000E+00 -0.16575210617E+04  0.17918510431E+04  0.68070117570E+03 0.  0.
        4    1    3    3  502    0  0.22716692300E+03  0.25339965433E+03 -0.81677995558E+03  0.88484309596E+03  0.12699999809E+01 0. -1.
       -4    1    3    3    0  502 -0.22716692300E+03 -0.25339965433E+03 -0.84074110616E+03  0.90700794716E+03  0.12699999809E+01 0.  1.
</event>
<event>
 5   0  0.5899787E-02  0.5790009E+03  0.7818609E-02  0.9949956E-01
       -2   -1    0    0    0  501  0.00000000000E+00  0.00000000000E+00  0.50956990615E+02  0.50956990679E+02  0.25500000920E-02 0.  1.
        2   -1    0    0  501    0  0.00000000000E+00  0.00000000000E+00 -0.16447306386E+04  0.16447306386E+04  0.25500000920E-02 0. -1.
    10030    2    1    2    0    0  0.00000000000E+00  0.00000000000E+00 -0.15937736480E+04  0.16956876293E+04  0.57900094566E+03 0.  0.
        2    1    3    3  502    0 -0.59513667384E+02 -0.27743974041E+03 -0.62875517178E+03  0.68981718753E+03  0.25500000920E-02 0.  1.
       -2    1    3    3    0  502  0.59513667384E+02  0.27743974041E+03 -0.96501847617E+03  0.10058704417E+04  0.25500000920E-02 0. -1.
</event>
<event>
 5   0  0.5987810E-02  0.6683750E+03  0.7818609E-02  0.9772898E-01
        2   -1    0    0  501    0  0.00000000000E+00  0.00000000000E+00  0.12854553825E+04  0.12854553825E+04  0.25500000920E-02 0.  1.
       -2   -1    0    0    0  501  0.00000000000E+00  0.00000000000E+00 -0.86880720831E+02  0.86880720869E+02  0.25500000920E-02 0. -1.
    10030    2    1    2    0    0  0.00000000000E+00  0.00000000000E+00  0.11985746616E+04  0.13723361033E+04  0.66837501525E+03 0.  0.
        5    1    3    3  502    0  0.13561055629E+03 -0.30293998527E+03  0.51986259068E+03  0.61679985476E+03  0.46999998093E+01 0. -1.
       -5    1    3    3    0  502 -0.13561055629E+03  0.30293998527E+03  0.67871207095E+03  0.75553624857E+03  0.46999998093E+01 0.  1.
</event>
<event>
 5   0  0.6248886E-02  0.7047204E+03  0.7818609E-02  0.9709194E-01
        2   -1    0    0  501    0  0.00000000000E+00  0.00000000000E+00  0.13262055870E+03  0.13262055873E+03  0.25500000920E-02 0.  1.
       -2   -1    0    0    0  501  0.00000000000E+00  0.00000000000E+00 -0.93618745143E+03  0.93618745143E+03  0.25500000920E-02 0. -1.
    10030    2    1    2    0    0  0.00000000000E+00  0.00000000000E+00 -0.80356689273E+03  0.10688080102E+04  0.70472037823E+03 0.  0.
        3    1    3    3  502    0 -0.11475047172E+03 -0.32585898946E+03 -0.29664245135E+03  0.45535536224E+03  0.10100000352E+00 0. -1.
       -3    1    3    3    0  502  0.11475047172E+03  0.32585898946E+03 -0.50692444138E+03  0.61345264792E+03  0.10100000352E+00 0.  1.
</event>
<event>
 5   0  0.6131198E-02  0.5865542E+03  0.7818609E-02  0.9933701E-01
        2   -1    0    0  501    0  0.00000000000E+00  0.00000000000E+00  0.13419291878E+04  0.13419291878E+04  0.25500000920E-02 0.  1.
       -2   -1    0    0    0  501  0.00000000000E+00  0.00000000000E+00 -0.64095367487E+02  0.64095367537E+02  0.25500000920E-02 0. -1.
    10030    2    1    2    0    0  0.00000000000E+00  0.00000000000E+00  0.12778338204E+04  0.14060245554E+04  0.58655415598E+03 0.  0.
        1    1    3    3  502    0  0.13278605351E+02  0.13429320377E+03  0.14749477586E+02  0.13575173315E+03  0.50400001928E-02 0. -1.
       -1    1    3    3    0  502 -0.13278605351E+02 -0.13429320377E+03  0.12630843428E+04  0.12702728222E+04  0.50400001928E-02 0.  1.
</event>
<event>
 5   0  0.3717372E-02  0.9644175E+03  0.7818609E-02  0.9348456E-01
       -1   -1    0    0    0  501  0.00000000000E+00  0.00000000000E+00  0.65134866688E+03  0.65134866690E+03  0.50400001928E-02 0.  1.
        1   -1    0    0  501    0  0.00000000000E+00  0.00000000000E+00 -0.35699047557E+03  0.35699047560E+03  0.50400001928E-02 0. -1.
    10030    2    1    2    0    0  0.00000000000E+00  0.00000000000E+00  0.29435819132E+03  0.10083391425E+04  0.96441748300E+03 0.  0.
        3    1    3    3  502    0 -0.19570250914E+03  0.39879011971E+03  0.34331853795E+03  0.56142734202E+03  0.10100000352E+00 0.  1.
       -3    1    3    3    0  502  0.19570250914E+03 -0.39879011971E+03 -0.48960346635E+02  0.44691180048E+03  0.10100000352E+00 0. -1.
</event>
<event>
 5   0  0.3439015E-02  0.6815165E+03  0.7818609E-02  0.9749374E-01
       -1   -1    0    0    0  501  0.00000000000E+00  0.00000000000E+00  0.39471074099E+03  0.39471074102E+03  0.50400001928E-02 0.  1.
        1   -1    0    0  501    0  0.00000000000E+00  0.00000000000E+00 -0.29418045712E+03  0.29418045716E+03  0.50400001928E-02 0. -1.
    10030    2    1    2    0    0  0.00000000000E+00  0.00000000000E+00  0.10053028387E+03  0.68889119818E+03  0.68151650380E+03 0.  0.
        1    1    3    3  502    0 -0.16749261960E+03  0.25162504633E+02 -0.24861884808E+03  0.30082928865E+03  0.50400001928E-02 0. -1.
       -1    1    3    3    0  502  0.16749261960E+03 -0.25162504633E+02  0.34914913196E+03  0.38806190953E+03  0.50400001928E-02 0.  1.
</event>
<event>
 5   0  0.5987810E-02  0.6789783E+03  0.7818609E-02  0.9753873E-01
        2   -1    0    0  501    0  0.00000000000E+00  0.00000000000E+00  0.36467557765E+03  0.36467557766E+03  0.25500000920E-02 0.  1.
       -2   -1    0    0    0  501  0.00000000000E+00  0.00000000000E+00 -0.31604220015E+03  0.31604220016E+03  0.25500000920E-02 0. -1.
    10030    2    1    2    0    0  0.00000000000E+00  0.00000000000E+00  0.48633377500E+02  0.68071777782E+03  0.67897826742E+03 0.  0.
        5    1    3    3  502    0  0.22438993925E+03  0.12703017160E+03 -0.19702772264E+03  0.32454510136E+03  0.46999998093E+01 0. -1.
       -5    1    3    3    0  502 -0.22438993925E+03 -0.12703017160E+03  0.24566110014E+03  0.35617267645E+03  0.46999998093E+01 0.  1.
</event>
<event>
 5   0  0.3755872E-02  0.7070990E+03  0.7818609E-02  0.9705168E-01
       -1   -1    0    0    0  501  0.00000000000E+00  0.00000000000E+00  0.45008775539E+02  0.45008775821E+02  0.50400001928E-02 0. -1.
        1   -1    0    0  501    0  0.00000000000E+00  0.00000000000E+00 -0.27771750589E+04  0.27771750589E+04  0.50400001928E-02 0.  1.
    10030    2    1    2    0    0  0.00000000000E+00  0.00000000000E+00 -0.27321662834E+04  0.28221838348E+04  0.70709900089E+03 0.  0.
        2    1    3    3  502    0  0.16828358051E+03 -0.73529614809E+02 -0.25718744543E+04  0.25784228079E+04  0.25500000920E-02 0.  1.
       -2    1    3    3    0  502 -0.16828358051E+03  0.73529614809E+02 -0.16029182909E+03  0.24376102683E+03  0.25500000920E-02 0. -1.
</event>
<event>
 5   0  0.6131198E-02  0.7039044E+03  0.7818609E-02  0.9710578E-01
        2   -1    0    0  501    0  0.00000000000E+00  0.00000000000E+00  0.13714030458E+04  0.13714030459E+04  0.25500000920E-02 0.  1.
       -2   -1    0    0    0  501  0.00000000000E+00  0.00000000000E+00 -0.90323807029E+02  0.90323807065E+02  0.25500000920E-02 0. -1.
    10030    2    1    2    0    0  0.00000000000E+00  0.00000000000E+00  0.12810792388E+04  0.14617268529E+04  0.70390438015E+03 0.  0.
        1    1    3    3  502    0 -0.99917134191E+02 -0.24625463344E+03  0.16136447642E+03  0.31090717662E+03  0.50400001928E-02 0. -1.
       -1    1    3    3    0  502  0.99917134191E+02  0.24625463344E+03  0.11197147624E+04  0.11508196763E+04  0.50400001928E-02 0.  1.
</event>
<event>
 5   0  0.2439375E-02  0.7119491E+03  0.7818609E-02  0.9697013E-01
       -3   -1    0    0    0  501  0.00000000000E+00  0.00000000000E+00  0.17095042543E+03  0.17095045527E+03  0.10100000352E+00 0.  1.
        3   -1    0    0  501    0  0.00000000000E+00  0.00000000000E+00 -0.74125495868E+03  0.74125496556E+03  0.10100000352E+00 0. -1.
    10030    2    1    2    0    0  0.00000000000E+00  0.00000000000E+00 -0.57030453325E+03  0.91220542083E+03  0.71194906359E+03 0.  0.
        3    1    3    3  502    0 -0.12813148550E+03  0.21974095324E+03  0.33919901654E+02  0.25662099298E+03  0.10100000352E+00 0.  1.
       -3    1    3    3    0  502  0.12813148550E+03 -0.21974095324E+03 -0.60422443490E+03  0.65558442785E+03  0.10100000352E+00 0. -1.
</event>
<event>
 5   0  0.6248886E-02  0.7178381E+03  0.7818609E-02  0.9687204E-01
       -2   -1    0    0    0  501  0.00000000000E+00  0.00000000000E+00  0.73378345091E+02  0.73378345135E+02  0.25500000920E-02 0.  1.
        2   -1    0    0  501    0  0.00000000000E+00  0.00000000000E+00 -0.17555979786E+04  0.17555979786E+04  0.25500000920E-02 0. -1.
    10030    2    1    2    0    0  0.00000000000E+00  0.00000000000E+00 -0.16822196335E+04  0.18289763238E+04  0.71783807188E+03 0.  0.
        3    1    3    3  502    0  0.18942866659E+03 -0.14090908142E+03 -0.15230913631E+03  0.28095670869E+03  0.10100000352E+00 0.  1.
       -3    1    3    3    0  502 -0.18942866659E+03  0.14090908142E+03 -0.15299104972E+04  0.15480196151E+04  0.10100000352E+00 0. -1.
</event>
<event>
 5   0  0.2439375E-02  0.6812474E+03  0.7818609E-02  0.9749850E-01
       -3   -1    0    0    0  501  0.00000000000E+00  0.00000000000E+00  0.81343813039E+03  0.81343813666E+03  0.10100000352E+00 0. -1.
        3   -1    0    0  501    0  0.00000000000E+00  0.00000000000E+00 -0.14263469038E+03  0.14263472613E+03  0.10100000352E+00 0.  1.
    10030    2    1    2    0    0  0.00000000000E+00  0.00000000000E+00  0.67080344001E+03  0.95607286279E+03  0.68124743217E+03 0.  0.
        4    1    3    3  502    0  0.19911011365E+03 -0.26242365744E+03  0.21376611637E+03  0.39269400142E+03  0.12699999809E+01 0.  1.
       -4    1    3    3    0  502 -0.19911011365E+03  0.26242365744E+03  0.45703732364E+03  0.56337886137E+03  0.12699999809E+01 0. -1.
</event>
<event>
 5   0  0.3439015E-02  0.6479493E+03  0.7818609E-02  0.9810635E-01
       -1   -1    0    0    0  501  0.00000000000E+00  0.00000000000E+00  0.91642891257E+02  0.91642891395E+02  0.50400001928E-02 0. -1.
        1   -1    0    0  501    0  0.00000000000E+00  0.00000000000E+00 -0.11453105916E+04  0.11453105916E+04  0.50400001928E-02 0.  1.
    10030    2    1    2    0    0  0.00000000000E+00  0.00000000000E+00 -0.10536677004E+04  0.12369534830E+04  0.64794930078E+03 0.  0.
        1    1    3    3  502    0  0.29547541123E+03  0.13260399610E+03 -0.54280999260E+03  0.63208561644E+03  0.50400001928E-02 0.  1.
       -1    1    3    3    0  502 -0.29547541123E+03 -0.13260399610E+03 -0.51085770776E+03  0.60486786658E+03  0.50400001928E-02 0. -1.
</event>
<event>
 5   0  0.6248886E-02  0.6407362E+03  0.7818609E-02  0.9824319E-01
       -2   -1    0    0    0  501  0.00000000000E+00  0.00000000000E+00  0.12411791748E+03  0.12411791751E+03  0.25500000920E-02 0.  1.
        2   -1    0    0  501    0  0.00000000000E+00  0.00000000000E+00 -0.82692114906E+03  0.82692114906E+03  0.25500000920E-02 0. -1.
    10030    2    1    2    0    0  0.00000000000E+00  0.00000000000E+00 -0.70280323158E+03  0.95103906657E+03  0.64073623577E+03 0.  0.
        3    1    3    3  502    0 -0.18041865641E+03  0.12617444292E+03 -0.59574991632E+01  0.22024164826E+03  0.10100000352E+00 0.  1.
       -3    1    3    3    0  502  0.18041865641E+03 -0.12617444292E+03 -0.69684573242E+03  0.73079741831E+03  0.10100000352E+00 0. -1.
</event>
<event>
 5   0  0.6131198E-02  0.7054391E+03  0.7818609E-02  0.9707976E-01
        2   -1    0    0  501    0  0.00000000000E+00  0.00000000000E+00  0.29585516592E+03  0.29585516593E+03  0.25500000920E-02 0. -1.
       -2   -1    0    0    0  501  0.00000000000E+00  0.00000000000E+00 -0.42051347179E+03  0.42051347180E+03  0.25500000920E-02 0.  1.
    10030    2    1    2    0    0  0.00000000000E+00  0.00000000000E+00 -0.12465830587E+03  0.71636863773E+03  0.70543910574E+03 0.  0.
        1    1    3    3  502    0 -0.31600929875E+03 -0.73509776711E+02 -0.20284024295E+03  0.38263524192E+03  0.50400001928E-02 0.  1.
       -1    1    3    3    0  502  0.31600929875E+03  0.73509776711E+02  0.78181937077E+02  0.33373339581E+03  0.50400001928E-02 0. -1.
</event>
<event>
 5   0  0.3755872E-02  0.6863110E+03  0.7818609E-02  0.9740933E-01
       -1   -1    0    0    0  501  0.00000000000E+00  0.00000000000E+00  0.35564001939E+03  0.35564001943E+03  0.50400001928E-02 0.  1.
        1   -1    0    0  501    0  0.00000000000E+00  0.00000000000E+00 -0.33110919594E+03  0.33110919598E+03  0.50400001928E-02 0. -1.
    10030    2    1    2    0    0  0.00000000000E+00  0.00000000000E+00  0.24530823448E+02  0.68674921541E+03  0.68631095253E+03 0.  0.
        2    1    3    3  502    0 -0.16313939923E+03  0.27207733398E+03 -0.11864298111E+03  0.33869853295E+03  0.25500000920E-02 0. -1.
       -2    1    3    3    0  502  0.16313939923E+03 -0.27207733398E+03  0.14317380455E+03  0.34805068247E+03  0.25500000920E-02 0.  1.
</event>
<event>
 5   0  0.6167756E-02  0.6785298E+03  0.7818609E-02  0.9754670E-01
        2   -1    0    0  501    0  0.00000000000E+00  0.00000000000E+00  0.77570397757E+03  0.77570397757E+03  0.25500000920E-02 0. -1.
       -2   -1    0    0    0  501  0.00000000000E+00  0.00000000000E+00 -0.14838222106E+03  0.14838222108E+03  0.25500000920E-02 0.  1.
    10030    2    1    2    0    0  0.00000000000E+00  0.00000000000E+00  0.62732175651E+03  0.92408619865E+03  0.67852981979E+03 0.  0.
        4    1    3    3  502    0 -0.83819161484E+02 -0.11749008810E+03  0.73180801987E+03  0.74590492925E+03  0.12699999809E+01 0. -1.
       -4    1    3    3    0  502  0.83819161484E+02  0.11749008810E+03 -0.10448626336E+03  0.17818126940E+03  0.12699999809E+01 0.  1.
</event>
<event>
 5   0  0.5899787E-02  0.7106947E+03  0.7818609E-02  0.9699116E-01
        2   -1    0    0  501    0  0.00000000000E+00  0.00000000000E+00  0.19277978341E+04  0.19277978341E+04  0.25500000920E-02 0. -1.
       -2   -1    0    0    0  501  0.00000000000E+00  0.00000000000E+00 -0.65500506744E+02  0.65500506793E+02  0.25500000920E-02 0.  1.
    10030    2    1    2    0    0  0.00000000000E+00  0.00000000000E+00  0.18622973274E+04  0.19932983409E+04  0.71069468856E+03 0.  0.
        2    1    3    3  502    0  0.19387499723E+03 -0.17251226448E+03  0.25032540393E+03  0.36057010942E+03  0.25500000920E-02 0.  1.
       -2    1    3    3    0  502 -0.19387499723E+03  0.17251226448E+03  0.16119719235E+04  0.16327282315E+04  0.25500000920E-02 0. -1.
</event>
<event>
 5   0  0.3717372E-02  0.6719721E+03  0.7818609E-02  0.9766402E-01
       -1   -1    0    0    0  501  0.00000000000E+00  0.00000000000E+00  0.18103449927E+03  0.18103449934E+03  0.50400001928E-02 0.  1.
        1   -1    0    0  501    0  0.00000000000E+00  0.00000000000E+00 -0.62356408806E+03  0.62356408808E+03  0.50400001928E-02 0. -1.
    10030    2    1    2    0    0  0.00000000000E+00  0.00000000000E+00 -0.44252958879E+03  0.80459858741E+03  0.67197206037E+03 0.  0.
        3    1    3    3  502    0 -0.32092259424E+03  0.63529299485E+02 -0.31291883531E+03  0.45270905787E+03  0.10100000352E+00 0. -1.
       -3    1    3    3    0  502  0.32092259424E+03 -0.63529299485E+02 -0.12961075347E+03  0.35188952954E+03  0.10100000352E+00 0.  1.
</event>
<event>
 5   0  0.3749730E-02  0.6961239E+03  0.7818609E-02  0.9723884E-01
       -1   -1    0    0    0  501  0.00000000000E+00  0.00000000000E+00  0.13638754923E+03  0.13638754932E+03  0.50400001928E-02 0. -1.
        1   -1    0    0  501    0  0.00000000000E+00  0.00000000000E+00 -0.88825654264E+03  0.88825654266E+03  0.50400001928E-02 0.  1.
    10030    2    1    2    0    0  0.00000000000E+00  0.00000000000E+00 -0.75186899341E+03  0.10246440920E+04  0.69612393435E+03 0.  0.
        4    1    3    3  502    0 -0.13308827377E+03  0.30924309905E+03 -0.24592288805E+03  0.41692141069E+03  0.12699999809E+01 0. -1.
       -4    1    3    3    0  502  0.13308827377E+03 -0.30924309905E+03 -0.50594610536E+03  0.60772268129E+03  0.12699999809E+01 0.  1.
</event>
<event>
 5   0  0.3601475E-02  0.6841011E+03  0.7818609E-02  0.9744814E-01
       -1   -1    0    0    0  501  0.00000000000E+00  0.00000000000E+00  0.61903437377E+02  0.61903437582E+02  0.50400001928E-02 0. -1.
        1   -1    0    0  501    0  0.00000000000E+00  0.00000000000E+00 -0.18900176240E+04  0.18900176240E+04  0.50400001928E-02 0.  1.
    10030    2    1    2    0    0  0.00000000000E+00  0.00000000000E+00 -0.18281141866E+04  0.19519210616E+04  0.68410112655E+03 0.  0.
        5    1    3    3  502    0 -0.12123949228E+03  0.26431309509E+03 -0.14277719584E+04  0.14570913773E+04  0.46999998093E+01 0.  1.
       -5    1    3    3    0  502  0.12123949228E+03 -0.26431309509E+03 -0.40034222825E+03  0.49482968428E+03  0.46999998093E+01 0. -1.
</event>
<event>
 5   0  0.3749730E-02  0.7078817E+03  0.7818609E-02  0.9703848E-01
       -1   -1    0    0    0  501  0.00000000000E+00  0.00000000000E+00  0.58762496569E+03  0.58762496571E+03  0.50400001928E-02 0.  1.
        1   -1    0    0  501    0  0.00000000000E+00  0.00000000000E+00 -0.21318721532E+03  0.21318721538E+03  0.50400001928E-02 0. -1.
    10030    2    1    2    0    0  0.00000000000E+00  0.00000000000E+00  0.37443775037E+03  0.80081218109E+03  0.70788171362E+03 0.  0.
        4    1    3    3  502    0  0.32418223671E+03  0.13682867285E+03  0.23039033454E+03  0.42059187755E+03  0.12699999809E+01 0.  1.
       -4    1    3    3    0  502 -0.32418223671E+03 -0.13682867285E+03  0.14404741583E+03  0.38022030354E+03  0.12699999809E+01 0. -1.
</event>
<event>
 5   0  0.3439015E-02  0.6861855E+03  0.7818609E-02  0.9741153E-01
       -1   -1    0    0    0  501  0.00000000000E+00  0.00000000000E+00  0.97396925726E+02  0.97396925857E+02  0.50400001928E-02 0. -1.
        1   -1    0    0  501    0  0.00000000000E+00  0.00000000000E+00 -0.12085868891E+04  0.12085868891E+04  0.50400001928E-02 0.  1.
    10030    2    1    2    0    0  0.00000000000E+00  0.00000000000E+00 -0.11111899634E+04  0.13059838150E+04  0.68618553633E+03 0.  0.
        1    1    3    3  502    0 -0.34123619577E+03  0.23732141731E+02 -0.60621187798E+03  0.69605904699E+03  0.50400001928E-02 0. -1.
       -1    1    3    3    0  502  0.34123619577E+03 -0.23732141731E+02 -0.50497808542E+03  0.60992476802E+03  0.50400001928E-02 0.  1.
</event>
<event>
 5   0  0.5987810E-02  0.7075561E+03  0.7818609E-02  0.9704397E-01
        2   -1    0    0  501    0  0.00000000000E+00  0.00000000000E+00  0.25277508264E+04  0.25277508264E+04  0.25500000920E-02 0. -1.
       -2   -1    0    0    0  501  0.00000000000E+00  0.00000000000E+00 -0.49513942449E+02  0.49513942515E+02  0.25500000920E-02 0.  1.
    10030    2    1    2    0    0  0.00000000000E+00  0.00000000000E+00  0.24782368840E+04  0.25772647689E+04  0.70755610104E+03 0.  0.
        5    1    3    3  502    0 -0.13125040460E+03  0.21867406763E+03  0.21320245060E+04  0.21472297503E+04  0.46999998093E+01 0. -1.
       -5    1    3    3    0  502  0.13125040460E+03 -0.21867406763E+03  0.34621237796E+03  0.43003501858E+03  0.46999998093E+01 0.  1.
</event>
<event>
 5   0  0.3749730E-02  0.6989227E+03  0.7818609E-02  0.9719076E-01
        1   -1    0    0  501    0  0.00000000000E+00  0.00000000000E+00  0.85388839697E+03  0.85388839698E+03  0.50400001928E-02 0.  1.
       -1   -1    0    0    0  501  0.00000000000E+00  0.00000000000E+00 -0.14302012423E+03  0.14302012432E+03  0.50400001928E-02 0. -1.
    10030    2    1    2    0    0  0.00000000000E+00  0.00000000000E+00  0.71086827274E+03  0.99690852130E+03  0.69892267001E+03 0.  0.
        4    1    3    3  502    0  0.29150939267E+03  0.14797024382E+03  0.17930042472E+03  0.37285811547E+03  0.12699999809E+01 0. -1.
       -4    1    3    3    0  502 -0.29150939267E+03 -0.14797024382E+03  0.53156784801E+03  0.62405040583E+03  0.12699999809E+01 0.  1.
</event>
<event>
 5   0  0.5987810E-02  0.5244571E+03  0.7818609E-02  0.1007585E+00
       -2   -1    0    0    0  501  0.00000000000E+00  0.00000000000E+00  0.59742990353E+02  0.59742990407E+02  0.25500000920E-02 0.  1.
        2   -1    0    0  501    0  0.00000000000E+00  0.00000000000E+00 -0.11509939315E+04  0.11509939315E+04  0.25500000920E-02 0. -1.
    10030    2    1    2    0    0  0.00000000000E+00  0.00000000000E+00 -0.10912509412E+04  0.12107369219E+04  0.52445712649E+03 0.  0.
        5    1    3    3  502    0 -0.19496238729E+03 -0.39947996381E+02 -0.93967556828E+03  0.96053029025E+03  0.46999998093E+01 0. -1.
       -5    1    3    3    0  502  0.19496238729E+03  0.39947996381E+02 -0.15157537289E+03  0.25020663168E+03  0.46999998093E+01 0.  1.
</event>
<event>
 5   0  0.6248886E-02  0.7019404E+03  0.7818609E-02  0.9713920E-01
        2   -1    0    0  501    0  0.00000000000E+00  0.00000000000E+00  0.42769830645E+03  0.42769830646E+03  0.25500000920E-02 0.  1.
       -2   -1    0    0    0  501  0.00000000000E+00  0.00000000000E+00 -0.28800697812E+03  0.28800697814E+03  0.25500000920E-02 0. -1.
    10030    2    1    2    0    0  0.00000000000E+00  0.00000000000E+00  0.13969132833E+03  0.71570528460E+03  0.70194044419E+03 0.  0.
        3    1    3    3  502    0  0.75519382316E+02 -0.20064783644E+03 -0.21348359041E+03  0.30255244992E+03  0.10100000352E+00 0. -1.
       -3    1    3    3    0  502 -0.75519382316E+02  0.20064783644E+03  0.35317491874E+03  0.41315283468E+03  0.10100000352E+00 0.  1.
</event>
<event>
 5   0  0.6248886E-02  0.7425594E+03  0.7818609E-02  0.9647096E-01
       -2   -1    0    0    0  501  0.00000000000E+00  0.00000000000E+00  0.86113582501E+02  0.86113582539E+02  0.25500000920E-02 0.  1.
        2   -1    0    0  501    0  0.00000000000E+00  0.00000000000E+00 -0.16007765732E+04  0.16007765732E+04  0.25500000920E-02 0. -1.
    10030    2    1    2    0    0  0.00000000000E+00  0.00000000000E+00 -0.15146629907E+04  0.16868901557E+04  0.74255937280E+03 0.  0.
        3    1    3    3  502    0 -0.10937616174E+03 -0.18073585458E+03 -0.63729758135E+02  0.22065830182E+03  0.10100000352E+00 0.  1.
       -3    1    3    3    0  502  0.10937616174E+03  0.18073585458E+03 -0.14509332325E+04  0.14662318539E+04  0.10100000352E+00 0. -1.
</event>
<event>
 5   0  0.3601475E-02  0.6953596E+03  0.7818609E-02  0.9725201E-01
        1   -1    0    0  501    0  0.00000000000E+00  0.00000000000E+00  0.78811258879E+03  0.78811258881E+03  0.50400001928E-02 0. -1.
       -1   -1    0    0    0  501  0.00000000000E+00  0.00000000000E+00 -0.15338066899E+03  0.15338066907E+03  0.50400001928E-02 0.  1.
    10030    2    1    2    0    0  0.00000000000E+00  0.00000000000E+00  0.63473191980E+03  0.94149325787E+03  0.69535957936E+03 0.  0.
        5    1    3    3  502    0 -0.14240950887E+03 -0.21004444777E+03  0.63908609300E+03  0.68764253978E+03  0.46999998093E+01 0. -1.
       -5    1    3    3    0  502  0.14240950887E+03  0.21004444777E+03 -0.43541731932E+01  0.25385071809E+03  0.46999998093E+01 0.  1.
</event>
<event>
 5   0  0.5987810E-02  0.6168219E+03  0.7818609E-02  0.9871108E-01
       -2   -1    0    0    0  501  0.00000000000E+00  0.00000000000E+00  0.95861644132E+03  0.95861644132E+03  0.25500000920E-02 0.  1.
        2   -1    0    0  501    0  0.00000000000E+00  0.00000000000E+00 -0.99223532105E+02  0.99223532137E+02  0.25500000920E-02 0. -1.
    10030    2    1    2    0    0  0.00000000000E+00  0.00000000000E+00  0.85939290921E+03  0.10578399735E+04  0.61682188437E+03 0.  0.
        5    1    3    3  502    0  0.58746341110E+02 -0.25307433748E+03  0.14479490808E+03  0.29746496986E+03  0.46999998093E+01 0. -1.
       -5    1    3    3    0  502 -0.58746341110E+02  0.25307433748E+03  0.71459800113E+03  0.76037500360E+03  0.46999998093E+01 0.  1.
</event>
<event>
 5   0  0.6248886E-02  0.6863552E+03  0.7818609E-02  0.9740855E-01
       -2   -1    0    0    0  501  0.00000000000E+00  0.00000000000E+00  0.75717934603E+03  0.75717934604E+03  0.25500000920E-02 0. -1.
        2   -1    0    0  501    0  0.00000000000E+00  0.00000000000E+00 -0.15553891109E+03  0.15553891111E+03  0.25500000920E-02 0.  1.
    10030    2    1    2    0    0  0.00000000000E+00  0.00000000000E+00  0.60164043494E+03  0.91271825715E+03  0.68635515877E+03 0.  0.
        3    1    3    3  502    0 -0.14142918488E+03 -0.22153686334E+03  0.73879146642E+01  0.26293609041E+03  0.10100000352E+00 0.  1.
       -3    1    3    3    0  502  0.14142918488E+03  0.22153686334E+03  0.59425252028E+03  0.64978216674E+03  0.10100000352E+00 0. -1.
</event>
<event>
 5   0  0.3439015E-02  0.7084978E+03  0.7818609E-02  0.9702809E-01
        1   -1    0    0  501    0  0.00000000000E+00  0.00000000000E+00  0.52236000822E+03  0.52236000825E+03  0.50400001928E-02 0. -1.
       -1   -1    0    0    0  501  0.00000000000E+00  0.00000000000E+00 -0.24024100407E+03  0.24024100413E+03  0.50400001928E-02 0.  1.
    10030    2    1    2    0    0  0.00000000000E+00  0.00000000000E+00  0.28211900415E+03  0.76260101237E+03  0.70849782750E+03 0.  0.
        1    1    3    3  502    0  0.13105296648E+03 -0.18600096560E+03  0.43330957042E+03  0.48941641071E+03  0.50400001928E-02 0. -1.
       -1    1    3    3    0  502 -0.13105296648E+03  0.18600096560E+03 -0.15119056627E+03  0.27318460166E+03  0.50400001928E-02 0.  1.
</event>
<event>
 5   0  0.3717372E-02  0.6578399E+03  0.7818609E-02  0.9792178E-01
        1   -1    0    0  501    0  0.00000000000E+00  0.00000000000E+00  0.19752365348E+04  0.19752365348E+04  0.50400001928E-02 0. -1.
       -1   -1    0    0    0  501  0.00000000000E+00  0.00000000000E+00 -0.54772349110E+02  0.54772349342E+02  0.50400001928E-02 0.  1.
    10030    2    1    2    0    0  0.00000000000E+00  0.00000000000E+00  0.19204641857E+04  0.20300088841E+04  0.65783993585E+03 0.  0.
        3    1    3    3  502    0  0.24119764759E+03 -0.22361520807E+03  0.96910557390E+03  0.10233990864E+04  0.10100000352E+00 0.  1.
       -3    1    3    3    0  502 -0.24119764759E+03  0.22361520807E+03  0.95135861177E+03  0.10066097977E+04  0.10100000352E+00 0. -1.
</event>
<event>
 5   0  0.3755872E-02  0.7088308E+03  0.7818609E-02  0.9702248E-01
        1   -1    0    0  501    0  0.00000000000E+00  0.00000000000E+00  0.94737027476E+03  0.94737027477E+03  0.50400001928E-02 0. -1.
       -1   -1    0    0    0  501  0.00000000000E+00  0.00000000000E+00 -0.13258835207E+03  0.13258835216E+03  0.50400001928E-02 0.  1.
    10030    2    1    2    0    0  0.00000000000E+00  0.00000000000E+00  0.81478192269E+03  0.10799586269E+04  0.70883076566E+03 0.  0.
        2    1    3    3  502    0 -0.31737577771E+03 -0.13782367278E+03  0.29048664278E+03  0.45178007780E+03  0.25500000920E-02 0.  1.
       -2    1    3    3    0  502  0.31737577771E+03  0.13782367278E+03  0.52429527991E+03  0.62817854914E+03  0.25500000920E-02 0. -1.
</event>
<event>
 5   0  0.2439375E-02  0.7194947E+03  0.7818609E-02  0.9684462E-01
        3   -1    0    0  501    0  0.00000000000E+00  0.00000000000E+00  0.71667331195E+03  0.71667331907E+03  0.10100000352E+00 0. -1.
       -3   -1    0    0    0  501  0.00000000000E+00  0.00000000000E+00 -0.18058178392E+03  0.18058181217E+03  0.10100000352E+00 0.  1.
    10030    2    1    2    0    0  0.00000000000E+00  0.00000000000E+00  0.53609152803E+03  0.89725513123E+03  0.71949471444E+03 0.  0.
        4    1    3    3  502    0  0.25010861344E+03  0.24466077881E+03  0.37240736403E+03  0.51098147999E+03  0.12699999809E+01 0. -1.
       -4    1    3    3    0  502 -0.25010861344E+03 -0.24466077881E+03  0.16368416400E+03  0.38627365125E+03  0.12699999809E+01 0.  1.
</event>
<event>
 5   0  0.6131198E-02  0.7089468E+03  0.7818609E-02  0.9702053E-01
        2   -1    0    0  501    0  0.00000000000E+00  0.00000000000E+00  0.18105014248E+03  0.18105014250E+03  0.25500000920E-02 0.  1.
       -2   -1    0    0    0  501  0.00000000000E+00  0.00000000000E+00 -0.69401424570E+03  0.69401424570E+03  0.25500000920E-02 0. -1.
    10030    2    1    2    0    0  0.00000000000E+00  0.00000000000E+00 -0.51296410322E+03  0.87506438820E+03  0.70894676267E+03 0.  0.
        1    1    3    3  502    0 -0.23126860621E+03  0.58437059446E+01  0.75023309959E+02  0.24320323636E+03  0.50400001928E-02 0.  1.
       -1    1    3    3    0  502  0.23126860621E+03 -0.58437059446E+01 -0.58798741318E+03  0.63186115184E+03  0.50400001928E-02 0. -1.
</event>
<event>
 5   0  0.5987810E-02  0.6829370E+03  0.7818609E-02  0.9746865E-01
       -2   -1    0    0    0  501  0.00000000000E+00  0.00000000000E+00  0.21899540678E+03  0.21899540680E+03  0.25500000920E-02 0. -1.
        2   -1    0    0  501    0  0.00000000000E+00  0.00000000000E+00 -0.53243468067E+03  0.53243468068E+03  0.25500000920E-02 0.  1.
    10030    2    1    2    0    0  0.00000000000E+00  0.00000000000E+00 -0.31343927389E+03  0.75143008748E+03  0.68293703806E+03 0.  0.
        5    1    3    3  502    0  0.20970516500E+03 -0.12616776433E+03  0.10524250677E+03  0.26644443363E+03  0.46999998093E+01 0. -1.
       -5    1    3    3    0  502 -0.20970516500E+03  0.12616776433E+03 -0.41868178066E+03  0.48498565385E+03  0.46999998093E+01 0.  1.
</event>
<event>
 5   0  0.5899787E-02  0.7040036E+03  0.7818609E-02  0.9710410E-01
        2   -1    0    0  501    0  0.00000000000E+00  0.00000000000E+00  0.42631928290E+03  0.42631928291E+03  0.25500000920E-02 0.  1.
       -2   -1    0    0    0  501  0.00000000000E+00  0.00000000000E+00 -0.29063957322E+03  0.29063957323E+03  0.25500000920E-02 0. -1.
    10030    2    1    2    0    0  0.00000000000E+00  0.00000000000E+00  0.13567970968E+03  0.71695885614E+03  0.70400356375E+03 0.  0.
        2    1    3    3  502    0 -0.26099601399E+02 -0.28306518534E+03 -0.14358146094E+03  0.31846934590E+03  0.25500000920E-02 0. -1.
       -2    1    3    3    0  502  0.26099601399E+02  0.28306518534E+03  0.27926117062E+03  0.39848951024E+03  0.25500000920E-02 0.  1.
</event>
<event>
 5   0  0.6248886E-02  0.6914976E+03  0.7818609E-02  0.9731884E-01
       -2   -1    0    0    0  501  0.00000000000E+00  0.00000000000E+00  0.64171843618E+03  0.64171843619E+03  0.25500000920E-02 0.  1.
        2   -1    0    0  501    0  0.00000000000E+00  0.00000000000E+00 -0.18628452812E+03  0.18628452813E+03  0.25500000920E-02 0. -1.
    10030    2    1    2    0    0  0.00000000000E+00  0.00000000000E+00  0.45543390806E+03  0.82800296432E+03  0.69149755191E+03 0.  0.
        3    1    3    3  502    0  0.22840116717E+03 -0.20672359084E+03  0.41567708360E+03  0.51738688059E+03  0.10100000352E+00 0.  1.
       -3    1    3    3    0  502 -0.22840116717E+03  0.20672359084E+03  0.39756824464E+02  0.31061608373E+03  0.10100000352E+00 0. -1.
</event>
<event>
 5   0  0.3755872E-02  0.6817028E+03  0.7818609E-02  0.9749045E-01
        1   -1    0    0  501    0  0.00000000000E+00  0.00000000000E+00  0.48945825473E+03  0.48945825475E+03  0.50400001928E-02 0.  1.
       -1   -1    0    0    0  501  0.00000000000E+00  0.00000000000E+00 -0.23736377852E+03  0.23736377857E+03  0.50400001928E-02 0. -1.
    10030    2    1    2    0    0  0.00000000000E+00  0.00000000000E+00  0.25209447621E+03  0.72682203332E+03  0.68170275281E+03 0.  0.
        2    1    3    3  502    0 -0.24286703559E+02  0.91453300720E+02 -0.22307966266E+03  0.24231815054E+03  0.25500000920E-02 0. -1.
       -2    1    3    3    0  502  0.24286703559E+02 -0.91453300720E+02  0.47517413886E+03  0.48450388279E+03  0.25500000920E-02 0.  1.
</event>
<event>
 5   0  0.3439015E-02  0.7033573E+03  0.7818609E-02  0.9711508E-01
       -1   -1    0    0    0  501  0.00000000000E+00  0.00000000000E+00  0.15757201478E+03  0.15757201486E+03  0.50400001928E-02 0. -1.
        1   -1    0    0  501    0  0.00000000000E+00  0.00000000000E+00 -0.78489749431E+03  0.78489749433E+03  0.50400001928E-02 0.  1.
    10030    2    1    2    0    0  0.00000000000E+00  0.00000000000E+00 -0.62732547953E+03  0.94246950919E+03  0.70335731921E+03 0.  0.
        1    1    3    3  502    0  0.81751549628E+02  0.34166226362E+03 -0.33532955330E+03  0.48565659430E+03  0.50400001928E-02 0. -1.
       -1    1    3    3    0  502 -0.81751549628E+02 -0.34166226362E+03 -0.29199592623E+03  0.45681291489E+03  0.50400001928E-02 0.  1.
</event>
<event>
 5   0  0.6248886E-02  0.7646643E+03  0.7818609E-02  0.9612621E-01
       -2   -1    0    0    0  501  0.00000000000E+00  0.00000000000E+00  0.39364293489E+03  0.39364293490E+03  0.25500000920E-02 0. -1.
        2   -1    0    0  501    0  0.00000000000E+00  0.00000000000E+00 -0.37134635125E+03  0.37134635126E+03  0.25500000920E-02 0.  1.
    10030    2    1    2    0    0  0.00000000000E+00  0.00000000000E+00  0.22296583644E+02  0.76498928616E+03  0.76466428601E+03 0.  0.
        3    1    3    3  502    0 -0.21343823548E+02 -0.27767633676E+03  0.27321029135E+03  0.39013277266E+03  0.10100000352E+00 0. -1.
       -3    1    3    3    0  502  0.21343823548E+02  0.27767633676E+03 -0.25091370771E+03  0.37485651350E+03  0.10100000352E+00 0.  1.
</event>
<event>
 5   0  0.5987810E-02  0.7236056E+03  0.7818609E-02  0.9677694E-01
       -2   -1    0    0    0  501  0.00000000000E+00  0.00000000000E+00  0.10218986625E+04  0.10218986625E+04  0.25500000920E-02 0.  1.
        2   -1    0    0  501    0  0.00000000000E+00  0.00000000000E+00 -0.12809613187E+03  0.12809613189E+03  0.25500000920E-02 0. -1.
    10030    2    1    2    0    0  0.00000000000E+00  0.00000000000E+00  0.89380253063E+03  0.11499947944E+04  0.72360559932E+03 0.  0.
        5    1    3    3  502    0 -0.21748696692E+03 -0.18273345346E+02 -0.11633426950E+02  0.21861363761E+03  0.46999998093E+01 0. -1.
       -5    1    3    3    0  502  0.21748696692E+03  0.18273345346E+02  0.90543595758E+03  0.93138115678E+03  0.46999998093E+01 0.  1.
</event>
<event>
 5   0  0.3717372E-02  0.4848078E+03  0.7818609E-02  0.1017822E+00
       -1   -1    0    0    0  501  0.00000000000E+00  0.00000000000E+00  0.27793972462E+03  0.27793972466E+03  0.50400001928E-02 0.  1.
        1   -1    0    0  501    0  0.00000000000E+00  0.00000000000E+00 -0.21141148088E+03  0.21141148094E+03  0.50400001928E-02 0. -1.
    10030    2    1    2    0    0  0.00000000000E+00  0.00000000000E+00  0.66528243735E+02  0.48935120561E+03  0.48480779203E+03 0.  0.
        3    1    3    3  502    0 -0.11987644424E+03 -0.15083046498E+03  0.18174624055E+03  0.26486203428E+03  0.10100000352E+00 0.  1.
       -3    1    3    3    0  502  0.11987644424E+03  0.15083046498E+03 -0.11521799681E+03  0.22448917132E+03  0.10100000352E+00 0. -1.
</event>
<event>
 5   0  0.3755872E-02  0.6981301E+03  0.7818609E-02  0.9720435E-01
        1   -1    0    0  501    0  0.00000000000E+00  0.00000000000E+00  0.66406042728E+03  0.66406042730E+03  0.50400001928E-02 0.  1.
       -1   -1    0    0    0  501  0.00000000000E+00  0.00000000000E+00 -0.18348691833E+03  0.18348691840E+03  0.50400001928E-02 0. -1.
    10030    2    1    2    0    0  0.00000000000E+00  0.00000000000E+00  0.48057350896E+03  0.84754734570E+03  0.69813007792E+03 0.  0.
        2    1    3    3  502    0 -0.98271925531E+02 -0.14159901547E+03  0.60879632740E+03  0.63272475911E+03  0.25500000920E-02 0.  1.
       -2    1    3    3    0  502  0.98271925531E+02  0.14159901547E+03 -0.12822281845E+03  0.21482258658E+03  0.25500000920E-02 0. -1.
</event>
<event>
 5   0  0.3755872E-02  0.7905846E+03  0.7818609E-02  0.9573746E-01
        1   -1    0    0  501    0  0.00000000000E+00  0.00000000000E+00  0.32176202734E+03  0.32176202738E+03  0.50400001928E-02 0. -1.
       -1   -1    0    0    0  501  0.00000000000E+00  0.00000000000E+00 -0.48562596236E+03  0.48562596238E+03  0.50400001928E-02 0.  1.
    10030    2    1    2    0    0  0.00000000000E+00  0.00000000000E+00 -0.16386393502E+03  0.80738798976E+03  0.79058457917E+03 0.  0.
        2    1    3    3  502    0  0.18623192439E+03 -0.31180203613E+03 -0.24130379791E+03  0.43603940451E+03  0.25500000920E-02 0.  1.
       -2    1    3    3    0  502 -0.18623192439E+03  0.31180203613E+03  0.77439862889E+02  0.37134858525E+03  0.25500000920E-02 0. -1.
</event>
<event>
 5   0  0.6167756E-02  0.6896869E+03  0.7818609E-02  0.9735033E-01
       -2   -1    0    0    0  501  0.00000000000E+00  0.00000000000E+00  0.12314192254E+03  0.12314192257E+03  0.25500000920E-02 0. -1.
        2   -1    0    0  501    0  0.00000000000E+00  0.00000000000E+00 -0.96569067027E+03  0.96569067027E+03  0.25500000920E-02 0.  1.
    10030    2    1    2    0    0  0.00000000000E+00  0.00000000000E+00 -0.84254874772E+03  0.10888325928E+04  0.68968690210E+03 0.  0.
        4    1    3    3  502    0  0.88469719965E+02 -0.12768800354E+03 -0.90732027038E+03  0.92052311407E+03  0.12699999809E+01 0.  1.
       -4    1    3    3    0  502 -0.88469719965E+02  0.12768800354E+03  0.64771522651E+02  0.16830947877E+03  0.12699999809E+01 0. -1.
</event>
<event>
 5   0  0.2439375E-02  0.6962045E+03  0.7818609E-02  0.9723745E-01
       -3   -1    0    0    0  501  0.00000000000E+00  0.00000000000E+00  0.83535531510E+03  0.83535532121E+03  0.10100000352E+00 0.  1.
        3   -1    0    0  501    0  0.00000000000E+00  0.00000000000E+00 -0.14505822527E+03  0.14505826043E+03  0.10100000352E+00 0. -1.
    10030    2    1    2    0    0  0.00000000000E+00  0.00000000000E+00  0.69029708983E+03  0.98041358164E+03  0.69620450935E+03 0.  0.
        3    1    3    3  502    0 -0.12082423155E+03  0.30458225315E+03  0.17968148764E+03  0.37370348014E+03  0.10100000352E+00 0.  1.
       -3    1    3    3    0  502  0.12082423155E+03 -0.30458225315E+03  0.51061560219E+03  0.60671010150E+03  0.10100000352E+00 0. -1.
</event>
<event>
 5   0  0.3601475E-02  0.7118526E+03  0.7818609E-02  0.9697175E-01
        1   -1    0    0  501    0  0.00000000000E+00  0.00000000000E+00  0.50278556456E+03  0.50278556458E+03  0.50400001928E-02 0.  1.
       -1   -1    0    0    0  501  0.00000000000E+00  0.00000000000E+00 -0.25196336623E+03  0.25196336628E+03  0.50400001928E-02 0. -1.
    10030    2    1    2    0    0  0.00000000000E+00  0.00000000000E+00  0.25082219833E+03  0.75474893086E+03  0.71185263465E+03 0.  0.
        5    1    3    3  502    0 -0.13521677013E+03 -0.32451274283E+03  0.66670794352E+02  0.35785357341E+03  0.46999998093E+01 0. -1.
       -5    1    3    3    0  502  0.13521677013E+03  0.32451274283E+03  0.18415140398E+03  0.39689535745E+03  0.46999998093E+01 0.  1.
</event>
<event>
 5   0  0.5987810E-02  0.7022996E+03  0.7818609E-02  0.9713308E-01
       -2   -1    0    0    0  501  0.00000000000E+00  0.00000000000E+00  0.69925874711E+02  0.69925874757E+02  0.25500000920E-02 0. -1.
        2   -1    0    0  501    0  0.00000000000E+00  0.00000000000E+00 -0.17633842931E+04  0.17633842931E+04  0.25500000920E-02 0.  1.
    10030    2    1    2    0    0  0.00000000000E+00  0.00000000000E+00 -0.16934584184E+04  0.18333101678E+04  0.70229962036E+03 0.  0.
        5    1    3    3  502    0  0.18604382938E+03  0.25361195305E+03 -0.12540979467E+04  0.12929482121E+04  0.46999998093E+01 0.  1.
       -5    1    3    3    0  502 -0.18604382938E+03 -0.25361195305E+03 -0.43936047168E+03  0.54036195578E+03  0.46999998093E+01 0. -1.
</event>
<event>
 5   0  0.3755872E-02  0.6670651E+03  0.7818609E-02  0.9775274E-01
        1   -1    0    0  501    0  0.00000000000E+00  0.00000000000E+00  0.57518493623E+03  0.57518493626E+03  0.50400001928E-02 0. -1.
       -1   -1    0    0    0  501  0.00000000000E+00  0.00000000000E+00 -0.19340556714E+03  0.19340556720E+03  0.50400001928E-02 0.  1.
    10030    2    1    2    0    0  0.00000000000E+00  0.00000000000E+00  0.38177936910E+03  0.76859050346E+03  0.66706512076E+03 0.  0.
        2    1    3    3  502    0 -0.25963538758E+03  0.18113783437E+03  0.69922599611E+02  0.32420767953E+03  0.25500000920E-02 0.  1.
       -2    1    3    3    0  502  0.25963538758E+03 -0.18113783437E+03  0.31185676949E+03  0.44438282393E+03  0.25500000920E-02 0. -1.
</event>
<event>
 5   0  0.2439375E-02  0.6992974E+03  0.7818609E-02  0.9718434E-01
       -3   -1    0    0    0  501  0.00000000000E+00  0.00000000000E+00  0.42644707316E+03  0.42644708512E+03  0.10100000352E+00 0. -1.
        3   -1    0    0  501    0  0.00000000000E+00  0.00000000000E+00 -0.28668084023E+03  0.28668085802E+03  0.10100000352E+00 0.  1.
    10030    2    1    2    0    0  0.00000000000E+00  0.00000000000E+00  0.13976623294E+03  0.71312794314E+03  0.69929740699E+03 0.  0.
        5    1    3    3  502    0 -0.22964142169E+03  0.11486288453E+03  0.31185955617E+03  0.40398903149E+03  0.46999998093E+01 0. -1.
       -5    1    3    3    0  502  0.22964142169E+03 -0.11486288453E+03 -0.17209332323E+03  0.30913891165E+03  0.46999998093E+01 0.  1.
</event>
<event>
 5   0  0.2439375E-02  0.6640424E+03  0.7818609E-02  0.9780781E-01
        3   -1    0    0  501    0  0.00000000000E+00  0.00000000000E+00  0.48173245188E+03  0.48173246247E+03  0.10100000352E+00 0. -1.
       -3   -1    0    0    0  501  0.00000000000E+00  0.00000000000E+00 -0.22883671208E+03  0.22883673437E+03  0.10100000352E+00 0.  1.
    10030    2    1    2    0    0  0.00000000000E+00  0.00000000000E+00  0.25289573980E+03  0.71056919684E+03  0.66404241453E+03 0.  0.
        1    1    3    3  502    0 -0.22521813443E+03 -0.19445292798E+03  0.28408908342E+03  0.41139002981E+03  0.50400001928E-02 0. -1.
       -1    1    3    3    0  502  0.22521813443E+03  0.19445292798E+03 -0.31193343626E+02  0.29917916704E+03  0.50400001928E-02 0.  1.
</event>
<event>
 5   0  0.6131198E-02  0.6091774E+03  0.7818609E-02  0.9886547E-01
       -2   -1    0    0    0  501  0.00000000000E+00  0.00000000000E+00  0.58979513425E+02  0.58979513480E+02  0.25500000920E-02 0. -1.
        2   -1    0    0  501    0  0.00000000000E+00  0.00000000000E+00 -0.15729916339E+04  0.15729916339E+04  0.25500000920E-02 0.  1.
    10030    2    1    2    0    0  0.00000000000E+00  0.00000000000E+00 -0.15140121205E+04  0.16319711474E+04  0.60917741665E+03 0.  0.
        1    1    3    3  502    0  0.18619754309E+03 -0.69064298349E+02 -0.13831429168E+03  0.24201290393E+03  0.50400001928E-02 0. -1.
       -1    1    3    3    0  502 -0.18619754309E+03  0.69064298349E+02 -0.13756978288E+04  0.13899582435E+04  0.50400001928E-02 0.  1.
</event>
<event>
 5   0  0.3717372E-02  0.7069048E+03  0.7818609E-02  0.9705496E-01
       -1   -1    0    0    0  501  0.00000000000E+00  0.00000000000E+00  0.28669108613E+03  0.28669108618E+03  0.50400001928E-02 0.  1.
        1   -1    0    0  501    0  0.00000000000E+00  0.00000000000E+00 -0.43576032522E+03  0.43576032525E+03  0.50400001928E-02 0. -1.
    10030    2    1    2    0    0  0.00000000000E+00  0.00000000000E+00 -0.14906923909E+03  0.72245141143E+03  0.70690480536E+03 0.  0.
        3    1    3    3  502    0 -0.50445565207E+02  0.20359220422E+03 -0.36528035066E+03  0.42121762243E+03  0.10100000352E+00 0. -1.
       -3    1    3    3    0  502  0.50445565207E+02 -0.20359220422E+03  0.21621111157E+03  0.30123378900E+03  0.10100000352E+00 0.  1.
</event>
<event>
 5   0  0.2439375E-02  0.7131555E+03  0.7818609E-02  0.9694995E-01
        4   -1    0    0  501    0  0.00000000000E+00  0.00000000000E+00  0.26733730007E+03  0.26734031666E+03  0.12699999809E+01 0. -1.
       -4   -1    0    0    0  501  0.00000000000E+00  0.00000000000E+00 -0.47560122683E+03  0.47560292247E+03  0.12699999809E+01 0.  1.
    10030    2    1    2    0    0  0.00000000000E+00  0.00000000000E+00 -0.20826392675E+03  0.74294323913E+03  0.71315551837E+03 0.  0.
        4    1    3    3  502    0 -0.60226936299E+02  0.27619943582E+03  0.12227649672E+03  0.30800416678E+03  0.12699999809E+01 0. -1.
       -4    1    3    3    0  502  0.60226936299E+02 -0.27619943582E+03 -0.33054042347E+03  0.43493907234E+03  0.12699999809E+01 0.  1.
</event>
<event>
 5   0  0.5899787E-02  0.7020509E+03  0.7818609E-02  0.9713731E-01
        2   -1    0    0  501    0  0.00000000000E+00  0.00000000000E+00  0.42436140901E+03  0.42436140902E+03  0.25500000920E-02 0.  1.
       -2   -1    0    0    0  501  0.00000000000E+00  0.00000000000E+00 -0.29036304525E+03  0.29036304526E+03  0.25500000920E-02 0. -1.
    10030    2    1    2    0    0  0.00000000000E+00  0.00000000000E+00  0.13399836376E+03  0.71472445428E+03  0.70205091272E+03 0.  0.
        2    1    3    3  502    0 -0.25108529766E+03  0.11348975765E+03 -0.15440111336E+03  0.31585353505E+03  0.25500000920E-02 0. -1.
       -2    1    3    3    0  502  0.25108529766E+03 -0.11348975765E+03  0.28839947712E+03  0.39887091923E+03  0.25500000920E-02 0.  1.
</event>
<event>
 5   0  0.5899787E-02  0.6893318E+03  0.7818609E-02  0.9735652E-01
        2   -1    0    0  501    0  0.00000000000E+00  0.00000000000E+00  0.33208893737E+03  0.33208893738E+03  0.25500000920E-02 0. -1.
       -2   -1    0    0    0  501  0.00000000000E+00  0.00000000000E+00 -0.35771917870E+03  0.35771917871E+03  0.25500000920E-02 0.  1.
    10030    2    1    2    0    0  0.00000000000E+00  0.00000000000E+00 -0.25630241330E+02  0.68980811609E+03  0.68933179801E+03 0.  0.
        2    1    3    3  502    0 -0.21148846170E+02  0.28298482688E+03 -0.20856955352E+03  0.35217743340E+03  0.25500000920E-02 0. -1.
       -2    1    3    3    0  502  0.21148846170E+02 -0.28298482688E+03  0.18293931219E+03  0.33763068268E+03  0.25500000920E-02 0.  1.
</event>
<event>
 5   0  0.6167756E-02  0.7457841E+03  0.7818609E-02  0.9641988E-01
       -2   -1    0    0    0  501  0.00000000000E+00  0.00000000000E+00  0.26595115059E+03  0.26595115060E+03  0.25500000920E-02 0.  1.
        2   -1    0    0  501    0  0.00000000000E+00  0.00000000000E+00 -0.52283466341E+03  0.52283466342E+03  0.25500000920E-02 0. -1.
    10030    2    1    2    0    0  0.00000000000E+00  0.00000000000E+00 -0.25688351283E+03  0.78878581402E+03  0.74578409827E+03 0.  0.
        4    1    3    3  502    0  0.10614921555E+03  0.71042323313E+02 -0.49897333909E+03  0.51506375692E+03  0.12699999809E+01 0. -1.
       -4    1    3    3    0  502 -0.10614921555E+03 -0.71042323313E+02  0.24208982626E+03  0.27372205710E+03  0.12699999809E+01 0.  1.
</event>
<event>
 5   0  0.5899787E-02  0.6946866E+03  0.7818609E-02  0.9726362E-01
        2   -1    0    0  501    0  0.00000000000E+00  0.00000000000E+00  0.34015053712E+03  0.34015053713E+03  0.25500000920E-02 0. -1.
       -2   -1    0    0    0  501  0.00000000000E+00  0.00000000000E+00 -0.35468815893E+03  0.35468815894E+03  0.25500000920E-02 0.  1.
    10030    2    1    2    0    0  0.00000000000E+00  0.00000000000E+00 -0.14537621804E+02  0.69483869607E+03  0.69468659920E+03 0.  0.
        2    1    3    3  502    0 -0.11017574305E+03 -0.31997443972E+03  0.71010903565E+02  0.34578155657E+03  0.25500000920E-02 0. -1.
       -2    1    3    3    0  502  0.11017574305E+03  0.31997443972E+03 -0.85548525369E+02  0.34905713950E+03  0.25500000920E-02 0.  1.
</event>
<event>
 5   0  0.5899787E-02  0.6965817E+03  0.7818609E-02  0.9723096E-01
        2   -1    0    0  501    0  0.00000000000E+00  0.00000000000E+00  0.39073952942E+03  0.39073952943E+03  0.25500000920E-02 0.  1.
       -2   -1    0    0    0  501  0.00000000000E+00  0.00000000000E+00 -0.31045363093E+03  0.31045363094E+03  0.25500000920E-02 0. -1.
    10030    2    1    2    0    0  0.00000000000E+00  0.00000000000E+00  0.80285898491E+02  0.70119316037E+03  0.69658166977E+03 0.  0.
        2    1    3    3  502    0  0.74178541433E+02  0.32909168966E+03 -0.47048659989E+02  0.34061323026E+03  0.25500000920E-02 0. -1.
       -2    1    3    3    0  502 -0.74178541433E+02 -0.32909168966E+03  0.12733455848E+03  0.36057993012E+03  0.25500000920E-02 0.  1.
</event>
<event>
 5   0  0.6248886E-02  0.6943007E+03  0.7818609E-02  0.9727029E-01
       -2   -1    0    0    0  501  0.00000000000E+00  0.00000000000E+00  0.11646847037E+03  0.11646847040E+03  0.25500000920E-02 0.  1.
        2   -1    0    0  501    0  0.00000000000E+00  0.00000000000E+00 -0.10347296377E+04  0.10347296377E+04  0.25500000920E-02 0. -1.
    10030    2    1    2    0    0  0.00000000000E+00  0.00000000000E+00 -0.91826116737E+03  0.11511981081E+04  0.69430073648E+03 0.  0.
        3    1    3    3  502    0  0.16264861690E+03  0.74084328478E+02 -0.95258440660E+03  0.96920592353E+03  0.10100000352E+00 0. -1.
       -3    1    3    3    0  502 -0.16264861690E+03 -0.74084328478E+02  0.34323239235E+02  0.18199218461E+03  0.10100000352E+00 0.  1.
</event>
<event>
 5   0  0.3755872E-02  0.6920958E+03  0.7818609E-02  0.9730846E-01
       -1   -1    0    0    0  501  0.00000000000E+00  0.00000000000E+00  0.32168173118E+03  0.32168173122E+03  0.50400001928E-02 0. -1.
        1   -1    0    0  501    0  0.00000000000E+00  0.00000000000E+00 -0.37225972605E+03  0.37225972608E+03  0.50400001928E-02 0.  1.
    10030    2    1    2    0    0  0.00000000000E+00  0.00000000000E+00 -0.50577994865E+02  0.69394145731E+03  0.69209581172E+03 0.  0.
        2    1    3    3  502    0  0.30708486499E+03  0.60619853993E+02  0.12266219274E+03  0.33618729086E+03  0.25500000920E-02 0. -1.
       -2    1    3    3    0  502 -0.30708486499E+03 -0.60619853993E+02 -0.17324018761E+03  0.35775416645E+03  0.25500000920E-02 0.  1.
</event>
<event>
 5   0  0.3439015E-02  0.6999064E+03  0.7818609E-02  0.9717392E-01
       -1   -1    0    0    0  501  0.00000000000E+00  0.00000000000E+00  0.81737245757E+02  0.81737245913E+02  0.50400001928E-02 0. -1.
        1   -1    0    0  501    0  0.00000000000E+00  0.00000000000E+00 -0.14983041589E+04  0.14983041589E+04  0.50400001928E-02 0.  1.
    10030    2    1    2    0    0  0.00000000000E+00  0.00000000000E+00 -0.14165669132E+04  0.15800414048E+04  0.69990643771E+03 0.  0.
        1    1    3    3  502    0  0.30839246522E+03 -0.15341349174E+03 -0.56865282027E+03  0.66483655291E+03  0.50400001928E-02 0. -1.
       -1    1    3    3    0  502 -0.30839246522E+03  0.15341349174E+03 -0.84791409288E+03  0.91520485193E+03  0.50400001928E-02 0.  1.
</event>
<event>
 5   0  0.3717372E-02  0.7066765E+03  0.7818609E-02  0.9705882E-01
       -1   -1    0    0    0  501  0.00000000000E+00  0.00000000000E+00  0.57765591732E+03  0.57765591734E+03  0.50400001928E-02 0.  1.
        1   -1    0    0  501    0  0.00000000000E+00  0.00000000000E+00 -0.21612853732E+03  0.21612853737E+03  0.50400001928E-02 0. -1.
    10030    2    1    2    0    0  0.00000000000E+00  0.00000000000E+00  0.36152738001E+03  0.79378445472E+03  0.70667652717E+03 0.  0.
        3    1    3    3  502    0 -0.13391353633E+03  0.19970254504E+02 -0.18583415062E+03  0.22992604901E+03  0.10100000352E+00 0. -1.
       -3    1    3    3    0  502  0.13391353633E+03 -0.19970254504E+02  0.54736153063E+03  0.56385840571E+03  0.10100000352E+00 0.  1.
</event>
<event>
 5   0  0.2439375E-02  0.6971412E+03  0.7818609E-02  0.9722134E-01
        3   -1    0    0  501    0  0.00000000000E+00  0.00000000000E+00  0.37380865145E+03  0.37380866509E+03  0.10100000352E+00 0.  1.
       -3   -1    0    0    0  501  0.00000000000E+00  0.00000000000E+00 -0.32503652792E+03  0.32503654362E+03  0.10100000352E+00 0. -1.
    10030    2    1    2    0    0  0.00000000000E+00  0.00000000000E+00  0.48772123521E+02  0.69884520871E+03  0.69714123799E+03 0.  0.
        4    1    3    3  502    0  0.88056687448E+02 -0.26825419957E+03  0.22930088335E+03  0.36372352660E+03  0.12699999809E+01 0.  1.
       -4    1    3    3    0  502 -0.88056687448E+02  0.26825419957E+03 -0.18052875983E+03  0.33512168211E+03  0.12699999809E+01 0. -1.
</event>
<event>
 5   0  0.3755872E-02  0.4546107E+03  0.7818609E-02  0.1026356E+00
       -1   -1    0    0    0  501  0.00000000000E+00  0.00000000000E+00  0.57458209559E+02  0.57458209780E+02  0.50400001928E-02 0. -1.
        1   -1    0    0  501    0  0.00000000000E+00  0.00000000000E+00 -0.89922277767E+03  0.89922277768E+03  0.50400001928E-02 0.  1.
    10030    2    1    2    0    0  0.00000000000E+00  0.00000000000E+00 -0.84176456811E+03  0.95668098746E+03  0.45461073860E+03 0.  0.
        2    1    3    3  502    0  0.91817719632E+02  0.14346301909E+03 -0.10413329932E+03  0.19963936365E+03  0.25500000920E-02 0. -1.
       -2    1    3    3    0  502 -0.91817719632E+02 -0.14346301909E+03 -0.73763126879E+03  0.75704162381E+03  0.25500000920E-02 0.  1.
</event>
<event>
 5   0  0.3439015E-02  0.7203615E+03  0.7818609E-02  0.9683031E-01
        1   -1    0    0  501    0  0.00000000000E+00  0.00000000000E+00  0.16759356047E+04  0.16759356047E+04  0.50400001928E-02 0. -1.
       -1   -1    0    0    0  501  0.00000000000E+00  0.00000000000E+00 -0.77407614561E+02  0.77407614725E+02  0.50400001928E-02 0.  1.
    10030    2    1    2    0    0  0.00000000000E+00  0.00000000000E+00  0.15985279902E+04  0.17533432195E+04  0.72036151332E+03 0.  0.
        1    1    3    3  502    0  0.27098616824E+03  0.23695860041E+03  0.82880406727E+03  0.90360337740E+03  0.50400001928E-02 0.  1.
       -1    1    3    3    0  502 -0.27098616824E+03 -0.23695860041E+03  0.76972392289E+03  0.84973984206E+03  0.50400001928E-02 0. -1.
</event>
<event>
 5   0  0.6167756E-02  0.7010369E+03  0.7818609E-02  0.9715461E-01
       -2   -1    0    0    0  501  0.00000000000E+00  0.00000000000E+00  0.46022685379E+03  0.46022685380E+03  0.25500000920E-02 0.  1.
        2   -1    0    0  501    0  0.00000000000E+00  0.00000000000E+00 -0.26696224316E+03  0.26696224317E+03  0.25500000920E-02 0. -1.
    10030    2    1    2    0    0  0.00000000000E+00  0.00000000000E+00  0.19326461064E+03  0.72718909697E+03  0.70103692701E+03 0.  0.
        4    1    3    3  502    0  0.17160203539E+03 -0.15623807742E+03 -0.17585329066E+03  0.29117621489E+03  0.12699999809E+01 0. -1.
       -4    1    3    3    0  502 -0.17160203539E+03  0.15623807742E+03  0.36911790129E+03  0.43601288208E+03  0.12699999809E+01 0.  1.
</event>
<event>
 5   0  0.6167756E-02  0.6944027E+03  0.7818609E-02  0.9726853E-01
       -2   -1    0    0    0  501  0.00000000000E+00  0.00000000000E+00  0.29589671962E+03  0.29589671963E+03  0.25500000920E-02 0.  1.
        2   -1    0    0  501    0  0.00000000000E+00  0.00000000000E+00 -0.40740151110E+03  0.40740151110E+03  0.25500000920E-02 0. -1.
    10030    2    1    2    0    0  0.00000000000E+00  0.00000000000E+00 -0.11150479148E+03  0.70329823073E+03  0.69440268060E+03 0.  0.
        4    1    3    3  502    0  0.17970824422E+03  0.29548276387E+03 -0.24666524537E+02  0.34672058941E+03  0.12699999809E+01 0. -1.
       -4    1    3    3    0  502 -0.17970824422E+03 -0.29548276387E+03 -0.86838266942E+02  0.35657764132E+03  0.12699999809E+01 0.  1.
</event>
<event>
 5   0  0.5899787E-02  0.6531888E+03  0.7818609E-02  0.9800814E-01
        2   -1    0    0  501    0  0.00000000000E+00  0.00000000000E+00  0.91521312277E+03  0.91521312277E+03  0.25500000920E-02 0.  1.
       -2   -1    0    0    0  501  0.00000000000E+00  0.00000000000E+00 -0.11654542296E+03  0.11654542299E+03  0.25500000920E-02 0. -1.
    10030    2    1    2    0    0  0.00000000000E+00  0.00000000000E+00  0.79866769980E+03  0.10317585458E+04  0.65318879509E+03 0.  0.
        2    1    3    3  502    0 -0.57798599585E+02 -0.31959995782E+03  0.34509472088E+03  0.47389363526E+03  0.25500000920E-02 0. -1.
       -2    1    3    3    0  502  0.57798599585E+02  0.31959995782E+03  0.45357297892E+03  0.55786491050E+03  0.25500000920E-02 0.  1.
</event>
<event>
 5   0  0.3601475E-02  0.6878888E+03  0.7818609E-02  0.9738171E-01
       -1   -1    0    0    0  501  0.00000000000E+00  0.00000000000E+00  0.51686001650E+03  0.51686001653E+03  0.50400001928E-02 0. -1.
        1   -1    0    0  501    0  0.00000000000E+00  0.00000000000E+00 -0.22887773300E+03  0.22887773306E+03  0.50400001928E-02 0.  1.
    10030    2    1    2    0    0  0.00000000000E+00  0.00000000000E+00  0.28798228350E+03  0.74573774959E+03  0.68788879592E+03 0.  0.
        5    1    3    3  502    0 -0.24371497485E+03  0.29502101013E+02  0.40509479354E+03  0.47369952996E+03  0.46999998093E+01 0. -1.
       -5    1    3    3    0  502  0.24371497485E+03 -0.29502101013E+02 -0.11711251004E+03  0.27203821963E+03  0.46999998093E+01 0.  1.
</event>
<event>
 5   0  0.3749730E-02  0.7091085E+03  0.7818609E-02  0.9701781E-01
       -1   -1    0    0    0  501  0.00000000000E+00  0.00000000000E+00  0.43081568828E+03  0.43081568831E+03  0.50400001928E-02 0.  1.
        1   -1    0    0  501    0  0.00000000000E+00  0.00000000000E+00 -0.29179235844E+03  0.29179235849E+03  0.50400001928E-02 0. -1.
    10030    2    1    2    0    0  0.00000000000E+00  0.00000000000E+00  0.13902332984E+03  0.72260804680E+03  0.70910852700E+03 0.  0.
        4    1    3    3  502    0  0.18716518665E+03 -0.70056669684E+02  0.36794934885E+03  0.41872076648E+03  0.12699999809E+01 0.  1.
       -4    1    3    3    0  502 -0.18716518665E+03  0.70056669684E+02 -0.22892601901E+03  0.30388728032E+03  0.12699999809E+01 0. -1.
</event>
<event>
 5   0  0.3717372E-02  0.7042944E+03  0.7818609E-02  0.9709916E-01
        1   -1    0    0  501    0  0.00000000000E+00  0.00000000000E+00  0.21475029009E+03  0.21475029015E+03  0.50400001928E-02 0.  1.
       -1   -1    0    0    0  501  0.00000000000E+00  0.00000000000E+00 -0.57745047747E+03  0.57745047749E+03  0.50400001928E-02 0. -1.
    10030    2    1    2    0    0  0.00000000000E+00  0.00000000000E+00 -0.36270018738E+03  0.79220076764E+03  0.70429442020E+03 0.  0.
        3    1    3    3  502    0 -0.14047455710E+03 -0.26526865074E+03  0.25771922542E+02  0.30127190452E+03  0.10100000352E+00 0.  1.
       -3    1    3    3    0  502  0.14047455710E+03  0.26526865074E+03 -0.38847210992E+03  0.49092886312E+03  0.10100000352E+00 0. -1.
</event>
<event>
 5   0  0.2439375E-02  0.7005682E+03  0.7818609E-02  0.9716261E-01
        3   -1    0    0  501    0  0.00000000000E+00  0.00000000000E+00  0.74134951265E+03  0.74134951953E+03  0.10100000352E+00 0. -1.
       -3   -1    0    0    0  501  0.00000000000E+00  0.00000000000E+00 -0.16550751944E+03  0.16550755026E+03  0.10100000352E+00 0.  1.
    10030    2    1    2    0    0  0.00000000000E+00  0.00000000000E+00  0.57584199321E+03  0.90685706979E+03  0.70056815792E+03 0.  0.
        4    1    3    3  502    0  0.98038821339E+02  0.33084964674E+03  0.36584943173E+03  0.50291203886E+03  0.12699999809E+01 0. -1.
       -4    1    3    3    0  502 -0.98038821339E+02 -0.33084964674E+03  0.20999256147E+03  0.40394503093E+03  0.12699999809E+01 0.  1.
</event>
<event>
 5   0  0.3749730E-02  0.6842488E+03  0.7818609E-02  0.9744555E-01
       -1   -1    0    0    0  501  0.00000000000E+00  0.00000000000E+00  0.27122003611E+03  0.27122003616E+03  0.50400001928E-02 0. -1.
        1   -1    0    0  501    0  0.00000000000E+00  0.00000000000E+00 -0.43156511780E+03  0.43156511783E+03  0.50400001928E-02 0.  1.
    10030    2    1    2    0    0  0.00000000000E+00  0.00000000000E+00 -0.16034508169E+03  0.70278515399E+03  0.68424880522E+03 0.  0.
        4    1    3    3  502    0 -0.13958175780E+03  0.30851235395E+03 -0.13032729892E+03  0.36283571681E+03  0.12699999809E+01 0.  1.
       -4    1    3    3    0  502  0.13958175780E+03 -0.30851235395E+03 -0.30017782770E+02  0.33994943718E+03  0.12699999809E+01 0. -1.
</event>
<event>
 5   0  0.3755872E-02  0.7101050E+03  0.7818609E-02  0.9700106E-01
       -1   -1    0    0    0  501  0.00000000000E+00  0.00000000000E+00  0.48099644935E+03  0.48099644938E+03  0.50400001928E-02 0.  1.
        1   -1    0    0  501    0  0.00000000000E+00  0.00000000000E+00 -0.26208569938E+03  0.26208569943E+03  0.50400001928E-02 0. -1.
    10030    2    1    2    0    0  0.00000000000E+00  0.00000000000E+00  0.21891074997E+03  0.74308214880E+03  0.71010503689E+03 0.  0.
        2    1    3    3  502    0  0.32401675308E+03 -0.66996255718E+02 -0.25315895779E+02  0.33183768494E+03  0.25500000920E-02 0. -1.
       -2    1    3    3    0  502 -0.32401675308E+03  0.66996255718E+02  0.24422664575E+03  0.41124446387E+03  0.25500000920E-02 0.  1.
</event>
<event>
 5   0  0.6131198E-02  0.6950259E+03  0.7818609E-02  0.9725777E-01
        2   -1    0    0  501    0  0.00000000000E+00  0.00000000000E+00  0.57078790760E+03  0.57078790761E+03  0.25500000920E-02 0. -1.
       -2   -1    0    0    0  501  0.00000000000E+00  0.00000000000E+00 -0.21157637189E+03  0.21157637191E+03  0.25500000920E-02 0.  1.
    10030    2    1    2    0    0  0.00000000000E+00  0.00000000000E+00  0.35921153571E+03  0.78236427951E+03  0.69502585454E+03 0.  0.
        1    1    3    3  502    0  0.21711810588E+03 -0.36013292136E+02 -0.12312830086E+03  0.25218605752E+03  0.50400001928E-02 0.  1.
       -1    1    3    3    0  502 -0.21711810588E+03  0.36013292136E+02  0.48233983657E+03  0.53017822199E+03  0.50400001928E-02 0. -1.
</event>
<event>
 5   0  0.5899787E-02  0.6880026E+03  0.7818609E-02  0.9737972E-01
        2   -1    0    0  501    0  0.00000000000E+00  0.00000000000E+00  0.50866095272E+03  0.50866095273E+03  0.25500000920E-02 0.  1.
       -2   -1    0    0    0  501  0.00000000000E+00  0.00000000000E+00 -0.23264395510E+03  0.23264395512E+03  0.25500000920E-02 0. -1.
    10030    2    1    2    0    0  0.00000000000E+00  0.00000000000E+00  0.27601699762E+03  0.74130490785E+03  0.68800260422E+03 0.  0.
        2    1    3    3  502    0 -0.24211323031E+03 -0.17183071898E+03 -0.49212593256E+02  0.30094267165E+03  0.25500000920E-02 0. -1.
       -2    1    3    3    0  502  0.24211323031E+03  0.17183071898E+03  0.32522959088E+03  0.44036223619E+03  0.25500000920E-02 0.  1.
</event>
<event>
 5   0  0.6248886E-02  0.6618302E+03  0.7818609E-02  0.9784830E-01
       -2   -1    0    0    0  501  0.00000000000E+00  0.00000000000E+00  0.60078043190E+02  0.60078043244E+02  0.25500000920E-02 0. -1.
        2   -1    0    0  501    0  0.00000000000E+00  0.00000000000E+00 -0.18227093921E+04  0.18227093921E+04  0.25500000920E-02 0.  1.
    10030    2    1    2    0    0  0.00000000000E+00  0.00000000000E+00 -0.17626313489E+04  0.18827874353E+04  0.66183023089E+03 0.  0.
        3    1    3    3  502    0 -0.38152684229E+02 -0.27211565233E+03 -0.35673956833E+03  0.45029510921E+03  0.10100000352E+00 0. -1.
       -3    1    3    3    0  502  0.38152684229E+02  0.27211565233E+03 -0.14058917805E+04  0.14324923261E+04  0.10100000352E+00 0.  1.
</event>
<event>
 5   0  0.5987810E-02  0.6722665E+03  0.7818609E-02  0.9765872E-01
       -2   -1    0    0    0  501  0.00000000000E+00  0.00000000000E+00  0.21756672197E+03  0.21756672198E+03  0.25500000920E-02 0. -1.
        2   -1    0    0  501    0  0.00000000000E+00  0.00000000000E+00 -0.51931457778E+03  0.51931457778E+03  0.25500000920E-02 0.  1.
    10030    2    1    2    0    0  0.00000000000E+00  0.00000000000E+00 -0.30174785581E+03  0.73688129976E+03  0.67226652561E+03 0.  0.
        5    1    3    3  502    0  0.16467356205E+03 -0.26406781680E+03 -0.11730855639E+02  0.31146251280E+03  0.46999998093E+01 0. -1.
       -5    1    3    3    0  502 -0.16467356205E+03  0.26406781680E+03 -0.29001700017E+03  0.42541878696E+03  0.46999998093E+01 0.  1.
</event>
<event>
 5   0  0.2439375E-02  0.6811625E+03  0.7818609E-02  0.9750000E-01
        3   -1    0    0  501    0  0.00000000000E+00  0.00000000000E+00  0.22908333166E+03  0.22908335393E+03  0.10100000352E+00 0. -1.
       -3   -1    0    0    0  501  0.00000000000E+00  0.00000000000E+00 -0.50634667921E+03  0.50634668928E+03  0.10100000352E+00 0.  1.
    10030    2    1    2    0    0  0.00000000000E+00  0.00000000000E+00 -0.27726334755E+03  0.73543004321E+03  0.68116252434E+03 0.  0.
        1    1    3    3  502    0  0.11953199439E+03 -0.64085262760E+02  0.19866903968E+03  0.24054979929E+03  0.50400001928E-02 0. -1.
       -1    1    3    3    0  502 -0.11953199439E+03  0.64085262760E+02 -0.47593238723E+03  0.49488024392E+03  0.50400001928E-02 0.  1.
</event>
<event>
 5   0  0.3717372E-02  0.6888583E+03  0.7818609E-02  0.9736478E-01
        1   -1    0    0  501    0  0.00000000000E+00  0.00000000000E+00  0.67682360632E+03  0.67682360634E+03  0.50400001928E-02 0.  1.
       -1   -1    0    0    0  501  0.00000000000E+00  0.00000000000E+00 -0.17527675078E+03  0.17527675086E+03  0.50400001928E-02 0. -1.
    10030    2    1    2    0    0  0.00000000000E+00  0.00000000000E+00  0.50154685554E+03  0.85210035720E+03  0.68885830940E+03 0.  0.
        3    1    3    3  502    0 -0.13694865735E+03  0.23044055262E+03 -0.16749786441E+02  0.26858583096E+03  0.10100000352E+00 0. -1.
       -3    1    3    3    0  502  0.13694865735E+03 -0.23044055262E+03  0.51829664198E+03  0.58351452624E+03  0.10100000352E+00 0.  1.
</event>
<event>
 5   0  0.3755872E-02  0.6215103E+03  0.7818609E-02  0.9861757E-01
       -1   -1    0    0    0  501  0.00000000000E+00  0.00000000000E+00  0.12674034920E+03  0.12674034930E+03  0.50400001928E-02 0.  1.
        1   -1    0    0  501    0  0.00000000000E+00  0.00000000000E+00 -0.76194171484E+03  0.76194171485E+03  0.50400001928E-02 0. -1.
    10030    2    1    2    0    0  0.00000000000E+00  0.00000000000E+00 -0.63520136564E+03  0.88868206415E+03  0.62151028650E+03 0.  0.
        2    1    3    3  502    0  0.85269391982E+02 -0.19654386579E+03 -0.63946044319E+03  0.67439604002E+03  0.25500000920E-02 0. -1.
       -2    1    3    3    0  502 -0.85269391982E+02  0.19654386579E+03  0.42590775491E+01  0.21428602413E+03  0.25500000920E-02 0.  1.
</event>
<event>
 5   0  0.3717372E-02  0.6924148E+03  0.7818609E-02  0.9730293E-01
        1   -1    0    0  501    0  0.00000000000E+00  0.00000000000E+00  0.98592433357E+03  0.98592433358E+03  0.50400001928E-02 0. -1.
       -1   -1    0    0    0  501  0.00000000000E+00  0.00000000000E+00 -0.12157073881E+03  0.12157073891E+03  0.50400001928E-02 0.  1.
    10030    2    1    2    0    0  0.00000000000E+00  0.00000000000E+00  0.86435359476E+03  0.11074950725E+04  0.69241475924E+03 0.  0.
        3    1    3    3  502    0  0.26759421435E+03 -0.13831669814E+03  0.15922788723E+03  0.34072232508E+03  0.10100000352E+00 0.  1.
       -3    1    3    3    0  502 -0.26759421435E+03  0.13831669814E+03  0.70512570753E+03  0.76677274741E+03  0.10100000352E+00 0. -1.
</event>
<event>
 5   0  0.5899787E-02  0.7043380E+03  0.7818609E-02  0.9709842E-01
        2   -1    0    0  501    0  0.00000000000E+00  0.00000000000E+00  0.23027021537E+03  0.23027021538E+03  0.25500000920E-02 0.  1.
       -2   -1    0    0    0  501  0.00000000000E+00  0.00000000000E+00 -0.53859767338E+03  0.53859767339E+03  0.25500000920E-02 0. -1.
    10030    2    1    2    0    0  0.00000000000E+00  0.00000000000E+00 -0.30832745801E+03  0.76886788877E+03  0.70433799345E+03 0.  0.
        2    1    3    3  502    0  0.15241915966E+03 -0.10192733648E+03  0.17405257867E+03  0.25281432377E+03  0.25500000920E-02 0.  1.
       -2    1    3    3    0  502 -0.15241915966E+03  0.10192733648E+03 -0.48238003669E+03  0.51605356500E+03  0.25500000920E-02 0. -1.
</event>
<event>
 5   0  0.6131198E-02  0.6933308E+03  0.7818609E-02  0.9728706E-01
       -2   -1    0    0    0  501  0.00000000000E+00  0.00000000000E+00  0.14240332077E+03  0.14240332079E+03  0.25500000920E-02 0. -1.
        2   -1    0    0  501    0  0.00000000000E+00  0.00000000000E+00 -0.84391928545E+03  0.84391928545E+03  0.25500000920E-02 0.  1.
    10030    2    1    2    0    0  0.00000000000E+00  0.00000000000E+00 -0.70151596468E+03  0.98632260624E+03  0.69333082643E+03 0.  0.
        1    1    3    3  502    0  0.13839208261E+03  0.26087740156E+03 -0.60905632904E+03  0.67687443380E+03  0.50400001928E-02 0.  1.
       -1    1    3    3    0  502 -0.13839208261E+03 -0.26087740156E+03 -0.92459635643E+02  0.30944817243E+03  0.50400001928E-02 0. -1.
</event>
<event>
 5   0  0.6131198E-02  0.6992697E+03  0.7818609E-02  0.9718482E-01
       -2   -1    0    0    0  501  0.00000000000E+00  0.00000000000E+00  0.29806054894E+03  0.29806054895E+03  0.25500000920E-02 0.  1.
        2   -1    0    0  501    0  0.00000000000E+00  0.00000000000E+00 -0.41013317086E+03  0.41013317087E+03  0.25500000920E-02 0. -1.
    10030    2    1    2    0    0  0.00000000000E+00  0.00000000000E+00 -0.11207262192E+03  0.70819371982E+03  0.69926967059E+03 0.  0.
        1    1    3    3  502    0 -0.17425012588E+03  0.11541072893E+03 -0.33990207926E+03  0.39901900485E+03  0.50400001928E-02 0. -1.
       -1    1    3    3    0  502  0.17425012588E+03 -0.11541072893E+03  0.22782945734E+03  0.30917471497E+03  0.50400001928E-02 0.  1.
</event>
<event>
 5   0  0.6248886E-02  0.7000653E+03  0.7818609E-02  0.9717120E-01
        2   -1    0    0  501    0  0.00000000000E+00  0.00000000000E+00  0.52699045105E+03  0.52699045105E+03  0.25500000920E-02 0.  1.
       -2   -1    0    0    0  501  0.00000000000E+00  0.00000000000E+00 -0.23249542089E+03  0.23249542091E+03  0.25500000920E-02 0. -1.
    10030    2    1    2    0    0  0.00000000000E+00  0.00000000000E+00  0.29449503015E+03  0.75948587196E+03  0.70006533047E+03 0.  0.
        3    1    3    3  502    0  0.24480831424E+03  0.22056863430E+03  0.27534233627E+03  0.42941244218E+03  0.10100000352E+00 0.  1.
       -3    1    3    3    0  502 -0.24480831424E+03 -0.22056863430E+03  0.19152693885E+02  0.33007342977E+03  0.10100000352E+00 0. -1.
</event>
<event>
 5   0  0.3749730E-02  0.7112475E+03  0.7818609E-02  0.9698188E-01
        1   -1    0    0  501    0  0.00000000000E+00  0.00000000000E+00  0.88772519540E+02  0.88772519683E+02  0.50400001928E-02 0.  1.
       -1   -1    0    0    0  501  0.00000000000E+00  0.00000000000E+00 -0.14246329029E+04  0.14246329029E+04  0.50400001928E-02 0. -1.
    10030    2    1    2    0    0  0.00000000000E+00  0.00000000000E+00 -0.13358603833E+04  0.15134054226E+04  0.71124750213E+03 0.  0.
        4    1    3    3  502    0  0.14851881598E+03 -0.28082762206E+03 -0.32784753250E+03  0.45651682278E+03  0.12699999809E+01 0.  1.
       -4    1    3    3    0  502 -0.14851881598E+03  0.28082762206E+03 -0.10080128508E+04  0.10568885998E+04  0.12699999809E+01 0. -1.
</event>
<event>
 5   0  0.6248886E-02  0.6929577E+03  0.7818609E-02  0.9729352E-01
        2   -1    0    0  501    0  0.00000000000E+00  0.00000000000E+00  0.58436763004E+03  0.58436763005E+03  0.25500000920E-02 0. -1.
       -2   -1    0    0    0  501  0.00000000000E+00  0.00000000000E+00 -0.20543164260E+03  0.20543164262E+03  0.25500000920E-02 0.  1.
    10030    2    1    2    0    0  0.00000000000E+00  0.00000000000E+00  0.37893598744E+03  0.78979927267E+03  0.69295772492E+03 0.  0.
        3    1    3    3  502    0 -0.23333032612E+03  0.45775143635E+02  0.47669698020E+03  0.53270857511E+03  0.10100000352E+00 0. -1.
       -3    1    3    3    0  502  0.23333032612E+03 -0.45775143635E+02 -0.97760992763E+02  0.25709069755E+03  0.10100000352E+00 0.  1.
</event>
<event>
 5   0  0.3755872E-02  0.6929607E+03  0.7818609E-02  0.9729347E-01
       -1   -1    0    0    0  501  0.00000000000E+00  0.00000000000E+00  0.98282584072E+02  0.98282584201E+02  0.50400001928E-02 0. -1.
        1   -1    0    0  501    0  0.00000000000E+00  0.00000000000E+00 -0.12214638209E+04  0.12214638209E+04  0.50400001928E-02 0.  1.
    10030    2    1    2    0    0  0.00000000000E+00  0.00000000000E+00 -0.11231812369E+04  0.13197464051E+04  0.69296066487E+03 0.  0.
        2    1    3    3  502    0 -0.17885938182E+03 -0.26811317479E+03 -0.80379432968E+03  0.86600270057E+03  0.25500000920E-02 0.  1.
       -2    1    3    3    0  502  0.17885938182E+03  0.26811317479E+03 -0.31938690718E+03  0.45374370458E+03  0.25500000920E-02 0. -1.
</event>
<event>
 5   0  0.5987810E-02  0.6968934E+03  0.7818609E-02  0.9722560E-01
       -2   -1    0    0    0  501  0.00000000000E+00  0.00000000000E+00  0.10297147529E+03  0.10297147532E+03  0.25500000920E-02 0.  1.
        2   -1    0    0  501    0  0.00000000000E+00  0.00000000000E+00 -0.11791139792E+04  0.11791139792E+04  0.25500000920E-02 0. -1.
    10030    2    1    2    0    0  0.00000000000E+00  0.00000000000E+00 -0.10761425039E+04  0.12820854545E+04  0.69689340934E+03 0.  0.
        5    1    3    3  502    0  0.22704742622E+03  0.26400203796E+03 -0.51588713873E+03  0.62242207521E+03  0.46999998093E+01 0. -1.
       -5    1    3    3    0  502 -0.22704742622E+03 -0.26400203796E+03 -0.56025536516E+03  0.65966337930E+03  0.46999998093E+01 0.  1.
</event>
<event>
 5   0  0.6248886E-02  0.7063066E+03  0.7818609E-02  0.9706507E-01
        2   -1    0    0  501    0  0.00000000000E+00  0.00000000000E+00  0.70692539630E+03  0.70692539630E+03  0.25500000920E-02 0.  1.
       -2   -1    0    0    0  501  0.00000000000E+00  0.00000000000E+00 -0.17642210816E+03  0.17642210818E+03  0.25500000920E-02 0. -1.
    10030    2    1    2    0    0  0.00000000000E+00  0.00000000000E+00  0.53050328814E+03  0.88334750448E+03  0.70630664370E+03 0.  0.
        3    1    3    3  502    0 -0.31936596060E+03  0.14505526567E+03  0.21396537007E+03  0.41087326109E+03  0.10100000352E+00 0. -1.
       -3    1    3    3    0  502  0.31936596060E+03 -0.14505526567E+03  0.31653791807E+03  0.47247424339E+03  0.10100000352E+00 0.  1.
</event>
<event>
 5   0  0.3755872E-02  0.7031879E+03  0.7818609E-02  0.9711796E-01
        1   -1    0    0  501    0  0.00000000000E+00  0.00000000000E+00  0.15859831715E+04  0.15859831715E+04  0.50400001928E-02 0. -1.
       -1   -1    0    0    0  501  0.00000000000E+00  0.00000000000E+00 -0.77944274424E+02  0.77944274587E+02  0.50400001928E-02 0.  1.
    10030    2    1    2    0    0  0.00000000000E+00  0.00000000000E+00  0.15080388971E+04  0.16639274461E+04  0.70318790574E+03 0.  0.
        2    1    3    3  502    0 -0.10501390661E+03  0.32199017948E+03  0.53062729474E+03  0.62950053391E+03  0.25500000920E-02 0.  1.
       -2    1    3    3    0  502  0.10501390661E+03 -0.32199017948E+03  0.97741160236E+03  0.10344269122E+04  0.25500000920E-02 0. -1.
</event>
<event>
 5   0  0.3755872E-02  0.6988149E+03  0.7818609E-02  0.9719261E-01
       -1   -1    0    0    0  501  0.00000000000E+00  0.00000000000E+00  0.34866913334E+03  0.34866913338E+03  0.50400001928E-02 0. -1.
        1   -1    0    0  501    0  0.00000000000E+00  0.00000000000E+00 -0.35014730090E+03  0.35014730093E+03  0.50400001928E-02 0.  1.
    10030    2    1    2    0    0  0.00000000000E+00  0.00000000000E+00 -0.14781675547E+01  0.69881643431E+03  0.69881487097E+03 0.  0.
        2    1    3    3  502    0 -0.92470834565E+02  0.24317078919E+03 -0.23398340078E+03  0.34990158589E+03  0.25500000920E-02 0.  1.
       -2    1    3    3    0  502  0.92470834565E+02 -0.24317078919E+03  0.23250523323E+03  0.34891484842E+03  0.25500000920E-02 0. -1.
</event>
<event>
 5   0  0.2439375E-02  0.6728240E+03  0.7818609E-02  0.9764870E-01
       -3   -1    0    0    0  501  0.00000000000E+00  0.00000000000E+00  0.66397724483E+03  0.66397725251E+03  0.10100000352E+00 0. -1.
        3   -1    0    0  501    0  0.00000000000E+00  0.00000000000E+00 -0.17044712330E+03  0.17044715323E+03  0.10100000352E+00 0.  1.
    10030    2    1    2    0    0  0.00000000000E+00  0.00000000000E+00  0.49353012153E+03  0.83442440573E+03  0.67282397998E+03 0.  0.
        1    1    3    3  502    0 -0.50248063651E+02  0.95017682882E+02 -0.14857852980E+03  0.18338158987E+03  0.50400001928E-02 0.  1.
       -1    1    3    3    0  502  0.50248063651E+02 -0.95017682882E+02  0.64210865132E+03  0.65104281587E+03  0.50400001928E-02 0. -1.
</event>
<event>
 5   0  0.3601475E-02  0.6936044E+03  0.7818609E-02  0.9728232E-01
        1   -1    0    0  501    0  0.00000000000E+00  0.00000000000E+00  0.68990578733E+03  0.68990578735E+03  0.50400001928E-02 0. -1.
       -1   -1    0    0    0  501  0.00000000000E+00  0.00000000000E+00 -0.17433071658E+03  0.17433071665E+03  0.50400001928E-02 0.  1.
    10030    2    1    2    0    0  0.00000000000E+00  0.00000000000E+00  0.51557507075E+03  0.86423650400E+03  0.69360441266E+03 0.  0.
        5    1    3    3  502    0  0.35869309309E+01  0.13378288044E+03  0.65639116423E+03  0.66991206561E+03  0.46999998093E+01 0. -1.
       -5    1    3    3    0  502 -0.35869309309E+01 -0.13378288044E+03 -0.14081609348E+03  0.19432443839E+03  0.46999998093E+01 0.  1.
</event>
<event>
 5   0  0.5899787E-02  0.7003813E+03  0.7818609E-02  0.9716580E-01
        2   -1    0    0  501    0  0.00000000000E+00  0.00000000000E+00  0.11693223641E+04  0.11693223641E+04  0.25500000920E-02 0. -1.
       -2   -1    0    0    0  501  0.00000000000E+00  0.00000000000E+00 -0.10487568893E+03  0.10487568896E+03  0.25500000920E-02 0.  1.
    10030    2    1    2    0    0  0.00000000000E+00  0.00000000000E+00  0.10644466752E+04  0.12741980531E+04  0.70038129198E+03 0.  0.
        2    1    3    3  502    0  0.10233646269E+03  0.27623822124E+03  0.87670511508E+03  0.92487413484E+03  0.25500000920E-02 0. -1.
       -2    1    3    3    0  502 -0.10233646269E+03 -0.27623822124E+03  0.18774156013E+03  0.34932391827E+03  0.25500000920E-02 0.  1.
</event>
<event>
 5   0  0.5899787E-02  0.6895221E+03  0.7818609E-02  0.9735320E-01
        2   -1    0    0  501    0  0.00000000000E+00  0.00000000000E+00  0.16898243717E+04  0.16898243717E+04  0.25500000920E-02 0.  1.
       -2   -1    0    0    0  501  0.00000000000E+00  0.00000000000E+00 -0.70338783747E+02  0.70338783793E+02  0.25500000920E-02 0. -1.
    10030    2    1    2    0    0  0.00000000000E+00  0.00000000000E+00  0.16194855879E+04  0.17601631555E+04  0.68952212754E+03 0.  0.
        2    1    3    3  502    0  0.28031351501E+03 -0.31594200276E+01  0.29744790177E+03  0.40873084409E+03  0.25500000920E-02 0. -1.
       -2    1    3    3    0  502 -0.28031351501E+03  0.31594200276E+01  0.13220376861E+04  0.13514323114E+04  0.25500000920E-02 0.  1.
</event>
<event>
 5   0  0.3717372E-02  0.7076452E+03  0.7818609E-02  0.9704247E-01
        1   -1    0    0  501    0  0.00000000000E+00  0.00000000000E+00  0.84555856135E+03  0.84555856136E+03  0.50400001928E-02 0.  1.
       -1   -1    0    0    0  501  0.00000000000E+00  0.00000000000E+00 -0.14805647872E+03  0.14805647880E+03  0.50400001928E-02 0. -1.
    10030    2    1    2    0    0  0.00000000000E+00  0.00000000000E+00  0.69750208263E+03  0.99361504016E+03  0.70764517434E+03 0.  0.
        3    1    3    3  502    0  0.16689152523E+03 -0.29314107216E+03  0.49870855023E+03  0.60207532557E+03  0.10100000352E+00 0.  1.
       -3    1    3    3    0  502 -0.16689152523E+03  0.29314107216E+03  0.19879353240E+03  0.39153971460E+03  0.10100000352E+00 0. -1.
</event>
<event>
 5   0  0.6167756E-02  0.7131365E+03  0.7818609E-02  0.9695027E-01
       -2   -1    0    0    0  501  0.00000000000E+00  0.00000000000E+00  0.93592658562E+02  0.93592658597E+02  0.25500000920E-02 0.  1.
        2   -1    0    0  501    0  0.00000000000E+00  0.00000000000E+00 -0.13584497521E+04  0.13584497521E+04  0.25500000920E-02 0. -1.
    10030    2    1    2    0    0  0.00000000000E+00  0.00000000000E+00 -0.12648570936E+04  0.14520424107E+04  0.71313651948E+03 0.  0.
        4    1    3    3  502    0  0.15113202513E+03  0.10484815503E+03 -0.12543846718E+04  0.12677998827E+04  0.12699999809E+01 0. -1.
       -4    1    3    3    0  502 -0.15113202513E+03 -0.10484815503E+03 -0.10472421735E+02  0.18424252807E+03  0.12699999809E+01 0.  1.
</event>
<event>
 5   0  0.3439015E-02  0.7127587E+03  0.7818609E-02  0.9695658E-01
       -1   -1    0    0    0  501  0.00000000000E+00  0.00000000000E+00  0.78656023633E+02  0.78656023794E+02  0.50400001928E-02 0.  1.
        1   -1    0    0  501    0  0.00000000000E+00  0.00000000000E+00 -0.16147047123E+04  0.16147047124E+04  0.50400001928E-02 0. -1.
    10030    2    1    2    0    0  0.00000000000E+00  0.00000000000E+00 -0.15360486887E+04  0.16933607361E+04  0.71275873101E+03 0.  0.
        1    1    3    3  502    0  0.27643941931E+03 -0.22038833491E+03 -0.66133917471E+03  0.74990617729E+03  0.50400001928E-02 0.  1.
       -1    1    3    3    0  502 -0.27643941931E+03  0.22038833491E+03 -0.87470951400E+03  0.94345455886E+03  0.50400001928E-02 0. -1.
</event>
<event>
 5   0  0.5899787E-02  0.7022044E+03  0.7818609E-02  0.9713470E-01
        2   -1    0    0  501    0  0.00000000000E+00  0.00000000000E+00  0.75208710673E+02  0.75208710716E+02  0.25500000920E-02 0. -1.
       -2   -1    0    0    0  501  0.00000000000E+00  0.00000000000E+00 -0.16390756290E+04  0.16390756290E+04  0.25500000920E-02 0.  1.
    10030    2    1    2    0    0  0.00000000000E+00  0.00000000000E+00 -0.15638669183E+04  0.17142843397E+04  0.70220442832E+03 0.  0.
        2    1    3    3  502    0  0.31190342378E+03  0.52829279585E+02 -0.11537642695E+04  0.11963472189E+04  0.25500000920E-02 0.  1.
       -2    1    3    3    0  502 -0.31190342378E+03 -0.52829279585E+02 -0.41010264880E+03  0.51793712081E+03  0.25500000920E-02 0. -1.
</event>
<event>
 5   0  0.3717372E-02  0.6916456E+03  0.7818609E-02  0.9731627E-01
        1   -1    0    0  501    0  0.00000000000E+00  0.00000000000E+00  0.82713034551E+03  0.82713034552E+03  0.50400001928E-02 0. -1.
       -1   -1    0    0    0  501  0.00000000000E+00  0.00000000000E+00 -0.14458832818E+03  0.14458832827E+03  0.50400001928E-02 0.  1.
    10030    2    1    2    0    0  0.00000000000E+00  0.00000000000E+00  0.68254201733E+03  0.97171867379E+03  0.69164555632E+03 0.  0.
        3    1    3    3  502    0  0.21822465337E+03 -0.19347629797E+03  0.60237137262E+03  0.66925806530E+03  0.10100000352E+00 0.  1.
       -3    1    3    3    0  502 -0.21822465337E+03  0.19347629797E+03  0.80170644709E+02  0.30246060849E+03  0.10100000352E+00 0. -1.
</event>
<event>
 5   0  0.2439375E-02  0.6906920E+03  0.7818609E-02  0.9733284E-01
        3   -1    0    0  501    0  0.00000000000E+00  0.00000000000E+00  0.71174332530E+03  0.71174333247E+03  0.10100000352E+00 0.  1.
       -3   -1    0    0    0  501  0.00000000000E+00  0.00000000000E+00 -0.16756578162E+03  0.16756581206E+03  0.10100000352E+00 0. -1.
    10030    2    1    2    0    0  0.00000000000E+00  0.00000000000E+00  0.54417754369E+03  0.87930914453E+03  0.69069195203E+03 0.  0.
        1    1    3    3  502    0  0.16271624359E+03 -0.30020882881E+03  0.33777210868E+03  0.48030398109E+03  0.50400001928E-02 0.  1.
       -1    1    3    3    0  502 -0.16271624359E+03  0.30020882881E+03  0.20640543501E+03  0.39900516344E+03  0.50400001928E-02 0. -1.
</event>
<event>
 5   0  0.6131198E-02  0.7101052E+03  0.7818609E-02  0.9700105E-01
        2   -1    0    0  501    0  0.00000000000E+00  0.00000000000E+00  0.33917856430E+03  0.33917856431E+03  0.25500000920E-02 0.  1.
       -2   -1    0    0    0  501  0.00000000000E+00  0.00000000000E+00 -0.37166955543E+03  0.37166955544E+03  0.25500000920E-02 0. -1.
    10030    2    1    2    0    0  0.00000000000E+00  0.00000000000E+00 -0.32490991130E+02  0.71084811975E+03  0.71010519281E+03 0.  0.
        1    1    3    3  502    0 -0.73800256567E+02  0.34703590823E+03 -0.27426206234E+01  0.35480687911E+03  0.50400001928E-02 0. -1.
       -1    1    3    3    0  502  0.73800256567E+02 -0.34703590823E+03 -0.29748370507E+02  0.35604124065E+03  0.50400001928E-02 0.  1.
</event>
<event>
 5   0  0.5987810E-02  0.7006202E+03  0.7818609E-02  0.9716172E-01
       -2   -1    0    0    0  501  0.00000000000E+00  0.00000000000E+00  0.31685427568E+03  0.31685427569E+03  0.25500000920E-02 0. -1.
        2   -1    0    0  501    0  0.00000000000E+00  0.00000000000E+00 -0.38729841313E+03  0.38729841314E+03  0.25500000920E-02 0.  1.
    10030    2    1    2    0    0  0.00000000000E+00  0.00000000000E+00 -0.70444137453E+02  0.70415268883E+03  0.70062017719E+03 0.  0.
        5    1    3    3  502    0 -0.22199484273E+03  0.15443499777E+03 -0.25897247085E+03  0.37446055786E+03  0.46999998093E+01 0.  1.
       -5    1    3    3    0  502  0.22199484273E+03 -0.15443499777E+03  0.18852833340E+03  0.32969213097E+03  0.46999998093E+01 0. -1.
</event>
<event>
 5   0  0.3439015E-02  0.6905545E+03  0.7818609E-02  0.9733523E-01
        1   -1    0    0  501    0  0.00000000000E+00  0.00000000000E+00  0.59202306041E+03  0.59202306043E+03  0.50400001928E-02 0. -1.
       -1   -1    0    0    0  501  0.00000000000E+00  0.00000000000E+00 -0.20137114832E+03  0.20137114839E+03  0.50400001928E-02 0.  1.
    10030    2    1    2    0    0  0.00000000000E+00  0.00000000000E+00  0.39065191208E+03  0.79339420882E+03  0.69055445417E+03 0.  0.
        1    1    3    3  502    0 -0.19809858634E+03  0.99566643976E+02 -0.10878042472E+03  0.24696102391E+03  0.50400001928E-02 0.  1.
       -1    1    3    3    0  502  0.19809858634E+03 -0.99566643976E+02  0.49943233680E+03  0.54643318491E+03  0.50400001928E-02 0. -1.
</event>
<event>
 5   0  0.3755872E-02  0.7039106E+03  0.7818609E-02  0.9710568E-01
       -1   -1    0    0    0  501  0.00000000000E+00  0.00000000000E+00  0.17479056777E+03  0.17479056784E+03  0.50400001928E-02 0. -1.
        1   -1    0    0  501    0  0.00000000000E+00  0.00000000000E+00 -0.70869120151E+03  0.70869120153E+03  0.50400001928E-02 0.  1.
    10030    2    1    2    0    0  0.00000000000E+00  0.00000000000E+00 -0.53390063375E+03  0.88348176937E+03  0.70391061229E+03 0.  0.
        2    1    3    3  502    0 -0.47688788847E+02  0.86467229747E+02 -0.69094876063E+03  0.69796919146E+03  0.25500000920E-02 0.  1.
       -2    1    3    3    0  502  0.47688788847E+02 -0.86467229747E+02  0.15704812688E+03  0.18551257792E+03  0.25500000920E-02 0. -1.
</event>
<event>
 5   0  0.3749730E-02  0.6876082E+03  0.7818609E-02  0.9738662E-01
       -1   -1    0    0    0  501  0.00000000000E+00  0.00000000000E+00  0.11779510561E+03  0.11779510572E+03  0.50400001928E-02 0. -1.
        1   -1    0    0  501    0  0.00000000000E+00  0.00000000000E+00 -0.10034480771E+04  0.10034480771E+04  0.50400001928E-02 0.  1.
    10030    2    1    2    0    0  0.00000000000E+00  0.00000000000E+00 -0.88565297151E+03  0.11212431828E+04  0.68760823813E+03 0.  0.
        4    1    3    3  502    0  0.24301190623E+02 -0.13483368412E+03  0.71353604736E+02  0.15447854235E+03  0.12699999809E+01 0. -1.
       -4    1    3    3    0  502 -0.24301190623E+02  0.13483368412E+03 -0.95700657624E+03  0.96676464049E+03  0.12699999809E+01 0.  1.
</event>
<event>
 5   0  0.5899787E-02  0.6889056E+03  0.7818609E-02  0.9736395E-01
       -2   -1    0    0    0  501  0.00000000000E+00  0.00000000000E+00  0.32071515198E+03  0.32071515199E+03  0.25500000920E-02 0.  1.
        2   -1    0    0  501    0  0.00000000000E+00  0.00000000000E+00 -0.36994736353E+03  0.36994736354E+03  0.25500000920E-02 0. -1.
    10030    2    1    2    0    0  0.00000000000E+00  0.00000000000E+00 -0.49232211543E+02  0.69066251553E+03  0.68890558113E+03 0.  0.
        2    1    3    3  502    0 -0.15475066379E+03  0.25404228822E+03  0.14950028427E+03  0.33291979087E+03  0.25500000920E-02 0.  1.
       -2    1    3    3    0  502  0.15475066379E+03 -0.25404228822E+03 -0.19873249581E+03  0.35774272466E+03  0.25500000920E-02 0. -1.
</event>
<event>
 5   0  0.5899787E-02  0.6744570E+03  0.7818609E-02  0.9761940E-01
       -2   -1    0    0    0  501  0.00000000000E+00  0.00000000000E+00  0.22325269170E+03  0.22325269171E+03  0.25500000920E-02 0.  1.
        2   -1    0    0  501    0  0.00000000000E+00  0.00000000000E+00 -0.50939160497E+03  0.50939160498E+03  0.25500000920E-02 0. -1.
    10030    2    1    2    0    0  0.00000000000E+00  0.00000000000E+00 -0.28613891327E+03  0.73264429669E+03  0.67445695770E+03 0.  0.
        2    1    3    3  502    0 -0.65368720919E+02 -0.97909720508E+02 -0.48634485663E+03  0.50039055009E+03  0.25500000920E-02 0. -1.
       -2    1    3    3    0  502  0.65368720919E+02  0.97909720508E+02  0.20020594336E+03  0.23225374660E+03  0.25500000920E-02 0.  1.
</event>
<event>
 5   0  0.6167756E-02  0.6827254E+03  0.7818609E-02  0.9747239E-01
        2   -1    0    0  501    0  0.00000000000E+00  0.00000000000E+00  0.39090928273E+03  0.39090928274E+03  0.25500000920E-02 0.  1.
       -2   -1    0    0    0  501  0.00000000000E+00  0.00000000000E+00 -0.29809597210E+03  0.29809597211E+03  0.25500000920E-02 0. -1.
    10030    2    1    2    0    0  0.00000000000E+00  0.00000000000E+00  0.92813310627E+02  0.68900525485E+03  0.68272536981E+03 0.  0.
        4    1    3    3  502    0  0.14924388272E+03 -0.11003933953E+03  0.33565153334E+03  0.38346571881E+03  0.12699999809E+01 0.  1.
       -4    1    3    3    0  502 -0.14924388272E+03  0.11003933953E+03 -0.24283822271E+03  0.30553953604E+03  0.12699999809E+01 0. -1.
</event>
<event>
 5   0  0.2439375E-02  0.7064089E+03  0.7818609E-02  0.9706334E-01
        3   -1    0    0  501    0  0.00000000000E+00  0.00000000000E+00  0.86701684438E+03  0.86701685026E+03  0.10100000352E+00 0. -1.
       -3   -1    0    0    0  501  0.00000000000E+00  0.00000000000E+00 -0.14388806411E+03  0.14388809956E+03  0.10100000352E+00 0.  1.
    10030    2    1    2    0    0  0.00000000000E+00  0.00000000000E+00  0.72312878027E+03  0.10109049498E+04  0.70640893590E+03 0.  0.
        3    1    3    3  502    0 -0.12087203101E+03 -0.91113163018E+02 -0.95120898743E+02  0.17877262636E+03  0.10100000352E+00 0.  1.
       -3    1    3    3    0  502  0.12087203101E+03  0.91113163018E+02  0.81824967901E+03  0.83213232347E+03  0.10100000352E+00 0. -1.
</event>
<event>
 5   0  0.5987810E-02  0.6978170E+03  0.7818609E-02  0.9720973E-01
        2   -1    0    0  501    0  0.00000000000E+00  0.00000000000E+00  0.48117998917E+03  0.48117998917E+03  0.25500000920E-02 0. -1.
       -2   -1    0    0    0  501  0.00000000000E+00  0.00000000000E+00 -0.25299707111E+03  0.25299707113E+03  0.25500000920E-02 0.  1.
    10030    2    1    2    0    0  0.00000000000E+00  0.00000000000E+00  0.22818291805E+03  0.73417706030E+03  0.69781696152E+03 0.  0.
        5    1    3    3  502    0 -0.92986633270E+02  0.19813767143E+03 -0.17174449381E+03  0.27825044826E+03  0.46999998093E+01 0.  1.
       -5    1    3    3    0  502  0.92986633270E+02 -0.19813767143E+03  0.39992741186E+03  0.45592661204E+03  0.46999998093E+01 0. -1.
</event>
<event>
 5   0  0.5899787E-02  0.6915797E+03  0.7818609E-02  0.9731741E-01
       -2   -1    0    0    0  501  0.00000000000E+00  0.00000000000E+00  0.20331657295E+03  0.20331657296E+03  0.25500000920E-02 0.  1.
        2   -1    0    0  501    0  0.00000000000E+00  0.00000000000E+00 -0.58810065634E+03  0.58810065635E+03  0.25500000920E-02 0. -1.
    10030    2    1    2    0    0  0.00000000000E+00  0.00000000000E+00 -0.38478408340E+03  0.79141722931E+03  0.69157967005E+03 0.  0.
        2    1    3    3  502    0  0.22596857793E+03 -0.15865901091E+03 -0.43061759568E+03  0.51153298395E+03  0.25500000920E-02 0. -1.
       -2    1    3    3    0  502 -0.22596857793E+03  0.15865901091E+03  0.45833512280E+02  0.27988424537E+03  0.25500000920E-02 0.  1.
</event>
<event>
 5   0  0.6131198E-02  0.6916201E+03  0.7818609E-02  0.9731671E-01
        2   -1    0    0  501    0  0.00000000000E+00  0.00000000000E+00  0.65278591604E+03  0.65278591605E+03  0.25500000920E-02 0. -1.
       -2   -1    0    0    0  501  0.00000000000E+00  0.00000000000E+00 -0.18319111652E+03  0.18319111654E+03  0.25500000920E-02 0.  1.
    10030    2    1    2    0    0  0.00000000000E+00  0.00000000000E+00  0.46959479952E+03  0.83597703259E+03  0.69162007148E+03 0.  0.
        1    1    3    3  502    0 -0.27024799836E+03 -0.21415686321E+03  0.26648895573E+03  0.43579066790E+03  0.50400001928E-02 0.  1.
       -1    1    3    3    0  502  0.27024799836E+03  0.21415686321E+03  0.20310584379E+03  0.40018636469E+03  0.50400001928E-02 0. -1.
</event>
<event>
 5   0  0.6167756E-02  0.7235599E+03  0.7818609E-02  0.9677769E-01
        2   -1    0    0  501    0  0.00000000000E+00  0.00000000000E+00  0.13151487422E+04  0.13151487422E+04  0.25500000920E-02 0.  1.
       -2   -1    0    0    0  501  0.00000000000E+00  0.00000000000E+00 -0.99520856399E+02  0.99520856431E+02  0.25500000920E-02 0. -1.
    10030    2    1    2    0    0  0.00000000000E+00  0.00000000000E+00  0.12156278858E+04  0.14146695986E+04  0.72355989148E+03 0.  0.
        4    1    3    3  502    0 -0.20553800826E+03 -0.95209307930E+02  0.11593346832E+04  0.11812574680E+04  0.12699999809E+01 0.  1.
       -4    1    3    3    0  502  0.20553800826E+03  0.95209307930E+02  0.56293202586E+02  0.23341213061E+03  0.12699999809E+01 0. -1.
</event>
<event>
 5   0  0.6167756E-02  0.7287134E+03  0.7818609E-02  0.9669351E-01
       -2   -1    0    0    0  501  0.00000000000E+00  0.00000000000E+00  0.31540368082E+03  0.31540368083E+03  0.25500000920E-02 0. -1.
        2   -1    0    0  501    0  0.00000000000E+00  0.00000000000E+00 -0.42090754057E+03  0.42090754057E+03  0.25500000920E-02 0.  1.
    10030    2    1    2    0    0  0.00000000000E+00  0.00000000000E+00 -0.10550385975E+03  0.73631122140E+03  0.72871335266E+03 0.  0.
        4    1    3    3  502    0 -0.24768011990E+03  0.21733817459E+02  0.21636386287E+03  0.32959480376E+03  0.12699999809E+01 0. -1.
       -4    1    3    3    0  502  0.24768011990E+03 -0.21733817459E+02 -0.32186772262E+03  0.40671641764E+03  0.12699999809E+01 0.  1.
</event>
<event>
 5   0  0.5987810E-02  0.6870620E+03  0.7818609E-02  0.9739617E-01
       -2   -1    0    0    0  501  0.00000000000E+00  0.00000000000E+00  0.41267887172E+03  0.41267887173E+03  0.25500000920E-02 0. -1.
        2   -1    0    0  501    0  0.00000000000E+00  0.00000000000E+00 -0.28596943177E+03  0.28596943179E+03  0.25500000920E-02 0.  1.
    10030    2    1    2    0    0  0.00000000000E+00  0.00000000000E+00  0.12670943995E+03  0.69864830351E+03  0.68706198398E+03 0.  0.
        5    1    3    3  502    0 -0.23936050114E+03  0.14701546153E+03  0.26438650603E+03  0.38578401990E+03  0.46999998093E+01 0. -1.
       -5    1    3    3    0  502  0.23936050114E+03 -0.14701546153E+03 -0.13767706609E+03  0.31286428362E+03  0.46999998093E+01 0.  1.
</event>
<event>
 5   0  0.3755872E-02  0.6970982E+03  0.7818609E-02  0.9722208E-01
       -1   -1    0    0    0  501  0.00000000000E+00  0.00000000000E+00  0.87658735256E+02  0.87658735401E+02  0.50400001928E-02 0.  1.
        1   -1    0    0  501    0  0.00000000000E+00  0.00000000000E+00 -0.13859024831E+04  0.13859024831E+04  0.50400001928E-02 0. -1.
    10030    2    1    2    0    0  0.00000000000E+00  0.00000000000E+00 -0.12982437479E+04  0.14735612185E+04  0.69709815370E+03 0.  0.
        2    1    3    3  502    0  0.37338403534E+02 -0.27129705391E+03 -0.19334214068E+03  0.33522743207E+03  0.25500000920E-02 0.  1.
       -2    1    3    3    0  502 -0.37338403534E+02  0.27129705391E+03 -0.11049016072E+04  0.11383337865E+04  0.25500000920E-02 0. -1.
</event>
<event>
 5   0  0.5987810E-02  0.7089137E+03  0.7818609E-02  0.9702109E-01
        2   -1    0    0  501    0  0.00000000000E+00  0.00000000000E+00  0.85377885185E+03  0.85377885185E+03  0.25500000920E-02 0. -1.
       -2   -1    0    0    0  501  0.00000000000E+00  0.00000000000E+00 -0.14715715749E+03  0.14715715751E+03  0.25500000920E-02 0.  1.
    10030    2    1    2    0    0  0.00000000000E+00  0.00000000000E+00  0.70662169436E+03  0.10009360094E+04  0.70891372952E+03 0.  0.
        5    1    3    3  502    0  0.31307155752E+03  0.61819367441E+02  0.57105095538E+03  0.65418400924E+03  0.46999998093E+01 0. -1.
       -5    1    3    3    0  502 -0.31307155752E+03 -0.61819367441E+02  0.13557073898E+03  0.34675200012E+03  0.46999998093E+01 0.  1.
</event>
<event>
 5   0  0.6248886E-02  0.7778262E+03  0.7818609E-02  0.9592679E-01
        2   -1    0    0  501    0  0.00000000000E+00  0.00000000000E+00  0.61944191284E+03  0.61944191284E+03  0.25500000920E-02 0.  1.
       -2   -1    0    0    0  501  0.00000000000E+00  0.00000000000E+00 -0.24417685846E+03  0.24417685847E+03  0.25500000920E-02 0. -1.
    10030    2    1    2    0    0  0.00000000000E+00  0.00000000000E+00  0.37526505438E+03  0.86361877132E+03  0.77782615097E+03 0.  0.
        3    1    3    3  502    0  0.18349827553E+03  0.16615932665E+03  0.52067162880E+03  0.57652362848E+03  0.10100000352E+00 0.  1.
       -3    1    3    3    0  502 -0.18349827553E+03 -0.16615932665E+03 -0.14540657442E+03  0.28709514284E+03  0.10100000352E+00 0. -1.
</event>
<event>
 5   0  0.2439375E-02  0.6726404E+03  0.7818609E-02  0.9765200E-01
        4   -1    0    0  501    0  0.00000000000E+00  0.00000000000E+00  0.45773368019E+03  0.45773544202E+03  0.12699999809E+01 0.  1.
       -4   -1    0    0    0  501  0.00000000000E+00  0.00000000000E+00 -0.24710764234E+03  0.24711090587E+03  0.12699999809E+01 0. -1.
    10030    2    1    2    0    0  0.00000000000E+00  0.00000000000E+00  0.21062603785E+03  0.70484634789E+03  0.67264035436E+03 0.  0.
        2    1    3    3  502    0 -0.12963813539E+03  0.61106264721E+02  0.42413596843E+03  0.44769559017E+03  0.25500000920E-02 0.  1.
       -2    1    3    3    0  502  0.12963813539E+03 -0.61106264721E+02 -0.21350993058E+03  0.25715075772E+03  0.25500000920E-02 0. -1.
</event>
<event>
 5   0  0.3749730E-02  0.6934438E+03  0.7818609E-02  0.9728510E-01
        1   -1    0    0  501    0  0.00000000000E+00  0.00000000000E+00  0.47544628687E+03  0.47544628689E+03  0.50400001928E-02 0.  1.
       -1   -1    0    0    0  501  0.00000000000E+00  0.00000000000E+00 -0.25284888488E+03  0.25284888493E+03  0.50400001928E-02 0. -1.
    10030    2    1    2    0    0  0.00000000000E+00  0.00000000000E+00  0.22259740199E+03  0.72829517183E+03  0.69344376408E+03 0.  0.
        4    1    3    3  502    0  0.21084393334E+03 -0.90939979962E+02 -0.16154463096E+03  0.28075527577E+03  0.12699999809E+01 0. -1.
       -4    1    3    3    0  502 -0.21084393334E+03  0.90939979962E+02  0.38414203295E+03  0.44753989605E+03  0.12699999809E+01 0.  1.
</event>
<event>
 5   0  0.3601475E-02  0.6494751E+03  0.7818609E-02  0.9807765E-01
        1   -1    0    0  501    0  0.00000000000E+00  0.00000000000E+00  0.13353704389E+04  0.13353704389E+04  0.50400001928E-02 0.  1.
       -1   -1    0    0    0  501  0.00000000000E+00  0.00000000000E+00 -0.78970200564E+02  0.78970200724E+02  0.50400001928E-02 0. -1.
    10030    2    1    2    0    0  0.00000000000E+00  0.00000000000E+00  0.12564002383E+04  0.14143406396E+04  0.64947508499E+03 0.  0.
        5    1    3    3  502    0 -0.18056747839E+03  0.16349023854E+02  0.41600753948E+02  0.18607691303E+03  0.46999998093E+01 0. -1.
       -5    1    3    3    0  502  0.18056747839E+03 -0.16349023854E+02  0.12147994844E+04  0.12282637266E+04  0.46999998093E+01 0.  1.
</event>
<event>
 5   0  0.3601475E-02  0.7009118E+03  0.7818609E-02  0.9715674E-01
       -1   -1    0    0    0  501  0.00000000000E+00  0.00000000000E+00  0.14333217786E+03  0.14333217794E+03  0.50400001928E-02 0.  1.
        1   -1    0    0  501    0  0.00000000000E+00  0.00000000000E+00 -0.85688594363E+03  0.85688594365E+03  0.50400001928E-02 0. -1.
    10030    2    1    2    0    0  0.00000000000E+00  0.00000000000E+00 -0.71355376577E+03  0.10002181216E+04  0.70091177341E+03 0.  0.
        5    1    3    3  502    0  0.15263568340E+03 -0.29935639950E+03 -0.21489497813E+03  0.39889077125E+03  0.46999998093E+01 0.  1.
       -5    1    3    3    0  502 -0.15263568340E+03  0.29935639950E+03 -0.49865878765E+03  0.60132735034E+03  0.46999998093E+01 0. -1.
</event>
<event>
 5   0  0.2439375E-02  0.6921604E+03  0.7818609E-02  0.9730734E-01
        3   -1    0    0  501    0  0.00000000000E+00  0.00000000000E+00  0.71562362535E+03  0.71562363248E+03  0.10100000352E+00 0.  1.
       -3   -1    0    0    0  501  0.00000000000E+00  0.00000000000E+00 -0.16736659301E+03  0.16736662348E+03  0.10100000352E+00 0. -1.
    10030    2    1    2    0    0  0.00000000000E+00  0.00000000000E+00  0.54825703235E+03  0.88299025596E+03  0.69216039948E+03 0.  0.
        4    1    3    3  502    0 -0.29867016526E+03  0.92189060011E+02  0.84622591807E+02  0.32382910052E+03  0.12699999809E+01 0. -1.
       -4    1    3    3    0  502  0.29867016526E+03 -0.92189060011E+02  0.46363444054E+03  0.55916115544E+03  0.12699999809E+01 0.  1.
</event>
<event>
 5   0  0.6131198E-02  0.4662980E+03  0.7818609E-02  0.1022970E+00
        2   -1    0    0  501    0  0.00000000000E+00  0.00000000000E+00  0.74914833024E+03  0.74914833024E+03  0.25500000920E-02 0.  1.
       -2   -1    0    0    0  501  0.00000000000E+00  0.00000000000E+00 -0.72560351949E+02  0.72560351993E+02  0.25500000920E-02 0. -1.
    10030    2    1    2    0    0  0.00000000000E+00  0.00000000000E+00  0.67658797829E+03  0.82170868224E+03  0.46629804428E+03 0.  0.
        1    1    3    3  502    0  0.51000363231E+01  0.21986604348E+03  0.20189294962E+03  0.29854287896E+03  0.50400001928E-02 0. -1.
       -1    1    3    3    0  502 -0.51000363231E+01 -0.21986604348E+03  0.47469502867E+03  0.52316580327E+03  0.50400001928E-02 0.  1.
</event>
<event>
 5   0  0.6131198E-02  0.6976373E+03  0.7818609E-02  0.9721281E-01
       -2   -1    0    0    0  501  0.00000000000E+00  0.00000000000E+00  0.36459431391E+03  0.36459431392E+03  0.25500000920E-02 0.  1.
        2   -1    0    0  501    0  0.00000000000E+00  0.00000000000E+00 -0.33372558202E+03  0.33372558203E+03  0.25500000920E-02 0. -1.
    10030    2    1    2    0    0  0.00000000000E+00  0.00000000000E+00  0.30868731887E+02  0.69831989595E+03  0.69763729722E+03 0.  0.
        1    1    3    3  502    0  0.16591151441E+03 -0.17186278511E+03  0.26987001669E+03  0.36040709406E+03  0.50400001928E-02 0.  1.
       -1    1    3    3    0  502 -0.16591151441E+03  0.17186278511E+03 -0.23900128480E+03  0.33791280189E+03  0.50400001928E-02 0. -1.
</event>
<event>
 5   0  0.3749730E-02  0.6926889E+03  0.7818609E-02  0.9729817E-01
        1   -1    0    0  501    0  0.00000000000E+00  0.00000000000E+00  0.21847116083E+03  0.21847116089E+03  0.50400001928E-02 0. -1.
       -1   -1    0    0    0  501  0.00000000000E+00  0.00000000000E+00 -0.54906328646E+03  0.54906328648E+03  0.50400001928E-02 0.  1.
    10030    2    1    2    0    0  0.00000000000E+00  0.00000000000E+00 -0.33059212563E+03  0.76753444737E+03  0.69268894489E+03 0.  0.
        4    1    3    3  502    0 -0.16627751038E+03  0.23379946139E+03  0.49684277329E+02  0.29117097884E+03  0.12699999809E+01 0. -1.
       -4    1    3    3    0  502  0.16627751038E+03 -0.23379946139E+03 -0.38027640295E+03  0.47636346853E+03  0.12699999809E+01 0.  1.
</event>
<event>
 5   0  0.5899787E-02  0.7062873E+03  0.7818609E-02  0.9706540E-01
        2   -1    0    0  501    0  0.00000000000E+00  0.00000000000E+00  0.76277814753E+03  0.76277814754E+03  0.25500000920E-02 0.  1.
       -2   -1    0    0    0  501  0.00000000000E+00  0.00000000000E+00 -0.16349502550E+03  0.16349502552E+03  0.25500000920E-02 0. -1.
    10030    2    1    2    0    0  0.00000000000E+00  0.00000000000E+00  0.59928312204E+03  0.92627317305E+03  0.70628728628E+03 0.  0.
        2    1    3    3  502    0  0.15759418812E+03  0.20430105726E+03 -0.16570704546E+02  0.25855258340E+03  0.25500000920E-02 0. -1.
       -2    1    3    3    0  502 -0.15759418812E+03 -0.20430105726E+03  0.61585382658E+03  0.66772058965E+03  0.25500000920E-02 0.  1.
</event>
<event>
 5   0  0.3601475E-02  0.6904221E+03  0.7818609E-02  0.9733753E-01
       -1   -1    0    0    0  501  0.00000000000E+00  0.00000000000E+00  0.18778291927E+03  0.18778291934E+03  0.50400001928E-02 0. -1.
        1   -1    0    0  501    0  0.00000000000E+00  0.00000000000E+00 -0.63461931998E+03  0.63461932000E+03  0.50400001928E-02 0.  1.
    10030    2    1    2    0    0  0.00000000000E+00  0.00000000000E+00 -0.44683640071E+03  0.82240223935E+03  0.69042209864E+03 0.  0.
        5    1    3    3  502    0  0.26098680274E+03  0.22343511558E+03 -0.26312537079E+03  0.43277524517E+03  0.46999998093E+01 0. -1.
       -5    1    3    3    0  502 -0.26098680274E+03 -0.22343511558E+03 -0.18371102992E+03  0.38962699418E+03  0.46999998093E+01 0.  1.
</event>
<event>
 5   0  0.5987810E-02  0.7026705E+03  0.7818609E-02  0.9712676E-01
        2   -1    0    0  501    0  0.00000000000E+00  0.00000000000E+00  0.18994919816E+04  0.18994919816E+04  0.25500000920E-02 0. -1.
       -2   -1    0    0    0  501  0.00000000000E+00  0.00000000000E+00 -0.64983925972E+02  0.64983926022E+02  0.25500000920E-02 0.  1.
    10030    2    1    2    0    0  0.00000000000E+00  0.00000000000E+00  0.18345080556E+04  0.19644759076E+04  0.70267046719E+03 0.  0.
        5    1    3    3  502    0  0.21873751174E+03  0.33301186790E+02  0.16801308961E+04  0.16946436162E+04  0.46999998093E+01 0. -1.
       -5    1    3    3    0  502 -0.21873751174E+03 -0.33301186790E+02  0.15437715952E+03  0.26983229136E+03  0.46999998093E+01 0.  1.
</event>
<event>
 5   0  0.5987810E-02  0.7045921E+03  0.7818609E-02  0.9709411E-01
        2   -1    0    0  501    0  0.00000000000E+00  0.00000000000E+00  0.12572147467E+04  0.12572147467E+04  0.25500000920E-02 0.  1.
       -2   -1    0    0    0  501  0.00000000000E+00  0.00000000000E+00 -0.98720222856E+02  0.98720222889E+02  0.25500000920E-02 0. -1.
    10030    2    1    2    0    0  0.00000000000E+00  0.00000000000E+00  0.11584945238E+04  0.13559349696E+04  0.70459213733E+03 0.  0.
        5    1    3    3  502    0  0.30670765917E+03  0.10276273921E+03  0.31078708928E+03  0.44859834332E+03  0.46999998093E+01 0. -1.
       -5    1    3    3    0  502 -0.30670765917E+03 -0.10276273921E+03  0.84770743455E+03  0.90733662626E+03  0.46999998093E+01 0.  1.
</event>
<event>
 5   0  0.3439015E-02  0.7067656E+03  0.7818609E-02  0.9705732E-01
        1   -1    0    0  501    0  0.00000000000E+00  0.00000000000E+00  0.31663743060E+03  0.31663743064E+03  0.50400001928E-02 0. -1.
       -1   -1    0    0    0  501  0.00000000000E+00  0.00000000000E+00 -0.39439241811E+03  0.39439241815E+03  0.50400001928E-02 0.  1.
    10030    2    1    2    0    0  0.00000000000E+00  0.00000000000E+00 -0.77754987516E+02  0.71102984878E+03  0.70676559606E+03 0.  0.
        1    1    3    3  502    0 -0.10618835164E+03 -0.13279317072E+03 -0.35053589871E+03  0.38959646883E+03  0.50400001928E-02 0.  1.
       -1    1    3    3    0  502  0.10618835164E+03  0.13279317072E+03  0.27278091119E+03  0.32143337996E+03  0.50400001928E-02 0. -1.
</event>
<event>
 5   0  0.3749730E-02  0.7181719E+03  0.7818609E-02  0.9686651E-01
       -1   -1    0    0    0  501  0.00000000000E+00  0.00000000000E+00  0.87512042005E+03  0.87512042006E+03  0.50400001928E-02 0.  1.
        1   -1    0    0  501    0  0.00000000000E+00  0.00000000000E+00 -0.14734283485E+03  0.14734283493E+03  0.50400001928E-02 0. -1.
    10030    2    1    2    0    0  0.00000000000E+00  0.00000000000E+00  0.72777758520E+03  0.10224632550E+04  0.71817191138E+03 0.  0.
        4    1    3    3  502    0  0.60367212950E+02 -0.34670166336E+03  0.26226726588E+03  0.43889859356E+03  0.12699999809E+01 0. -1.
       -4    1    3    3    0  502 -0.60367212950E+02  0.34670166336E+03  0.46551031932E+03  0.58356466143E+03  0.12699999809E+01 0.  1.
</event>
<event>
 5   0  0.6248886E-02  0.7203043E+03  0.7818609E-02  0.9683126E-01
        2   -1    0    0  501    0  0.00000000000E+00  0.00000000000E+00  0.12571916192E+04  0.12571916192E+04  0.25500000920E-02 0.  1.
       -2   -1    0    0    0  501  0.00000000000E+00  0.00000000000E+00 -0.10317406999E+03  0.10317407002E+03  0.25500000920E-02 0. -1.
    10030    2    1    2    0    0  0.00000000000E+00  0.00000000000E+00  0.11540175492E+04  0.13603656892E+04  0.72030431383E+03 0.  0.
        3    1    3    3  502    0  0.48959682744E+02  0.10131892458E+03 -0.69121038950E+02  0.13206174025E+03  0.10100000352E+00 0. -1.
       -3    1    3    3    0  502 -0.48959682744E+02 -0.10131892458E+03  0.12231385881E+04  0.12283039490E+04  0.10100000352E+00 0.  1.
</event>
<event>
 5   0  0.6131198E-02  0.6915322E+03  0.7818609E-02  0.9731824E-01
        2   -1    0    0  501    0  0.00000000000E+00  0.00000000000E+00  0.93228832448E+02  0.93228832483E+02  0.25500000920E-02 0.  1.
       -2   -1    0    0    0  501  0.00000000000E+00  0.00000000000E+00 -0.12823737932E+04  0.12823737932E+04  0.25500000920E-02 0. -1.
    10030    2    1    2    0    0  0.00000000000E+00  0.00000000000E+00 -0.11891449608E+04  0.13756026257E+04  0.69153224518E+03 0.  0.
        1    1    3    3  502    0  0.72555493707E+02  0.12046390782E+03 -0.12229183124E+04  0.12309772750E+04  0.50400001928E-02 0. -1.
       -1    1    3    3    0  502 -0.72555493707E+02 -0.12046390782E+03  0.33773351644E+02  0.14462535068E+03  0.50400001928E-02 0.  1.
</event>
<event>
 5   0  0.5987810E-02  0.6865909E+03  0.7818609E-02  0.9740442E-01
       -2   -1    0    0    0  501  0.00000000000E+00  0.00000000000E+00  0.26038913309E+03  0.26038913310E+03  0.25500000920E-02 0. -1.
        2   -1    0    0  501    0  0.00000000000E+00  0.00000000000E+00 -0.45259865821E+03  0.45259865822E+03  0.25500000920E-02 0.  1.
    10030    2    1    2    0    0  0.00000000000E+00  0.00000000000E+00 -0.19220952512E+03  0.71298779132E+03  0.68659091825E+03 0.  0.
        5    1    3    3  502    0 -0.14711362804E+03 -0.30983555106E+03 -0.81821161237E+02  0.35264327681E+03  0.46999998093E+01 0.  1.
       -5    1    3    3    0  502  0.14711362804E+03  0.30983555106E+03 -0.11038836389E+03  0.36034451451E+03  0.46999998093E+01 0. -1.
</event>
<event>
 5   0  0.2439375E-02  0.6899784E+03  0.7818609E-02  0.9734526E-01
        4   -1    0    0  501    0  0.00000000000E+00  0.00000000000E+00  0.19248593814E+03  0.19249012775E+03  0.12699999809E+01 0.  1.
       -4   -1    0    0    0  501  0.00000000000E+00  0.00000000000E+00 -0.61830658592E+03  0.61830789021E+03  0.12699999809E+01 0. -1.
    10030    2    1    2    0    0  0.00000000000E+00  0.00000000000E+00 -0.42582064778E+03  0.81079801796E+03  0.68997840681E+03 0.  0.
        2    1    3    3  502    0  0.30799523543E+02 -0.30157596290E+03 -0.19388898269E+02  0.30376405553E+03  0.25500000920E-02 0.  1.
       -2    1    3    3    0  502 -0.30799523543E+02  0.30157596290E+03 -0.40643174951E+03  0.50703396244E+03  0.25500000920E-02 0. -1.
</event>
<event>
 5   0  0.6248886E-02  0.7166156E+03  0.7818609E-02  0.9689232E-01
        2   -1    0    0  501    0  0.00000000000E+00  0.00000000000E+00  0.73251347710E+03  0.73251347710E+03  0.25500000920E-02 0.  1.
       -2   -1    0    0    0  501  0.00000000000E+00  0.00000000000E+00 -0.17526569578E+03  0.17526569580E+03  0.25500000920E-02 0. -1.
    10030    2    1    2    0    0  0.00000000000E+00  0.00000000000E+00  0.55724778132E+03  0.90777917290E+03  0.71661561313E+03 0.  0.
        3    1    3    3  502    0  0.11663573194E+02  0.34317612220E+03  0.40829560527E+03  0.53348964495E+03  0.10100000352E+00 0.  1.
       -3    1    3    3    0  502 -0.11663573194E+02 -0.34317612220E+03  0.14895217605E+03  0.37428952795E+03  0.10100000352E+00 0. -1.
</event>
<event>
 5   0  0.6167756E-02  0.6845206E+03  0.7818609E-02  0.9744076E-01
        2   -1    0    0  501    0  0.00000000000E+00  0.00000000000E+00  0.77616500549E+03  0.77616500550E+03  0.25500000920E-02 0.  1.
       -2   -1    0    0    0  501  0.00000000000E+00  0.00000000000E+00 -0.15092422358E+03  0.15092422360E+03  0.25500000920E-02 0. -1.
    10030    2    1    2    0    0  0.00000000000E+00  0.00000000000E+00  0.62524078192E+03  0.92708922909E+03  0.68452056458E+03 0.  0.
        4    1    3    3  502    0 -0.43483421824E+02  0.33462790651E+03  0.39011366957E+03  0.51580706847E+03  0.12699999809E+01 0.  1.
       -4    1    3    3    0  502  0.43483421824E+02 -0.33462790651E+03  0.23512711235E+03  0.41128216063E+03  0.12699999809E+01 0. -1.
</event>
<event>
 5   0  0.3601475E-02  0.6987232E+03  0.7818609E-02  0.9719418E-01
       -1   -1    0    0    0  501  0.00000000000E+00  0.00000000000E+00  0.21046888916E+03  0.21046888922E+03  0.50400001928E-02 0. -1.
        1   -1    0    0  501    0  0.00000000000E+00  0.00000000000E+00 -0.57991241829E+03  0.57991241831E+03  0.50400001928E-02 0.  1.
    10030    2    1    2    0    0  0.00000000000E+00  0.00000000000E+00 -0.36944352913E+03  0.79038130753E+03  0.69872318558E+03 0.  0.
        5    1    3    3  502    0  0.74170256515E+02 -0.20301936106E+03 -0.49515447257E+03  0.54029448417E+03  0.46999998093E+01 0.  1.
       -5    1    3    3    0  502 -0.74170256515E+02  0.20301936106E+03  0.12571094344E+03  0.25008682336E+03  0.46999998093E+01 0. -1.
</event>
<event>
 5   0  0.6248886E-02  0.6889663E+03  0.7818609E-02  0.9736289E-01
       -2   -1    0    0    0  501  0.00000000000E+00  0.00000000000E+00  0.25978808868E+03  0.25978808869E+03  0.25500000920E-02 0. -1.
        2   -1    0    0  501    0  0.00000000000E+00  0.00000000000E+00 -0.45679021496E+03  0.45679021497E+03  0.25500000920E-02 0.  1.
    10030    2    1    2    0    0  0.00000000000E+00  0.00000000000E+00 -0.19700212628E+03  0.71657830366E+03  0.68896634716E+03 0.  0.
        3    1    3    3  502    0  0.33776776944E+02  0.41017571483E+02 -0.45250241463E+03  0.45561141039E+03  0.10100000352E+00 0.  1.
       -3    1    3    3    0  502 -0.33776776944E+02 -0.41017571483E+02  0.25550028835E+03  0.26096689327E+03  0.10100000352E+00 0. -1.
</event>
<event>
 5   0  0.6167756E-02  0.7025383E+03  0.7818609E-02  0.9712901E-01
        2   -1    0    0  501    0  0.00000000000E+00  0.00000000000E+00  0.74266709278E+03  0.74266709279E+03  0.25500000920E-02 0.  1.
       -2   -1    0    0    0  501  0.00000000000E+00  0.00000000000E+00 -0.16614443013E+03  0.16614443015E+03  0.25500000920E-02 0. -1.
    10030    2    1    2    0    0  0.00000000000E+00  0.00000000000E+00  0.57652266266E+03  0.90881152293E+03  0.70253825779E+03 0.  0.
        4    1    3    3  502    0  0.70019257740E+02  0.24125855859E+03  0.60586862368E+03  0.65588626347E+03  0.12699999809E+01 0.  1.
       -4    1    3    3    0  502 -0.70019257740E+02 -0.24125855859E+03 -0.29345961028E+02  0.25292525946E+03  0.12699999809E+01 0. -1.
</event>
<event>
 5   0  0.6131198E-02  0.7060361E+03  0.7818609E-02  0.9706965E-01
        2   -1    0    0  501    0  0.00000000000E+00  0.00000000000E+00  0.15411485523E+04  0.15411485523E+04  0.25500000920E-02 0.  1.
       -2   -1    0    0    0  501  0.00000000000E+00  0.00000000000E+00 -0.80862898890E+02  0.80862898931E+02  0.25500000920E-02 0. -1.
    10030    2    1    2    0    0  0.00000000000E+00  0.00000000000E+00  0.14602856534E+04  0.16220114513E+04  0.70603608859E+03 0.  0.
        1    1    3    3  502    0  0.11207223224E+03 -0.19399428917E+03  0.10339257161E+03  0.24674682036E+03  0.50400001928E-02 0. -1.
       -1    1    3    3    0  502 -0.11207223224E+03  0.19399428917E+03  0.13568930818E+04  0.13752646309E+04  0.50400001928E-02 0.  1.
</event>
<event>
 5   0  0.3749730E-02  0.7154918E+03  0.7818609E-02  0.9691100E-01
        1   -1    0    0  501    0  0.00000000000E+00  0.00000000000E+00  0.12453238969E+03  0.12453238979E+03  0.50400001928E-02 0. -1.
       -1   -1    0    0    0  501  0.00000000000E+00  0.00000000000E+00 -0.10277015503E+04  0.10277015504E+04  0.50400001928E-02 0.  1.
    10030    2    1    2    0    0  0.00000000000E+00  0.00000000000E+00 -0.90316916066E+03  0.11522339401E+04  0.71549180293E+03 0.  0.
        4    1    3    3  502    0 -0.12048073775E+03 -0.14186210219E+03  0.40420993010E+02  0.19046242091E+03  0.12699999809E+01 0. -1.
       -4    1    3    3    0  502  0.12048073775E+03  0.14186210219E+03 -0.94359015367E+03  0.96177151923E+03  0.12699999809E+01 0.  1.
</event>
<event>
 5   0  0.6248886E-02  0.6991201E+03  0.7818609E-02  0.9718738E-01
        2   -1    0    0  501    0  0.00000000000E+00  0.00000000000E+00  0.14715803376E+04  0.14715803376E+04  0.25500000920E-02 0.  1.
       -2   -1    0    0    0  501  0.00000000000E+00  0.00000000000E+00 -0.83034704864E+02  0.83034704903E+02  0.25500000920E-02 0. -1.
    10030    2    1    2    0    0  0.00000000000E+00  0.00000000000E+00  0.13885456328E+04  0.15546150425E+04  0.69912013002E+03 0.  0.
        3    1    3    3  502    0  0.19997106982E+03  0.21628800773E+03  0.27575345534E+03  0.40349586044E+03  0.10100000352E+00 0. -1.
       -3    1    3    3    0  502 -0.19997106982E+03 -0.21628800773E+03  0.11127921774E+04  0.11511191821E+04  0.10100000352E+00 0.  1.
</event>
<event>
 5   0  0.5987810E-02  0.7020404E+03  0.7818609E-02  0.9713749E-01
        2   -1    0    0  501    0  0.00000000000E+00  0.00000000000E+00  0.54770396049E+03  0.54770396049E+03  0.25500000920E-02 0. -1.
       -2   -1    0    0    0  501  0.00000000000E+00  0.00000000000E+00 -0.22496674541E+03  0.22496674542E+03  0.25500000920E-02 0.  1.
    10030    2    1    2    0    0  0.00000000000E+00  0.00000000000E+00  0.32273721508E+03  0.77267070591E+03  0.70204039042E+03 0.  0.
        5    1    3    3  502    0  0.28171938684E+03 -0.14724394026E+03 -0.24204428728E+01  0.31792222226E+03  0.46999998093E+01 0.  1.
       -5    1    3    3    0  502 -0.28171938684E+03  0.14724394026E+03  0.32515765796E+03  0.45474848366E+03  0.46999998093E+01 0. -1.
</event>
<event>
 5   0  0.3439015E-02  0.7420383E+03  0.7818609E-02  0.9647925E-01
        1   -1    0    0  501    0  0.00000000000E+00  0.00000000000E+00  0.60340562442E+03  0.60340562444E+03  0.50400001928E-02 0.  1.
       -1   -1    0    0    0  501  0.00000000000E+00  0.00000000000E+00 -0.22813044555E+03  0.22813044560E+03  0.50400001928E-02 0. -1.
    10030    2    1    2    0    0  0.00000000000E+00  0.00000000000E+00  0.37527517888E+03  0.83153607005E+03  0.74203825771E+03 0.  0.
        1    1    3    3  502    0 -0.19067568383E+03  0.17269740771E+03  0.48722776835E+03  0.55097414577E+03  0.50400001928E-02 0. -1.
       -1    1    3    3    0  502  0.19067568383E+03 -0.17269740771E+03 -0.11195258947E+03  0.28056192427E+03  0.50400001928E-02 0.  1.
</event>
<event>
 5   0  0.2439375E-02  0.6988962E+03  0.7818609E-02  0.9719122E-01
       -3   -1    0    0    0  501  0.00000000000E+00  0.00000000000E+00  0.27591144891E+03  0.27591146740E+03  0.10100000352E+00 0.  1.
        3   -1    0    0  501    0  0.00000000000E+00  0.00000000000E+00 -0.44258388677E+03  0.44258389829E+03  0.10100000352E+00 0. -1.
    10030    2    1    2    0    0  0.00000000000E+00  0.00000000000E+00 -0.16667243786E+03  0.71849536569E+03  0.69889619328E+03 0.  0.
        2    1    3    3  502    0 -0.19360552214E+03  0.28514440094E+03 -0.14260309753E+03  0.37299607374E+03  0.25500000920E-02 0. -1.
       -2    1    3    3    0  502  0.19360552214E+03 -0.28514440094E+03 -0.24069340329E+02  0.34549929196E+03  0.25500000920E-02 0.  1.
</event>
<event>
 5   0  0.3749730E-02  0.5625732E+03  0.7818609E-02  0.9986249E-01
        1   -1    0    0  501    0  0.00000000000E+00  0.00000000000E+00  0.70693197042E+03  0.70693197044E+03  0.50400001928E-02 0. -1.
       -1   -1    0    0    0  501  0.00000000000E+00  0.00000000000E+00 -0.11192330207E+03  0.11192330219E+03  0.50400001928E-02 0.  1.
    10030    2    1    2    0    0  0.00000000000E+00  0.00000000000E+00  0.59500866835E+03  0.81885527263E+03  0.56257323265E+03 0.  0.
        4    1    3    3  502    0 -0.35278317312E+01  0.17879398625E+03  0.61353310146E+03  0.63906510983E+03  0.12699999809E+01 0. -1.
       -4    1    3    3    0  502  0.35278317312E+01 -0.17879398625E+03 -0.18524433113E+02  0.17979016279E+03  0.12699999809E+01 0.  1.
</event>
<event>
 5   0  0.6167756E-02  0.6908972E+03  0.7818609E-02  0.9732927E-01
       -2   -1    0    0    0  501  0.00000000000E+00  0.00000000000E+00  0.92026326489E+02  0.92026326524E+02  0.25500000920E-02 0.  1.
        2   -1    0    0  501    0  0.00000000000E+00  0.00000000000E+00 -0.12967457183E+04  0.12967457183E+04  0.25500000920E-02 0. -1.
    10030    2    1    2    0    0  0.00000000000E+00  0.00000000000E+00 -0.12047193918E+04  0.13887720448E+04  0.69089722787E+03 0.  0.
        4    1    3    3  502    0  0.68582993838E+02 -0.18977232803E+03 -0.11659621818E+04  0.11832948009E+04  0.12699999809E+01 0. -1.
       -4    1    3    3    0  502 -0.68582993838E+02  0.18977232803E+03 -0.38757209964E+02  0.20547724389E+03  0.12699999809E+01 0.  1.
</event>
<event>
 5   0  0.3717372E-02  0.7002599E+03  0.7818609E-02  0.9716788E-01
       -1   -1    0    0    0  501  0.00000000000E+00  0.00000000000E+00  0.36323125011E+03  0.36323125015E+03  0.50400001928E-02 0. -1.
        1   -1    0    0  501    0  0.00000000000E+00  0.00000000000E+00 -0.33750123386E+03  0.33750123390E+03  0.50400001928E-02 0.  1.
    10030    2    1    2    0    0  0.00000000000E+00  0.00000000000E+00  0.25730016250E+02  0.70073248405E+03  0.70025993778E+03 0.  0.
        3    1    3    3  502    0 -0.19748549016E+03 -0.10378814487E+03 -0.25716609809E+03  0.34045103913E+03  0.10100000352E+00 0.  1.
       -3    1    3    3    0  502  0.19748549016E+03  0.10378814487E+03  0.28289611434E+03  0.36028144491E+03  0.10100000352E+00 0. -1.
</event>
<event>
 5   0  0.5987810E-02  0.7369902E+03  0.7818609E-02  0.9655985E-01
        2   -1    0    0  501    0  0.00000000000E+00  0.00000000000E+00  0.10081097503E+04  0.10081097503E+04  0.25500000920E-02 0.  1.
       -2   -1    0    0    0  501  0.00000000000E+00  0.00000000000E+00 -0.13469629390E+03  0.13469629393E+03  0.25500000920E-02 0. -1.
    10030    2    1    2    0    0  0.00000000000E+00  0.00000000000E+00  0.87341345639E+03  0.11428060442E+04  0.73699022308E+03 0.  0.
        5    1    3    3  502    0  0.41438433098E+02  0.31848335105E+03  0.71675824280E+03  0.78543825808E+03  0.46999998093E+01 0.  1.
       -5    1    3    3    0  502 -0.41438433098E+02 -0.31848335105E+03  0.15665521359E+03  0.35736778615E+03  0.46999998093E+01 0. -1.
</event>
<event>
 5   0  0.5899787E-02  0.7085041E+03  0.7818609E-02  0.9702799E-01
        2   -1    0    0  501    0  0.00000000000E+00  0.00000000000E+00  0.39962527797E+03  0.39962527798E+03  0.25500000920E-02 0.  1.
       -2   -1    0    0    0  501  0.00000000000E+00  0.00000000000E+00 -0.31403044110E+03  0.31403044111E+03  0.25500000920E-02 0. -1.
    10030    2    1    2    0    0  0.00000000000E+00  0.00000000000E+00  0.85594836875E+02  0.71365571909E+03  0.70850406441E+03 0.  0.
        2    1    3    3  502    0 -0.27024564005E+03 -0.78806282073E+02 -0.17382763738E+03  0.33084616302E+03  0.25500000920E-02 0. -1.
       -2    1    3    3    0  502  0.27024564005E+03  0.78806282073E+02  0.25942247426E+03  0.38280955607E+03  0.25500000920E-02 0.  1.
</event>
<event>
 5   0  0.5987810E-02  0.6915934E+03  0.7818609E-02  0.9731718E-01
       -2   -1    0    0    0  501  0.00000000000E+00  0.00000000000E+00  0.24841437421E+03  0.24841437422E+03  0.25500000920E-02 0.  1.
        2   -1    0    0  501    0  0.00000000000E+00  0.00000000000E+00 -0.48135435748E+03  0.48135435748E+03  0.25500000920E-02 0. -1.
    10030    2    1    2    0    0  0.00000000000E+00  0.00000000000E+00 -0.23293998327E+03  0.72976873170E+03  0.69159335304E+03 0.  0.
        5    1    3    3  502    0 -0.33753196844E+03  0.17687149909E+02 -0.39559170530E+02  0.34033466318E+03  0.46999998093E+01 0. -1.
       -5    1    3    3    0  502  0.33753196844E+03 -0.17687149909E+02 -0.19338081274E+03  0.38943406852E+03  0.46999998093E+01 0.  1.
</event>
<event>
 5   0  0.3717372E-02  0.6908757E+03  0.7818609E-02  0.9732964E-01
        1   -1    0    0  501    0  0.00000000000E+00  0.00000000000E+00  0.77474597349E+03  0.77474597351E+03  0.50400001928E-02 0. -1.
       -1   -1    0    0    0  501  0.00000000000E+00  0.00000000000E+00 -0.15402122556E+03  0.15402122565E+03  0.50400001928E-02 0.  1.
    10030    2    1    2    0    0  0.00000000000E+00  0.00000000000E+00  0.62072474793E+03  0.92876719915E+03  0.69087574681E+03 0.  0.
        3    1    3    3  502    0 -0.16168808925E+03 -0.29109810750E+03  0.18681407383E+03  0.38181232927E+03  0.10100000352E+00 0. -1.
       -3    1    3    3    0  502  0.16168808925E+03  0.29109810750E+03  0.43391067410E+03  0.54695486989E+03  0.10100000352E+00 0.  1.
</event>
<event>
 5   0  0.3755872E-02  0.7039501E+03  0.7818609E-02  0.9710501E-01
        1   -1    0    0  501    0  0.00000000000E+00  0.00000000000E+00  0.35093162766E+03  0.35093162769E+03  0.50400001928E-02 0. -1.
       -1   -1    0    0    0  501  0.00000000000E+00  0.00000000000E+00 -0.35302161615E+03  0.35302161619E+03  0.50400001928E-02 0.  1.
    10030    2    1    2    0    0  0.00000000000E+00  0.00000000000E+00 -0.20899884966E+01  0.70395324388E+03  0.70395014136E+03 0.  0.
        2    1    3    3  502    0  0.19763317355E+03  0.78845797274E+02 -0.28142261865E+03  0.35280904372E+03  0.25500000920E-02 0.  1.
       -2    1    3    3    0  502 -0.19763317355E+03 -0.78845797274E+02  0.27933263015E+03  0.35114420017E+03  0.25500000920E-02 0. -1.
</event>
<event>
 5   0  0.6248886E-02  0.6843190E+03  0.7818609E-02  0.9744431E-01
       -2   -1    0    0    0  501  0.00000000000E+00  0.00000000000E+00  0.12022025560E+03  0.12022025562E+03  0.25500000920E-02 0.  1.
        2   -1    0    0  501    0  0.00000000000E+00  0.00000000000E+00 -0.97382185337E+03  0.97382185337E+03  0.25500000920E-02 0. -1.
    10030    2    1    2    0    0  0.00000000000E+00  0.00000000000E+00 -0.85360159777E+03  0.10940421090E+04  0.68431896696E+03 0.  0.
        3    1    3    3  502    0  0.28930525979E+03  0.64931097810E+02 -0.15379890837E+03  0.33401750736E+03  0.10100000352E+00 0.  1.
       -3    1    3    3    0  502 -0.28930525979E+03 -0.64931097810E+02 -0.69980268940E+03  0.76002460164E+03  0.10100000352E+00 0. -1.
</event>
<event>
 5   0  0.3755872E-02  0.6879598E+03  0.7818609E-02  0.9738047E-01
        1   -1    0    0  501    0  0.00000000000E+00  0.00000000000E+00  0.10050804083E+04  0.10050804083E+04  0.50400001928E-02 0.  1.
       -1   -1    0    0    0  501  0.00000000000E+00  0.00000000000E+00 -0.11772406962E+03  0.11772406973E+03  0.50400001928E-02 0. -1.
    10030    2    1    2    0    0  0.00000000000E+00  0.00000000000E+00  0.88735633870E+03  0.11228044781E+04  0.68795975473E+03 0.  0.
        2    1    3    3  502    0 -0.13452230860E+03  0.18905836891E+01 -0.73003853360E+02  0.15306661435E+03  0.25500000920E-02 0. -1.
       -2    1    3    3    0  502  0.13452230860E+03 -0.18905836891E+01  0.96036019206E+03  0.96973786371E+03  0.25500000920E-02 0.  1.
</event>
<event>
 5   0  0.6167756E-02  0.7637992E+03  0.7818609E-02  0.9613947E-01
       -2   -1    0    0    0  501  0.00000000000E+00  0.00000000000E+00  0.63460315392E+03  0.63460315392E+03  0.25500000920E-02 0.  1.
        2   -1    0    0  501    0  0.00000000000E+00  0.00000000000E+00 -0.22982445182E+03  0.22982445184E+03  0.25500000920E-02 0. -1.
    10030    2    1    2    0    0  0.00000000000E+00  0.00000000000E+00  0.40477870210E+03  0.86442760576E+03  0.76379924583E+03 0.  0.
        4    1    3    3  502    0 -0.10746091665E+03  0.70526660457E+02 -0.20460531376E+03  0.24163361886E+03  0.12699999809E+01 0. -1.
       -4    1    3    3    0  502  0.10746091665E+03 -0.70526660457E+02  0.60938401586E+03  0.62279398690E+03  0.12699999809E+01 0.  1.
</event>
<event>
 5   0  0.3749730E-02  0.7044337E+03  0.7818609E-02  0.9709680E-01
       -1   -1    0    0    0  501  0.00000000000E+00  0.00000000000E+00  0.36534539107E+03  0.36534539110E+03  0.50400001928E-02 0.  1.
        1   -1    0    0  501    0  0.00000000000E+00  0.00000000000E+00 -0.33956009707E+03  0.33956009710E+03  0.50400001928E-02 0. -1.
    10030    2    1    2    0    0  0.00000000000E+00  0.00000000000E+00  0.25785293999E+02  0.70490548820E+03  0.70443372003E+03 0.  0.
        4    1    3    3  502    0 -0.18720759661E+03  0.12122745235E+03 -0.25989278752E+03  0.34247431048E+03  0.12699999809E+01 0. -1.
       -4    1    3    3    0  502  0.18720759661E+03 -0.12122745235E+03  0.28567808151E+03  0.36243117773E+03  0.12699999809E+01 0.  1.
</event>
<event>
 5   0  0.3439015E-02  0.7158809E+03  0.7818609E-02  0.9690453E-01
        1   -1    0    0  501    0  0.00000000000E+00  0.00000000000E+00  0.10759575671E+04  0.10759575671E+04  0.50400001928E-02 0. -1.
       -1   -1    0    0    0  501  0.00000000000E+00  0.00000000000E+00 -0.11907661057E+03  0.11907661068E+03  0.50400001928E-02 0.  1.
    10030    2    1    2    0    0  0.00000000000E+00  0.00000000000E+00  0.95688095650E+03  0.11950341778E+04  0.71588094058E+03 0.  0.
        1    1    3    3  502    0 -0.20906141012E+03  0.78492014558E+02  0.11467235624E+02  0.22360493525E+03  0.50400001928E-02 0.  1.
       -1    1    3    3    0  502  0.20906141012E+03 -0.78492014558E+02  0.94541372087E+03  0.97142924250E+03  0.50400001928E-02 0. -1.
</event>
<event>
 5   0  0.3717372E-02  0.7220926E+03  0.7818609E-02  0.9680179E-01
        1   -1    0    0  501    0  0.00000000000E+00  0.00000000000E+00  0.58391971993E+03  0.58391971995E+03  0.50400001928E-02 0. -1.
       -1   -1    0    0    0  501  0.00000000000E+00  0.00000000000E+00 -0.22324032511E+03  0.22324032517E+03  0.50400001928E-02 0.  1.
    10030    2    1    2    0    0  0.00000000000E+00  0.00000000000E+00  0.36067939482E+03  0.80716004512E+03  0.72209259281E+03 0.  0.
        3    1    3    3  502    0 -0.18419367223E+02 -0.11572705456E+03  0.56207097118E+03  0.57415660850E+03  0.10100000352E+00 0. -1.
       -3    1    3    3    0  502  0.18419367223E+02  0.11572705456E+03 -0.20139157636E+03  0.23300343661E+03  0.10100000352E+00 0.  1.
</event>
<event>
 5   0  0.3439015E-02  0.6960984E+03  0.7818609E-02  0.9723928E-01
        1   -1    0    0  501    0  0.00000000000E+00  0.00000000000E+00  0.22232567836E+03  0.22232567842E+03  0.50400001928E-02 0. -1.
       -1   -1    0    0    0  501  0.00000000000E+00  0.00000000000E+00 -0.54486843992E+03  0.54486843995E+03  0.50400001928E-02 0.  1.
    10030    2    1    2    0    0  0.00000000000E+00  0.00000000000E+00 -0.32254276156E+03  0.76719411837E+03  0.69609839981E+03 0.  0.
        1    1    3    3  502    0 -0.83559371942E+02  0.33380993101E+03 -0.21882567646E+03  0.40779396193E+03  0.50400001928E-02 0.  1.
       -1    1    3    3    0  502  0.83559371942E+02 -0.33380993101E+03 -0.10371708510E+03  0.35940015644E+03  0.50400001928E-02 0. -1.
</event>
<event>
 5   0  0.5899787E-02  0.7100032E+03  0.7818609E-02  0.9700277E-01
        2   -1    0    0  501    0  0.00000000000E+00  0.00000000000E+00  0.11644892200E+04  0.11644892200E+04  0.25500000920E-02 0.  1.
       -2   -1    0    0    0  501  0.00000000000E+00  0.00000000000E+00 -0.10822440170E+03  0.10822440173E+03  0.25500000920E-02 0. -1.
    10030    2    1    2    0    0  0.00000000000E+00  0.00000000000E+00  0.10562648183E+04  0.12727136217E+04  0.71000323701E+03 0.  0.
        2    1    3    3  502    0  0.22383918911E+03  0.49118111951E+01  0.10219717063E+04  0.10462094805E+04  0.25500000920E-02 0.  1.
       -2    1    3    3    0  502 -0.22383918911E+03 -0.49118111951E+01  0.34293111947E+02  0.22650414125E+03  0.25500000920E-02 0. -1.
</event>
<event>
 5   0  0.3749730E-02  0.6892862E+03  0.7818609E-02  0.9735732E-01
       -1   -1    0    0    0  501  0.00000000000E+00  0.00000000000E+00  0.41921704217E+03  0.41921704220E+03  0.50400001928E-02 0.  1.
        1   -1    0    0  501    0  0.00000000000E+00  0.00000000000E+00 -0.28333498293E+03  0.28333498298E+03  0.50400001928E-02 0. -1.
    10030    2    1    2    0    0  0.00000000000E+00  0.00000000000E+00  0.13588205924E+03  0.70255202518E+03  0.68928616268E+03 0.  0.
        4    1    3    3  502    0  0.22877638481E+03 -0.20412550293E+03 -0.92477332609E+02  0.32024916103E+03  0.12699999809E+01 0. -1.
       -4    1    3    3    0  502 -0.22877638481E+03  0.20412550293E+03  0.22835939185E+03  0.38230286415E+03  0.12699999809E+01 0.  1.
</event>
<event>
 5   0  0.6248886E-02  0.7124099E+03  0.7818609E-02  0.9696242E-01
        2   -1    0    0  501    0  0.00000000000E+00  0.00000000000E+00  0.57217103641E+03  0.57217103641E+03  0.25500000920E-02 0.  1.
       -2   -1    0    0    0  501  0.00000000000E+00  0.00000000000E+00 -0.22175531218E+03  0.22175531220E+03  0.25500000920E-02 0. -1.
    10030    2    1    2    0    0  0.00000000000E+00  0.00000000000E+00  0.35041572422E+03  0.79392634861E+03  0.71240990113E+03 0.  0.
        3    1    3    3  502    0 -0.22052277509E+03  0.17211718196E+03  0.42095615879E+03  0.50542923984E+03  0.10100000352E+00 0.  1.
       -3    1    3    3    0  502  0.22052277509E+03 -0.17211718196E+03 -0.70540434568E+02  0.28849710877E+03  0.10100000352E+00 0. -1.
</event>
<event>
 5   0  0.2439375E-02  0.7110782E+03  0.7818609E-02  0.9698472E-01
        3   -1    0    0  501    0  0.00000000000E+00  0.00000000000E+00  0.12354240685E+03  0.12354244813E+03  0.10100000352E+00 0.  1.
       -3   -1    0    0    0  501  0.00000000000E+00  0.00000000000E+00 -0.10231954055E+04  0.10231954105E+04  0.10100000352E+00 0. -1.
    10030    2    1    2    0    0  0.00000000000E+00  0.00000000000E+00 -0.89965299868E+03  0.11467378586E+04  0.71107819430E+03 0.  0.
        2    1    3    3  502    0  0.24111691171E+03  0.18700725546E+02 -0.29536824389E+02  0.24363806404E+03  0.25500000920E-02 0.  1.
       -2    1    3    3    0  502 -0.24111691171E+03 -0.18700725546E+02 -0.87011617429E+03  0.90309979460E+03  0.25500000920E-02 0. -1.
</event>
<event>
 5   0  0.6167756E-02  0.7003558E+03  0.7818609E-02  0.9716624E-01
       -2   -1    0    0    0  501  0.00000000000E+00  0.00000000000E+00  0.10019470825E+03  0.10019470828E+03  0.25500000920E-02 0.  1.
        2   -1    0    0  501    0  0.00000000000E+00  0.00000000000E+00 -0.12238627444E+04  0.12238627444E+04  0.25500000920E-02 0. -1.
    10030    2    1    2    0    0  0.00000000000E+00  0.00000000000E+00 -0.11236680361E+04  0.13240574527E+04  0.70035582566E+03 0.  0.
        4    1    3    3  502    0 -0.21284700335E+03  0.94538394440E+02 -0.67457626982E+02  0.24247370826E+03  0.12699999809E+01 0.  1.
       -4    1    3    3    0  502  0.21284700335E+03 -0.94538394440E+02 -0.10562104092E+04  0.10815837444E+04  0.12699999809E+01 0. -1.
</event>
<event>
 5   0  0.3439015E-02  0.7108801E+03  0.7818609E-02  0.9698805E-01
       -1   -1    0    0    0  501  0.00000000000E+00  0.00000000000E+00  0.75773007042E+03  0.75773007043E+03  0.50400001928E-02 0. -1.
        1   -1    0    0  501    0  0.00000000000E+00  0.00000000000E+00 -0.16673172392E+03  0.16673172400E+03  0.50400001928E-02 0.  1.
    10030    2    1    2    0    0  0.00000000000E+00  0.00000000000E+00  0.59099834650E+03  0.92446179443E+03  0.71088013322E+03 0.  0.
        1    1    3    3  502    0 -0.33766140917E+03 -0.46042811625E+02  0.42685378381E+03  0.54620446769E+03  0.50400001928E-02 0. -1.
       -1    1    3    3    0  502  0.33766140917E+03  0.46042811625E+02  0.16414456268E+03  0.37825732674E+03  0.50400001928E-02 0.  1.
</event>
<event>
 5   0  0.5987810E-02  0.6894294E+03  0.7818609E-02  0.9735482E-01
        2   -1    0    0  501    0  0.00000000000E+00  0.00000000000E+00  0.55113583245E+03  0.55113583245E+03  0.25500000920E-02 0.  1.
       -2   -1    0    0    0  501  0.00000000000E+00  0.00000000000E+00 -0.21560603248E+03  0.21560603249E+03  0.25500000920E-02 0. -1.
    10030    2    1    2    0    0  0.00000000000E+00  0.00000000000E+00  0.33552979997E+03  0.76674186494E+03  0.68942935881E+03 0.  0.
        5    1    3    3  502    0  0.62698425599E+02 -0.15558301672E+03  0.50264450793E+03  0.52991580371E+03  0.46999998093E+01 0.  1.
       -5    1    3    3    0  502 -0.62698425599E+02  0.15558301672E+03 -0.16711470796E+03  0.23682606124E+03  0.46999998093E+01 0. -1.
</event>
<event>
 5   0  0.3601475E-02  0.6862835E+03  0.7818609E-02  0.9740981E-01
        1   -1    0    0  501    0  0.00000000000E+00  0.00000000000E+00  0.11056709044E+03  0.11056709056E+03  0.50400001928E-02 0.  1.
       -1   -1    0    0    0  501  0.00000000000E+00  0.00000000000E+00 -0.10649304362E+04  0.10649304362E+04  0.50400001928E-02 0. -1.
    10030    2    1    2    0    0  0.00000000000E+00  0.00000000000E+00 -0.95436334571E+03  0.11754975267E+04  0.68628349805E+03 0.  0.
        5    1    3    3  502    0  0.15933873340E+03 -0.25984121679E+03 -0.20734529169E+03  0.36867390725E+03  0.46999998093E+01 0. -1.
       -5    1    3    3    0  502 -0.15933873340E+03  0.25984121679E+03 -0.74701805403E+03  0.80682361948E+03  0.46999998093E+01 0.  1.
</event>
<event>
 5   0  0.6131198E-02  0.6988294E+03  0.7818609E-02  0.9719236E-01
       -2   -1    0    0    0  501  0.00000000000E+00  0.00000000000E+00  0.11952295148E+03  0.11952295151E+03  0.25500000920E-02 0.  1.
        2   -1    0    0  501    0  0.00000000000E+00  0.00000000000E+00 -0.10214827066E+04  0.10214827066E+04  0.25500000920E-02 0. -1.
    10030    2    1    2    0    0  0.00000000000E+00  0.00000000000E+00 -0.90195975507E+03  0.11410056581E+04  0.69882938687E+03 0.  0.
        1    1    3    3  502    0 -0.29153123996E+03  0.12495243417E+03 -0.69031424661E+03  0.75969555335E+03  0.50400001928E-02 0. -1.
       -1    1    3    3    0  502  0.29153123996E+03 -0.12495243417E+03 -0.21164550846E+03  0.38131010471E+03  0.50400001928E-02 0.  1.
</event>
<event>
 5   0  0.6248886E-02  0.7052205E+03  0.7818609E-02  0.9708346E-01
       -2   -1    0    0    0  501  0.00000000000E+00  0.00000000000E+00  0.15997711934E+03  0.15997711936E+03  0.25500000920E-02 0.  1.
        2   -1    0    0  501    0  0.00000000000E+00  0.00000000000E+00 -0.77719858190E+03  0.77719858190E+03  0.25500000920E-02 0. -1.
    10030    2    1    2    0    0  0.00000000000E+00  0.00000000000E+00 -0.61722146256E+03  0.93717570126E+03  0.70522050537E+03 0.  0.
        3    1    3    3  502    0 -0.18681832566E+03  0.14401536740E+03 -0.65690846283E+03  0.69797582450E+03  0.10100000352E+00 0. -1.
       -3    1    3    3    0  502  0.18681832566E+03 -0.14401536740E+03  0.39687000273E+02  0.23919987676E+03  0.10100000352E+00 0.  1.
</event>
<event>
 5   0  0.3749730E-02  0.7309177E+03  0.7818609E-02  0.9665772E-01
        1   -1    0    0  501    0  0.00000000000E+00  0.00000000000E+00  0.13387351184E+04  0.13387351184E+04  0.50400001928E-02 0. -1.
       -1   -1    0    0    0  501  0.00000000000E+00  0.00000000000E+00 -0.99765937472E+02  0.99765937599E+02  0.50400001928E-02 0.  1.
    10030    2    1    2    0    0  0.00000000000E+00  0.00000000000E+00  0.12389691809E+04  0.14385010560E+04  0.73091768130E+03 0.  0.
        4    1    3    3  502    0 -0.54184513020E+02  0.29880464429E+03  0.21933865079E+03  0.37460810660E+03  0.12699999809E+01 0.  1.
       -4    1    3    3    0  502  0.54184513020E+02 -0.29880464429E+03  0.10196305301E+04  0.10638929494E+04  0.12699999809E+01 0. -1.
</event>
<event>
 5   0  0.2439375E-02  0.7252418E+03  0.7818609E-02  0.9675013E-01
        4   -1    0    0  501    0  0.00000000000E+00  0.00000000000E+00  0.18602577663E+03  0.18603011173E+03  0.12699999809E+01 0. -1.
       -4   -1    0    0    0  501  0.00000000000E+00  0.00000000000E+00 -0.70684552953E+03  0.70684667044E+03  0.12699999809E+01 0.  1.
    10030    2    1    2    0    0  0.00000000000E+00  0.00000000000E+00 -0.52081975290E+03  0.89287678217E+03  0.72524184458E+03 0.  0.
        1    1    3    3  502    0  0.22140647045E+03 -0.24543250616E+03 -0.44399476944E+03  0.55352443086E+03  0.50400001928E-02 0.  1.
       -1    1    3    3    0  502 -0.22140647045E+03  0.24543250616E+03 -0.76824983451E+02  0.33935235131E+03  0.50400001928E-02 0. -1.
</event>
<event>
 5   0  0.6131198E-02  0.7165665E+03  0.7818609E-02  0.9689313E-01
       -2   -1    0    0    0  501  0.00000000000E+00  0.00000000000E+00  0.91549708550E+02  0.91549708585E+02  0.25500000920E-02 0.  1.
        2   -1    0    0  501    0  0.00000000000E+00  0.00000000000E+00 -0.14021551276E+04  0.14021551276E+04  0.25500000920E-02 0. -1.
    10030    2    1    2    0    0  0.00000000000E+00  0.00000000000E+00 -0.13106054190E+04  0.14937048361E+04  0.71656651694E+03 0.  0.
        1    1    3    3  502    0  0.37002110915E+02 -0.27771229243E+03 -0.11208284727E+04  0.11553136971E+04  0.50400001928E-02 0. -1.
       -1    1    3    3    0  502 -0.37002110915E+02  0.27771229243E+03 -0.18977694633E+03  0.33839113901E+03  0.50400001928E-02 0.  1.
</event>
<event>
 5   0  0.6248886E-02  0.7169497E+03  0.7818609E-02  0.9688677E-01
       -2   -1    0    0    0  501  0.00000000000E+00  0.00000000000E+00  0.14453968800E+03  0.14453968802E+03  0.25500000920E-02 0.  1.
        2   -1    0    0  501    0  0.00000000000E+00  0.00000000000E+00 -0.88905830336E+03  0.88905830336E+03  0.25500000920E-02 0. -1.
    10030    2    1    2    0    0  0.00000000000E+00  0.00000000000E+00 -0.74451861536E+03  0.10335979914E+04  0.71694967687E+03 0.  0.
        3    1    3    3  502    0 -0.15278824905E+03 -0.32338697182E+03 -0.40700353369E+03  0.54182586615E+03  0.10100000352E+00 0. -1.
       -3    1    3    3    0  502  0.15278824905E+03  0.32338697182E+03 -0.33751508167E+03  0.49177212523E+03  0.10100000352E+00 0.  1.
</event>
<event>
 5   0  0.3601475E-02  0.7337870E+03  0.7818609E-02  0.9661135E-01
        1   -1    0    0  501    0  0.00000000000E+00  0.00000000000E+00  0.56481259503E+03  0.56481259505E+03  0.50400001928E-02 0. -1.
       -1   -1    0    0    0  501  0.00000000000E+00  0.00000000000E+00 -0.23832831414E+03  0.23832831419E+03  0.50400001928E-02 0.  1.
    10030    2    1    2    0    0  0.00000000000E+00  0.00000000000E+00  0.32648428090E+03  0.80314090924E+03  0.73378698164E+03 0.  0.
        5    1    3    3  502    0 -0.10614512681E+03  0.34988703658E+03  0.13038813613E+03  0.38821499501E+03  0.46999998093E+01 0.  1.
       -5    1    3    3    0  502  0.10614512681E+03 -0.34988703658E+03  0.19609614477E+03  0.41492591423E+03  0.46999998093E+01 0. -1.
</event>
<event>
 5   0  0.6248886E-02  0.6863952E+03  0.7818609E-02  0.9740785E-01
       -2   -1    0    0    0  501  0.00000000000E+00  0.00000000000E+00  0.41860509391E+03  0.41860509392E+03  0.25500000920E-02 0.  1.
        2   -1    0    0  501    0  0.00000000000E+00  0.00000000000E+00 -0.28137404091E+03  0.28137404093E+03  0.25500000920E-02 0. -1.
    10030    2    1    2    0    0  0.00000000000E+00  0.00000000000E+00  0.13723105300E+03  0.69997913485E+03  0.68639524132E+03 0.  0.
        3    1    3    3  502    0 -0.14614719120E+03 -0.64086933749E+02 -0.24123704620E+03  0.28924290697E+03  0.10100000352E+00 0. -1.
       -3    1    3    3    0  502  0.14614719120E+03  0.64086933749E+02  0.37846809920E+03  0.41073622787E+03  0.10100000352E+00 0.  1.
</event>
<event>
 5   0  0.3755872E-02  0.7121616E+03  0.7818609E-02  0.9696657E-01
        1   -1    0    0  501    0  0.00000000000E+00  0.00000000000E+00  0.93187334620E+03  0.93187334621E+03  0.50400001928E-02 0. -1.
       -1   -1    0    0    0  501  0.00000000000E+00  0.00000000000E+00 -0.13606303933E+03  0.13606303943E+03  0.50400001928E-02 0.  1.
    10030    2    1    2    0    0  0.00000000000E+00  0.00000000000E+00  0.79581030686E+03  0.10679363856E+04  0.71216155419E+03 0.  0.
        2    1    3    3  502    0  0.13948662144E+03  0.30565191671E+03  0.22101998333E+03  0.40215599558E+03  0.25500000920E-02 0.  1.
       -2    1    3    3    0  502 -0.13948662144E+03 -0.30565191671E+03  0.57479032353E+03  0.66578039005E+03  0.25500000920E-02 0. -1.
</event>
<event>
 5   0  0.3749730E-02  0.7180136E+03  0.7818609E-02  0.9686913E-01
        1   -1    0    0  501    0  0.00000000000E+00  0.00000000000E+00  0.12546926927E+04  0.12546926927E+04  0.50400001928E-02 0. -1.
       -1   -1    0    0    0  501  0.00000000000E+00  0.00000000000E+00 -0.10272308034E+03  0.10272308046E+03  0.50400001928E-02 0.  1.
    10030    2    1    2    0    0  0.00000000000E+00  0.00000000000E+00  0.11519696123E+04  0.13574157732E+04  0.71801364433E+03 0.  0.
        4    1    3    3  502    0  0.18070627771E+03  0.10798533245E+03  0.26209780195E+02  0.21214183064E+03  0.12699999809E+01 0.  1.
       -4    1    3    3    0  502 -0.18070627771E+03 -0.10798533245E+03  0.11257598322E+04  0.11452739425E+04  0.12699999809E+01 0. -1.
</event>
<event>
 5   0  0.6248886E-02  0.6824396E+03  0.7818609E-02  0.9747743E-01
        2   -1    0    0  501    0  0.00000000000E+00  0.00000000000E+00  0.98577228562E+03  0.98577228562E+03  0.25500000920E-02 0.  1.
       -2   -1    0    0    0  501  0.00000000000E+00  0.00000000000E+00 -0.11811139899E+03  0.11811139901E+03  0.25500000920E-02 0. -1.
    10030    2    1    2    0    0  0.00000000000E+00  0.00000000000E+00  0.86766088663E+03  0.11038836846E+04  0.68243957609E+03 0.  0.
        3    1    3    3  502    0  0.19141245333E+03  0.16107370031E+03  0.58475829278E+02  0.25691028985E+03  0.10100000352E+00 0. -1.
       -3    1    3    3    0  502 -0.19141245333E+03 -0.16107370031E+03  0.80918505735E+03  0.84697339478E+03  0.10100000352E+00 0.  1.
</event>
<event>
 5   0  0.3717372E-02  0.6814508E+03  0.7818609E-02  0.9749490E-01
        1   -1    0    0  501    0  0.00000000000E+00  0.00000000000E+00  0.35840068972E+03  0.35840068976E+03  0.50400001928E-02 0. -1.
       -1   -1    0    0    0  501  0.00000000000E+00  0.00000000000E+00 -0.32392180668E+03  0.32392180672E+03  0.50400001928E-02 0.  1.
    10030    2    1    2    0    0  0.00000000000E+00  0.00000000000E+00  0.34478883041E+02  0.68232249647E+03  0.68145080220E+03 0.  0.
        3    1    3    3  502    0 -0.30730394250E+03 -0.13870855331E+03 -0.31996754427E+02  0.33867326191E+03  0.10100000352E+00 0.  1.
       -3    1    3    3    0  502  0.30730394250E+03  0.13870855331E+03  0.66475637467E+02  0.34364923456E+03  0.10100000352E+00 0. -1.
</event>
<event>
 5   0  0.3439015E-02  0.6984145E+03  0.7818609E-02  0.9719947E-01
        1   -1    0    0  501    0  0.00000000000E+00  0.00000000000E+00  0.12811653214E+04  0.12811653214E+04  0.50400001928E-02 0.  1.
       -1   -1    0    0    0  501  0.00000000000E+00  0.00000000000E+00 -0.95183436627E+02  0.95183436760E+02  0.50400001928E-02 0. -1.
    10030    2    1    2    0    0  0.00000000000E+00  0.00000000000E+00  0.11859818848E+04  0.13763487582E+04  0.69841454245E+03 0.  0.
        1    1    3    3  502    0 -0.29324370308E+03 -0.11206256490E+03  0.29156234416E+03  0.42843726309E+03  0.50400001928E-02 0. -1.
       -1    1    3    3    0  502  0.29324370308E+03  0.11206256490E+03  0.89441954063E+03  0.94791149510E+03  0.50400001928E-02 0.  1.
</event>
<event>
 5   0  0.3749730E-02  0.7028048E+03  0.7818609E-02  0.9712448E-01
        1   -1    0    0  501    0  0.00000000000E+00  0.00000000000E+00  0.10413367868E+04  0.10413367868E+04  0.50400001928E-02 0.  1.
       -1   -1    0    0    0  501  0.00000000000E+00  0.00000000000E+00 -0.11858184749E+03  0.11858184760E+03  0.50400001928E-02 0. -1.
    10030    2    1    2    0    0  0.00000000000E+00  0.00000000000E+00  0.92275493935E+03  0.11599186344E+04  0.70280478117E+03 0.  0.
        4    1    3    3  502    0  0.55663057841E+02  0.15803289963E+03 -0.48408722176E+02  0.17440696849E+03  0.12699999809E+01 0. -1.
       -4    1    3    3    0  502 -0.55663057841E+02 -0.15803289963E+03  0.97116366152E+03  0.98551166595E+03  0.12699999809E+01 0.  1.
</event>
<event>
 5   0  0.5899787E-02  0.7027872E+03  0.7818609E-02  0.9712478E-01
       -2   -1    0    0    0  501  0.00000000000E+00  0.00000000000E+00  0.95956234996E+02  0.95956235030E+02  0.25500000920E-02 0.  1.
        2   -1    0    0  501    0  0.00000000000E+00  0.00000000000E+00 -0.12868100715E+04  0.12868100715E+04  0.25500000920E-02 0. -1.
    10030    2    1    2    0    0  0.00000000000E+00  0.00000000000E+00 -0.11908538365E+04  0.13827663065E+04  0.70278716449E+03 0.  0.
        2    1    3    3  502    0  0.82819936516E+02  0.27235729634E+03 -0.19009417535E+03  0.34230605350E+03  0.25500000920E-02 0.  1.
       -2    1    3    3    0  502 -0.82819936516E+02 -0.27235729634E+03 -0.10007596612E+04  0.10404602530E+04  0.25500000920E-02 0. -1.
</event>
<event>
 5   0  0.5899787E-02  0.6948145E+03  0.7818609E-02  0.9726141E-01
        2   -1    0    0  501    0  0.00000000000E+00  0.00000000000E+00  0.29288243693E+03  0.29288243694E+03  0.25500000920E-02 0. -1.
       -2   -1    0    0    0  501  0.00000000000E+00  0.00000000000E+00 -0.41208275419E+03  0.41208275420E+03  0.25500000920E-02 0.  1.
    10030    2    1    2    0    0  0.00000000000E+00  0.00000000000E+00 -0.11920031726E+03  0.70496519114E+03  0.69481451128E+03 0.  0.
        2    1    3    3  502    0 -0.24056227777E+03  0.24957517348E+03 -0.36157974795E+02  0.34851883142E+03  0.25500000920E-02 0. -1.
       -2    1    3    3    0  502  0.24056227777E+03 -0.24957517348E+03 -0.83042342461E+02  0.35644635972E+03  0.25500000920E-02 0.  1.
</event>
<event>
 5   0  0.5899787E-02  0.7205508E+03  0.7818609E-02  0.9682719E-01
       -2   -1    0    0    0  501  0.00000000000E+00  0.00000000000E+00  0.11492902874E+03  0.11492902876E+03  0.25500000920E-02 0. -1.
        2   -1    0    0  501    0  0.00000000000E+00  0.00000000000E+00 -0.11293785377E+04  0.11293785377E+04  0.25500000920E-02 0.  1.
    10030    2    1    2    0    0  0.00000000000E+00  0.00000000000E+00 -0.10144495090E+04  0.12443075665E+04  0.72055084049E+03 0.  0.
        2    1    3    3  502    0  0.14357936108E+03 -0.26999059381E+03 -0.83618784347E+03  0.89034828200E+03  0.25500000920E-02 0.  1.
       -2    1    3    3    0  502 -0.14357936108E+03  0.26999059381E+03 -0.17826166549E+03  0.35395928447E+03  0.25500000920E-02 0. -1.
</event>
<event>
 5   0  0.2439375E-02  0.6679422E+03  0.7818609E-02  0.9773682E-01
       -4   -1    0    0    0  501  0.00000000000E+00  0.00000000000E+00  0.33441261412E+03  0.33441502565E+03  0.12699999809E+01 0. -1.
        4   -1    0    0  501    0  0.00000000000E+00  0.00000000000E+00 -0.33352537862E+03  0.33352779657E+03  0.12699999809E+01 0.  1.
    10030    2    1    2    0    0  0.00000000000E+00  0.00000000000E+00  0.88723549849E+00  0.66794282222E+03  0.66794223296E+03 0.  0.
        3    1    3    3  502    0  0.69760257765E+02 -0.19552547962E+03  0.26205422620E+03  0.33431891124E+03  0.10100000352E+00 0. -1.
       -3    1    3    3    0  502 -0.69760257765E+02  0.19552547962E+03 -0.26116699070E+03  0.33362391098E+03  0.10100000352E+00 0.  1.
</event>
<event>
 5   0  0.3749730E-02  0.6985854E+03  0.7818609E-02  0.9719654E-01
       -1   -1    0    0    0  501  0.00000000000E+00  0.00000000000E+00  0.29329052615E+03  0.29329052620E+03  0.50400001928E-02 0. -1.
        1   -1    0    0  501    0  0.00000000000E+00  0.00000000000E+00 -0.41598811525E+03  0.41598811528E+03  0.50400001928E-02 0.  1.
    10030    2    1    2    0    0  0.00000000000E+00  0.00000000000E+00 -0.12269758910E+03  0.70927864148E+03  0.69858535119E+03 0.  0.
        4    1    3    3  502    0 -0.75940024562E+01 -0.28258467312E+03  0.14695498848E+03  0.31860500294E+03  0.12699999809E+01 0. -1.
       -4    1    3    3    0  502  0.75940024562E+01  0.28258467312E+03 -0.26965257758E+03  0.39067363854E+03  0.12699999809E+01 0.  1.
</event>
<event>
 5   0  0.3717372E-02  0.7262059E+03  0.7818609E-02  0.9673437E-01
       -1   -1    0    0    0  501  0.00000000000E+00  0.00000000000E+00  0.67356236335E+03  0.67356236337E+03  0.50400001928E-02 0.  1.
        1   -1    0    0  501    0  0.00000000000E+00  0.00000000000E+00 -0.19574098904E+03  0.19574098910E+03  0.50400001928E-02 0. -1.
    10030    2    1    2    0    0  0.00000000000E+00  0.00000000000E+00  0.47782137431E+03  0.86930335248E+03  0.72620593007E+03 0.  0.
        3    1    3    3  502    0 -0.10958424716E+03 -0.24109769107E+03 -0.58446610326E+02  0.27120623209E+03  0.10100000352E+00 0. -1.
       -3    1    3    3    0  502  0.10958424716E+03  0.24109769107E+03  0.53626798464E+03  0.59809712039E+03  0.10100000352E+00 0.  1.
</event>
<event>
 5   0  0.5987810E-02  0.6385849E+03  0.7818609E-02  0.9828438E-01
       -2   -1    0    0    0  501  0.00000000000E+00  0.00000000000E+00  0.19076665020E+03  0.19076665022E+03  0.25500000920E-02 0.  1.
        2   -1    0    0  501    0  0.00000000000E+00  0.00000000000E+00 -0.53441038666E+03  0.53441038667E+03  0.25500000920E-02 0. -1.
    10030    2    1    2    0    0  0.00000000000E+00  0.00000000000E+00 -0.34364373646E+03  0.72517703689E+03  0.63858493344E+03 0.  0.
        5    1    3    3  502    0 -0.84825491895E+02  0.24218586850E+03 -0.38751481873E+03  0.46480015459E+03  0.46999998093E+01 0. -1.
       -5    1    3    3    0  502  0.84825491895E+02 -0.24218586850E+03  0.43871082269E+02  0.26037688229E+03  0.46999998093E+01 0.  1.
</event>
<event>
 5   0  0.3755872E-02  0.7018303E+03  0.7818609E-02  0.9714107E-01
       -1   -1    0    0    0  501  0.00000000000E+00  0.00000000000E+00  0.12576462987E+03  0.12576462997E+03  0.50400001928E-02 0. -1.
        1   -1    0    0  501    0  0.00000000000E+00  0.00000000000E+00 -0.97914216866E+03  0.97914216868E+03  0.50400001928E-02 0.  1.
    10030    2    1    2    0    0  0.00000000000E+00  0.00000000000E+00 -0.85337753880E+03  0.11049067986E+04  0.70183032847E+03 0.  0.
        2    1    3    3  502    0  0.21660152023E+03 -0.82451903452E+02 -0.11870900482E+02  0.23206777724E+03  0.25500000920E-02 0. -1.
       -2    1    3    3    0  502 -0.21660152023E+03  0.82451903452E+02 -0.84150663831E+03  0.87283902140E+03  0.25500000920E-02 0.  1.
</event>
<event>
 5   0  0.5987810E-02  0.6944534E+03  0.7818609E-02  0.9726765E-01
       -2   -1    0    0    0  501  0.00000000000E+00  0.00000000000E+00  0.18772931478E+03  0.18772931480E+03  0.25500000920E-02 0.  1.
        2   -1    0    0  501    0  0.00000000000E+00  0.00000000000E+00 -0.64223531474E+03  0.64223531474E+03  0.25500000920E-02 0. -1.
    10030    2    1    2    0    0  0.00000000000E+00  0.00000000000E+00 -0.45450599996E+03  0.82996462954E+03  0.69445344141E+03 0.  0.
        5    1    3    3  502    0  0.13262609962E+03 -0.26214032008E+03 -0.61142844716E+01  0.29388212635E+03  0.46999998093E+01 0.  1.
       -5    1    3    3    0  502 -0.13262609962E+03  0.26214032008E+03 -0.44839171548E+03  0.53608250319E+03  0.46999998093E+01 0. -1.
</event>
<event>
 5   0  0.3749730E-02  0.7012609E+03  0.7818609E-02  0.9715078E-01
       -1   -1    0    0    0  501  0.00000000000E+00  0.00000000000E+00  0.50411594019E+03  0.50411594022E+03  0.50400001928E-02 0.  1.
        1   -1    0    0  501    0  0.00000000000E+00  0.00000000000E+00 -0.24387589846E+03  0.24387589851E+03  0.50400001928E-02 0. -1.
    10030    2    1    2    0    0  0.00000000000E+00  0.00000000000E+00  0.26024004174E+03  0.74799183872E+03  0.70126094392E+03 0.  0.
        4    1    3    3  502    0 -0.16426670632E+03  0.29546307599E+03  0.22936976167E+03  0.40852671950E+03  0.12699999809E+01 0.  1.
       -4    1    3    3    0  502  0.16426670632E+03 -0.29546307599E+03  0.30870280066E+02  0.33946511922E+03  0.12699999809E+01 0. -1.
</event>
<event>
 5   0  0.3601475E-02  0.7101135E+03  0.7818609E-02  0.9700091E-01
        1   -1    0    0  501    0  0.00000000000E+00  0.00000000000E+00  0.10073600636E+04  0.10073600636E+04  0.50400001928E-02 0. -1.
       -1   -1    0    0    0  501  0.00000000000E+00  0.00000000000E+00 -0.12514422428E+03  0.12514422438E+03  0.50400001928E-02 0.  1.
    10030    2    1    2    0    0  0.00000000000E+00  0.00000000000E+00  0.88221583934E+03  0.11325042880E+04  0.71011349458E+03 0.  0.
        5    1    3    3  502    0  0.33265299445E+03  0.19540517063E+02  0.24576111363E+03  0.41407784473E+03  0.46999998093E+01 0.  1.
       -5    1    3    3    0  502 -0.33265299445E+03 -0.19540517063E+02  0.63645472571E+03  0.71842644328E+03  0.46999998093E+01 0. -1.
</event>
<event>
 5   0  0.3717372E-02  0.7065066E+03  0.7818609E-02  0.9706169E-01
        1   -1    0    0  501    0  0.00000000000E+00  0.00000000000E+00  0.34133097072E+03  0.34133097076E+03  0.50400001928E-02 0. -1.
       -1   -1    0    0    0  501  0.00000000000E+00  0.00000000000E+00 -0.36559208940E+03  0.36559208943E+03  0.50400001928E-02 0.  1.
    10030    2    1    2    0    0  0.00000000000E+00  0.00000000000E+00 -0.24261118678E+02  0.70692306019E+03  0.70650662499E+03 0.  0.
        3    1    3    3  502    0  0.18810771112E+02 -0.35230745026E+03 -0.29847152088E+02  0.35406955151E+03  0.10100000352E+00 0. -1.
       -3    1    3    3    0  502 -0.18810771112E+02  0.35230745026E+03  0.55860334091E+01  0.35285350868E+03  0.10100000352E+00 0.  1.
</event>
<event>
 5   0  0.3439015E-02  0.6823058E+03  0.7818609E-02  0.9747979E-01
        1   -1    0    0  501    0  0.00000000000E+00  0.00000000000E+00  0.39855583894E+03  0.39855583897E+03  0.50400001928E-02 0. -1.
       -1   -1    0    0    0  501  0.00000000000E+00  0.00000000000E+00 -0.29201758687E+03  0.29201758692E+03  0.50400001928E-02 0.  1.
    10030    2    1    2    0    0  0.00000000000E+00  0.00000000000E+00  0.10653825207E+03  0.69057342589E+03  0.68230583860E+03 0.  0.
        1    1    3    3  502    0  0.47634348016E+02  0.33757645709E+03  0.66008091851E+02  0.34725201758E+03  0.50400001928E-02 0. -1.
       -1    1    3    3    0  502 -0.47634348016E+02 -0.33757645709E+03  0.40530160214E+02  0.34332140832E+03  0.50400001928E-02 0.  1.
</event>
<event>
 5   0  0.6167756E-02  0.6222696E+03  0.7818609E-02  0.9860251E-01
       -2   -1    0    0    0  501  0.00000000000E+00  0.00000000000E+00  0.10909723837E+03  0.10909723840E+03  0.25500000920E-02 0. -1.
        2   -1    0    0  501    0  0.00000000000E+00  0.00000000000E+00 -0.88732655082E+03  0.88732655082E+03  0.25500000920E-02 0.  1.
    10030    2    1    2    0    0  0.00000000000E+00  0.00000000000E+00 -0.77822931245E+03  0.99642378922E+03  0.62226964009E+03 0.  0.
        4    1    3    3  502    0 -0.38647354681E+02  0.81855876628E+02  0.87541308079E+02  0.12593290310E+03  0.12699999809E+01 0. -1.
       -4    1    3    3    0  502  0.38647354681E+02 -0.81855876628E+02 -0.86577062052E+03  0.87049088612E+03  0.12699999809E+01 0.  1.
</event>
<event>
 5   0  0.5899787E-02  0.6755010E+03  0.7818609E-02  0.9760071E-01
        2   -1    0    0  501    0  0.00000000000E+00  0.00000000000E+00  0.15298344396E+04  0.15298344396E+04  0.25500000920E-02 0. -1.
       -2   -1    0    0    0  501  0.00000000000E+00  0.00000000000E+00 -0.74567163029E+02  0.74567163072E+02  0.25500000920E-02 0.  1.
    10030    2    1    2    0    0  0.00000000000E+00  0.00000000000E+00  0.14552672766E+04  0.16044016027E+04  0.67550104101E+03 0.  0.
        2    1    3    3  502    0  0.29568079189E+03  0.34296176019E+02  0.34856394621E+03  0.45836686506E+03  0.25500000920E-02 0. -1.
       -2    1    3    3    0  502 -0.29568079189E+03 -0.34296176019E+02  0.11067033304E+04  0.11460347376E+04  0.25500000920E-02 0.  1.
</event>
<event>
 5   0  0.3717372E-02  0.6953035E+03  0.7818609E-02  0.9725298E-01
       -1   -1    0    0    0  501  0.00000000000E+00  0.00000000000E+00  0.24411695213E+03  0.24411695218E+03  0.50400001928E-02 0.  1.
        1   -1    0    0  501    0  0.00000000000E+00  0.00000000000E+00 -0.49509774534E+03  0.49509774536E+03  0.50400001928E-02 0. -1.
    10030    2    1    2    0    0  0.00000000000E+00  0.00000000000E+00 -0.25098079321E+03  0.73921469754E+03  0.69530353839E+03 0.  0.
        3    1    3    3  502    0 -0.13640800407E+03 -0.20597443578E+03  0.13455699377E+03  0.28131513742E+03  0.10100000352E+00 0.  1.
       -3    1    3    3    0  502  0.13640800407E+03  0.20597443578E+03 -0.38553778698E+03  0.45789956012E+03  0.10100000352E+00 0. -1.
</event>
<event>
 5   0  0.6248886E-02  0.6817917E+03  0.7818609E-02  0.9748888E-01
        2   -1    0    0  501    0  0.00000000000E+00  0.00000000000E+00  0.11898810748E+04  0.11898810748E+04  0.25500000920E-02 0. -1.
       -2   -1    0    0    0  501  0.00000000000E+00  0.00000000000E+00 -0.97665202937E+02  0.97665202970E+02  0.25500000920E-02 0.  1.
    10030    2    1    2    0    0  0.00000000000E+00  0.00000000000E+00  0.10922158719E+04  0.12875462778E+04  0.68179168861E+03 0.  0.
        3    1    3    3  502    0 -0.20390307572E+03  0.87813819886E+02  0.10346437018E+04  0.10581943730E+04  0.10100000352E+00 0. -1.
       -3    1    3    3    0  502  0.20390307572E+03 -0.87813819886E+02  0.57572170093E+02  0.22935190477E+03  0.10100000352E+00 0.  1.
</event>
<event>
 5   0  0.3439015E-02  0.7052631E+03  0.7818609E-02  0.9708274E-01
       -1   -1    0    0    0  501  0.00000000000E+00  0.00000000000E+00  0.51555384551E+03  0.51555384553E+03  0.50400001928E-02 0.  1.
        1   -1    0    0  501    0  0.00000000000E+00  0.00000000000E+00 -0.24119502270E+03  0.24119502275E+03  0.50400001928E-02 0. -1.
    10030    2    1    2    0    0  0.00000000000E+00  0.00000000000E+00  0.27435882281E+03  0.75674886828E+03  0.70526313245E+03 0.  0.
        1    1    3    3  502    0  0.29503585943E+03  0.19777518487E+02  0.34332910703E+03  0.45311387570E+03  0.50400001928E-02 0.  1.
       -1    1    3    3    0  502 -0.29503585943E+03 -0.19777518487E+02 -0.68970284221E+02  0.30363499258E+03  0.50400001928E-02 0. -1.
</event>
<event>
 5   0  0.3749730E-02  0.7001901E+03  0.7818609E-02  0.9716907E-01
       -1   -1    0    0    0  501  0.00000000000E+00  0.00000000000E+00  0.20940752358E+03  0.20940752364E+03  0.50400001928E-02 0. -1.
        1   -1    0    0  501    0  0.00000000000E+00  0.00000000000E+00 -0.58530155589E+03  0.58530155591E+03  0.50400001928E-02 0.  1.
    10030    2    1    2    0    0  0.00000000000E+00  0.00000000000E+00 -0.37589403231E+03  0.79470907955E+03  0.70019011532E+03 0.  0.
        4    1    3    3  502    0 -0.16080631070E+03  0.11362149843E+03  0.14060560559E+03  0.24195053976E+03  0.12699999809E+01 0. -1.
       -4    1    3    3    0  502  0.16080631070E+03 -0.11362149843E+03 -0.51649963790E+03  0.55275853980E+03  0.12699999809E+01 0.  1.
</event>
<event>
 5   0  0.3601475E-02  0.6964104E+03  0.7818609E-02  0.9723391E-01
        1   -1    0    0  501    0  0.00000000000E+00  0.00000000000E+00  0.14737693454E+03  0.14737693462E+03  0.50400001928E-02 0. -1.
       -1   -1    0    0    0  501  0.00000000000E+00  0.00000000000E+00 -0.82269911030E+03  0.82269911031E+03  0.50400001928E-02 0.  1.
    10030    2    1    2    0    0  0.00000000000E+00  0.00000000000E+00 -0.67532217576E+03  0.97007604493E+03  0.69641043350E+03 0.  0.
        5    1    3    3  502    0 -0.21950426013E+03 -0.10326413959E+03  0.10243649706E+02  0.24284279915E+03  0.46999998093E+01 0. -1.
       -5    1    3    3    0  502  0.21950426013E+03  0.10326413959E+03 -0.68556582546E+03  0.72723324579E+03  0.46999998093E+01 0.  1.
</event>
<event>
 5   0  0.6248886E-02  0.6789993E+03  0.7818609E-02  0.9753836E-01
       -2   -1    0    0    0  501  0.00000000000E+00  0.00000000000E+00  0.88142243178E+02  0.88142243215E+02  0.25500000920E-02 0. -1.
        2   -1    0    0  501    0  0.00000000000E+00  0.00000000000E+00 -0.13076592217E+04  0.13076592217E+04  0.25500000920E-02 0.  1.
    10030    2    1    2    0    0  0.00000000000E+00  0.00000000000E+00 -0.12195169785E+04  0.13958014649E+04  0.67899931410E+03 0.  0.
        3    1    3    3  502    0 -0.20159618474E+01 -0.22442739470E+03 -0.86112875593E+02  0.24038959449E+03  0.10100000352E+00 0. -1.
       -3    1    3    3    0  502  0.20159618474E+01  0.22442739470E+03 -0.11334041029E+04  0.11554118704E+04  0.10100000352E+00 0.  1.
</event>
<event>
 5   0  0.3749730E-02  0.7137805E+03  0.7818609E-02  0.9693952E-01
       -1   -1    0    0    0  501  0.00000000000E+00  0.00000000000E+00  0.37569354040E+03  0.37569354043E+03  0.50400001928E-02 0. -1.
        1   -1    0    0  501    0  0.00000000000E+00  0.00000000000E+00 -0.33902802740E+03  0.33902802743E+03  0.50400001928E-02 0.  1.
    10030    2    1    2    0    0  0.00000000000E+00  0.00000000000E+00  0.36665513003E+02  0.71472156787E+03  0.71378047026E+03 0.  0.
        4    1    3    3  502    0  0.16438654353E+03  0.31395544479E+03  0.60555520285E+02  0.35952682924E+03  0.12699999809E+01 0.  1.
       -4    1    3    3    0  502 -0.16438654353E+03 -0.31395544479E+03 -0.23890007282E+02  0.35519473863E+03  0.12699999809E+01 0. -1.
</event>
<event>
 5   0  0.6131198E-02  0.6774667E+03  0.7818609E-02  0.9756562E-01
       -2   -1    0    0    0  501  0.00000000000E+00  0.00000000000E+00  0.24388823676E+03  0.24388823678E+03  0.25500000920E-02 0. -1.
        2   -1    0    0  501    0  0.00000000000E+00  0.00000000000E+00 -0.47046256608E+03  0.47046256609E+03  0.25500000920E-02 0.  1.
    10030    2    1    2    0    0  0.00000000000E+00  0.00000000000E+00 -0.22657432932E+03  0.71435080286E+03  0.67746670977E+03 0.  0.
        1    1    3    3  502    0  0.61431077877E+01 -0.14520123843E+03 -0.43591803586E+03  0.45950589923E+03  0.50400001928E-02 0.  1.
       -1    1    3    3    0  502 -0.61431077877E+01  0.14520123843E+03  0.20934370654E+03  0.25484490364E+03  0.50400001928E-02 0. -1.
</event>
<event>
 5   0  0.3749730E-02  0.6478070E+03  0.7818609E-02  0.9810903E-01
       -1   -1    0    0    0  501  0.00000000000E+00  0.00000000000E+00  0.24944489958E+03  0.24944489963E+03  0.50400001928E-02 0.  1.
        1   -1    0    0  501    0  0.00000000000E+00  0.00000000000E+00 -0.42058778865E+03  0.42058778868E+03  0.50400001928E-02 0. -1.
    10030    2    1    2    0    0  0.00000000000E+00  0.00000000000E+00 -0.17114288907E+03  0.67003268832E+03  0.64780700439E+03 0.  0.
        4    1    3    3  502    0 -0.25040085870E+03  0.13637308123E+03 -0.24451099872E+03  0.37561342989E+03  0.12699999809E+01 0. -1.
       -4    1    3    3    0  502  0.25040085870E+03 -0.13637308123E+03  0.73368109650E+02  0.29441925843E+03  0.12699999809E+01 0.  1.
</event>
<event>
 5   0  0.3601475E-02  0.6981638E+03  0.7818609E-02  0.9720377E-01
       -1   -1    0    0    0  501  0.00000000000E+00  0.00000000000E+00  0.10350119579E+03  0.10350119591E+03  0.50400001928E-02 0. -1.
        1   -1    0    0  501    0  0.00000000000E+00  0.00000000000E+00 -0.11773601043E+04  0.11773601044E+04  0.50400001928E-02 0.  1.
    10030    2    1    2    0    0  0.00000000000E+00  0.00000000000E+00 -0.10738589085E+04  0.12808613003E+04  0.69816381677E+03 0.  0.
        5    1    3    3  502    0 -0.28239787602E+02  0.10506265518E+03 -0.11454033923E+04  0.11505679763E+04  0.46999998093E+01 0.  1.
       -5    1    3    3    0  502  0.28239787602E+02 -0.10506265518E+03  0.71544483715E+02  0.13029332395E+03  0.46999998093E+01 0. -1.
</event>
<event>
 5   0  0.2439375E-02  0.7270353E+03  0.7818609E-02  0.9672084E-01
       -3   -1    0    0    0  501  0.00000000000E+00  0.00000000000E+00  0.10414720806E+04  0.10414720855E+04  0.10100000352E+00 0. -1.
        3   -1    0    0  501    0  0.00000000000E+00  0.00000000000E+00 -0.12688294812E+03  0.12688298832E+03  0.10100000352E+00 0.  1.
    10030    2    1    2    0    0  0.00000000000E+00  0.00000000000E+00  0.91458913244E+03  0.11683550738E+04  0.72703527922E+03 0.  0.
        1    1    3    3  502    0 -0.31831497957E+03 -0.17245050646E+03  0.51014234999E+03  0.62554681733E+03  0.50400001928E-02 0. -1.
       -1    1    3    3    0  502  0.31831497957E+03  0.17245050646E+03  0.40444678245E+03  0.54280825644E+03  0.50400001928E-02 0.  1.
</event>
<event>
 5   0  0.2439375E-02  0.6685641E+03  0.7818609E-02  0.9772555E-01
       -3   -1    0    0    0  501  0.00000000000E+00  0.00000000000E+00  0.12205858582E+03  0.12205862760E+03  0.10100000352E+00 0.  1.
        3   -1    0    0  501    0  0.00000000000E+00  0.00000000000E+00 -0.91549871202E+03  0.91549871759E+03  0.10100000352E+00 0. -1.
    10030    2    1    2    0    0  0.00000000000E+00  0.00000000000E+00 -0.79344012620E+03  0.10375573452E+04  0.66856414105E+03 0.  0.
        5    1    3    3  502    0  0.22513048429E+03  0.44029236912E+01 -0.13363756573E+02  0.22561870641E+03  0.46999998093E+01 0.  1.
       -5    1    3    3    0  502 -0.22513048429E+03 -0.44029236912E+01 -0.78007636963E+03  0.81193863878E+03  0.46999998093E+01 0. -1.
</event>
<event>
 5   0  0.3755872E-02  0.7078417E+03  0.7818609E-02  0.9703915E-01
       -1   -1    0    0    0  501  0.00000000000E+00  0.00000000000E+00  0.41601793986E+03  0.41601793989E+03  0.50400001928E-02 0. -1.
        1   -1    0    0  501    0  0.00000000000E+00  0.00000000000E+00 -0.30109273819E+03  0.30109273823E+03  0.50400001928E-02 0.  1.
    10030    2    1    2    0    0  0.00000000000E+00  0.00000000000E+00  0.11492520167E+03  0.71711067812E+03  0.70784173563E+03 0.  0.
        2    1    3    3  502    0 -0.31559457109E+03 -0.44842700816E+02  0.21325923210E+03  0.38352353409E+03  0.25500000920E-02 0. -1.
       -2    1    3    3    0  502  0.31559457109E+03  0.44842700816E+02 -0.98334030434E+02  0.33358714403E+03  0.25500000920E-02 0.  1.
</event>
<event>
 5   0  0.2439375E-02  0.6975384E+03  0.7818609E-02  0.9721451E-01
        3   -1    0    0  501    0  0.00000000000E+00  0.00000000000E+00  0.92261851903E+02  0.92261907186E+02  0.10100000352E+00 0. -1.
       -3   -1    0    0    0  501  0.00000000000E+00  0.00000000000E+00 -0.13184205828E+04  0.13184205866E+04  0.10100000352E+00 0.  1.
    10030    2    1    2    0    0  0.00000000000E+00  0.00000000000E+00 -0.12261587308E+04  0.14106824938E+04  0.69753843270E+03 0.  0.
        3    1    3    3  502    0  0.76382694076E+02  0.27853265413E+03 -0.21767995001E+03  0.36166189488E+03  0.10100000352E+00 0. -1.
       -3    1    3    3    0  502 -0.76382694076E+02 -0.27853265413E+03 -0.10084787808E+04  0.10490205989E+04  0.10100000352E+00 0.  1.
</event>
<event>
 5   0  0.3755872E-02  0.6982571E+03  0.7818609E-02  0.9720217E-01
       -1   -1    0    0    0  501  0.00000000000E+00  0.00000000000E+00  0.67222193782E+02  0.67222193971E+02  0.50400001928E-02 0.  1.
        1   -1    0    0  501    0  0.00000000000E+00  0.00000000000E+00 -0.18132515747E+04  0.18132515747E+04  0.50400001928E-02 0. -1.
    10030    2    1    2    0    0  0.00000000000E+00  0.00000000000E+00 -0.17460293809E+04  0.18804737687E+04  0.69825711286E+03 0.  0.
        2    1    3    3  502    0  0.32921491414E+03  0.58793405697E+02 -0.11430185940E+04  0.11909368709E+04  0.25500000920E-02 0. -1.
       -2    1    3    3    0  502 -0.32921491414E+03 -0.58793405697E+02 -0.60301078692E+03  0.68953689778E+03  0.25500000920E-02 0.  1.
</event>
<event>
 5   0  0.2439375E-02  0.6982834E+03  0.7818609E-02  0.9720172E-01
        3   -1    0    0  501    0  0.00000000000E+00  0.00000000000E+00  0.31531113479E+03  0.31531115096E+03  0.10100000352E+00 0. -1.
       -3   -1    0    0    0  501  0.00000000000E+00  0.00000000000E+00 -0.38660201722E+03  0.38660203042E+03  0.10100000352E+00 0.  1.
    10030    2    1    2    0    0  0.00000000000E+00  0.00000000000E+00 -0.71290882437E+02  0.70191318138E+03  0.69828341257E+03 0.  0.
        1    1    3    3  502    0 -0.40093758515E+02 -0.42680347924E+01  0.31296301756E+03  0.31554964107E+03  0.50400001928E-02 0. -1.
       -1    1    3    3    0  502  0.40093758515E+02  0.42680347924E+01 -0.38425390000E+03  0.38636354031E+03  0.50400001928E-02 0.  1.
</event>
<event>
 5   0  0.3601475E-02  0.6991937E+03  0.7818609E-02  0.9718612E-01
       -1   -1    0    0    0  501  0.00000000000E+00  0.00000000000E+00  0.60888504011E+03  0.60888504013E+03  0.50400001928E-02 0.  1.
        1   -1    0    0  501    0  0.00000000000E+00  0.00000000000E+00 -0.20072419089E+03  0.20072419095E+03  0.50400001928E-02 0. -1.
    10030    2    1    2    0    0  0.00000000000E+00  0.00000000000E+00  0.40816084922E+03  0.80960923108E+03  0.69919369864E+03 0.  0.
        5    1    3    3  502    0  0.14495004127E+03  0.19919831017E+03  0.49124741671E+03  0.54957856186E+03  0.46999998093E+01 0.  1.
       -5    1    3    3    0  502 -0.14495004127E+03 -0.19919831017E+03 -0.83086567490E+02  0.26003066922E+03  0.46999998093E+01 0. -1.
</event>
<event>
 5   0  0.5899787E-02  0.6063944E+03  0.7818609E-02  0.9892228E-01
       -2   -1    0    0    0  501  0.00000000000E+00  0.00000000000E+00  0.52809179837E+02  0.52809179898E+02  0.25500000920E-02 0. -1.
        2   -1    0    0  501    0  0.00000000000E+00  0.00000000000E+00 -0.17407679935E+04  0.17407679935E+04  0.25500000920E-02 0.  1.
    10030    2    1    2    0    0  0.00000000000E+00  0.00000000000E+00 -0.16879588137E+04  0.17935771734E+04  0.60639436039E+03 0.  0.
        2    1    3    3  502    0  0.18566242518E+03  0.21556305074E+03 -0.53389857097E+03  0.60496747768E+03  0.25500000920E-02 0. -1.
       -2    1    3    3    0  502 -0.18566242518E+03 -0.21556305074E+03 -0.11540602427E+04  0.11886096957E+04  0.25500000920E-02 0.  1.
</event>
<event>
 5   0  0.3749730E-02  0.6876708E+03  0.7818609E-02  0.9738552E-01
        1   -1    0    0  501    0  0.00000000000E+00  0.00000000000E+00  0.88455356240E+03  0.88455356242E+03  0.50400001928E-02 0.  1.
       -1   -1    0    0    0  501  0.00000000000E+00  0.00000000000E+00 -0.13365246965E+03  0.13365246975E+03  0.50400001928E-02 0. -1.
    10030    2    1    2    0    0  0.00000000000E+00  0.00000000000E+00  0.75090109275E+03  0.10182060322E+04  0.68767075904E+03 0.  0.
        4    1    3    3  502    0  0.32838753879E+03  0.57289277643E+02  0.50021941903E+03  0.60111689133E+03  0.12699999809E+01 0.  1.
       -4    1    3    3    0  502 -0.32838753879E+03 -0.57289277643E+02  0.25068167372E+03  0.41708914083E+03  0.12699999809E+01 0. -1.
</event>
<event>
 5   0  0.3439015E-02  0.7108872E+03  0.7818609E-02  0.9698793E-01
       -1   -1    0    0    0  501  0.00000000000E+00  0.00000000000E+00  0.13473634594E+03  0.13473634604E+03  0.50400001928E-02 0. -1.
        1   -1    0    0  501    0  0.00000000000E+00  0.00000000000E+00 -0.93768432084E+03  0.93768432086E+03  0.50400001928E-02 0.  1.
    10030    2    1    2    0    0  0.00000000000E+00  0.00000000000E+00 -0.80294797490E+03  0.10724206669E+04  0.71088721777E+03 0.  0.
        1    1    3    3  502    0 -0.19679506089E+03  0.10208713426E+03 -0.82060057862E+03  0.85002081658E+03  0.50400001928E-02 0.  1.
       -1    1    3    3    0  502  0.19679506089E+03 -0.10208713426E+03  0.17652603719E+02  0.22239985031E+03  0.50400001928E-02 0. -1.
</event>
<event>
 5   0  0.3439015E-02  0.6951287E+03  0.7818609E-02  0.9725599E-01
       -1   -1    0    0    0  501  0.00000000000E+00  0.00000000000E+00  0.89557617280E+02  0.89557617422E+02  0.50400001928E-02 0. -1.
        1   -1    0    0  501    0  0.00000000000E+00  0.00000000000E+00 -0.13488632510E+04  0.13488632510E+04  0.50400001928E-02 0.  1.
    10030    2    1    2    0    0  0.00000000000E+00  0.00000000000E+00 -0.12593056337E+04  0.14384208684E+04  0.69512870436E+03 0.  0.
        1    1    3    3  502    0 -0.72243004582E+02  0.64270444190E+02 -0.13204701082E+04  0.13240056829E+04  0.50400001928E-02 0.  1.
       -1    1    3    3    0  502  0.72243004582E+02 -0.64270444190E+02  0.61164474498E+02  0.11441518550E+03  0.50400001928E-02 0. -1.
</event>
<event>
 5   0  0.2439375E-02  0.6605263E+03  0.7818609E-02  0.9787225E-01
       -3   -1    0    0    0  501  0.00000000000E+00  0.00000000000E+00  0.12418749584E+03  0.12418753691E+03  0.10100000352E+00 0. -1.
        3   -1    0    0  501    0  0.00000000000E+00  0.00000000000E+00 -0.87829868268E+03  0.87829868848E+03  0.10100000352E+00 0.  1.
    10030    2    1    2    0    0  0.00000000000E+00  0.00000000000E+00 -0.75411118683E+03  0.10024862254E+04  0.66052626746E+03 0.  0.
        2    1    3    3  502    0  0.31096323661E+03  0.45122369037E+02 -0.53138179256E+03  0.61733359878E+03  0.25500000920E-02 0.  1.
       -2    1    3    3    0  502 -0.31096323661E+03 -0.45122369037E+02 -0.22272939428E+03  0.38515262662E+03  0.25500000920E-02 0. -1.
</event>
<event>
 5   0  0.6167756E-02  0.7219858E+03  0.7818609E-02  0.9680355E-01
        2   -1    0    0  501    0  0.00000000000E+00  0.00000000000E+00  0.19989466508E+04  0.19989466508E+04  0.25500000920E-02 0.  1.
       -2   -1    0    0    0  501  0.00000000000E+00  0.00000000000E+00 -0.65192274507E+02  0.65192274557E+02  0.25500000920E-02 0. -1.
    10030    2    1    2    0    0  0.00000000000E+00  0.00000000000E+00  0.19337543763E+04  0.20641389254E+04  0.72198581381E+03 0.  0.
        4    1    3    3  502    0  0.71238975127E+02 -0.35354592656E+03  0.92216807821E+03  0.99018447328E+03  0.12699999809E+01 0.  1.
       -4    1    3    3    0  502 -0.71238975127E+02  0.35354592656E+03  0.10115862981E+04  0.10739544521E+04  0.12699999809E+01 0. -1.
</event>
<event>
 5   0  0.3439015E-02  0.7058998E+03  0.7818609E-02  0.9707196E-01
       -1   -1    0    0    0  501  0.00000000000E+00  0.00000000000E+00  0.20713108099E+03  0.20713108105E+03  0.50400001928E-02 0.  1.
        1   -1    0    0  501    0  0.00000000000E+00  0.00000000000E+00 -0.60142406271E+03  0.60142406273E+03  0.50400001928E-02 0. -1.
    10030    2    1    2    0    0  0.00000000000E+00  0.00000000000E+00 -0.39429298172E+03  0.80855514378E+03  0.70589975570E+03 0.  0.
        1    1    3    3  502    0  0.42530290154E+02 -0.13357724979E+03 -0.56816852712E+03  0.58520695696E+03  0.50400001928E-02 0. -1.
       -1    1    3    3    0  502 -0.42530290154E+02  0.13357724979E+03  0.17387554540E+03  0.22334818682E+03  0.50400001928E-02 0.  1.
</event>
<event>
 5   0  0.6167756E-02  0.7066301E+03  0.7818609E-02  0.9705961E-01
       -2   -1    0    0    0  501  0.00000000000E+00  0.00000000000E+00  0.23288950249E+03  0.23288950250E+03  0.25500000920E-02 0.  1.
        2   -1    0    0  501    0  0.00000000000E+00  0.00000000000E+00 -0.53601176620E+03  0.53601176621E+03  0.25500000920E-02 0. -1.
    10030    2    1    2    0    0  0.00000000000E+00  0.00000000000E+00 -0.30312226371E+03  0.76890126871E+03  0.70663006889E+03 0.  0.
        4    1    3    3  502    0 -0.76123773310E+02  0.14768270014E+03 -0.49084811500E+03  0.51820699888E+03  0.12699999809E+01 0. -1.
       -4    1    3    3    0  502  0.76123773310E+02 -0.14768270014E+03  0.18772585129E+03  0.25069426983E+03  0.12699999809E+01 0.  1.
</event>
<event>
 5   0  0.6248886E-02  0.7001187E+03  0.7818609E-02  0.9717029E-01
       -2   -1    0    0    0  501  0.00000000000E+00  0.00000000000E+00  0.19672617931E+03  0.19672617933E+03  0.25500000920E-02 0. -1.
        2   -1    0    0  501    0  0.00000000000E+00  0.00000000000E+00 -0.62290415394E+03  0.62290415394E+03  0.25500000920E-02 0.  1.
    10030    2    1    2    0    0  0.00000000000E+00  0.00000000000E+00 -0.42617797462E+03  0.81963033327E+03  0.70011871648E+03 0.  0.
        3    1    3    3  502    0  0.92538100264E+02 -0.20311656000E+03  0.10261419860E+03  0.24566098775E+03  0.10100000352E+00 0. -1.
       -3    1    3    3    0  502 -0.92538100264E+02  0.20311656000E+03 -0.52879217322E+03  0.57396934553E+03  0.10100000352E+00 0.  1.
</event>
<event>
 5   0  0.6131198E-02  0.6147518E+03  0.7818609E-02  0.9875265E-01
       -2   -1    0    0    0  501  0.00000000000E+00  0.00000000000E+00  0.14327883424E+03  0.14327883427E+03  0.25500000920E-02 0. -1.
        2   -1    0    0  501    0  0.00000000000E+00  0.00000000000E+00 -0.65941311763E+03  0.65941311764E+03  0.25500000920E-02 0.  1.
    10030    2    1    2    0    0  0.00000000000E+00  0.00000000000E+00 -0.51613428339E+03  0.80269195190E+03  0.61475179639E+03 0.  0.
        1    1    3    3  502    0  0.78126390256E+02  0.19609150597E+03  0.33679073000E+02  0.21375193929E+03  0.50400001928E-02 0. -1.
       -1    1    3    3    0  502 -0.78126390256E+02 -0.19609150597E+03 -0.54981335639E+03  0.58894001261E+03  0.50400001928E-02 0.  1.
</event>
<event>
 5   0  0.6167756E-02  0.7024287E+03  0.7818609E-02  0.9713088E-01
       -2   -1    0    0    0  501  0.00000000000E+00  0.00000000000E+00  0.84437522522E+02  0.84437522560E+02  0.25500000920E-02 0. -1.
        2   -1    0    0  501    0  0.00000000000E+00  0.00000000000E+00 -0.14608614015E+04  0.14608614015E+04  0.25500000920E-02 0.  1.
    10030    2    1    2    0    0  0.00000000000E+00  0.00000000000E+00 -0.13764238790E+04  0.15452989240E+04  0.70242869395E+03 0.  0.
        4    1    3    3  502    0 -0.13672317253E+03 -0.22428967687E+03 -0.12010890378E+04  0.12294777650E+04  0.12699999809E+01 0.  1.
       -4    1    3    3    0  502  0.13672317253E+03  0.22428967687E+03 -0.17533484114E+03  0.31582115901E+03  0.12699999809E+01 0. -1.
</event>
<event>
 5   0  0.3439015E-02  0.7084424E+03  0.7818609E-02  0.9702903E-01
        1   -1    0    0  501    0  0.00000000000E+00  0.00000000000E+00  0.17288232101E+03  0.17288232108E+03  0.50400001928E-02 0.  1.
       -1   -1    0    0    0  501  0.00000000000E+00  0.00000000000E+00 -0.72576913303E+03  0.72576913305E+03  0.50400001928E-02 0. -1.
    10030    2    1    2    0    0  0.00000000000E+00  0.00000000000E+00 -0.55288681202E+03  0.89865145413E+03  0.70844238235E+03 0.  0.
        1    1    3    3  502    0 -0.32616594136E+03  0.45552144063E+02 -0.11098732797E+03  0.34753043914E+03  0.50400001928E-02 0.  1.
       -1    1    3    3    0  502  0.32616594136E+03 -0.45552144063E+02 -0.44189948406E+03  0.55112101499E+03  0.50400001928E-02 0. -1.
</event>
<event>
 5   0  0.6248886E-02  0.6905975E+03  0.7818609E-02  0.9733448E-01
        2   -1    0    0  501    0  0.00000000000E+00  0.00000000000E+00  0.54885775857E+03  0.54885775858E+03  0.25500000920E-02 0. -1.
       -2   -1    0    0    0  501  0.00000000000E+00  0.00000000000E+00 -0.21723518820E+03  0.21723518822E+03  0.25500000920E-02 0.  1.
    10030    2    1    2    0    0  0.00000000000E+00  0.00000000000E+00  0.33162257037E+03  0.76609294679E+03  0.69059747606E+03 0.  0.
        3    1    3    3  502    0 -0.14286814366E+03  0.66030584495E+02  0.50675299475E+03  0.53063165421E+03  0.10100000352E+00 0. -1.
       -3    1    3    3    0  502  0.14286814366E+03 -0.66030584495E+02 -0.17513042438E+03  0.23546129258E+03  0.10100000352E+00 0.  1.
</event>
<event>
 5   0  0.3439015E-02  0.7314391E+03  0.7818609E-02  0.9664928E-01
       -1   -1    0    0    0  501  0.00000000000E+00  0.00000000000E+00  0.88561791853E+02  0.88561791996E+02  0.50400001928E-02 0.  1.
        1   -1    0    0  501    0  0.00000000000E+00  0.00000000000E+00 -0.15102540737E+04  0.15102540737E+04  0.50400001928E-02 0. -1.
    10030    2    1    2    0    0  0.00000000000E+00  0.00000000000E+00 -0.14216922818E+04  0.15988158657E+04  0.73143914864E+03 0.  0.
        1    1    3    3  502    0  0.22788205415E+03 -0.28081724437E+03 -0.82981443247E+03  0.90519641388E+03  0.50400001928E-02 0. -1.
       -1    1    3    3    0  502 -0.22788205415E+03  0.28081724437E+03 -0.59187784935E+03  0.69361945180E+03  0.50400001928E-02 0.  1.
</event>
<event>
 5   0  0.6167756E-02  0.6428667E+03  0.7818609E-02  0.9820257E-01
        2   -1    0    0  501    0  0.00000000000E+00  0.00000000000E+00  0.67377877510E+03  0.67377877511E+03  0.25500000920E-02 0. -1.
       -2   -1    0    0    0  501  0.00000000000E+00  0.00000000000E+00 -0.15334320391E+03  0.15334320393E+03  0.25500000920E-02 0.  1.
    10030    2    1    2    0    0  0.00000000000E+00  0.00000000000E+00  0.52043557119E+03  0.82712197904E+03  0.64286669260E+03 0.  0.
        4    1    3    3  502    0  0.16851581375E+03  0.24942849720E+03  0.11519150372E+03  0.32230862559E+03  0.12699999809E+01 0.  1.
       -4    1    3    3    0  502 -0.16851581375E+03 -0.24942849720E+03  0.40524406747E+03  0.50481335345E+03  0.12699999809E+01 0. -1.
</event>
<event>
 5   0  0.5899787E-02  0.5737816E+03  0.7818609E-02  0.9961345E-01
       -2   -1    0    0    0  501  0.00000000000E+00  0.00000000000E+00  0.11984273251E+03  0.11984273253E+03  0.25500000920E-02 0. -1.
        2   -1    0    0  501    0  0.00000000000E+00  0.00000000000E+00 -0.68678605333E+03  0.68678605334E+03  0.25500000920E-02 0.  1.
    10030    2    1    2    0    0  0.00000000000E+00  0.00000000000E+00 -0.56694332083E+03  0.80662878587E+03  0.57378155178E+03 0.  0.
        2    1    3    3  502    0  0.23141736227E+03 -0.94127015093E+02 -0.85195262919E+02  0.26395477522E+03  0.25500000920E-02 0. -1.
       -2    1    3    3    0  502 -0.23141736227E+03  0.94127015093E+02 -0.48174805791E+03  0.54267401065E+03  0.25500000920E-02 0.  1.
</event>
<event>
 5   0  0.6131198E-02  0.6866425E+03  0.7818609E-02  0.9740352E-01
       -2   -1    0    0    0  501  0.00000000000E+00  0.00000000000E+00  0.63526222638E+02  0.63526222689E+02  0.25500000920E-02 0.  1.
        2   -1    0    0  501    0  0.00000000000E+00  0.00000000000E+00 -0.18554463086E+04  0.18554463086E+04  0.25500000920E-02 0. -1.
    10030    2    1    2    0    0  0.00000000000E+00  0.00000000000E+00 -0.17919200860E+04  0.19189725313E+04  0.68664254265E+03 0.  0.
        1    1    3    3  502    0  0.23830345407E+03  0.24408894012E+03 -0.10042548718E+04  0.10606110477E+04  0.50400001928E-02 0.  1.
       -1    1    3    3    0  502 -0.23830345407E+03 -0.24408894012E+03 -0.78766521418E+03  0.85836148362E+03  0.50400001928E-02 0. -1.
</event>
<event>
 5   0  0.6248886E-02  0.6858487E+03  0.7818609E-02  0.9741744E-01
        2   -1    0    0  501    0  0.00000000000E+00  0.00000000000E+00  0.17686523410E+04  0.17686523410E+04  0.25500000920E-02 0. -1.
       -2   -1    0    0    0  501  0.00000000000E+00  0.00000000000E+00 -0.66489669551E+02  0.66489669600E+02  0.25500000920E-02 0.  1.
    10030    2    1    2    0    0  0.00000000000E+00  0.00000000000E+00  0.17021626714E+04  0.18351420106E+04  0.68584869979E+03 0.  0.
        3    1    3    3  502    0  0.15283867307E+03  0.26124069001E+02  0.32664046052E+02  0.15845843957E+03  0.10100000352E+00 0.  1.
       -3    1    3    3    0  502 -0.15283867307E+03 -0.26124069001E+02  0.16694986254E+04  0.16766835710E+04  0.10100000352E+00 0. -1.
</event>
<event>
 5   0  0.2439375E-02  0.6550546E+03  0.7818609E-02  0.9797340E-01
        3   -1    0    0  501    0  0.00000000000E+00  0.00000000000E+00  0.28055071797E+03  0.28055073615E+03  0.10100000352E+00 0. -1.
       -3   -1    0    0    0  501  0.00000000000E+00  0.00000000000E+00 -0.38236984027E+03  0.38236985361E+03  0.10100000352E+00 0.  1.
    10030    2    1    2    0    0  0.00000000000E+00  0.00000000000E+00 -0.10181912230E+03  0.66292058976E+03  0.65505463487E+03 0.  0.
        4    1    3    3  502    0  0.22183932052E+03 -0.84757584267E+02  0.17735603348E+03  0.29640058659E+03  0.12699999809E+01 0. -1.
       -4    1    3    3    0  502 -0.22183932052E+03  0.84757584267E+02 -0.27917515577E+03  0.36652000317E+03  0.12699999809E+01 0.  1.
</event>
<event>
 5   0  0.5899787E-02  0.6910234E+03  0.7818609E-02  0.9732708E-01
       -2   -1    0    0    0  501  0.00000000000E+00  0.00000000000E+00  0.46155659127E+02  0.46155659198E+02  0.25500000920E-02 0.  1.
        2   -1    0    0  501    0  0.00000000000E+00  0.00000000000E+00 -0.25864289444E+04  0.25864289444E+04  0.25500000920E-02 0. -1.
    10030    2    1    2    0    0  0.00000000000E+00  0.00000000000E+00 -0.25402732853E+04  0.26325846036E+04  0.69102339413E+03 0.  0.
        2    1    3    3  502    0 -0.10244853387E+03 -0.86638529772E+02 -0.24831288483E+04  0.24867510560E+04  0.25500000920E-02 0. -1.
       -2    1    3    3    0  502  0.10244853387E+03  0.86638529772E+02 -0.57144436936E+02  0.14583354763E+03  0.25500000920E-02 0.  1.
</event>
<event>
 5   0  0.3755872E-02  0.5950087E+03  0.7818609E-02  0.9915816E-01
        1   -1    0    0  501    0  0.00000000000E+00  0.00000000000E+00  0.39520844449E+03  0.39520844452E+03  0.50400001928E-02 0.  1.
       -1   -1    0    0    0  501  0.00000000000E+00  0.00000000000E+00 -0.22395484893E+03  0.22395484898E+03  0.50400001928E-02 0. -1.
    10030    2    1    2    0    0  0.00000000000E+00  0.00000000000E+00  0.17125359556E+03  0.61916329351E+03  0.59500873105E+03 0.  0.
        2    1    3    3  502    0  0.67047555671E+02 -0.27616859857E+03  0.17720141939E+03  0.33491015601E+03  0.25500000920E-02 0. -1.
       -2    1    3    3    0  502 -0.67047555671E+02  0.27616859857E+03 -0.59478238272E+01  0.28425313749E+03  0.25500000920E-02 0.  1.
</event>
<event>
 5   0  0.3755872E-02  0.6684284E+03  0.7818609E-02  0.9772801E-01
       -1   -1    0    0    0  501  0.00000000000E+00  0.00000000000E+00  0.88887596799E+03  0.88887596801E+03  0.50400001928E-02 0.  1.
        1   -1    0    0  501    0  0.00000000000E+00  0.00000000000E+00 -0.12566335269E+03  0.12566335279E+03  0.50400001928E-02 0. -1.
    10030    2    1    2    0    0  0.00000000000E+00  0.00000000000E+00  0.76321261531E+03  0.10145393208E+04  0.66842840849E+03 0.  0.
        2    1    3    3  502    0 -0.20283945528E+03  0.12951045784E+03  0.29613495510E+02  0.24247425107E+03  0.25500000920E-02 0. -1.
       -2    1    3    3    0  502  0.20283945528E+03 -0.12951045784E+03  0.73359911980E+03  0.77206506972E+03  0.25500000920E-02 0.  1.
</event>
<event>
 5   0  0.3749730E-02  0.6854472E+03  0.7818609E-02  0.9742448E-01
        1   -1    0    0  501    0  0.00000000000E+00  0.00000000000E+00  0.11371300618E+04  0.11371300618E+04  0.50400001928E-02 0.  1.
       -1   -1    0    0    0  501  0.00000000000E+00  0.00000000000E+00 -0.10329465958E+03  0.10329465970E+03  0.50400001928E-02 0. -1.
    10030    2    1    2    0    0  0.00000000000E+00  0.00000000000E+00  0.10338354022E+04  0.12404247215E+04  0.68544719040E+03 0.  0.
        4    1    3    3  502    0  0.17080966082E+03  0.25322733341E+03  0.79818895390E+03  0.85463866145E+03  0.12699999809E+01 0.  1.
       -4    1    3    3    0  502 -0.17080966082E+03 -0.25322733341E+03  0.23564644829E+03  0.38578606002E+03  0.12699999809E+01 0. -1.
</event>
<event>
 5   0  0.3601475E-02  0.6980352E+03  0.7818609E-02  0.9720598E-01
        1   -1    0    0  501    0  0.00000000000E+00  0.00000000000E+00  0.90317712930E+03  0.90317712932E+03  0.50400001928E-02 0.  1.
       -1   -1    0    0    0  501  0.00000000000E+00  0.00000000000E+00 -0.13487199091E+03  0.13487199100E+03  0.50400001928E-02 0. -1.
    10030    2    1    2    0    0  0.00000000000E+00  0.00000000000E+00  0.76830513839E+03  0.10380491203E+04  0.69803523587E+03 0.  0.
        5    1    3    3  502    0  0.84864563825E+02  0.10254893487E+02 -0.11901547596E+03  0.14660808487E+03  0.46999998093E+01 0. -1.
       -5    1    3    3    0  502 -0.84864563825E+02 -0.10254893487E+02  0.88732061435E+03  0.89144103545E+03  0.46999998093E+01 0.  1.
</event>
<event>
 5   0  0.3601475E-02  0.6925474E+03  0.7818609E-02  0.9730063E-01
       -1   -1    0    0    0  501  0.00000000000E+00  0.00000000000E+00  0.11981725942E+03  0.11981725953E+03  0.50400001928E-02 0.  1.
        1   -1    0    0  501    0  0.00000000000E+00  0.00000000000E+00 -0.10007362672E+04  0.10007362672E+04  0.50400001928E-02 0. -1.
    10030    2    1    2    0    0  0.00000000000E+00  0.00000000000E+00 -0.88091900777E+03  0.11205535267E+04  0.69254740489E+03 0.  0.
        5    1    3    3  502    0 -0.14577558458E+03 -0.26950094134E+03 -0.70136749698E+03  0.76538861649E+03  0.46999998093E+01 0. -1.
       -5    1    3    3    0  502  0.14577558458E+03  0.26950094134E+03 -0.17955151080E+03  0.35516491024E+03  0.46999998093E+01 0.  1.
</event>
<event>
 5   0  0.6248886E-02  0.7039749E+03  0.7818609E-02  0.9710459E-01
       -2   -1    0    0    0  501  0.00000000000E+00  0.00000000000E+00  0.14025816675E+03  0.14025816677E+03  0.25500000920E-02 0. -1.
        2   -1    0    0  501    0  0.00000000000E+00  0.00000000000E+00 -0.88333644450E+03  0.88333644450E+03  0.25500000920E-02 0.  1.
    10030    2    1    2    0    0  0.00000000000E+00  0.00000000000E+00 -0.74307827775E+03  0.10235946113E+04  0.70397485847E+03 0.  0.
        3    1    3    3  502    0  0.14452962094E+03 -0.79624619563E+02  0.80533553966E+02  0.18361523598E+03  0.10100000352E+00 0. -1.
       -3    1    3    3    0  502 -0.14452962094E+03  0.79624619563E+02 -0.82361183172E+03  0.83997937529E+03  0.10100000352E+00 0.  1.
</event>
<event>
 5   0  0.6248886E-02  0.7077168E+03  0.7818609E-02  0.9704126E-01
       -2   -1    0    0    0  501  0.00000000000E+00  0.00000000000E+00  0.50144926363E+02  0.50144926428E+02  0.25500000920E-02 0.  1.
        2   -1    0    0  501    0  0.00000000000E+00  0.00000000000E+00 -0.24970773617E+04  0.24970773617E+04  0.25500000920E-02 0. -1.
    10030    2    1    2    0    0  0.00000000000E+00  0.00000000000E+00 -0.24469324354E+04  0.25472222882E+04  0.70771678095E+03 0.  0.
        3    1    3    3  502    0 -0.48460010807E+02 -0.20814276842E+03 -0.20836120580E+03  0.29847309255E+03  0.10100000352E+00 0.  1.
       -3    1    3    3    0  502  0.48460010807E+02  0.20814276842E+03 -0.22385712296E+04  0.22487491956E+04  0.10100000352E+00 0. -1.
</event>
<event>
 5   0  0.3601475E-02  0.7713603E+03  0.7818609E-02  0.9602423E-01
        1   -1    0    0  501    0  0.00000000000E+00  0.00000000000E+00  0.75283308275E+03  0.75283308277E+03  0.50400001928E-02 0.  1.
       -1   -1    0    0    0  501  0.00000000000E+00  0.00000000000E+00 -0.19758587544E+03  0.19758587550E+03  0.50400001928E-02 0. -1.
    10030    2    1    2    0    0  0.00000000000E+00  0.00000000000E+00  0.55524720731E+03  0.95041895827E+03  0.77136031464E+03 0.  0.
        5    1    3    3  502    0  0.11989918417E+03 -0.22311643755E+03  0.63594011749E+03  0.68454268099E+03  0.46999998093E+01 0.  1.
       -5    1    3    3    0  502 -0.11989918417E+03  0.22311643755E+03 -0.80692910173E+02  0.26587627728E+03  0.46999998093E+01 0. -1.
</event>
<event>
 5   0  0.6131198E-02  0.7236697E+03  0.7818609E-02  0.9677589E-01
       -2   -1    0    0    0  501  0.00000000000E+00  0.00000000000E+00  0.10791222620E+03  0.10791222623E+03  0.25500000920E-02 0.  1.
        2   -1    0    0  501    0  0.00000000000E+00  0.00000000000E+00 -0.12132496670E+04  0.12132496670E+04  0.25500000920E-02 0. -1.
    10030    2    1    2    0    0  0.00000000000E+00  0.00000000000E+00 -0.11053374408E+04  0.13211618933E+04  0.72366973827E+03 0.  0.
        1    1    3    3  502    0  0.36115917353E+03 -0.15781480673E+02 -0.58092012480E+03  0.68421721345E+03  0.50400001928E-02 0. -1.
       -1    1    3    3    0  502 -0.36115917353E+03  0.15781480673E+02 -0.52441731605E+03  0.63694467982E+03  0.50400001928E-02 0.  1.
</event>
<event>
 5   0  0.3755872E-02  0.6653329E+03  0.7818609E-02  0.9778426E-01
       -1   -1    0    0    0  501  0.00000000000E+00  0.00000000000E+00  0.13693025802E+03  0.13693025812E+03  0.50400001928E-02 0. -1.
        1   -1    0    0  501    0  0.00000000000E+00  0.00000000000E+00 -0.80819946591E+03  0.80819946592E+03  0.50400001928E-02 0.  1.
    10030    2    1    2    0    0  0.00000000000E+00  0.00000000000E+00 -0.67126920788E+03  0.94512972404E+03  0.66533288346E+03 0.  0.
        2    1    3    3  502    0 -0.33019826301E+03  0.22105424557E+02 -0.28751595716E+03  0.43838906045E+03  0.25500000920E-02 0. -1.
       -2    1    3    3    0  502  0.33019826301E+03 -0.22105424557E+02 -0.38375325072E+03  0.50674066359E+03  0.25500000920E-02 0.  1.
</event>
<event>
 5   0  0.6248886E-02  0.7003709E+03  0.7818609E-02  0.9716598E-01
       -2   -1    0    0    0  501  0.00000000000E+00  0.00000000000E+00  0.59303505588E+02  0.59303505643E+02  0.25500000920E-02 0.  1.
        2   -1    0    0  501    0  0.00000000000E+00  0.00000000000E+00 -0.20678344527E+04  0.20678344527E+04  0.25500000920E-02 0. -1.
    10030    2    1    2    0    0  0.00000000000E+00  0.00000000000E+00 -0.20085309472E+04  0.21271379584E+04  0.70037085057E+03 0.  0.
        3    1    3    3  502    0 -0.24409816478E+03 -0.20473750811E+03 -0.56279514158E+03  0.64671457604E+03  0.10100000352E+00 0.  1.
       -3    1    3    3    0  502  0.24409816478E+03  0.20473750811E+03 -0.14457358056E+04  0.14804233823E+04  0.10100000352E+00 0. -1.
</event>
<event>
 5   0  0.6167756E-02  0.6984132E+03  0.7818609E-02  0.9719950E-01
       -2   -1    0    0    0  501  0.00000000000E+00  0.00000000000E+00  0.14280775413E+03  0.14280775415E+03  0.25500000920E-02 0.  1.
        2   -1    0    0  501    0  0.00000000000E+00  0.00000000000E+00 -0.85391189891E+03  0.85391189891E+03  0.25500000920E-02 0. -1.
    10030    2    1    2    0    0  0.00000000000E+00  0.00000000000E+00 -0.71110414478E+03  0.99671965306E+03  0.69841317433E+03 0.  0.
        4    1    3    3  502    0  0.15710304975E+03 -0.29062103259E+03 -0.51702287127E+03  0.61356027832E+03  0.12699999809E+01 0. -1.
       -4    1    3    3    0  502 -0.15710304975E+03  0.29062103259E+03 -0.19408127351E+03  0.38315937474E+03  0.12699999809E+01 0.  1.
</event>
<event>
 5   0  0.5987810E-02  0.6960317E+03  0.7818609E-02  0.9724043E-01
        2   -1    0    0  501    0  0.00000000000E+00  0.00000000000E+00  0.17027646389E+03  0.17027646391E+03  0.25500000920E-02 0. -1.
       -2   -1    0    0    0  501  0.00000000000E+00  0.00000000000E+00 -0.71128469182E+03  0.71128469182E+03  0.25500000920E-02 0.  1.
    10030    2    1    2    0    0  0.00000000000E+00  0.00000000000E+00 -0.54100822793E+03  0.88156115573E+03  0.69603172960E+03 0.  0.
        5    1    3    3  502    0 -0.56674155666E+02  0.13894708047E+03 -0.66815883417E+03  0.68481863933E+03  0.46999998093E+01 0.  1.
       -5    1    3    3    0  502  0.56674155666E+02 -0.13894708047E+03  0.12715060625E+03  0.19674251640E+03  0.46999998093E+01 0. -1.
</event>
<event>
 5   0  0.3439015E-02  0.6857030E+03  0.7818609E-02  0.9741999E-01
       -1   -1    0    0    0  501  0.00000000000E+00  0.00000000000E+00  0.25038741966E+03  0.25038741972E+03  0.50400001928E-02 0. -1.
        1   -1    0    0  501    0  0.00000000000E+00  0.00000000000E+00 -0.46946107109E+03  0.46946107112E+03  0.50400001928E-02 0.  1.
    10030    2    1    2    0    0  0.00000000000E+00  0.00000000000E+00 -0.21907365143E+03  0.71984849083E+03  0.68570298600E+03 0.  0.
        1    1    3    3  502    0 -0.26353300503E+03  0.21518786656E+03 -0.65100748433E+02  0.34640088067E+03  0.50400001928E-02 0. -1.
       -1    1    3    3    0  502  0.26353300503E+03 -0.21518786656E+03 -0.15397290299E+03  0.37344761017E+03  0.50400001928E-02 0.  1.
</event>
<event>
 5   0  0.2439375E-02  0.7005392E+03  0.7818609E-02  0.9716310E-01
        3   -1    0    0  501    0  0.00000000000E+00  0.00000000000E+00  0.34337752383E+03  0.34337753868E+03  0.10100000352E+00 0.  1.
       -3   -1    0    0    0  501  0.00000000000E+00  0.00000000000E+00 -0.35730000447E+03  0.35730001875E+03  0.10100000352E+00 0. -1.
    10030    2    1    2    0    0  0.00000000000E+00  0.00000000000E+00 -0.13922480645E+02  0.70067755743E+03  0.70053922375E+03 0.  0.
        3    1    3    3  502    0 -0.25622677061E+03  0.21977591091E+02 -0.24481824677E+03  0.35506500340E+03  0.10100000352E+00 0. -1.
       -3    1    3    3    0  502  0.25622677061E+03 -0.21977591091E+02  0.23089576612E+03  0.34561255403E+03  0.10100000352E+00 0.  1.
</event>
<event>
 5   0  0.3439015E-02  0.5203498E+03  0.7818609E-02  0.1008600E+00
        1   -1    0    0  501    0  0.00000000000E+00  0.00000000000E+00  0.76719968529E+03  0.76719968531E+03  0.50400001928E-02 0. -1.
       -1   -1    0    0    0  501  0.00000000000E+00  0.00000000000E+00 -0.88231231651E+02  0.88231231795E+02  0.50400001928E-02 0.  1.
    10030    2    1    2    0    0  0.00000000000E+00  0.00000000000E+00  0.67896845364E+03  0.85543091711E+03  0.52034977938E+03 0.  0.
        1    1    3    3  502    0 -0.14874501415E+03  0.12324027822E+03  0.62601232082E+03  0.65513713927E+03  0.50400001928E-02 0. -1.
       -1    1    3    3    0  502  0.14874501415E+03 -0.12324027822E+03  0.52956132827E+02  0.20029377784E+03  0.50400001928E-02 0.  1.
</event>
<event>
 5   0  0.3749730E-02  0.7064264E+03  0.7818609E-02  0.9706305E-01
       -1   -1    0    0    0  501  0.00000000000E+00  0.00000000000E+00  0.20582534509E+03  0.20582534515E+03  0.50400001928E-02 0. -1.
        1   -1    0    0  501    0  0.00000000000E+00  0.00000000000E+00 -0.60614285121E+03  0.60614285123E+03  0.50400001928E-02 0.  1.
    10030    2    1    2    0    0  0.00000000000E+00  0.00000000000E+00 -0.40031750613E+03  0.81196819639E+03  0.70642639123E+03 0.  0.
        4    1    3    3  502    0  0.22471206211E+03 -0.16054511595E+03  0.52938779448E+02  0.28120165786E+03  0.12699999809E+01 0. -1.
       -4    1    3    3    0  502 -0.22471206211E+03  0.16054511595E+03 -0.45325628557E+03  0.53076653853E+03  0.12699999809E+01 0.  1.
</event>
<event>
 5   0  0.3717372E-02  0.7080993E+03  0.7818609E-02  0.9703481E-01
       -1   -1    0    0    0  501  0.00000000000E+00  0.00000000000E+00  0.56308269860E+03  0.56308269863E+03  0.50400001928E-02 0. -1.
        1   -1    0    0  501    0  0.00000000000E+00  0.00000000000E+00 -0.22261591683E+03  0.22261591689E+03  0.50400001928E-02 0.  1.
    10030    2    1    2    0    0  0.00000000000E+00  0.00000000000E+00  0.34046678177E+03  0.78569861552E+03  0.70809934680E+03 0.  0.
        3    1    3    3  502    0 -0.29966245831E+03  0.10299157988E+03 -0.50193915304E+01  0.31690701939E+03  0.10100000352E+00 0.  1.
       -3    1    3    3    0  502  0.29966245831E+03 -0.10299157988E+03  0.34548617330E+03  0.46879159612E+03  0.10100000352E+00 0. -1.
</event>
<event>
 5   0  0.6248886E-02  0.7011909E+03  0.7818609E-02  0.9715198E-01
       -2   -1    0    0    0  501  0.00000000000E+00  0.00000000000E+00  0.16879686280E+03  0.16879686282E+03  0.25500000920E-02 0.  1.
        2   -1    0    0  501    0  0.00000000000E+00  0.00000000000E+00 -0.72819588963E+03  0.72819588964E+03  0.25500000920E-02 0. -1.
    10030    2    1    2    0    0  0.00000000000E+00  0.00000000000E+00 -0.55939902683E+03  0.89699275246E+03  0.70119093458E+03 0.  0.
        3    1    3    3  502    0 -0.49217437016E+02  0.21081840770E+03 -0.63247908924E+03  0.66850322786E+03  0.10100000352E+00 0. -1.
       -3    1    3    3    0  502  0.49217437016E+02 -0.21081840770E+03  0.73080062406E+02  0.22848952460E+03  0.10100000352E+00 0.  1.
</event>
<event>
 5   0  0.3755872E-02  0.7131330E+03  0.7818609E-02  0.9695033E-01
       -1   -1    0    0    0  501  0.00000000000E+00  0.00000000000E+00  0.25894205211E+03  0.25894205216E+03  0.50400001928E-02 0. -1.
        1   -1    0    0  501    0  0.00000000000E+00  0.00000000000E+00 -0.49099664521E+03  0.49099664524E+03  0.50400001928E-02 0.  1.
    10030    2    1    2    0    0  0.00000000000E+00  0.00000000000E+00 -0.23205459310E+03  0.74993869740E+03  0.71313302804E+03 0.  0.
        2    1    3    3  502    0 -0.97586340312E+02  0.32791563367E+03 -0.22164970770E+03  0.40765224095E+03  0.25500000920E-02 0.  1.
       -2    1    3    3    0  502  0.97586340312E+02 -0.32791563367E+03 -0.10404885396E+02  0.34228645645E+03  0.25500000920E-02 0. -1.
</event>
<event>
 5   0  0.3749730E-02  0.6730221E+03  0.7818609E-02  0.9764514E-01
       -1   -1    0    0    0  501  0.00000000000E+00  0.00000000000E+00  0.67060988408E+02  0.67060988597E+02  0.50400001928E-02 0. -1.
        1   -1    0    0  501    0  0.00000000000E+00  0.00000000000E+00 -0.16886077180E+04  0.16886077180E+04  0.50400001928E-02 0.  1.
    10030    2    1    2    0    0  0.00000000000E+00  0.00000000000E+00 -0.16215467295E+04  0.17556687066E+04  0.67302214755E+03 0.  0.
        4    1    3    3  502    0  0.56591482785E+02 -0.18690736388E+03 -0.95887925160E+02  0.21756163652E+03  0.12699999809E+01 0. -1.
       -4    1    3    3    0  502 -0.56591482785E+02  0.18690736388E+03 -0.15256588044E+04  0.15381070700E+04  0.12699999809E+01 0.  1.
</event>
<event>
 5   0  0.3717372E-02  0.7014217E+03  0.7818609E-02  0.9714804E-01
       -1   -1    0    0    0  501  0.00000000000E+00  0.00000000000E+00  0.29618135149E+03  0.29618135154E+03  0.50400001928E-02 0.  1.
        1   -1    0    0  501    0  0.00000000000E+00  0.00000000000E+00 -0.41527969677E+03  0.41527969680E+03  0.50400001928E-02 0. -1.
    10030    2    1    2    0    0  0.00000000000E+00  0.00000000000E+00 -0.11909834528E+03  0.71146104834E+03  0.70142170444E+03 0.  0.
        3    1    3    3  502    0  0.11814150343E+03  0.68767062867E+02  0.26804682003E+03  0.30089106284E+03  0.10100000352E+00 0.  1.
       -3    1    3    3    0  502 -0.11814150343E+03 -0.68767062867E+02 -0.38714516531E+03  0.41056998550E+03  0.10100000352E+00 0. -1.
</event>
<event>
 5   0  0.3749730E-02  0.6993306E+03  0.7818609E-02  0.9718378E-01
        1   -1    0    0  501    0  0.00000000000E+00  0.00000000000E+00  0.37327765336E+03  0.37327765340E+03  0.50400001928E-02 0. -1.
       -1   -1    0    0    0  501  0.00000000000E+00  0.00000000000E+00 -0.32754663206E+03  0.32754663209E+03  0.50400001928E-02 0.  1.
    10030    2    1    2    0    0  0.00000000000E+00  0.00000000000E+00  0.45731021306E+02  0.70082428549E+03  0.69933064628E+03 0.  0.
        4    1    3    3  502    0  0.16417297056E+03 -0.21623981454E+03  0.24368086392E+03  0.36482104928E+03  0.12699999809E+01 0. -1.
       -4    1    3    3    0  502 -0.16417297056E+03  0.21623981454E+03 -0.19794984262E+03  0.33600323621E+03  0.12699999809E+01 0.  1.
</event>
<event>
 5   0  0.5899787E-02  0.5893757E+03  0.7818609E-02  0.9927697E-01
        2   -1    0    0  501    0  0.00000000000E+00  0.00000000000E+00  0.18315256618E+04  0.18315256618E+04  0.25500000920E-02 0. -1.
       -2   -1    0    0    0  501  0.00000000000E+00  0.00000000000E+00 -0.47414527451E+02  0.47414527519E+02  0.25500000920E-02 0.  1.
    10030    2    1    2    0    0  0.00000000000E+00  0.00000000000E+00  0.17841111343E+04  0.18789401893E+04  0.58937568268E+03 0.  0.
        2    1    3    3  502    0 -0.23183945414E+03 -0.10325283176E+03  0.41459474424E+03  0.48610645102E+03  0.25500000920E-02 0.  1.
       -2    1    3    3    0  502  0.23183945414E+03  0.10325283176E+03  0.13695163901E+04  0.13928337383E+04  0.25500000920E-02 0. -1.
</event>
<event>
 5   0  0.5987810E-02  0.6984356E+03  0.7818609E-02  0.9719911E-01
       -2   -1    0    0    0  501  0.00000000000E+00  0.00000000000E+00  0.13718309449E+03  0.13718309451E+03  0.25500000920E-02 0.  1.
        2   -1    0    0  501    0  0.00000000000E+00  0.00000000000E+00 -0.88898041590E+03  0.88898041590E+03  0.25500000920E-02 0. -1.
    10030    2    1    2    0    0  0.00000000000E+00  0.00000000000E+00 -0.75179732140E+03  0.10261635104E+04  0.69843563600E+03 0.  0.
        5    1    3    3  502    0 -0.19179418772E+03 -0.20615605027E+03 -0.72490238146E+02  0.29079589427E+03  0.46999998093E+01 0.  1.
       -5    1    3    3    0  502  0.19179418772E+03  0.20615605027E+03 -0.67930708326E+03  0.73536761614E+03  0.46999998093E+01 0. -1.
</event>
<event>
 5   0  0.6248886E-02  0.7389191E+03  0.7818609E-02  0.9652897E-01
       -2   -1    0    0    0  501  0.00000000000E+00  0.00000000000E+00  0.11742893229E+03  0.11742893232E+03  0.25500000920E-02 0. -1.
        2   -1    0    0  501    0  0.00000000000E+00  0.00000000000E+00 -0.11624082450E+04  0.11624082450E+04  0.25500000920E-02 0.  1.
    10030    2    1    2    0    0  0.00000000000E+00  0.00000000000E+00 -0.10449793127E+04  0.12798371773E+04  0.73891910008E+03 0.  0.
        3    1    3    3  502    0 -0.10180845294E+03 -0.35511477102E+03 -0.51318049041E+03  0.63231771099E+03  0.10100000352E+00 0. -1.
       -3    1    3    3    0  502  0.10180845294E+03  0.35511477102E+03 -0.53179882227E+03  0.64751946632E+03  0.10100000352E+00 0.  1.
</event>
<event>
 5   0  0.5987810E-02  0.6467797E+03  0.7818609E-02  0.9812841E-01
       -2   -1    0    0    0  501  0.00000000000E+00  0.00000000000E+00  0.10968540323E+03  0.10968540326E+03  0.25500000920E-02 0. -1.
        2   -1    0    0  501    0  0.00000000000E+00  0.00000000000E+00 -0.95346321797E+03  0.95346321797E+03  0.25500000920E-02 0.  1.
    10030    2    1    2    0    0  0.00000000000E+00  0.00000000000E+00 -0.84377781474E+03  0.10631486212E+04  0.64677970762E+03 0.  0.
        5    1    3    3  502    0 -0.21294953981E+03 -0.23533583049E+03 -0.52359546772E+03  0.61229467043E+03  0.46999998093E+01 0.  1.
       -5    1    3    3    0  502  0.21294953981E+03  0.23533583049E+03 -0.32018234702E+03  0.45085395081E+03  0.46999998093E+01 0. -1.
</event>
<event>
 5   0  0.3749730E-02  0.7124205E+03  0.7818609E-02  0.9696224E-01
        1   -1    0    0  501    0  0.00000000000E+00  0.00000000000E+00  0.15963745911E+03  0.15963745919E+03  0.50400001928E-02 0. -1.
       -1   -1    0    0    0  501  0.00000000000E+00  0.00000000000E+00 -0.79483682632E+03  0.79483682634E+03  0.50400001928E-02 0.  1.
    10030    2    1    2    0    0  0.00000000000E+00  0.00000000000E+00 -0.63519936721E+03  0.95447428553E+03  0.71242046969E+03 0.  0.
        4    1    3    3  502    0  0.98189301019E+02  0.12547274620E+03  0.10923523749E+03  0.19317996501E+03  0.12699999809E+01 0. -1.
       -4    1    3    3    0  502 -0.98189301019E+02 -0.12547274620E+03 -0.74443460470E+03  0.76129432052E+03  0.12699999809E+01 0.  1.
</event>
<event>
 5   0  0.3717372E-02  0.6976696E+03  0.7818609E-02  0.9721226E-01
        1   -1    0    0  501    0  0.00000000000E+00  0.00000000000E+00  0.47578232467E+03  0.47578232469E+03  0.50400001928E-02 0.  1.
       -1   -1    0    0    0  501  0.00000000000E+00  0.00000000000E+00 -0.25575920174E+03  0.25575920179E+03  0.50400001928E-02 0. -1.
    10030    2    1    2    0    0  0.00000000000E+00  0.00000000000E+00  0.22002312293E+03  0.73154152649E+03  0.69766957104E+03 0.  0.
        3    1    3    3  502    0  0.56476544464E+02  0.30506954252E+03 -0.57194123259E+02  0.31548090875E+03  0.10100000352E+00 0. -1.
       -3    1    3    3    0  502 -0.56476544464E+02 -0.30506954252E+03  0.27721724618E+03  0.41606061774E+03  0.10100000352E+00 0.  1.
</event>
<event>
 5   0  0.3717372E-02  0.5937937E+03  0.7818609E-02  0.9918366E-01
        1   -1    0    0  501    0  0.00000000000E+00  0.00000000000E+00  0.17706689564E+03  0.17706689571E+03  0.50400001928E-02 0.  1.
       -1   -1    0    0    0  501  0.00000000000E+00  0.00000000000E+00 -0.49782174889E+03  0.49782174891E+03  0.50400001928E-02 0. -1.
    10030    2    1    2    0    0  0.00000000000E+00  0.00000000000E+00 -0.32075485325E+03  0.67488864462E+03  0.59379374092E+03 0.  0.
        3    1    3    3  502    0 -0.25511123520E+02  0.97650460330E+02 -0.47772565206E+03  0.48827066128E+03  0.10100000352E+00 0. -1.
       -3    1    3    3    0  502  0.25511123520E+02 -0.97650460330E+02  0.15697079881E+03  0.18661798334E+03  0.10100000352E+00 0.  1.
</event>
<event>
 5   0  0.3601475E-02  0.7219702E+03  0.7818609E-02  0.9680381E-01
       -1   -1    0    0    0  501  0.00000000000E+00  0.00000000000E+00  0.64770486213E+03  0.64770486215E+03  0.50400001928E-02 0. -1.
        1   -1    0    0  501    0  0.00000000000E+00  0.00000000000E+00 -0.20118770238E+03  0.20118770245E+03  0.50400001928E-02 0.  1.
    10030    2    1    2    0    0  0.00000000000E+00  0.00000000000E+00  0.44651715974E+03  0.84889256459E+03  0.72197022949E+03 0.  0.
        5    1    3    3  502    0 -0.28511293115E+03 -0.71595774792E+02  0.46953976668E+03  0.55399009104E+03  0.46999998093E+01 0. -1.
       -5    1    3    3    0  502  0.28511293115E+03  0.71595774792E+02 -0.23022606936E+02  0.29490247355E+03  0.46999998093E+01 0.  1.
</event>
<event>
 5   0  0.5899787E-02  0.6917374E+03  0.7818609E-02  0.9731468E-01
        2   -1    0    0  501    0  0.00000000000E+00  0.00000000000E+00  0.29472055236E+03  0.29472055237E+03  0.25500000920E-02 0.  1.
       -2   -1    0    0    0  501  0.00000000000E+00  0.00000000000E+00 -0.40589349645E+03  0.40589349645E+03  0.25500000920E-02 0. -1.
    10030    2    1    2    0    0  0.00000000000E+00  0.00000000000E+00 -0.11117294409E+03  0.70061404882E+03  0.69173739375E+03 0.  0.
        2    1    3    3  502    0 -0.19266798092E+03  0.67712606508E+02  0.22713568898E+03  0.30544487091E+03  0.25500000920E-02 0.  1.
       -2    1    3    3    0  502  0.19266798092E+03 -0.67712606508E+02 -0.33830863307E+03  0.39516917791E+03  0.25500000920E-02 0. -1.
</event>
<event>
 5   0  0.6248886E-02  0.5164479E+03  0.7818609E-02  0.1009573E+00
       -2   -1    0    0    0  501  0.00000000000E+00  0.00000000000E+00  0.21114357778E+03  0.21114357779E+03  0.25500000920E-02 0.  1.
        2   -1    0    0  501    0  0.00000000000E+00  0.00000000000E+00 -0.31580221810E+03  0.31580221811E+03  0.25500000920E-02 0. -1.
    10030    2    1    2    0    0  0.00000000000E+00  0.00000000000E+00 -0.10465864032E+03  0.52694579590E+03  0.51644790717E+03 0.  0.
        3    1    3    3  502    0  0.23239999637E+03 -0.89528547505E+02 -0.12193986728E+03  0.27729850444E+03  0.10100000352E+00 0. -1.
       -3    1    3    3    0  502 -0.23239999637E+03  0.89528547505E+02  0.17281226958E+02  0.24964729146E+03  0.10100000352E+00 0.  1.
</event>
<event>
 5   0  0.6248886E-02  0.6913069E+03  0.7818609E-02  0.9732215E-01
       -2   -1    0    0    0  501  0.00000000000E+00  0.00000000000E+00  0.10487187821E+03  0.10487187824E+03  0.25500000920E-02 0.  1.
        2   -1    0    0  501    0  0.00000000000E+00  0.00000000000E+00 -0.11392596614E+04  0.11392596614E+04  0.25500000920E-02 0. -1.
    10030    2    1    2    0    0  0.00000000000E+00  0.00000000000E+00 -0.10343877832E+04  0.12441315396E+04  0.69130687970E+03 0.  0.
        3    1    3    3  502    0  0.34431222233E+02  0.29824783600E+02 -0.11338340528E+04  0.11347487370E+04  0.10100000352E+00 0. -1.
       -3    1    3    3    0  502 -0.34431222233E+02 -0.29824783600E+02  0.99446269556E+02  0.10938280263E+03  0.10100000352E+00 0.  1.
</event>
<event>
 5   0  0.3755872E-02  0.6933622E+03  0.7818609E-02  0.9728651E-01
        1   -1    0    0  501    0  0.00000000000E+00  0.00000000000E+00  0.38944557390E+03  0.38944557393E+03  0.50400001928E-02 0. -1.
       -1   -1    0    0    0  501  0.00000000000E+00  0.00000000000E+00 -0.30861256839E+03  0.30861256843E+03  0.50400001928E-02 0.  1.
    10030    2    1    2    0    0  0.00000000000E+00  0.00000000000E+00  0.80833005512E+02  0.69805814236E+03  0.69336223962E+03 0.  0.
        2    1    3    3  502    0  0.11853943013E+03 -0.20653322528E+03 -0.21324271793E+03  0.31965610646E+03  0.25500000920E-02 0.  1.
       -2    1    3    3    0  502 -0.11853943013E+03  0.20653322528E+03  0.29407572345E+03  0.37840203589E+03  0.25500000920E-02 0. -1.
</event>
<event>
 5   0  0.6167756E-02  0.7076657E+03  0.7818609E-02  0.9704212E-01
       -2   -1    0    0    0  501  0.00000000000E+00  0.00000000000E+00  0.25296427756E+03  0.25296427757E+03  0.25500000920E-02 0. -1.
        2   -1    0    0  501    0  0.00000000000E+00  0.00000000000E+00 -0.49492232673E+03  0.49492232674E+03  0.25500000920E-02 0.  1.
    10030    2    1    2    0    0  0.00000000000E+00  0.00000000000E+00 -0.24195804917E+03  0.74788660430E+03  0.70766565223E+03 0.  0.
        4    1    3    3  502    0  0.69420186577E+01  0.18132078220E+03  0.20004637849E+03  0.27008440186E+03  0.12699999809E+01 0. -1.
       -4    1    3    3    0  502 -0.69420186577E+01 -0.18132078220E+03 -0.44200442767E+03  0.47780220244E+03  0.12699999809E+01 0.  1.
</event>
<event>
 5   0  0.6248886E-02  0.6973839E+03  0.7818609E-02  0.9721716E-01
        2   -1    0    0  501    0  0.00000000000E+00  0.00000000000E+00  0.43461605066E+03  0.43461605067E+03  0.25500000920E-02 0.  1.
       -2   -1    0    0    0  501  0.00000000000E+00  0.00000000000E+00 -0.27975517060E+03  0.27975517061E+03  0.25500000920E-02 0. -1.
    10030    2    1    2    0    0  0.00000000000E+00  0.00000000000E+00  0.15486088007E+03  0.71437122128E+03  0.69738393272E+03 0.  0.
        3    1    3    3  502    0 -0.19547514120E+03  0.26463777844E+03  0.19575335794E+03  0.38283556777E+03  0.10100000352E+00 0.  1.
       -3    1    3    3    0  502  0.19547514120E+03 -0.26463777844E+03 -0.40892477870E+02  0.33153565351E+03  0.10100000352E+00 0. -1.
</event>
<event>
 5   0  0.6248886E-02  0.7270007E+03  0.7818609E-02  0.9672140E-01
       -2   -1    0    0    0  501  0.00000000000E+00  0.00000000000E+00  0.79930022896E+02  0.79930022936E+02  0.25500000920E-02 0. -1.
        2   -1    0    0  501    0  0.00000000000E+00  0.00000000000E+00 -0.16531024619E+04  0.16531024620E+04  0.25500000920E-02 0.  1.
    10030    2    1    2    0    0  0.00000000000E+00  0.00000000000E+00 -0.15731724391E+04  0.17330324849E+04  0.72700073637E+03 0.  0.
        3    1    3    3  502    0  0.28215085096E+02  0.35396449017E+03 -0.97193510631E+03  0.10347679993E+04  0.10100000352E+00 0.  1.
       -3    1    3    3    0  502 -0.28215085096E+02 -0.35396449017E+03 -0.60123733274E+03  0.69826448557E+03  0.10100000352E+00 0. -1.
</event>
<event>
 5   0  0.2439375E-02  0.7007317E+03  0.7818609E-02  0.9715982E-01
        3   -1    0    0  501    0  0.00000000000E+00  0.00000000000E+00  0.23627848090E+03  0.23627850248E+03  0.10100000352E+00 0.  1.
       -3   -1    0    0    0  501  0.00000000000E+00  0.00000000000E+00 -0.51954046584E+03  0.51954047566E+03  0.10100000352E+00 0. -1.
    10030    2    1    2    0    0  0.00000000000E+00  0.00000000000E+00 -0.28326198494E+03  0.75581897814E+03  0.70073174297E+03 0.  0.
        4    1    3    3  502    0  0.35389457325E+02 -0.27611391580E+03  0.87846036018E+02  0.29190725776E+03  0.12699999809E+01 0.  1.
       -4    1    3    3    0  502 -0.35389457325E+02  0.27611391580E+03 -0.37110802096E+03  0.46391172038E+03  0.12699999809E+01 0. -1.
</event>
<event>
 5   0  0.6248886E-02  0.6980964E+03  0.7818609E-02  0.9720493E-01
       -2   -1    0    0    0  501  0.00000000000E+00  0.00000000000E+00  0.19627853774E+03  0.19627853775E+03  0.25500000920E-02 0.  1.
        2   -1    0    0  501    0  0.00000000000E+00  0.00000000000E+00 -0.62072315745E+03  0.62072315746E+03  0.25500000920E-02 0. -1.
    10030    2    1    2    0    0  0.00000000000E+00  0.00000000000E+00 -0.42444461971E+03  0.81700169521E+03  0.69809636496E+03 0.  0.
        3    1    3    3  502    0  0.13878060536E+03  0.24869125173E+03  0.23961437539E+02  0.28579985269E+03  0.10100000352E+00 0.  1.
       -3    1    3    3    0  502 -0.13878060536E+03 -0.24869125173E+03 -0.44840605725E+03  0.53120184252E+03  0.10100000352E+00 0. -1.
</event>
<event>
 5   0  0.5987810E-02  0.7091254E+03  0.7818609E-02  0.9701753E-01
        2   -1    0    0  501    0  0.00000000000E+00  0.00000000000E+00  0.26565172071E+04  0.26565172071E+04  0.25500000920E-02 0.  1.
       -2   -1    0    0    0  501  0.00000000000E+00  0.00000000000E+00 -0.47323125689E+02  0.47323125758E+02  0.25500000920E-02 0. -1.
    10030    2    1    2    0    0  0.00000000000E+00  0.00000000000E+00  0.26091940814E+04  0.27038403328E+04  0.70912537053E+03 0.  0.
        5    1    3    3  502    0 -0.11924733750E+03 -0.17609304020E+02  0.25758657348E+04  0.25786888895E+04  0.46999998093E+01 0.  1.
       -5    1    3    3    0  502  0.11924733750E+03  0.17609304020E+02  0.33328346607E+02  0.12515144336E+03  0.46999998093E+01 0. -1.
</event>
<event>
 5   0  0.3717372E-02  0.6842442E+03  0.7818609E-02  0.9744563E-01
       -1   -1    0    0    0  501  0.00000000000E+00  0.00000000000E+00  0.97737023522E+02  0.97737023652E+02  0.50400001928E-02 0.  1.
        1   -1    0    0  501    0  0.00000000000E+00  0.00000000000E+00 -0.11975760870E+04  0.11975760870E+04  0.50400001928E-02 0. -1.
    10030    2    1    2    0    0  0.00000000000E+00  0.00000000000E+00 -0.10998390634E+04  0.12953131106E+04  0.68424417359E+03 0.  0.
        3    1    3    3  502    0  0.54111024135E+02 -0.19325265616E+03 -0.10744463317E+04  0.10930276859E+04  0.10100000352E+00 0. -1.
       -3    1    3    3    0  502 -0.54111024135E+02  0.19325265616E+03 -0.25392731681E+02  0.20228542476E+03  0.10100000352E+00 0.  1.
</event>
<event>
 5   0  0.2439375E-02  0.6885769E+03  0.7818609E-02  0.9736969E-01
        3   -1    0    0  501    0  0.00000000000E+00  0.00000000000E+00  0.18288356133E+03  0.18288358922E+03  0.10100000352E+00 0.  1.
       -3   -1    0    0    0  501  0.00000000000E+00  0.00000000000E+00 -0.64814202330E+03  0.64814203117E+03  0.10100000352E+00 0. -1.
    10030    2    1    2    0    0  0.00000000000E+00  0.00000000000E+00 -0.46525846197E+03  0.83102562039E+03  0.68857689862E+03 0.  0.
        2    1    3    3  502    0 -0.31874320602E+03  0.69469033487E+02 -0.99810785913E+02  0.34115300231E+03  0.25500000920E-02 0.  1.
       -2    1    3    3    0  502  0.31874320602E+03 -0.69469033487E+02 -0.36544767606E+03  0.48987261807E+03  0.25500000920E-02 0. -1.
</event>
<event>
 5   0  0.3755872E-02  0.6925977E+03  0.7818609E-02  0.9729976E-01
       -1   -1    0    0    0  501  0.00000000000E+00  0.00000000000E+00  0.95462307252E+03  0.95462307253E+03  0.50400001928E-02 0. -1.
        1   -1    0    0  501    0  0.00000000000E+00  0.00000000000E+00 -0.12562327791E+03  0.12562327801E+03  0.50400001928E-02 0.  1.
    10030    2    1    2    0    0  0.00000000000E+00  0.00000000000E+00  0.82899979460E+03  0.10802463505E+04  0.69259765984E+03 0.  0.
        2    1    3    3  502    0 -0.21997166241E+03 -0.18886138945E+03  0.11911544194E+03  0.31344001851E+03  0.25500000920E-02 0.  1.
       -2    1    3    3    0  502  0.21997166241E+03  0.18886138945E+03  0.70988435266E+03  0.76680633203E+03  0.25500000920E-02 0. -1.
</event>
<event>
 5   0  0.3749730E-02  0.6925401E+03  0.7818609E-02  0.9730075E-01
       -1   -1    0    0    0  501  0.00000000000E+00  0.00000000000E+00  0.11322636837E+03  0.11322636848E+03  0.50400001928E-02 0. -1.
        1   -1    0    0  501    0  0.00000000000E+00  0.00000000000E+00 -0.10589667158E+04  0.10589667158E+04  0.50400001928E-02 0.  1.
    10030    2    1    2    0    0  0.00000000000E+00  0.00000000000E+00 -0.94574034741E+03  0.11721930843E+04  0.69254012311E+03 0.  0.
        4    1    3    3  502    0 -0.29830511192E+02  0.64988181097E+02 -0.10463293367E+04  0.10487707170E+04  0.12699999809E+01 0.  1.
       -4    1    3    3    0  502  0.29830511192E+02 -0.64988181097E+02  0.10058898929E+03  0.12342236729E+03  0.12699999809E+01 0. -1.
</event>
<event>
 5   0  0.6248886E-02  0.6993653E+03  0.7818609E-02  0.9718318E-01
        2   -1    0    0  501    0  0.00000000000E+00  0.00000000000E+00  0.14178664827E+04  0.14178664827E+04  0.25500000920E-02 0.  1.
       -2   -1    0    0    0  501  0.00000000000E+00  0.00000000000E+00 -0.86240807848E+02  0.86240807885E+02  0.25500000920E-02 0. -1.
    10030    2    1    2    0    0  0.00000000000E+00  0.00000000000E+00  0.13316256748E+04  0.15041072906E+04  0.69936528629E+03 0.  0.
        3    1    3    3  502    0 -0.25942400338E+03  0.79704049361E+02  0.11400568266E+04  0.11719143002E+04  0.10100000352E+00 0.  1.
       -3    1    3    3    0  502  0.25942400338E+03 -0.79704049361E+02  0.19156884824E+03  0.33219299034E+03  0.10100000352E+00 0. -1.
</event>
<event>
 5   0  0.6248886E-02  0.7029021E+03  0.7818609E-02  0.9712282E-01
       -2   -1    0    0    0  501  0.00000000000E+00  0.00000000000E+00  0.17224266355E+03  0.17224266356E+03  0.25500000920E-02 0.  1.
        2   -1    0    0  501    0  0.00000000000E+00  0.00000000000E+00 -0.71711518337E+03  0.71711518337E+03  0.25500000920E-02 0. -1.
    10030    2    1    2    0    0  0.00000000000E+00  0.00000000000E+00 -0.54487251982E+03  0.88935784694E+03  0.70290206789E+03 0.  0.
        3    1    3    3  502    0  0.20981126357E+03 -0.28132952905E+03 -0.29613252146E+03  0.45919663620E+03  0.10100000352E+00 0.  1.
       -3    1    3    3    0  502 -0.20981126357E+03  0.28132952905E+03 -0.24873999836E+03  0.43016121073E+03  0.10100000352E+00 0. -1.
</event>
<event>
 5   0  0.6131198E-02  0.6993013E+03  0.7818609E-02  0.9718428E-01
       -2   -1    0    0    0  501  0.00000000000E+00  0.00000000000E+00  0.82527688161E+02  0.82527688200E+02  0.25500000920E-02 0.  1.
        2   -1    0    0  501    0  0.00000000000E+00  0.00000000000E+00 -0.14813887459E+04  0.14813887459E+04  0.25500000920E-02 0. -1.
    10030    2    1    2    0    0  0.00000000000E+00  0.00000000000E+00 -0.13988610578E+04  0.15639164341E+04  0.69930133277E+03 0.  0.
        1    1    3    3  502    0 -0.28033662486E+03 -0.12343036639E+03 -0.32233428683E+03  0.44466062460E+03  0.50400001928E-02 0.  1.
       -1    1    3    3    0  502  0.28033662486E+03  0.12343036639E+03 -0.10765267710E+04  0.11192558095E+04  0.50400001928E-02 0. -1.
</event>
<event>
 5   0  0.3439015E-02  0.6974156E+03  0.7818609E-02  0.9721662E-01
        1   -1    0    0  501    0  0.00000000000E+00  0.00000000000E+00  0.19262753982E+03  0.19262753988E+03  0.50400001928E-02 0. -1.
       -1   -1    0    0    0  501  0.00000000000E+00  0.00000000000E+00 -0.63125507710E+03  0.63125507712E+03  0.50400001928E-02 0.  1.
    10030    2    1    2    0    0  0.00000000000E+00  0.00000000000E+00 -0.43862753728E+03  0.82388261701E+03  0.69741555055E+03 0.  0.
        1    1    3    3  502    0 -0.17432478417E+02  0.10447606293E+03  0.17316387294E+03  0.20298981734E+03  0.50400001928E-02 0. -1.
       -1    1    3    3    0  502  0.17432478417E+02 -0.10447606293E+03 -0.61179141022E+03  0.62089279966E+03  0.50400001928E-02 0.  1.
</event>
<event>
 5   0  0.5899787E-02  0.7088116E+03  0.7818609E-02  0.9702281E-01
       -2   -1    0    0    0  501  0.00000000000E+00  0.00000000000E+00  0.57056969749E+02  0.57056969806E+02  0.25500000920E-02 0.  1.
        2   -1    0    0  501    0  0.00000000000E+00  0.00000000000E+00 -0.22013696229E+04  0.22013696229E+04  0.25500000920E-02 0. -1.
    10030    2    1    2    0    0  0.00000000000E+00  0.00000000000E+00 -0.21443126531E+04  0.22584265927E+04  0.70881162531E+03 0.  0.
        2    1    3    3  502    0  0.31973489379E+02 -0.12516976393E+02 -0.21960574400E+04  0.21963258544E+04  0.25500000920E-02 0. -1.
       -2    1    3    3    0  502 -0.31973489379E+02  0.12516976393E+02  0.51744786894E+02  0.62100738307E+02  0.25500000920E-02 0.  1.
</event>
<event>
 5   0  0.6248886E-02  0.6844866E+03  0.7818609E-02  0.9744136E-01
        2   -1    0    0  501    0  0.00000000000E+00  0.00000000000E+00  0.25591120202E+03  0.25591120203E+03  0.25500000920E-02 0.  1.
       -2   -1    0    0    0  501  0.00000000000E+00  0.00000000000E+00 -0.45769964779E+03  0.45769964780E+03  0.25500000920E-02 0. -1.
    10030    2    1    2    0    0  0.00000000000E+00  0.00000000000E+00 -0.20178844577E+03  0.71361084983E+03  0.68448657266E+03 0.  0.
        3    1    3    3  502    0 -0.81325526252E+02 -0.14672057833E+03 -0.41189849317E+03  0.44474841001E+03  0.10100000352E+00 0. -1.
       -3    1    3    3    0  502  0.81325526252E+02  0.14672057833E+03  0.21011004740E+03  0.26886243982E+03  0.10100000352E+00 0.  1.
</event>
<event>
 5   0  0.3439015E-02  0.7091995E+03  0.7818609E-02  0.9701628E-01
        1   -1    0    0  501    0  0.00000000000E+00  0.00000000000E+00  0.10639479169E+04  0.10639479169E+04  0.50400001928E-02 0. -1.
       -1   -1    0    0    0  501  0.00000000000E+00  0.00000000000E+00 -0.11818340532E+03  0.11818340543E+03  0.50400001928E-02 0.  1.
    10030    2    1    2    0    0  0.00000000000E+00  0.00000000000E+00  0.94576451157E+03  0.11821313223E+04  0.70919951486E+03 0.  0.
        1    1    3    3  502    0 -0.12544099667E+03  0.15268044696E+03  0.96366849826E+03  0.98371933858E+03  0.50400001928E-02 0.  1.
       -1    1    3    3    0  502  0.12544099667E+03 -0.15268044696E+03 -0.17903986694E+02  0.19841198374E+03  0.50400001928E-02 0. -1.
</event>
<event>
 5   0  0.6167756E-02  0.7015074E+03  0.7818609E-02  0.9714658E-01
        2   -1    0    0  501    0  0.00000000000E+00  0.00000000000E+00  0.10013512137E+04  0.10013512137E+04  0.25500000920E-02 0. -1.
       -2   -1    0    0    0  501  0.00000000000E+00  0.00000000000E+00 -0.12286212947E+03  0.12286212949E+03  0.25500000920E-02 0.  1.
    10030    2    1    2    0    0  0.00000000000E+00  0.00000000000E+00  0.87848908425E+03  0.11242133432E+04  0.70150735557E+03 0.  0.
        4    1    3    3  502    0 -0.28109927058E+02 -0.18267253022E+03 -0.38490425810E+02  0.18879233850E+03  0.12699999809E+01 0.  1.
       -4    1    3    3    0  502  0.28109927058E+02  0.18267253022E+03  0.91697951006E+03  0.93542100472E+03  0.12699999809E+01 0. -1.
</event>
<event>
 5   0  0.3601475E-02  0.7285117E+03  0.7818609E-02  0.9669679E-01
        1   -1    0    0  501    0  0.00000000000E+00  0.00000000000E+00  0.13669017510E+04  0.13669017510E+04  0.50400001928E-02 0. -1.
       -1   -1    0    0    0  501  0.00000000000E+00  0.00000000000E+00 -0.97067935887E+02  0.97067936018E+02  0.50400001928E-02 0.  1.
    10030    2    1    2    0    0  0.00000000000E+00  0.00000000000E+00  0.12698338151E+04  0.14639696870E+04  0.72851172024E+03 0.  0.
        5    1    3    3  502    0  0.30736644285E+02  0.31682658666E+03  0.99064666116E+03  0.10405415535E+04  0.46999998093E+01 0. -1.
       -5    1    3    3    0  502 -0.30736644285E+02 -0.31682658666E+03  0.27918715394E+03  0.42342813350E+03  0.46999998093E+01 0.  1.
</event>
<event>
 5   0  0.5987810E-02  0.6949449E+03  0.7818609E-02  0.9725916E-01
        2   -1    0    0  501    0  0.00000000000E+00  0.00000000000E+00  0.39459073184E+03  0.39459073185E+03  0.25500000920E-02 0.  1.
       -2   -1    0    0    0  501  0.00000000000E+00  0.00000000000E+00 -0.30598062314E+03  0.30598062315E+03  0.25500000920E-02 0. -1.
    10030    2    1    2    0    0  0.00000000000E+00  0.00000000000E+00  0.88610108705E+02  0.70057135500E+03  0.69494494176E+03 0.  0.
        5    1    3    3  502    0 -0.98239874423E+02 -0.31994859273E+02  0.37871395576E+03  0.39258259543E+03  0.46999998093E+01 0.  1.
       -5    1    3    3    0  502  0.98239874423E+02  0.31994859273E+02 -0.29010384706E+03  0.30798875957E+03  0.46999998093E+01 0. -1.
</event>
<event>
 5   0  0.6167756E-02  0.7042761E+03  0.7818609E-02  0.9709947E-01
        2   -1    0    0  501    0  0.00000000000E+00  0.00000000000E+00  0.12680926470E+04  0.12680926470E+04  0.25500000920E-02 0.  1.
       -2   -1    0    0    0  501  0.00000000000E+00  0.00000000000E+00 -0.97785597486E+02  0.97785597519E+02  0.25500000920E-02 0. -1.
    10030    2    1    2    0    0  0.00000000000E+00  0.00000000000E+00  0.11703070495E+04  0.13658782445E+04  0.70427607421E+03 0.  0.
        4    1    3    3  502    0  0.28249644555E+03 -0.20965485024E+03  0.61521035419E+03  0.70869231037E+03  0.12699999809E+01 0.  1.
       -4    1    3    3    0  502 -0.28249644555E+03  0.20965485024E+03  0.55509669529E+03  0.65718593412E+03  0.12699999809E+01 0. -1.
</event>
<event>
 5   0  0.6248886E-02  0.6965972E+03  0.7818609E-02  0.9723069E-01
       -2   -1    0    0    0  501  0.00000000000E+00  0.00000000000E+00  0.52583553057E+03  0.52583553058E+03  0.25500000920E-02 0.  1.
        2   -1    0    0  501    0  0.00000000000E+00  0.00000000000E+00 -0.23070315450E+03  0.23070315451E+03  0.25500000920E-02 0. -1.
    10030    2    1    2    0    0  0.00000000000E+00  0.00000000000E+00  0.29513237608E+03  0.75653868509E+03  0.69659720257E+03 0.  0.
        3    1    3    3  502    0 -0.22397520184E+02  0.11959515373E+03 -0.20687077905E+03  0.24000037319E+03  0.10100000352E+00 0. -1.
       -3    1    3    3    0  502  0.22397520184E+02 -0.11959515373E+03  0.50200315512E+03  0.51653831190E+03  0.10100000352E+00 0.  1.
</event>
<event>
 5   0  0.6248886E-02  0.6469246E+03  0.7818609E-02  0.9812567E-01
       -2   -1    0    0    0  501  0.00000000000E+00  0.00000000000E+00  0.14917458034E+03  0.14917458036E+03  0.25500000920E-02 0.  1.
        2   -1    0    0  501    0  0.00000000000E+00  0.00000000000E+00 -0.70137862417E+03  0.70137862418E+03  0.25500000920E-02 0. -1.
    10030    2    1    2    0    0  0.00000000000E+00  0.00000000000E+00 -0.55220404383E+03  0.85055320454E+03  0.64692460746E+03 0.  0.
        3    1    3    3  502    0  0.31103530123E+03  0.64886564056E+02 -0.35580130977E+03  0.47701971347E+03  0.10100000352E+00 0.  1.
       -3    1    3    3    0  502 -0.31103530123E+03 -0.64886564056E+02 -0.19640273406E+03  0.37353349107E+03  0.10100000352E+00 0. -1.
</event>
<event>
 5   0  0.2439375E-02  0.7127394E+03  0.7818609E-02  0.9695691E-01
        3   -1    0    0  501    0  0.00000000000E+00  0.00000000000E+00  0.26948639010E+03  0.26948640902E+03  0.10100000352E+00 0.  1.
       -3   -1    0    0    0  501  0.00000000000E+00  0.00000000000E+00 -0.47126446422E+03  0.47126447505E+03  0.10100000352E+00 0. -1.
    10030    2    1    2    0    0  0.00000000000E+00  0.00000000000E+00 -0.20177807413E+03  0.74075088407E+03  0.71273942016E+03 0.  0.
        5    1    3    3  502    0  0.14987827537E+03  0.31104328723E+03 -0.19247650958E+03  0.39532356456E+03  0.46999998093E+01 0. -1.
       -5    1    3    3    0  502 -0.14987827537E+03 -0.31104328723E+03 -0.93015645488E+01  0.34542731951E+03  0.46999998093E+01 0.  1.
</event>
<event>
 5   0  0.5899787E-02  0.7030566E+03  0.7818609E-02  0.9712019E-01
        2   -1    0    0  501    0  0.00000000000E+00  0.00000000000E+00  0.10417071859E+04  0.10417071859E+04  0.25500000920E-02 0. -1.
       -2   -1    0    0    0  501  0.00000000000E+00  0.00000000000E+00 -0.11862463924E+03  0.11862463927E+03  0.25500000920E-02 0.  1.
    10030    2    1    2    0    0  0.00000000000E+00  0.00000000000E+00  0.92308254664E+03  0.11603318252E+04  0.70305658132E+03 0.  0.
        2    1    3    3  502    0  0.38332770454E+01 -0.31072172476E+03  0.19030370916E+03  0.36438741194E+03  0.25500000920E-02 0.  1.
       -2    1    3    3    0  502 -0.38332770454E+01  0.31072172476E+03  0.73277883748E+03  0.79594441321E+03  0.25500000920E-02 0. -1.
</event>
<event>
 5   0  0.6248886E-02  0.6954144E+03  0.7818609E-02  0.9725106E-01
        2   -1    0    0  501    0  0.00000000000E+00  0.00000000000E+00  0.88129419811E+03  0.88129419812E+03  0.25500000920E-02 0. -1.
       -2   -1    0    0    0  501  0.00000000000E+00  0.00000000000E+00 -0.13718495050E+03  0.13718495052E+03  0.25500000920E-02 0.  1.
    10030    2    1    2    0    0  0.00000000000E+00  0.00000000000E+00  0.74410924761E+03  0.10184791486E+04  0.69541441158E+03 0.  0.
        3    1    3    3  502    0  0.26594847956E+03 -0.21454171376E+03  0.27778001275E+03  0.44036176765E+03  0.10100000352E+00 0.  1.
       -3    1    3    3    0  502 -0.26594847956E+03  0.21454171376E+03  0.46632923486E+03  0.57811738099E+03  0.10100000352E+00 0. -1.
</event>
<event>
 5   0  0.2439375E-02  0.6880111E+03  0.7818609E-02  0.9737957E-01
       -3   -1    0    0    0  501  0.00000000000E+00  0.00000000000E+00  0.71796583811E+03  0.71796584522E+03  0.10100000352E+00 0. -1.
        3   -1    0    0  501    0  0.00000000000E+00  0.00000000000E+00 -0.16482652461E+03  0.16482655555E+03  0.10100000352E+00 0.  1.
    10030    2    1    2    0    0  0.00000000000E+00  0.00000000000E+00  0.55313931350E+03  0.88279240077E+03  0.68801113560E+03 0.  0.
        2    1    3    3  502    0  0.99560456095E+02 -0.24583319468E+03 -0.45263797107E+01  0.26526728434E+03  0.25500000920E-02 0.  1.
       -2    1    3    3    0  502 -0.99560456095E+02  0.24583319468E+03  0.55766569321E+03  0.61752511643E+03  0.25500000920E-02 0. -1.
</event>
<event>
 5   0  0.3717372E-02  0.6897339E+03  0.7818609E-02  0.9734952E-01
       -1   -1    0    0    0  501  0.00000000000E+00  0.00000000000E+00  0.50101391107E+03  0.50101391110E+03  0.50400001928E-02 0. -1.
        1   -1    0    0  501    0  0.00000000000E+00  0.00000000000E+00 -0.23738502653E+03  0.23738502659E+03  0.50400001928E-02 0.  1.
    10030    2    1    2    0    0  0.00000000000E+00  0.00000000000E+00  0.26362888454E+03  0.73839893769E+03  0.68973386346E+03 0.  0.
        3    1    3    3  502    0  0.21882360274E+03  0.19113218784E+03 -0.67084167787E+02  0.29818715283E+03  0.10100000352E+00 0.  1.
       -3    1    3    3    0  502 -0.21882360274E+03 -0.19113218784E+03  0.33071305233E+03  0.44021178486E+03  0.10100000352E+00 0. -1.
</event>
<event>
 5   0  0.6131198E-02  0.7082042E+03  0.7818609E-02  0.9703304E-01
       -2   -1    0    0    0  501  0.00000000000E+00  0.00000000000E+00  0.41100074565E+03  0.41100074566E+03  0.25500000920E-02 0. -1.
        2   -1    0    0  501    0  0.00000000000E+00  0.00000000000E+00 -0.30508042727E+03  0.30508042728E+03  0.25500000920E-02 0.  1.
    10030    2    1    2    0    0  0.00000000000E+00  0.00000000000E+00  0.10592031838E+03  0.71608117294E+03  0.70820416011E+03 0.  0.
        1    1    3    3  502    0  0.31350809941E+03 -0.16447208617E+03  0.60101830577E+02  0.35909695848E+03  0.50400001928E-02 0.  1.
       -1    1    3    3    0  502 -0.31350809941E+03  0.16447208617E+03  0.45818487803E+02  0.35698421446E+03  0.50400001928E-02 0. -1.
</event>
<event>
 5   0  0.3439015E-02  0.7036974E+03  0.7818609E-02  0.9710930E-01
       -1   -1    0    0    0  501  0.00000000000E+00  0.00000000000E+00  0.61688008104E+03  0.61688008106E+03  0.50400001928E-02 0. -1.
        1   -1    0    0  501    0  0.00000000000E+00  0.00000000000E+00 -0.20068328392E+03  0.20068328398E+03  0.50400001928E-02 0.  1.
    10030    2    1    2    0    0  0.00000000000E+00  0.00000000000E+00  0.41619679712E+03  0.81756336504E+03  0.70369743634E+03 0.  0.
        1    1    3    3  502    0  0.16621100999E+03 -0.23852593841E+03 -0.22153641860E+02  0.29156732844E+03  0.50400001928E-02 0.  1.
       -1    1    3    3    0  502 -0.16621100999E+03  0.23852593841E+03  0.43835043898E+03  0.52599603660E+03  0.50400001928E-02 0. -1.
</event>
<event>
 5   0  0.6167756E-02  0.6977861E+03  0.7818609E-02  0.9721026E-01
       -2   -1    0    0    0  501  0.00000000000E+00  0.00000000000E+00  0.74842540928E+03  0.74842540929E+03  0.25500000920E-02 0.  1.
        2   -1    0    0  501    0  0.00000000000E+00  0.00000000000E+00 -0.16264329117E+03  0.16264329119E+03  0.25500000920E-02 0. -1.
    10030    2    1    2    0    0  0.00000000000E+00  0.00000000000E+00  0.58578211811E+03  0.91106870048E+03  0.69778613278E+03 0.  0.
        4    1    3    3  502    0  0.17192912698E+03  0.15954285462E+03  0.63012261549E+03  0.67236126496E+03  0.12699999809E+01 0.  1.
       -4    1    3    3    0  502 -0.17192912698E+03 -0.15954285462E+03 -0.44340497381E+02  0.23870743552E+03  0.12699999809E+01 0. -1.
</event>
<event>
 5   0  0.6167756E-02  0.6521780E+03  0.7818609E-02  0.9802701E-01
       -2   -1    0    0    0  501  0.00000000000E+00  0.00000000000E+00  0.89902261827E+03  0.89902261827E+03  0.25500000920E-02 0. -1.
        2   -1    0    0  501    0  0.00000000000E+00  0.00000000000E+00 -0.11827737838E+03  0.11827737841E+03  0.25500000920E-02 0.  1.
    10030    2    1    2    0    0  0.00000000000E+00  0.00000000000E+00  0.78074523988E+03  0.10172999967E+04  0.65217800764E+03 0.  0.
        4    1    3    3  502    0 -0.32304045465E+03  0.31047443606E+02  0.34071774852E+03  0.47054147123E+03  0.12699999809E+01 0.  1.
       -4    1    3    3    0  502  0.32304045465E+03 -0.31047443606E+02  0.44002749137E+03  0.54675852545E+03  0.12699999809E+01 0. -1.
</event>
<event>
 5   0  0.3601475E-02  0.6776170E+03  0.7818609E-02  0.9756295E-01
       -1   -1    0    0    0  501  0.00000000000E+00  0.00000000000E+00  0.62205275638E+02  0.62205275842E+02  0.50400001928E-02 0. -1.
        1   -1    0    0  501    0  0.00000000000E+00  0.00000000000E+00 -0.18453614238E+04  0.18453614238E+04  0.50400001928E-02 0.  1.
    10030    2    1    2    0    0  0.00000000000E+00  0.00000000000E+00 -0.17831561481E+04  0.19075666996E+04  0.67761704884E+03 0.  0.
        5    1    3    3  502    0 -0.98672440840E+02 -0.88987281208E+02 -0.14301280795E+02  0.13372211271E+03  0.46999998093E+01 0. -1.
       -5    1    3    3    0  502  0.98672440840E+02  0.88987281208E+02 -0.17688548673E+04  0.17738445869E+04  0.46999998093E+01 0.  1.
</event>
<event>
 5   0  0.6167756E-02  0.7069458E+03  0.7818609E-02  0.9705427E-01
        2   -1    0    0  501    0  0.00000000000E+00  0.00000000000E+00  0.15550291367E+03  0.15550291369E+03  0.25500000920E-02 0.  1.
       -2   -1    0    0    0  501  0.00000000000E+00  0.00000000000E+00 -0.80347756987E+03  0.80347756988E+03  0.25500000920E-02 0. -1.
    10030    2    1    2    0    0  0.00000000000E+00  0.00000000000E+00 -0.64797465621E+03  0.95898048357E+03  0.70694583440E+03 0.  0.
        4    1    3    3  502    0 -0.60669003613E+02 -0.20966997386E+03  0.53160238076E+02  0.22465495710E+03  0.12699999809E+01 0.  1.
       -4    1    3    3    0  502  0.60669003613E+02  0.20966997386E+03 -0.70113489429E+03  0.73432552647E+03  0.12699999809E+01 0. -1.
</event>
<event>
 5   0  0.6131198E-02  0.6889805E+03  0.7818609E-02  0.9736265E-01
        2   -1    0    0  501    0  0.00000000000E+00  0.00000000000E+00  0.23041120554E+03  0.23041120556E+03  0.25500000920E-02 0.  1.
       -2   -1    0    0    0  501  0.00000000000E+00  0.00000000000E+00 -0.51505102007E+03  0.51505102008E+03  0.25500000920E-02 0. -1.
    10030    2    1    2    0    0  0.00000000000E+00  0.00000000000E+00 -0.28463981453E+03  0.74546222564E+03  0.68898048291E+03 0.  0.
        1    1    3    3  502    0  0.74397202775E+02 -0.33540930060E+03 -0.16967458326E+03  0.38317594776E+03  0.50400001928E-02 0. -1.
       -1    1    3    3    0  502 -0.74397202775E+02  0.33540930060E+03 -0.11496523127E+03  0.36228627788E+03  0.50400001928E-02 0.  1.
</event>
<event>
 5   0  0.3749730E-02  0.7142035E+03  0.7818609E-02  0.9693246E-01
        1   -1    0    0  501    0  0.00000000000E+00  0.00000000000E+00  0.57896684646E+03  0.57896684649E+03  0.50400001928E-02 0. -1.
       -1   -1    0    0    0  501  0.00000000000E+00  0.00000000000E+00 -0.22025725575E+03  0.22025725581E+03  0.50400001928E-02 0.  1.
    10030    2    1    2    0    0  0.00000000000E+00  0.00000000000E+00  0.35870959071E+03  0.79922410229E+03  0.71420346906E+03 0.  0.
        4    1    3    3  502    0 -0.14499189629E+03  0.28301953625E+03  0.36116849394E+03  0.48121409145E+03  0.12699999809E+01 0. -1.
       -4    1    3    3    0  502  0.14499189629E+03 -0.28301953625E+03 -0.24589032286E+01  0.31801001084E+03  0.12699999809E+01 0.  1.
</event>
<event>
 5   0  0.3601475E-02  0.7238261E+03  0.7818609E-02  0.9677332E-01
        1   -1    0    0  501    0  0.00000000000E+00  0.00000000000E+00  0.55583955420E+03  0.55583955423E+03  0.50400001928E-02 0.  1.
       -1   -1    0    0    0  501  0.00000000000E+00  0.00000000000E+00 -0.23564546915E+03  0.23564546921E+03  0.50400001928E-02 0. -1.
    10030    2    1    2    0    0  0.00000000000E+00  0.00000000000E+00  0.32019408505E+03  0.79148502343E+03  0.72382614640E+03 0.  0.
        5    1    3    3  502    0  0.14828417505E+03  0.26699312731E+03 -0.52176233143E+02  0.30986767483E+03  0.46999998093E+01 0. -1.
       -5    1    3    3    0  502 -0.14828417505E+03 -0.26699312731E+03  0.37237031819E+03  0.48161734860E+03  0.46999998093E+01 0.  1.
</event>
<event>
 5   0  0.3717372E-02  0.6981065E+03  0.7818609E-02  0.9720476E-01
        1   -1    0    0  501    0  0.00000000000E+00  0.00000000000E+00  0.67125500465E+03  0.67125500467E+03  0.50400001928E-02 0. -1.
       -1   -1    0    0    0  501  0.00000000000E+00  0.00000000000E+00 -0.18150804969E+03  0.18150804976E+03  0.50400001928E-02 0.  1.
    10030    2    1    2    0    0  0.00000000000E+00  0.00000000000E+00  0.48974695496E+03  0.85276305443E+03  0.69810654424E+03 0.  0.
        3    1    3    3  502    0 -0.57169392235E+02  0.19461783671E+03 -0.10212420608E+03  0.22709866896E+03  0.10100000352E+00 0.  1.
       -3    1    3    3    0  502  0.57169392235E+02 -0.19461783671E+03  0.59187116104E+03  0.62566438547E+03  0.10100000352E+00 0. -1.
</event>
<event>
 5   0  0.6167756E-02  0.6908289E+03  0.7818609E-02  0.9733046E-01
        2   -1    0    0  501    0  0.00000000000E+00  0.00000000000E+00  0.10706183532E+04  0.10706183532E+04  0.25500000920E-02 0.  1.
       -2   -1    0    0    0  501  0.00000000000E+00  0.00000000000E+00 -0.11144134123E+03  0.11144134126E+03  0.25500000920E-02 0. -1.
    10030    2    1    2    0    0  0.00000000000E+00  0.00000000000E+00  0.95917701193E+03  0.11820596944E+04  0.69082890861E+03 0.  0.
        4    1    3    3  502    0 -0.23130767290E+03  0.19168561617E+03  0.77128990341E+03  0.82772963158E+03  0.12699999809E+01 0.  1.
       -4    1    3    3    0  502  0.23130767290E+03 -0.19168561617E+03  0.18788710851E+03  0.35433006284E+03  0.12699999809E+01 0. -1.
</event>
<event>
 5   0  0.6131198E-02  0.6560268E+03  0.7818609E-02  0.9795536E-01
        2   -1    0    0  501    0  0.00000000000E+00  0.00000000000E+00  0.37198180374E+03  0.37198180375E+03  0.25500000920E-02 0.  1.
       -2   -1    0    0    0  501  0.00000000000E+00  0.00000000000E+00 -0.28924203941E+03  0.28924203942E+03  0.25500000920E-02 0. -1.
    10030    2    1    2    0    0  0.00000000000E+00  0.00000000000E+00  0.82739764329E+02  0.66122384318E+03  0.65602675417E+03 0.  0.
        1    1    3    3  502    0  0.18188154061E+03 -0.84450790344E+02 -0.22026297228E+03  0.29787347614E+03  0.50400001928E-02 0. -1.
       -1    1    3    3    0  502 -0.18188154061E+03  0.84450790344E+02  0.30300273661E+03  0.36335036703E+03  0.50400001928E-02 0.  1.
</event>
<event>
 5   0  0.5899787E-02  0.7343220E+03  0.7818609E-02  0.9660273E-01
        2   -1    0    0  501    0  0.00000000000E+00  0.00000000000E+00  0.12435628497E+04  0.12435628497E+04  0.25500000920E-02 0.  1.
       -2   -1    0    0    0  501  0.00000000000E+00  0.00000000000E+00 -0.10840401551E+03  0.10840401554E+03  0.25500000920E-02 0. -1.
    10030    2    1    2    0    0  0.00000000000E+00  0.00000000000E+00  0.11351588342E+04  0.13519668652E+04  0.73432201781E+03 0.  0.
        2    1    3    3  502    0  0.22222858131E+03  0.29216906713E+03  0.58170929161E+03  0.68784737121E+03  0.25500000920E-02 0.  1.
       -2    1    3    3    0  502 -0.22222858131E+03 -0.29216906713E+03  0.55344954255E+03  0.66411949398E+03  0.25500000920E-02 0. -1.
</event>
<event>
 5   0  0.5987810E-02  0.7307054E+03  0.7818609E-02  0.9666116E-01
        2   -1    0    0  501    0  0.00000000000E+00  0.00000000000E+00  0.61165795075E+03  0.61165795075E+03  0.25500000920E-02 0. -1.
       -2   -1    0    0    0  501  0.00000000000E+00  0.00000000000E+00 -0.21823078031E+03  0.21823078033E+03  0.25500000920E-02 0.  1.
    10030    2    1    2    0    0  0.00000000000E+00  0.00000000000E+00  0.39342717043E+03  0.82988873108E+03  0.73070539038E+03 0.  0.
        5    1    3    3  502    0  0.15562287519E+03  0.14815581551E+03  0.53226917061E+03  0.57402193768E+03  0.46999998093E+01 0. -1.
       -5    1    3    3    0  502 -0.15562287519E+03 -0.14815581551E+03 -0.13884200018E+03  0.25586679340E+03  0.46999998093E+01 0.  1.
</event>
<event>
 5   0  0.5899787E-02  0.7004156E+03  0.7818609E-02  0.9716522E-01
       -2   -1    0    0    0  501  0.00000000000E+00  0.00000000000E+00  0.26736858215E+03  0.26736858216E+03  0.25500000920E-02 0.  1.
        2   -1    0    0  501    0  0.00000000000E+00  0.00000000000E+00 -0.45871324520E+03  0.45871324521E+03  0.25500000920E-02 0. -1.
    10030    2    1    2    0    0  0.00000000000E+00  0.00000000000E+00 -0.19134466306E+03  0.72608182737E+03  0.70041561944E+03 0.  0.
        2    1    3    3  502    0 -0.31945631962E+03  0.24656313974E+02 -0.24222184656E+03  0.40166117178E+03  0.25500000920E-02 0. -1.
       -2    1    3    3    0  502  0.31945631962E+03 -0.24656313974E+02  0.50877183500E+02  0.32442065558E+03  0.25500000920E-02 0.  1.
</event>
<event>
 5   0  0.3717372E-02  0.6965136E+03  0.7818609E-02  0.9723213E-01
        1   -1    0    0  501    0  0.00000000000E+00  0.00000000000E+00  0.11812752115E+04  0.11812752115E+04  0.50400001928E-02 0. -1.
       -1   -1    0    0    0  501  0.00000000000E+00  0.00000000000E+00 -0.10267107144E+03  0.10267107156E+03  0.50400001928E-02 0.  1.
    10030    2    1    2    0    0  0.00000000000E+00  0.00000000000E+00  0.10786041401E+04  0.12839462831E+04  0.69651357981E+03 0.  0.
        3    1    3    3  502    0 -0.31096390136E+03  0.21172348864E+01  0.82830750142E+03  0.88475779609E+03  0.10100000352E+00 0. -1.
       -3    1    3    3    0  502  0.31096390136E+03 -0.21172348864E+01  0.25029663867E+03  0.39918848701E+03  0.10100000352E+00 0.  1.
</event>
<event>
 5   0  0.6131198E-02  0.7200355E+03  0.7818609E-02  0.9683569E-01
        2   -1    0    0  501    0  0.00000000000E+00  0.00000000000E+00  0.55734022884E+03  0.55734022884E+03  0.25500000920E-02 0. -1.
       -2   -1    0    0    0  501  0.00000000000E+00  0.00000000000E+00 -0.23255595634E+03  0.23255595636E+03  0.25500000920E-02 0.  1.
    10030    2    1    2    0    0  0.00000000000E+00  0.00000000000E+00  0.32478427249E+03  0.78989618520E+03  0.72003552672E+03 0.  0.
        1    1    3    3  502    0 -0.37118282579E+02  0.35670961172E+03  0.19696624897E+03  0.40916404687E+03  0.50400001928E-02 0. -1.
       -1    1    3    3    0  502  0.37118282579E+02 -0.35670961172E+03  0.12781802352E+03  0.38073213833E+03  0.50400001928E-02 0.  1.
</event>
<event>
 5   0  0.3755872E-02  0.6938596E+03  0.7818609E-02  0.9727791E-01
        1   -1    0    0  501    0  0.00000000000E+00  0.00000000000E+00  0.27409262643E+03  0.27409262648E+03  0.50400001928E-02 0.  1.
       -1   -1    0    0    0  501  0.00000000000E+00  0.00000000000E+00 -0.43912265545E+03  0.43912265548E+03  0.50400001928E-02 0. -1.
    10030    2    1    2    0    0  0.00000000000E+00  0.00000000000E+00 -0.16503002902E+03  0.71321528196E+03  0.69385958806E+03 0.  0.
        2    1    3    3  502    0 -0.50109913860E+02  0.15242045446E+03  0.23366490456E+03  0.28344714857E+03  0.25500000920E-02 0.  1.
       -2    1    3    3    0  502  0.50109913860E+02 -0.15242045446E+03 -0.39869493358E+03  0.42976813339E+03  0.25500000920E-02 0. -1.
</event>
<event>
 5   0  0.3749730E-02  0.6340008E+03  0.7818609E-02  0.9837272E-01
       -1   -1    0    0    0  501  0.00000000000E+00  0.00000000000E+00  0.34370020007E+03  0.34370020010E+03  0.50400001928E-02 0. -1.
        1   -1    0    0  501    0  0.00000000000E+00  0.00000000000E+00 -0.29237477126E+03  0.29237477131E+03  0.50400001928E-02 0.  1.
    10030    2    1    2    0    0  0.00000000000E+00  0.00000000000E+00  0.51325428804E+02  0.63607497141E+03  0.63400084354E+03 0.  0.
        4    1    3    3  502    0  0.71474042333E+02  0.24082234374E+03  0.21964393923E+03  0.33368999522E+03  0.12699999809E+01 0. -1.
       -4    1    3    3    0  502 -0.71474042333E+02 -0.24082234374E+03 -0.16831851042E+03  0.30238497619E+03  0.12699999809E+01 0.  1.
</event>
<event>
 5   0  0.6248886E-02  0.6761312E+03  0.7818609E-02  0.9758945E-01
        2   -1    0    0  501    0  0.00000000000E+00  0.00000000000E+00  0.29802924885E+03  0.29802924887E+03  0.25500000920E-02 0. -1.
       -2   -1    0    0    0  501  0.00000000000E+00  0.00000000000E+00 -0.38348030669E+03  0.38348030669E+03  0.25500000920E-02 0.  1.
    10030    2    1    2    0    0  0.00000000000E+00  0.00000000000E+00 -0.85451057832E+02  0.68150955556E+03  0.67613119366E+03 0.  0.
        3    1    3    3  502    0 -0.21826263744E+03 -0.23711007693E+02 -0.30184544366E+03  0.37324452153E+03  0.10100000352E+00 0.  1.
       -3    1    3    3    0  502  0.21826263744E+03  0.23711007693E+02  0.21639438583E+03  0.30826503403E+03  0.10100000352E+00 0. -1.
</event>
<event>
 5   0  0.5987810E-02  0.7074461E+03  0.7818609E-02  0.9704582E-01
       -2   -1    0    0    0  501  0.00000000000E+00  0.00000000000E+00  0.94137711464E+02  0.94137711499E+02  0.25500000920E-02 0.  1.
        2   -1    0    0  501    0  0.00000000000E+00  0.00000000000E+00 -0.13291165015E+04  0.13291165015E+04  0.25500000920E-02 0. -1.
    10030    2    1    2    0    0  0.00000000000E+00  0.00000000000E+00 -0.12349787901E+04  0.14232542130E+04  0.70744607073E+03 0.  0.
        5    1    3    3  502    0  0.28232141882E+03 -0.26476082997E+02 -0.10427956276E+04  0.10806716326E+04  0.46999998093E+01 0. -1.
       -5    1    3    3    0  502 -0.28232141882E+03  0.26476082997E+02 -0.19218316243E+03  0.34258258043E+03  0.46999998093E+01 0.  1.
</event>
<event>
 5   0  0.2439375E-02  0.6987594E+03  0.7818609E-02  0.9719356E-01
       -3   -1    0    0    0  501  0.00000000000E+00  0.00000000000E+00  0.12408710650E+03  0.12408714760E+03  0.10100000352E+00 0.  1.
        3   -1    0    0  501    0  0.00000000000E+00  0.00000000000E+00 -0.98371349214E+03  0.98371349732E+03  0.10100000352E+00 0. -1.
    10030    2    1    2    0    0  0.00000000000E+00  0.00000000000E+00 -0.85962638564E+03  0.11078006449E+04  0.69875943357E+03 0.  0.
        4    1    3    3  502    0  0.13047765495E+03 -0.32079321990E+03 -0.35661273411E+03  0.49709854496E+03  0.12699999809E+01 0. -1.
       -4    1    3    3    0  502 -0.13047765495E+03  0.32079321990E+03 -0.50301365153E+03  0.61070209997E+03  0.12699999809E+01 0.  1.
</event>
<event>
 5   0  0.3601475E-02  0.6765659E+03  0.7818609E-02  0.9758169E-01
        1   -1    0    0  501    0  0.00000000000E+00  0.00000000000E+00  0.34812641538E+03  0.34812641541E+03  0.50400001928E-02 0. -1.
       -1   -1    0    0    0  501  0.00000000000E+00  0.00000000000E+00 -0.32871785310E+03  0.32871785314E+03  0.50400001928E-02 0.  1.
    10030    2    1    2    0    0  0.00000000000E+00  0.00000000000E+00  0.19408562281E+02  0.67684426855E+03  0.67656594030E+03 0.  0.
        5    1    3    3  502    0  0.58543081239E+02  0.16840045786E+03  0.29727213113E+03  0.34666816484E+03  0.46999998093E+01 0. -1.
       -5    1    3    3    0  502 -0.58543081239E+02 -0.16840045786E+03 -0.27786356885E+03  0.33017610371E+03  0.46999998093E+01 0.  1.
</event>
<event>
 5   0  0.5987810E-02  0.6855411E+03  0.7818609E-02  0.9742283E-01
        2   -1    0    0  501    0  0.00000000000E+00  0.00000000000E+00  0.39517732895E+03  0.39517732896E+03  0.25500000920E-02 0.  1.
       -2   -1    0    0    0  501  0.00000000000E+00  0.00000000000E+00 -0.29731371409E+03  0.29731371410E+03  0.25500000920E-02 0. -1.
    10030    2    1    2    0    0  0.00000000000E+00  0.00000000000E+00  0.97863614867E+02  0.69249104306E+03  0.68554106923E+03 0.  0.
        5    1    3    3  502    0 -0.32112649598E+03 -0.26746778011E+02 -0.69007725071E+02  0.32957817384E+03  0.46999998093E+01 0. -1.
       -5    1    3    3    0  502  0.32112649598E+03  0.26746778011E+02  0.16687133994E+03  0.36291286922E+03  0.46999998093E+01 0.  1.
</event>
<event>
 5   0  0.6131198E-02  0.6956049E+03  0.7818609E-02  0.9724778E-01
       -2   -1    0    0    0  501  0.00000000000E+00  0.00000000000E+00  0.56829629145E+02  0.56829629202E+02  0.25500000920E-02 0.  1.
        2   -1    0    0  501    0  0.00000000000E+00  0.00000000000E+00 -0.21285821530E+04  0.21285821530E+04  0.25500000920E-02 0. -1.
    10030    2    1    2    0    0  0.00000000000E+00  0.00000000000E+00 -0.20717525238E+04  0.21854117822E+04  0.69560487181E+03 0.  0.
        1    1    3    3  502    0 -0.11062163064E+03  0.18684535765E+03 -0.18228021485E+03  0.28350380878E+03  0.50400001928E-02 0.  1.
       -1    1    3    3    0  502  0.11062163064E+03 -0.18684535765E+03 -0.18894723090E+04  0.19019079734E+04  0.50400001928E-02 0. -1.
</event>
<event>
 5   0  0.3749730E-02  0.7198815E+03  0.7818609E-02  0.9683824E-01
        1   -1    0    0  501    0  0.00000000000E+00  0.00000000000E+00  0.12193296810E+03  0.12193296820E+03  0.50400001928E-02 0.  1.
       -1   -1    0    0    0  501  0.00000000000E+00  0.00000000000E+00 -0.10625292773E+04  0.10625292773E+04  0.50400001928E-02 0. -1.
    10030    2    1    2    0    0  0.00000000000E+00  0.00000000000E+00 -0.94059630921E+03  0.11844622455E+04  0.71988151398E+03 0.  0.
        4    1    3    3  502    0 -0.28158871192E+03 -0.15996307309E+03 -0.72875726543E+03  0.79747674088E+03  0.12699999809E+01 0. -1.
       -4    1    3    3    0  502  0.28158871192E+03  0.15996307309E+03 -0.21183904378E+03  0.38698550464E+03  0.12699999809E+01 0.  1.
</event>
<event>
 5   0  0.2439375E-02  0.6926676E+03  0.7818609E-02  0.9729854E-01
       -3   -1    0    0    0  501  0.00000000000E+00  0.00000000000E+00  0.32217773484E+03  0.32217775067E+03  0.10100000352E+00 0. -1.
        3   -1    0    0  501    0  0.00000000000E+00  0.00000000000E+00 -0.37230099215E+03  0.37230100585E+03  0.10100000352E+00 0.  1.
    10030    2    1    2    0    0  0.00000000000E+00  0.00000000000E+00 -0.50123257308E+02  0.69447875652E+03  0.69266759873E+03 0.  0.
        3    1    3    3  502    0 -0.23736895799E+03  0.12937496512E+03  0.19198811028E+03  0.33157404680E+03  0.10100000352E+00 0. -1.
       -3    1    3    3    0  502  0.23736895799E+03 -0.12937496512E+03 -0.24211136759E+03  0.36290470972E+03  0.10100000352E+00 0.  1.
</event>
<event>
 5   0  0.3601475E-02  0.7054975E+03  0.7818609E-02  0.9707877E-01
       -1   -1    0    0    0  501  0.00000000000E+00  0.00000000000E+00  0.20306584034E+03  0.20306584040E+03  0.50400001928E-02 0.  1.
        1   -1    0    0  501    0  0.00000000000E+00  0.00000000000E+00 -0.61276525991E+03  0.61276525993E+03  0.50400001928E-02 0. -1.
    10030    2    1    2    0    0  0.00000000000E+00  0.00000000000E+00 -0.40969941957E+03  0.81583110033E+03  0.70549753357E+03 0.  0.
        5    1    3    3  502    0 -0.27950897153E+03  0.31259776117E+02  0.41293690080E+02  0.28430564118E+03  0.46999998093E+01 0.  1.
       -5    1    3    3    0  502  0.27950897153E+03 -0.31259776117E+02 -0.45099310965E+03  0.53152545914E+03  0.46999998093E+01 0. -1.
</event>
<event>
 5   0  0.5987810E-02  0.6846675E+03  0.7818609E-02  0.9743818E-01
       -2   -1    0    0    0  501  0.00000000000E+00  0.00000000000E+00  0.39098808182E+03  0.39098808183E+03  0.25500000920E-02 0. -1.
        2   -1    0    0  501    0  0.00000000000E+00  0.00000000000E+00 -0.29973395361E+03  0.29973395362E+03  0.25500000920E-02 0.  1.
    10030    2    1    2    0    0  0.00000000000E+00  0.00000000000E+00  0.91254128208E+02  0.69072203545E+03  0.68466752102E+03 0.  0.
        5    1    3    3  502    0  0.32844963806E+03 -0.39721131197E+02  0.13422956181E+03  0.35706665801E+03  0.46999998093E+01 0. -1.
       -5    1    3    3    0  502 -0.32844963806E+03  0.39721131197E+02 -0.42975433602E+02  0.33365537744E+03  0.46999998093E+01 0.  1.
</event>
<event>
 5   0  0.5899787E-02  0.6926221E+03  0.7818609E-02  0.9729933E-01
        2   -1    0    0  501    0  0.00000000000E+00  0.00000000000E+00  0.19548466171E+04  0.19548466171E+04  0.25500000920E-02 0. -1.
       -2   -1    0    0    0  501  0.00000000000E+00  0.00000000000E+00 -0.61350769421E+02  0.61350769474E+02  0.25500000920E-02 0.  1.
    10030    2    1    2    0    0  0.00000000000E+00  0.00000000000E+00  0.18934958476E+04  0.20161973865E+04  0.69262210220E+03 0.  0.
        2    1    3    3  502    0 -0.12289826270E+03 -0.24758601588E+03  0.33941939660E+03  0.43773090482E+03  0.25500000920E-02 0.  1.
       -2    1    3    3    0  502  0.12289826270E+03  0.24758601588E+03  0.15540764510E+04  0.15784664817E+04  0.25500000920E-02 0. -1.
</event>
<event>
 5   0  0.6248886E-02  0.6953000E+03  0.7818609E-02  0.9725304E-01
        2   -1    0    0  501    0  0.00000000000E+00  0.00000000000E+00  0.30797454598E+03  0.30797454599E+03  0.25500000920E-02 0.  1.
       -2   -1    0    0    0  501  0.00000000000E+00  0.00000000000E+00 -0.39243676437E+03  0.39243676437E+03  0.25500000920E-02 0. -1.
    10030    2    1    2    0    0  0.00000000000E+00  0.00000000000E+00 -0.84462218381E+02  0.70041131037E+03  0.69530003406E+03 0.  0.
        3    1    3    3  502    0  0.27653504297E+03 -0.56552028029E+02  0.16221592479E+03  0.32555149873E+03  0.10100000352E+00 0.  1.
       -3    1    3    3    0  502 -0.27653504297E+03  0.56552028029E+02 -0.24667814317E+03  0.37485981164E+03  0.10100000352E+00 0. -1.
</event>
<event>
 5   0  0.3439015E-02  0.6941765E+03  0.7818609E-02  0.9727243E-01
       -1   -1    0    0    0  501  0.00000000000E+00  0.00000000000E+00  0.40269268859E+03  0.40269268862E+03  0.50400001928E-02 0.  1.
        1   -1    0    0  501    0  0.00000000000E+00  0.00000000000E+00 -0.29916174063E+03  0.29916174067E+03  0.50400001928E-02 0. -1.
    10030    2    1    2    0    0  0.00000000000E+00  0.00000000000E+00  0.10353094796E+03  0.70185442929E+03  0.69417647808E+03 0.  0.
        1    1    3    3  502    0  0.31472400428E+03 -0.12744598155E+03  0.12450963461E+03  0.36165774735E+03  0.50400001928E-02 0. -1.
       -1    1    3    3    0  502 -0.31472400428E+03  0.12744598155E+03 -0.20978686650E+02  0.34019668194E+03  0.50400001928E-02 0.  1.
</event>
<event>
 5   0  0.6248886E-02  0.7084352E+03  0.7818609E-02  0.9702915E-01
        2   -1    0    0  501    0  0.00000000000E+00  0.00000000000E+00  0.12951644657E+04  0.12951644657E+04  0.25500000920E-02 0.  1.
       -2   -1    0    0    0  501  0.00000000000E+00  0.00000000000E+00 -0.96875819068E+02  0.96875819102E+02  0.25500000920E-02 0. -1.
    10030    2    1    2    0    0  0.00000000000E+00  0.00000000000E+00  0.11982886467E+04  0.13920402848E+04  0.70843522914E+03 0.  0.
        3    1    3    3  502    0 -0.16728128646E+03 -0.17706576739E+03  0.93824128556E+02  0.26103312449E+03  0.10100000352E+00 0. -1.
       -3    1    3    3    0  502  0.16728128646E+03  0.17706576739E+03  0.11044645181E+04  0.11310071603E+04  0.10100000352E+00 0.  1.
</event>
<event>
 5   0  0.5987810E-02  0.7098545E+03  0.7818609E-02  0.9700527E-01
        2   -1    0    0  501    0  0.00000000000E+00  0.00000000000E+00  0.42754176518E+03  0.42754176518E+03  0.25500000920E-02 0.  1.
       -2   -1    0    0    0  501  0.00000000000E+00  0.00000000000E+00 -0.29464572159E+03  0.29464572160E+03  0.25500000920E-02 0. -1.
    10030    2    1    2    0    0  0.00000000000E+00  0.00000000000E+00  0.13289604359E+03  0.72218748678E+03  0.70985449753E+03 0.  0.
        5    1    3    3  502    0 -0.22330173556E+03 -0.17753745116E+03 -0.14833128604E+03  0.32157032215E+03  0.46999998093E+01 0. -1.
       -5    1    3    3    0  502  0.22330173556E+03  0.17753745116E+03  0.28122732963E+03  0.40061716463E+03  0.46999998093E+01 0.  1.
</event>
<event>
 5   0  0.3749730E-02  0.6980045E+03  0.7818609E-02  0.9720651E-01
       -1   -1    0    0    0  501  0.00000000000E+00  0.00000000000E+00  0.28059019012E+03  0.28059019016E+03  0.50400001928E-02 0. -1.
        1   -1    0    0  501    0  0.00000000000E+00  0.00000000000E+00 -0.43409419600E+03  0.43409419603E+03  0.50400001928E-02 0.  1.
    10030    2    1    2    0    0  0.00000000000E+00  0.00000000000E+00 -0.15350400589E+03  0.71468438619E+03  0.69800450718E+03 0.  0.
        4    1    3    3  502    0 -0.24032399464E+03  0.24830593816E+03 -0.12680262441E+03  0.36809235225E+03  0.12699999809E+01 0. -1.
       -4    1    3    3    0  502  0.24032399464E+03 -0.24830593816E+03 -0.26701381473E+02  0.34659203395E+03  0.12699999809E+01 0.  1.
</event>
<event>
 5   0  0.3755872E-02  0.7401210E+03  0.7818609E-02  0.9650978E-01
       -1   -1    0    0    0  501  0.00000000000E+00  0.00000000000E+00  0.60167757065E+03  0.60167757067E+03  0.50400001928E-02 0. -1.
        1   -1    0    0  501    0  0.00000000000E+00  0.00000000000E+00 -0.22760492557E+03  0.22760492562E+03  0.50400001928E-02 0.  1.
    10030    2    1    2    0    0  0.00000000000E+00  0.00000000000E+00  0.37407264508E+03  0.82928249629E+03  0.74012101366E+03 0.  0.
        2    1    3    3  502    0 -0.95569380177E+02  0.29184930080E+03 -0.44321512168E+02  0.31028038490E+03  0.25500000920E-02 0.  1.
       -2    1    3    3    0  502  0.95569380177E+02 -0.29184930080E+03  0.41839415725E+03  0.51900211139E+03  0.25500000920E-02 0. -1.
</event>
<event>
 5   0  0.6167756E-02  0.7039846E+03  0.7818609E-02  0.9710442E-01
       -2   -1    0    0    0  501  0.00000000000E+00  0.00000000000E+00  0.17129068998E+03  0.17129069000E+03  0.25500000920E-02 0. -1.
        2   -1    0    0  501    0  0.00000000000E+00  0.00000000000E+00 -0.72332344870E+03  0.72332344871E+03  0.25500000920E-02 0.  1.
    10030    2    1    2    0    0  0.00000000000E+00  0.00000000000E+00 -0.55203275872E+03  0.89461413871E+03  0.70398458114E+03 0.  0.
        4    1    3    3  502    0  0.17359312033E+03  0.27898075354E+03 -0.43641827495E+03  0.54628505003E+03  0.12699999809E+01 0.  1.
       -4    1    3    3    0  502 -0.17359312033E+03 -0.27898075354E+03 -0.11561448377E+03  0.34832908869E+03  0.12699999809E+01 0. -1.
</event>
<event>
 5   0  0.6167756E-02  0.7119819E+03  0.7818609E-02  0.9696958E-01
        2   -1    0    0  501    0  0.00000000000E+00  0.00000000000E+00  0.50446897084E+03  0.50446897085E+03  0.25500000920E-02 0. -1.
       -2   -1    0    0    0  501  0.00000000000E+00  0.00000000000E+00 -0.25121378590E+03  0.25121378591E+03  0.25500000920E-02 0.  1.
    10030    2    1    2    0    0  0.00000000000E+00  0.00000000000E+00  0.25325518494E+03  0.75568275677E+03  0.71198191000E+03 0.  0.
        4    1    3    3  502    0  0.22477651527E+03  0.18366489327E+03 -0.92105816372E+02  0.30453631827E+03  0.12699999809E+01 0.  1.
       -4    1    3    3    0  502 -0.22477651527E+03 -0.18366489327E+03  0.34536100131E+03  0.45114643849E+03  0.12699999809E+01 0. -1.
</event>
<event>
 5   0  0.5899787E-02  0.6968794E+03  0.7818609E-02  0.9722584E-01
       -2   -1    0    0    0  501  0.00000000000E+00  0.00000000000E+00  0.16168523030E+03  0.16168523032E+03  0.25500000920E-02 0. -1.
        2   -1    0    0  501    0  0.00000000000E+00  0.00000000000E+00 -0.75090490672E+03  0.75090490672E+03  0.25500000920E-02 0.  1.
    10030    2    1    2    0    0  0.00000000000E+00  0.00000000000E+00 -0.58921967642E+03  0.91259013704E+03  0.69687942367E+03 0.  0.
        2    1    3    3  502    0  0.21927721112E+03 -0.78142696407E+02 -0.63413509641E+03  0.67551172959E+03  0.25500000920E-02 0.  1.
       -2    1    3    3    0  502 -0.21927721112E+03  0.78142696407E+02  0.44915419983E+02  0.23707840745E+03  0.25500000920E-02 0. -1.
</event>
<event>
 5   0  0.6131198E-02  0.7071968E+03  0.7818609E-02  0.9705003E-01
        2   -1    0    0  501    0  0.00000000000E+00  0.00000000000E+00  0.11011396221E+04  0.11011396221E+04  0.25500000920E-02 0. -1.
       -2   -1    0    0    0  501  0.00000000000E+00  0.00000000000E+00 -0.11354766492E+03  0.11354766495E+03  0.25500000920E-02 0.  1.
    10030    2    1    2    0    0  0.00000000000E+00  0.00000000000E+00  0.98759195719E+03  0.12146872871E+04  0.70719681238E+03 0.  0.
        1    1    3    3  502    0 -0.19415737588E+03 -0.14348319469E+03  0.93754877726E+03  0.96813337074E+03  0.50400001928E-02 0. -1.
       -1    1    3    3    0  502  0.19415737588E+03  0.14348319469E+03  0.50043179920E+02  0.24655391631E+03  0.50400001928E-02 0.  1.
</event>
<event>
 5   0  0.6167756E-02  0.6985284E+03  0.7818609E-02  0.9719752E-01
        2   -1    0    0  501    0  0.00000000000E+00  0.00000000000E+00  0.21481722283E+04  0.21481722283E+04  0.25500000920E-02 0.  1.
       -2   -1    0    0    0  501  0.00000000000E+00  0.00000000000E+00 -0.56785709014E+02  0.56785709071E+02  0.25500000920E-02 0. -1.
    10030    2    1    2    0    0  0.00000000000E+00  0.00000000000E+00  0.20913865193E+04  0.22049579374E+04  0.69852840496E+03 0.  0.
        4    1    3    3  502    0 -0.22751628885E+02 -0.28442467937E+03  0.16814815257E+04  0.17055195012E+04  0.12699999809E+01 0.  1.
       -4    1    3    3    0  502  0.22751628885E+02  0.28442467937E+03  0.40990499361E+03  0.49943843619E+03  0.12699999809E+01 0. -1.
</event>
<event>
 5   0  0.6248886E-02  0.7233963E+03  0.7818609E-02  0.9678037E-01
        2   -1    0    0  501    0  0.00000000000E+00  0.00000000000E+00  0.18120094658E+04  0.18120094658E+04  0.25500000920E-02 0.  1.
       -2   -1    0    0    0  501  0.00000000000E+00  0.00000000000E+00 -0.72199152003E+02  0.72199152048E+02  0.25500000920E-02 0. -1.
    10030    2    1    2    0    0  0.00000000000E+00  0.00000000000E+00  0.17398103138E+04  0.18842086179E+04  0.72339628668E+03 0.  0.
        3    1    3    3  502    0 -0.73913834502E+02 -0.19574519839E+03  0.16383759520E+04  0.16516825385E+04  0.10100000352E+00 0.  1.
       -3    1    3    3    0  502  0.73913834502E+02  0.19574519839E+03  0.10143436176E+03  0.23252607933E+03  0.10100000352E+00 0. -1.
</event>
<event>
 5   0  0.2439375E-02  0.7020005E+03  0.7818609E-02  0.9713817E-01
        3   -1    0    0  501    0  0.00000000000E+00  0.00000000000E+00  0.44536477923E+03  0.44536479068E+03  0.10100000352E+00 0.  1.
       -3   -1    0    0    0  501  0.00000000000E+00  0.00000000000E+00 -0.27662976906E+03  0.27662978750E+03  0.10100000352E+00 0. -1.
    10030    2    1    2    0    0  0.00000000000E+00  0.00000000000E+00  0.16873501017E+03  0.72199457818E+03  0.70200047526E+03 0.  0.
        3    1    3    3  502    0 -0.34490917899E+03  0.38515427378E+02  0.30380775196E+02  0.34838022562E+03  0.10100000352E+00 0. -1.
       -3    1    3    3    0  502  0.34490917899E+03 -0.38515427378E+02  0.13835423497E+03  0.37361435256E+03  0.10100000352E+00 0.  1.
</event>
<event>
 5   0  0.3439015E-02  0.6908375E+03  0.7818609E-02  0.9733031E-01
       -1   -1    0    0    0  501  0.00000000000E+00  0.00000000000E+00  0.50901052710E+03  0.50901052712E+03  0.50400001928E-02 0.  1.
        1   -1    0    0  501    0  0.00000000000E+00  0.00000000000E+00 -0.23440398472E+03  0.23440398477E+03  0.50400001928E-02 0. -1.
    10030    2    1    2    0    0  0.00000000000E+00  0.00000000000E+00  0.27460654238E+03  0.74341451189E+03  0.69083745076E+03 0.  0.
        1    1    3    3  502    0 -0.32936079131E+03  0.94308661266E+02  0.18471844010E+03  0.38922173190E+03  0.50400001928E-02 0. -1.
       -1    1    3    3    0  502  0.32936079131E+03 -0.94308661266E+02  0.89888102285E+02  0.35419278000E+03  0.50400001928E-02 0.  1.
</event>
<event>
 5   0  0.3439015E-02  0.6130524E+03  0.7818609E-02  0.9878690E-01
       -1   -1    0    0    0  501  0.00000000000E+00  0.00000000000E+00  0.15282713482E+03  0.15282713490E+03  0.50400001928E-02 0. -1.
        1   -1    0    0  501    0  0.00000000000E+00  0.00000000000E+00 -0.61480127323E+03  0.61480127325E+03  0.50400001928E-02 0.  1.
    10030    2    1    2    0    0  0.00000000000E+00  0.00000000000E+00 -0.46197413841E+03  0.76762840814E+03  0.61305241899E+03 0.  0.
        1    1    3    3  502    0  0.79646663769E+02 -0.20111513377E+02 -0.60076177613E+03  0.60635202293E+03  0.50400001928E-02 0.  1.
       -1    1    3    3    0  502 -0.79646663769E+02  0.20111513377E+02  0.13878763772E+03  0.16127638522E+03  0.50400001928E-02 0. -1.
</event>
<event>
 5   0  0.3749730E-02  0.6727222E+03  0.7818609E-02  0.9765053E-01
        1   -1    0    0  501    0  0.00000000000E+00  0.00000000000E+00  0.36351247077E+03  0.36351247081E+03  0.50400001928E-02 0.  1.
       -1   -1    0    0    0  501  0.00000000000E+00  0.00000000000E+00 -0.31123771737E+03  0.31123771741E+03  0.50400001928E-02 0. -1.
    10030    2    1    2    0    0  0.00000000000E+00  0.00000000000E+00  0.52274753404E+02  0.67475018822E+03  0.67272220615E+03 0.  0.
        4    1    3    3  502    0 -0.11251555832E+03  0.89745812908E+02  0.33106555285E+03  0.36099871881E+03  0.12699999809E+01 0.  1.
       -4    1    3    3    0  502  0.11251555832E+03 -0.89745812908E+02 -0.27879079945E+03  0.31375146941E+03  0.12699999809E+01 0. -1.
</event>
<event>
 5   0  0.3439015E-02  0.7006030E+03  0.7818609E-02  0.9716202E-01
       -1   -1    0    0    0  501  0.00000000000E+00  0.00000000000E+00  0.32045118468E+03  0.32045118472E+03  0.50400001928E-02 0. -1.
        1   -1    0    0  501    0  0.00000000000E+00  0.00000000000E+00 -0.38293236103E+03  0.38293236106E+03  0.50400001928E-02 0.  1.
    10030    2    1    2    0    0  0.00000000000E+00  0.00000000000E+00 -0.62481176354E+02  0.70338354578E+03  0.70060296536E+03 0.  0.
        1    1    3    3  502    0 -0.25573276172E+03  0.23923278706E+03 -0.40195456715E+02  0.35248722897E+03  0.50400001928E-02 0. -1.
       -1    1    3    3    0  502  0.25573276172E+03 -0.23923278706E+03 -0.22285719638E+02  0.35089631681E+03  0.50400001928E-02 0.  1.
</event>
<event>
 5   0  0.6131198E-02  0.7108028E+03  0.7818609E-02  0.9698934E-01
        2   -1    0    0  501    0  0.00000000000E+00  0.00000000000E+00  0.65929549924E+03  0.65929549925E+03  0.25500000920E-02 0.  1.
       -2   -1    0    0    0  501  0.00000000000E+00  0.00000000000E+00 -0.19158352203E+03  0.19158352205E+03  0.25500000920E-02 0. -1.
    10030    2    1    2    0    0  0.00000000000E+00  0.00000000000E+00  0.46771197721E+03  0.85087902130E+03  0.71080279632E+03 0.  0.
        1    1    3    3  502    0  0.33792900604E+03 -0.10716698369E+02  0.10272766222E+03  0.35336076941E+03  0.50400001928E-02 0. -1.
       -1    1    3    3    0  502 -0.33792900604E+03  0.10716698369E+02  0.36498431499E+03  0.49751825189E+03  0.50400001928E-02 0.  1.
</event>
<event>
 5   0  0.6167756E-02  0.6898624E+03  0.7818609E-02  0.9734728E-01
        2   -1    0    0  501    0  0.00000000000E+00  0.00000000000E+00  0.10620112060E+04  0.10620112060E+04  0.25500000920E-02 0.  1.
       -2   -1    0    0    0  501  0.00000000000E+00  0.00000000000E+00 -0.11203037848E+03  0.11203037851E+03  0.25500000920E-02 0. -1.
    10030    2    1    2    0    0  0.00000000000E+00  0.00000000000E+00  0.94998082752E+03  0.11740415845E+04  0.68986235549E+03 0.  0.
        4    1    3    3  502    0  0.23239255599E+03 -0.88321914595E+02  0.68078189009E+02  0.25776600512E+03  0.12699999809E+01 0. -1.
       -4    1    3    3    0  502 -0.23239255599E+03  0.88321914595E+02  0.88190263851E+03  0.91627557939E+03  0.12699999809E+01 0.  1.
</event>
<event>
 5   0  0.5899787E-02  0.6991247E+03  0.7818609E-02  0.9718730E-01
        2   -1    0    0  501    0  0.00000000000E+00  0.00000000000E+00  0.78824782925E+03  0.78824782926E+03  0.25500000920E-02 0.  1.
       -2   -1    0    0    0  501  0.00000000000E+00  0.00000000000E+00 -0.15501954922E+03  0.15501954924E+03  0.25500000920E-02 0. -1.
    10030    2    1    2    0    0  0.00000000000E+00  0.00000000000E+00  0.63322828003E+03  0.94326737850E+03  0.69912466177E+03 0.  0.
        2    1    3    3  502    0 -0.71081206591E+02  0.16946075226E+02  0.77782784063E+03  0.78125274852E+03  0.25500000920E-02 0.  1.
       -2    1    3    3    0  502  0.71081206591E+02 -0.16946075226E+02 -0.14459956060E+03  0.16201462998E+03  0.25500000920E-02 0. -1.
</event>
<event>
 5   0  0.3601475E-02  0.7200487E+03  0.7818609E-02  0.9683548E-01
       -1   -1    0    0    0  501  0.00000000000E+00  0.00000000000E+00  0.27467116783E+03  0.27467116788E+03  0.50400001928E-02 0. -1.
        1   -1    0    0  501    0  0.00000000000E+00  0.00000000000E+00 -0.47190070203E+03  0.47190070205E+03  0.50400001928E-02 0.  1.
    10030    2    1    2    0    0  0.00000000000E+00  0.00000000000E+00 -0.19722953420E+03  0.74657186993E+03  0.72004865656E+03 0.  0.
        5    1    3    3  502    0  0.17460775812E+03  0.18020271560E+03  0.16903044370E+03  0.30257935951E+03  0.46999998093E+01 0. -1.
       -5    1    3    3    0  502 -0.17460775812E+03 -0.18020271560E+03 -0.36625997790E+03  0.44399251042E+03  0.46999998093E+01 0.  1.
</event>
<event>
 5   0  0.3717372E-02  0.7050820E+03  0.7818609E-02  0.9708581E-01
        1   -1    0    0  501    0  0.00000000000E+00  0.00000000000E+00  0.35337038942E+03  0.35337038945E+03  0.50400001928E-02 0.  1.
       -1   -1    0    0    0  501  0.00000000000E+00  0.00000000000E+00 -0.35171355151E+03  0.35171355155E+03  0.50400001928E-02 0. -1.
    10030    2    1    2    0    0  0.00000000000E+00  0.00000000000E+00  0.16568379075E+01  0.70508394100E+03  0.70508199434E+03 0.  0.
        3    1    3    3  502    0  0.28136454983E+03  0.15447866679E+03 -0.14496456257E+03  0.35219937961E+03  0.10100000352E+00 0.  1.
       -3    1    3    3    0  502 -0.28136454983E+03 -0.15447866679E+03  0.14662140048E+03  0.35288456140E+03  0.10100000352E+00 0. -1.
</event>
<event>
 5   0  0.6131198E-02  0.7698619E+03  0.7818609E-02  0.9604695E-01
       -2   -1    0    0    0  501  0.00000000000E+00  0.00000000000E+00  0.15813464773E+03  0.15813464775E+03  0.25500000920E-02 0.  1.
        2   -1    0    0  501    0  0.00000000000E+00  0.00000000000E+00 -0.93699792481E+03  0.93699792481E+03  0.25500000920E-02 0. -1.
    10030    2    1    2    0    0  0.00000000000E+00  0.00000000000E+00 -0.77886327708E+03  0.10951325726E+04  0.76986190133E+03 0.  0.
        1    1    3    3  502    0 -0.18478275354E+03 -0.25628129633E+03 -0.70221161221E+03  0.77001682916E+03  0.50400001928E-02 0. -1.
       -1    1    3    3    0  502  0.18478275354E+03  0.25628129633E+03 -0.76651664872E+02  0.32511574340E+03  0.50400001928E-02 0.  1.
</event>
<event>
 5   0  0.3749730E-02  0.6999216E+03  0.7818609E-02  0.9717366E-01
       -1   -1    0    0    0  501  0.00000000000E+00  0.00000000000E+00  0.24921777453E+03  0.24921777458E+03  0.50400001928E-02 0. -1.
        1   -1    0    0  501    0  0.00000000000E+00  0.00000000000E+00 -0.49142786937E+03  0.49142786939E+03  0.50400001928E-02 0.  1.
    10030    2    1    2    0    0  0.00000000000E+00  0.00000000000E+00 -0.24221009484E+03  0.74064564397E+03  0.69992159554E+03 0.  0.
        4    1    3    3  502    0  0.73338161772E+02 -0.19624618196E+03 -0.41773623293E+03  0.46732881690E+03  0.12699999809E+01 0.  1.
       -4    1    3    3    0  502 -0.73338161772E+02  0.19624618196E+03  0.17552613809E+03  0.27331682707E+03  0.12699999809E+01 0. -1.
</event>
<event>
 5   0  0.3439015E-02  0.6972169E+03  0.7818609E-02  0.9722003E-01
       -1   -1    0    0    0  501  0.00000000000E+00  0.00000000000E+00  0.26826097944E+03  0.26826097949E+03  0.50400001928E-02 0. -1.
        1   -1    0    0  501    0  0.00000000000E+00  0.00000000000E+00 -0.45302101745E+03  0.45302101748E+03  0.50400001928E-02 0.  1.
    10030    2    1    2    0    0  0.00000000000E+00  0.00000000000E+00 -0.18476003801E+03  0.72128199696E+03  0.69721693001E+03 0.  0.
        1    1    3    3  502    0  0.19545474759E+03 -0.14445680647E+03 -0.35092111569E+03  0.42686761034E+03  0.50400001928E-02 0.  1.
       -1    1    3    3    0  502 -0.19545474759E+03  0.14445680647E+03  0.16616107768E+03  0.29441438662E+03  0.50400001928E-02 0. -1.
</event>
<event>
 5   0  0.3439015E-02  0.7261072E+03  0.7818609E-02  0.9673598E-01
        1   -1    0    0  501    0  0.00000000000E+00  0.00000000000E+00  0.75651431327E+03  0.75651431329E+03  0.50400001928E-02 0. -1.
       -1   -1    0    0    0  501  0.00000000000E+00  0.00000000000E+00 -0.17423058658E+03  0.17423058665E+03  0.50400001928E-02 0.  1.
    10030    2    1    2    0    0  0.00000000000E+00  0.00000000000E+00  0.58228372669E+03  0.93074489995E+03  0.72610724442E+03 0.  0.
        1    1    3    3  502    0 -0.19212599110E+03  0.27517406506E+03  0.11364324475E+03  0.35432746103E+03  0.50400001928E-02 0.  1.
       -1    1    3    3    0  502  0.19212599110E+03 -0.27517406506E+03  0.46864048195E+03  0.57641743891E+03  0.50400001928E-02 0. -1.
</event>
<event>
 5   0  0.2439375E-02  0.6622229E+03  0.7818609E-02  0.9784110E-01
        3   -1    0    0  501    0  0.00000000000E+00  0.00000000000E+00  0.10510768581E+04  0.10510768630E+04  0.10100000352E+00 0. -1.
       -3   -1    0    0    0  501  0.00000000000E+00  0.00000000000E+00 -0.10430709655E+03  0.10430714544E+03  0.10100000352E+00 0.  1.
    10030    2    1    2    0    0  0.00000000000E+00  0.00000000000E+00  0.94676976156E+03  0.11553840084E+04  0.66222294242E+03 0.  0.
        4    1    3    3  502    0 -0.28734194226E+03  0.16434191435E+03  0.48684705332E+03  0.58872346888E+03  0.12699999809E+01 0. -1.
       -4    1    3    3    0  502  0.28734194226E+03 -0.16434191435E+03  0.45992270825E+03  0.56666053952E+03  0.12699999809E+01 0.  1.
</event>
<event>
 5   0  0.3601475E-02  0.6785711E+03  0.7818609E-02  0.9754597E-01
       -1   -1    0    0    0  501  0.00000000000E+00  0.00000000000E+00  0.55762434656E+02  0.55762434884E+02  0.50400001928E-02 0. -1.
        1   -1    0    0  501    0  0.00000000000E+00  0.00000000000E+00 -0.20643770930E+04  0.20643770930E+04  0.50400001928E-02 0.  1.
    10030    2    1    2    0    0  0.00000000000E+00  0.00000000000E+00 -0.20086146583E+04  0.21201395279E+04  0.67857112524E+03 0.  0.
        5    1    3    3  502    0 -0.27856958181E+03 -0.18522644420E+03 -0.82804045474E+03  0.89307498690E+03  0.46999998093E+01 0. -1.
       -5    1    3    3    0  502  0.27856958181E+03  0.18522644420E+03 -0.11805742036E+04  0.12270645410E+04  0.46999998093E+01 0.  1.
</event>
<event>
 5   0  0.3717372E-02  0.6205085E+03  0.7818609E-02  0.9863748E-01
        1   -1    0    0  501    0  0.00000000000E+00  0.00000000000E+00  0.77934214695E+03  0.77934214697E+03  0.50400001928E-02 0.  1.
       -1   -1    0    0    0  501  0.00000000000E+00  0.00000000000E+00 -0.12351146615E+03  0.12351146625E+03  0.50400001928E-02 0. -1.
    10030    2    1    2    0    0  0.00000000000E+00  0.00000000000E+00  0.65583068081E+03  0.90285361321E+03  0.62050847296E+03 0.  0.
        3    1    3    3  502    0 -0.21738525789E+02  0.24379885084E+03  0.50516059486E+02  0.24992463993E+03  0.10100000352E+00 0. -1.
       -3    1    3    3    0  502  0.21738525789E+02 -0.24379885084E+03  0.60531462132E+03  0.65292897329E+03  0.10100000352E+00 0.  1.
</event>
<event>
 5   0  0.6167756E-02  0.7081325E+03  0.7818609E-02  0.9703425E-01
       -2   -1    0    0    0  501  0.00000000000E+00  0.00000000000E+00  0.61984432836E+02  0.61984432888E+02  0.25500000920E-02 0.  1.
        2   -1    0    0  501    0  0.00000000000E+00  0.00000000000E+00 -0.20224903187E+04  0.20224903187E+04  0.25500000920E-02 0. -1.
    10030    2    1    2    0    0  0.00000000000E+00  0.00000000000E+00 -0.19605058858E+04  0.20844747516E+04  0.70813251691E+03 0.  0.
        4    1    3    3  502    0 -0.44131905882E+02  0.57305366667E+02  0.39998995779E+02  0.82662341661E+02  0.12699999809E+01 0.  1.
       -4    1    3    3    0  502  0.44131905882E+02 -0.57305366667E+02 -0.20005048816E+04  0.20018124099E+04  0.12699999809E+01 0. -1.
</event>
<event>
 5   0  0.6131198E-02  0.6193840E+03  0.7818609E-02  0.9865987E-01
       -2   -1    0    0    0  501  0.00000000000E+00  0.00000000000E+00  0.61677984737E+02  0.61677984790E+02  0.25500000920E-02 0. -1.
        2   -1    0    0  501    0  0.00000000000E+00  0.00000000000E+00 -0.15549978855E+04  0.15549978855E+04  0.25500000920E-02 0.  1.
    10030    2    1    2    0    0  0.00000000000E+00  0.00000000000E+00 -0.14933199008E+04  0.16166758703E+04  0.61938400332E+03 0.  0.
        1    1    3    3  502    0  0.86842799361E+02  0.19755975090E+03 -0.13264249861E+04  0.13438656074E+04  0.50400001928E-02 0.  1.
       -1    1    3    3    0  502 -0.86842799361E+02 -0.19755975090E+03 -0.16689491467E+03  0.27281026290E+03  0.50400001928E-02 0. -1.
</event>
<event>
 5   0  0.3749730E-02  0.6999523E+03  0.7818609E-02  0.9717314E-01
       -1   -1    0    0    0  501  0.00000000000E+00  0.00000000000E+00  0.99798351978E+02  0.99798352106E+02  0.50400001928E-02 0.  1.
        1   -1    0    0  501    0  0.00000000000E+00  0.00000000000E+00 -0.12273079761E+04  0.12273079761E+04  0.50400001928E-02 0. -1.
    10030    2    1    2    0    0  0.00000000000E+00  0.00000000000E+00 -0.11275096242E+04  0.13271063282E+04  0.69995232260E+03 0.  0.
        4    1    3    3  502    0 -0.21942195187E+03  0.27114444659E+03 -0.61792843511E+03  0.70957907783E+03  0.12699999809E+01 0.  1.
       -4    1    3    3    0  502  0.21942195187E+03 -0.27114444659E+03 -0.50958118904E+03  0.61752725042E+03  0.12699999809E+01 0. -1.
</event>
<event>
 5   0  0.5987810E-02  0.7295969E+03  0.7818609E-02  0.9667915E-01
        2   -1    0    0  501    0  0.00000000000E+00  0.00000000000E+00  0.46766277954E+03  0.46766277954E+03  0.25500000920E-02 0. -1.
       -2   -1    0    0    0  501  0.00000000000E+00  0.00000000000E+00 -0.28455951577E+03  0.28455951578E+03  0.25500000920E-02 0.  1.
    10030    2    1    2    0    0  0.00000000000E+00  0.00000000000E+00  0.18310326377E+03  0.75222229533E+03  0.72959685881E+03 0.  0.
        5    1    3    3  502    0 -0.22247430309E+02 -0.28004323345E+03 -0.14833658052E+03  0.31771841602E+03  0.46999998093E+01 0.  1.
       -5    1    3    3    0  502  0.22247430309E+02  0.28004323345E+03  0.33143984428E+03  0.43450387931E+03  0.46999998093E+01 0. -1.
</event>
<event>
 5   0  0.3749730E-02  0.7090020E+03  0.7818609E-02  0.9701960E-01
        1   -1    0    0  501    0  0.00000000000E+00  0.00000000000E+00  0.98949651896E+03  0.98949651897E+03  0.50400001928E-02 0. -1.
       -1   -1    0    0    0  501  0.00000000000E+00  0.00000000000E+00 -0.12700496147E+03  0.12700496157E+03  0.50400001928E-02 0.  1.
    10030    2    1    2    0    0  0.00000000000E+00  0.00000000000E+00  0.86249155749E+03  0.11165014805E+04  0.70900202348E+03 0.  0.
        4    1    3    3  502    0 -0.33751200854E+03  0.88841356167E+02  0.52911133762E+03  0.63385137293E+03  0.12699999809E+01 0. -1.
       -4    1    3    3    0  502  0.33751200854E+03 -0.88841356167E+02  0.33338021988E+03  0.48265010761E+03  0.12699999809E+01 0.  1.
</event>
<event>
 5   0  0.3439015E-02  0.6937398E+03  0.7818609E-02  0.9727998E-01
       -1   -1    0    0    0  501  0.00000000000E+00  0.00000000000E+00  0.11515606280E+03  0.11515606291E+03  0.50400001928E-02 0.  1.
        1   -1    0    0  501    0  0.00000000000E+00  0.00000000000E+00 -0.10448317672E+04  0.10448317672E+04  0.50400001928E-02 0. -1.
    10030    2    1    2    0    0  0.00000000000E+00  0.00000000000E+00 -0.92967570443E+03  0.11599878302E+04  0.69373975718E+03 0.  0.
        1    1    3    3  502    0  0.56087452455E+02 -0.28484895159E+03 -0.78224229125E+03  0.83437864894E+03  0.50400001928E-02 0. -1.
       -1    1    3    3    0  502 -0.56087452455E+02  0.28484895159E+03 -0.14743341318E+03  0.32560918122E+03  0.50400001928E-02 0.  1.
</event>
<event>
 5   0  0.3439015E-02  0.7146149E+03  0.7818609E-02  0.9692560E-01
        1   -1    0    0  501    0  0.00000000000E+00  0.00000000000E+00  0.19819529430E+03  0.19819529436E+03  0.50400001928E-02 0. -1.
       -1   -1    0    0    0  501  0.00000000000E+00  0.00000000000E+00 -0.64415562368E+03  0.64415562370E+03  0.50400001928E-02 0.  1.
    10030    2    1    2    0    0  0.00000000000E+00  0.00000000000E+00 -0.44596032938E+03  0.84235091806E+03  0.71461489893E+03 0.  0.
        1    1    3    3  502    0 -0.23610066882E+03  0.25153838087E+03 -0.11332788817E+03  0.36312297246E+03  0.50400001928E-02 0. -1.
       -1    1    3    3    0  502  0.23610066882E+03 -0.25153838087E+03 -0.33263244121E+03  0.47922794560E+03  0.50400001928E-02 0.  1.
</event>
<event>
 5   0  0.3717372E-02  0.5436249E+03  0.7818609E-02  0.1002980E+00
        1   -1    0    0  501    0  0.00000000000E+00  0.00000000000E+00  0.32340402662E+03  0.32340402666E+03  0.50400001928E-02 0. -1.
       -1   -1    0    0    0  501  0.00000000000E+00  0.00000000000E+00 -0.22845114816E+03  0.22845114821E+03  0.50400001928E-02 0.  1.
    10030    2    1    2    0    0  0.00000000000E+00  0.00000000000E+00  0.94952878465E+02  0.55185517488E+03  0.54362494875E+03 0.  0.
        3    1    3    3  502    0  0.26989226033E+03  0.28395336500E+02  0.63001228740E+02  0.27859880177E+03  0.10100000352E+00 0. -1.
       -3    1    3    3    0  502 -0.26989226033E+03 -0.28395336500E+02  0.31951649725E+02  0.27325637311E+03  0.10100000352E+00 0.  1.
</event>
<event>
 5   0  0.5987810E-02  0.6975996E+03  0.7818609E-02  0.9721346E-01
       -2   -1    0    0    0  501  0.00000000000E+00  0.00000000000E+00  0.13426445807E+03  0.13426445809E+03  0.25500000920E-02 0. -1.
        2   -1    0    0  501    0  0.00000000000E+00  0.00000000000E+00 -0.90613177290E+03  0.90613177290E+03  0.25500000920E-02 0.  1.
    10030    2    1    2    0    0  0.00000000000E+00  0.00000000000E+00 -0.77186731483E+03  0.10403962310E+04  0.69759957409E+03 0.  0.
        5    1    3    3  502    0 -0.12420398706E+03  0.64766415479E+01 -0.87188719579E+03  0.88072580834E+03  0.46999998093E+01 0.  1.
       -5    1    3    3    0  502  0.12420398706E+03 -0.64766415479E+01  0.10001988096E+03  0.15967042266E+03  0.46999998093E+01 0. -1.
</event>
<event>
 5   0  0.6131198E-02  0.7046277E+03  0.7818609E-02  0.9709351E-01
       -2   -1    0    0    0  501  0.00000000000E+00  0.00000000000E+00  0.22034359280E+03  0.22034359281E+03  0.25500000920E-02 0. -1.
        2   -1    0    0  501    0  0.00000000000E+00  0.00000000000E+00 -0.56332502761E+03  0.56332502761E+03  0.25500000920E-02 0.  1.
    10030    2    1    2    0    0  0.00000000000E+00  0.00000000000E+00 -0.34298143481E+03  0.78366862043E+03  0.70462773293E+03 0.  0.
        1    1    3    3  502    0 -0.11012053474E+03  0.33459762598E+03 -0.17878008207E+03  0.39502458310E+03  0.50400001928E-02 0. -1.
       -1    1    3    3    0  502  0.11012053474E+03 -0.33459762598E+03 -0.16420135274E+03  0.38864403733E+03  0.50400001928E-02 0.  1.
</event>
<event>
 5   0  0.3749730E-02  0.7148081E+03  0.7818609E-02  0.9692238E-01
        1   -1    0    0  501    0  0.00000000000E+00  0.00000000000E+00  0.14078864808E+04  0.14078864808E+04  0.50400001928E-02 0. -1.
       -1   -1    0    0    0  501  0.00000000000E+00  0.00000000000E+00 -0.90730075661E+02  0.90730075801E+02  0.50400001928E-02 0.  1.
    10030    2    1    2    0    0  0.00000000000E+00  0.00000000000E+00  0.13171564051E+04  0.14986165566E+04  0.71480807783E+03 0.  0.
        4    1    3    3  502    0  0.47574932679E+02  0.15882558081E+02 -0.83310273983E+02  0.97251449972E+02  0.12699999809E+01 0.  1.
       -4    1    3    3    0  502 -0.47574932679E+02 -0.15882558081E+02  0.14004666791E+04  0.14013651066E+04  0.12699999809E+01 0. -1.
</event>
<event>
 5   0  0.3717372E-02  0.7187561E+03  0.7818609E-02  0.9685684E-01
       -1   -1    0    0    0  501  0.00000000000E+00  0.00000000000E+00  0.52218148100E+03  0.52218148102E+03  0.50400001928E-02 0. -1.
        1   -1    0    0  501    0  0.00000000000E+00  0.00000000000E+00 -0.24733278015E+03  0.24733278020E+03  0.50400001928E-02 0.  1.
    10030    2    1    2    0    0  0.00000000000E+00  0.00000000000E+00  0.27484870085E+03  0.76951426122E+03  0.71875614075E+03 0.  0.
        3    1    3    3  502    0  0.19461494846E+03 -0.17956002548E+03  0.39755579609E+03  0.47766871587E+03  0.10100000352E+00 0. -1.
       -3    1    3    3    0  502 -0.19461494846E+03  0.17956002548E+03 -0.12270709524E+03  0.29184554535E+03  0.10100000352E+00 0.  1.
</event>
<event>
 5   0  0.5987810E-02  0.7021433E+03  0.7818609E-02  0.9713574E-01
        2   -1    0    0  501    0  0.00000000000E+00  0.00000000000E+00  0.45114919586E+03  0.45114919587E+03  0.25500000920E-02 0.  1.
       -2   -1    0    0    0  501  0.00000000000E+00  0.00000000000E+00 -0.27319414249E+03  0.27319414251E+03  0.25500000920E-02 0. -1.
    10030    2    1    2    0    0  0.00000000000E+00  0.00000000000E+00  0.17795505337E+03  0.72434333838E+03  0.70214334066E+03 0.  0.
        5    1    3    3  502    0 -0.21594260450E+03 -0.27659097867E+03  0.99056265295E+02  0.36464779118E+03  0.46999998093E+01 0.  1.
       -5    1    3    3    0  502  0.21594260450E+03  0.27659097867E+03  0.78898788073E+02  0.35969554720E+03  0.46999998093E+01 0. -1.
</event>
<event>
 5   0  0.3717372E-02  0.6758386E+03  0.7818609E-02  0.9759468E-01
        1   -1    0    0  501    0  0.00000000000E+00  0.00000000000E+00  0.41948201172E+03  0.41948201175E+03  0.50400001928E-02 0.  1.
       -1   -1    0    0    0  501  0.00000000000E+00  0.00000000000E+00 -0.27221534119E+03  0.27221534124E+03  0.50400001928E-02 0. -1.
    10030    2    1    2    0    0  0.00000000000E+00  0.00000000000E+00  0.14726667053E+03  0.69169735298E+03  0.67583855755E+03 0.  0.
        3    1    3    3  502    0 -0.26703639915E+03  0.17318981125E+03  0.18981482024E+03  0.37058443758E+03  0.10100000352E+00 0.  1.
       -3    1    3    3    0  502  0.26703639915E+03 -0.17318981125E+03 -0.42548149711E+02  0.32111291540E+03  0.10100000352E+00 0. -1.
</event>
<event>
 5   0  0.3439015E-02  0.6997190E+03  0.7818609E-02  0.9717713E-01
       -1   -1    0    0    0  501  0.00000000000E+00  0.00000000000E+00  0.64014818804E+03  0.64014818806E+03  0.50400001928E-02 0.  1.
        1   -1    0    0  501    0  0.00000000000E+00  0.00000000000E+00 -0.19120833262E+03  0.19120833269E+03  0.50400001928E-02 0. -1.
    10030    2    1    2    0    0  0.00000000000E+00  0.00000000000E+00  0.44893985542E+03  0.83135652075E+03  0.69971899418E+03 0.  0.
        1    1    3    3  502    0 -0.84430119319E+02  0.11774246758E+03  0.60282877553E+03  0.61999537608E+03  0.50400001928E-02 0.  1.
       -1    1    3    3    0  502  0.84430119319E+02 -0.11774246758E+03 -0.15388892011E+03  0.21136114468E+03  0.50400001928E-02 0. -1.
</event>
<event>
 5   0  0.6167756E-02  0.6115194E+03  0.7818609E-02  0.9881791E-01
        2   -1    0    0  501    0  0.00000000000E+00  0.00000000000E+00  0.34619168510E+03  0.34619168511E+03  0.25500000920E-02 0.  1.
       -2   -1    0    0    0  501  0.00000000000E+00  0.00000000000E+00 -0.27004977507E+03  0.27004977508E+03  0.25500000920E-02 0. -1.
    10030    2    1    2    0    0  0.00000000000E+00  0.00000000000E+00  0.76141910033E+02  0.61624146019E+03  0.61151937565E+03 0.  0.
        4    1    3    3  502    0  0.15122086215E+03 -0.14560990729E+02  0.30546422300E+03  0.34115945837E+03  0.12699999809E+01 0.  1.
       -4    1    3    3    0  502 -0.15122086215E+03  0.14560990729E+02 -0.22932231297E+03  0.27508200182E+03  0.12699999809E+01 0. -1.
</event>
<event>
 5   0  0.5899787E-02  0.6830509E+03  0.7818609E-02  0.9746665E-01
       -2   -1    0    0    0  501  0.00000000000E+00  0.00000000000E+00  0.29746832710E+03  0.29746832711E+03  0.25500000920E-02 0. -1.
        2   -1    0    0  501    0  0.00000000000E+00  0.00000000000E+00 -0.39210775287E+03  0.39210775288E+03  0.25500000920E-02 0.  1.
    10030    2    1    2    0    0  0.00000000000E+00  0.00000000000E+00 -0.94639425766E+02  0.68957607999E+03  0.68305091259E+03 0.  0.
        2    1    3    3  502    0 -0.20502076236E+03  0.51611535739E+02  0.22346334842E+03  0.30762498552E+03  0.25500000920E-02 0. -1.
       -2    1    3    3    0  502  0.20502076236E+03 -0.51611535739E+02 -0.31810277419E+03  0.38195109448E+03  0.25500000920E-02 0.  1.
</event>
<event>
 5   0  0.3755872E-02  0.8248045E+03  0.7818609E-02  0.9524792E-01
        1   -1    0    0  501    0  0.00000000000E+00  0.00000000000E+00  0.11376496250E+04  0.11376496250E+04  0.50400001928E-02 0.  1.
       -1   -1    0    0    0  501  0.00000000000E+00  0.00000000000E+00 -0.14949735196E+03  0.14949735205E+03  0.50400001928E-02 0. -1.
    10030    2    1    2    0    0  0.00000000000E+00  0.00000000000E+00  0.98815227306E+03  0.12871469771E+04  0.82480447735E+03 0.  0.
        2    1    3    3  502    0  0.27631807965E+03 -0.88328034916E+02  0.95151128425E+03  0.99474984139E+03  0.25500000920E-02 0.  1.
       -2    1    3    3    0  502 -0.27631807965E+03  0.88328034916E+02  0.36640988814E+02  0.29239713569E+03  0.25500000920E-02 0. -1.
</event>
<event>
 5   0  0.5899787E-02  0.6304518E+03  0.7818609E-02  0.9844168E-01
       -2   -1    0    0    0  501  0.00000000000E+00  0.00000000000E+00  0.39634814558E+03  0.39634814559E+03  0.25500000920E-02 0.  1.
        2   -1    0    0  501    0  0.00000000000E+00  0.00000000000E+00 -0.25070729367E+03  0.25070729368E+03  0.25500000920E-02 0. -1.
    10030    2    1    2    0    0  0.00000000000E+00  0.00000000000E+00  0.14564085191E+03  0.64705543926E+03  0.63045180921E+03 0.  0.
        2    1    3    3  502    0 -0.12355417408E+03 -0.10999306774E+03  0.34822153388E+03  0.38551568781E+03  0.25500000920E-02 0.  1.
       -2    1    3    3    0  502  0.12355417408E+03  0.10999306774E+03 -0.20258068196E+03  0.26153975146E+03  0.25500000920E-02 0. -1.
</event>
<event>
 5   0  0.3755872E-02  0.7411146E+03  0.7818609E-02  0.9649394E-01
        1   -1    0    0  501    0  0.00000000000E+00  0.00000000000E+00  0.63051208825E+03  0.63051208827E+03  0.50400001928E-02 0. -1.
       -1   -1    0    0    0  501  0.00000000000E+00  0.00000000000E+00 -0.21777965755E+03  0.21777965761E+03  0.50400001928E-02 0.  1.
    10030    2    1    2    0    0  0.00000000000E+00  0.00000000000E+00  0.41273243070E+03  0.84829174588E+03  0.74111458410E+03 0.  0.
        2    1    3    3  502    0  0.78884672182E+02 -0.70621125247E+02 -0.20009756644E+03  0.22638279736E+03  0.25500000920E-02 0.  1.
       -2    1    3    3    0  502 -0.78884672182E+02  0.70621125247E+02  0.61282999715E+03  0.62190894852E+03  0.25500000920E-02 0. -1.
</event>
<event>
 5   0  0.3601475E-02  0.6996409E+03  0.7818609E-02  0.9717846E-01
       -1   -1    0    0    0  501  0.00000000000E+00  0.00000000000E+00  0.40608664865E+03  0.40608664868E+03  0.50400001928E-02 0.  1.
        1   -1    0    0  501    0  0.00000000000E+00  0.00000000000E+00 -0.30135037141E+03  0.30135037145E+03  0.50400001928E-02 0. -1.
    10030    2    1    2    0    0  0.00000000000E+00  0.00000000000E+00  0.10473627724E+03  0.70743702014E+03  0.69964094341E+03 0.  0.
        5    1    3    3  502    0 -0.71610576082E+02  0.33250793205E+03 -0.30166606319E+02  0.34149921467E+03  0.46999998093E+01 0. -1.
       -5    1    3    3    0  502  0.71610576082E+02 -0.33250793205E+03  0.13490288356E+03  0.36593780547E+03  0.46999998093E+01 0.  1.
</event>
<event>
 5   0  0.3439015E-02  0.7027867E+03  0.7818609E-02  0.9712478E-01
        1   -1    0    0  501    0  0.00000000000E+00  0.00000000000E+00  0.19883740354E+03  0.19883740361E+03  0.50400001928E-02 0.  1.
       -1   -1    0    0    0  501  0.00000000000E+00  0.00000000000E+00 -0.62099620213E+03  0.62099620216E+03  0.50400001928E-02 0. -1.
    10030    2    1    2    0    0  0.00000000000E+00  0.00000000000E+00 -0.42215879859E+03  0.81983360576E+03  0.70278666031E+03 0.  0.
        1    1    3    3  502    0  0.17868438375E+03  0.17652172350E+02 -0.56344138462E+03  0.59135936799E+03  0.50400001928E-02 0. -1.
       -1    1    3    3    0  502 -0.17868438375E+03 -0.17652172350E+02  0.14128258603E+03  0.22847423777E+03  0.50400001928E-02 0.  1.
</event>
<event>
 5   0  0.5899787E-02  0.7176973E+03  0.7818609E-02  0.9687437E-01
       -2   -1    0    0    0  501  0.00000000000E+00  0.00000000000E+00  0.16050983269E+03  0.16050983271E+03  0.25500000920E-02 0.  1.
        2   -1    0    0  501    0  0.00000000000E+00  0.00000000000E+00 -0.80227083005E+03  0.80227083005E+03  0.25500000920E-02 0. -1.
    10030    2    1    2    0    0  0.00000000000E+00  0.00000000000E+00 -0.64176099736E+03  0.96278066276E+03  0.71769730865E+03 0.  0.
        2    1    3    3  502    0  0.14665749179E+03  0.19295019632E+03 -0.67589083572E+03  0.71802967904E+03  0.25500000920E-02 0. -1.
       -2    1    3    3    0  502 -0.14665749179E+03 -0.19295019632E+03  0.34129838358E+02  0.24475098372E+03  0.25500000920E-02 0.  1.
</event>
<event>
 5   0  0.6167756E-02  0.7029098E+03  0.7818609E-02  0.9712269E-01
       -2   -1    0    0    0  501  0.00000000000E+00  0.00000000000E+00  0.23937633898E+03  0.23937633899E+03  0.25500000920E-02 0. -1.
        2   -1    0    0  501    0  0.00000000000E+00  0.00000000000E+00 -0.51600984241E+03  0.51600984242E+03  0.25500000920E-02 0.  1.
    10030    2    1    2    0    0  0.00000000000E+00  0.00000000000E+00 -0.27663350343E+03  0.75538618141E+03  0.70290980064E+03 0.  0.
        4    1    3    3  502    0 -0.24198334537E+03 -0.20636630917E+03 -0.29907012383E+03  0.43656333431E+03  0.12699999809E+01 0.  1.
       -4    1    3    3    0  502  0.24198334537E+03  0.20636630917E+03  0.22436620397E+02  0.31882284710E+03  0.12699999809E+01 0. -1.
</event>
<event>
 5   0  0.6131198E-02  0.7043382E+03  0.7818609E-02  0.9709842E-01
        2   -1    0    0  501    0  0.00000000000E+00  0.00000000000E+00  0.16188254855E+04  0.16188254855E+04  0.25500000920E-02 0.  1.
       -2   -1    0    0    0  501  0.00000000000E+00  0.00000000000E+00 -0.76613009198E+02  0.76613009240E+02  0.25500000920E-02 0. -1.
    10030    2    1    2    0    0  0.00000000000E+00  0.00000000000E+00  0.15422124763E+04  0.16954384947E+04  0.70433824785E+03 0.  0.
        1    1    3    3  502    0  0.13802596337E+03 -0.24931103320E+03  0.27302122100E+03  0.39464888823E+03  0.50400001928E-02 0. -1.
       -1    1    3    3    0  502 -0.13802596337E+03  0.24931103320E+03  0.12691912553E+04  0.13007896065E+04  0.50400001928E-02 0.  1.
</event>
<event>
 5   0  0.6131198E-02  0.7110868E+03  0.7818609E-02  0.9698458E-01
       -2   -1    0    0    0  501  0.00000000000E+00  0.00000000000E+00  0.11451581816E+04  0.11451581816E+04  0.25500000920E-02 0.  1.
        2   -1    0    0  501    0  0.00000000000E+00  0.00000000000E+00 -0.11038747818E+03  0.11038747821E+03  0.25500000920E-02 0. -1.
    10030    2    1    2    0    0  0.00000000000E+00  0.00000000000E+00  0.10347707035E+04  0.12555456599E+04  0.71108684085E+03 0.  0.
        1    1    3    3  502    0 -0.18779637528E+03  0.86369764207E+02  0.66089212969E+01  0.20681124873E+03  0.50400001928E-02 0. -1.
       -1    1    3    3    0  502  0.18779637528E+03 -0.86369764207E+02  0.10281617822E+04  0.10487344111E+04  0.50400001928E-02 0.  1.
</event>
<event>
 5   0  0.2439375E-02  0.6964640E+03  0.7818609E-02  0.9723298E-01
        4   -1    0    0  501    0  0.00000000000E+00  0.00000000000E+00  0.23173208937E+03  0.23173556944E+03  0.12699999809E+01 0.  1.
       -4   -1    0    0    0  501  0.00000000000E+00  0.00000000000E+00 -0.52329227892E+03  0.52329382003E+03  0.12699999809E+01 0. -1.
    10030    2    1    2    0    0  0.00000000000E+00  0.00000000000E+00 -0.29156018955E+03  0.75502938947E+03  0.69646395085E+03 0.  0.
        5    1    3    3  502    0 -0.26708167993E+03 -0.65130837112E+02 -0.37745279868E+03  0.46697682483E+03  0.46999998093E+01 0. -1.
       -5    1    3    3    0  502  0.26708167993E+03  0.65130837112E+02  0.85892609132E+02  0.28805256464E+03  0.46999998093E+01 0.  1.
</event>
<event>
 5   0  0.2439375E-02  0.7407998E+03  0.7818609E-02  0.9649896E-01
        4   -1    0    0  501    0  0.00000000000E+00  0.00000000000E+00  0.21160386547E+03  0.21160767656E+03  0.12699999809E+01 0. -1.
       -4   -1    0    0    0  501  0.00000000000E+00  0.00000000000E+00 -0.64835250475E+03  0.64835374859E+03  0.12699999809E+01 0.  1.
    10030    2    1    2    0    0  0.00000000000E+00  0.00000000000E+00 -0.43674863928E+03  0.85996142515E+03  0.74079975624E+03 0.  0.
        2    1    3    3  502    0 -0.33062360597E+02 -0.34328710850E+03 -0.37522694457E+03  0.50964146072E+03  0.25500000920E-02 0. -1.
       -2    1    3    3    0  502  0.33062360597E+02  0.34328710850E+03 -0.61521694711E+02  0.35031996443E+03  0.25500000920E-02 0.  1.
</event>
<event>
 5   0  0.6131198E-02  0.5318691E+03  0.7818609E-02  0.1005780E+00
       -2   -1    0    0    0  501  0.00000000000E+00  0.00000000000E+00  0.42325706038E+02  0.42325706115E+02  0.25500000920E-02 0. -1.
        2   -1    0    0  501    0  0.00000000000E+00  0.00000000000E+00 -0.16708802825E+04  0.16708802825E+04  0.25500000920E-02 0.  1.
    10030    2    1    2    0    0  0.00000000000E+00  0.00000000000E+00 -0.16285545764E+04  0.17132059886E+04  0.53186911070E+03 0.  0.
        1    1    3    3  502    0  0.16761057546E+03  0.66239895241E+02 -0.14441672101E+04  0.14553693550E+04  0.50400001928E-02 0.  1.
       -1    1    3    3    0  502 -0.16761057546E+03 -0.66239895241E+02 -0.18438736632E+03  0.25783663357E+03  0.50400001928E-02 0. -1.
</event>
<event>
 5   0  0.5987810E-02  0.7604359E+03  0.7818609E-02  0.9619119E-01
       -2   -1    0    0    0  501  0.00000000000E+00  0.00000000000E+00  0.63219708432E+03  0.63219708432E+03  0.25500000920E-02 0.  1.
        2   -1    0    0  501    0  0.00000000000E+00  0.00000000000E+00 -0.22867188423E+03  0.22867188425E+03  0.25500000920E-02 0. -1.
    10030    2    1    2    0    0  0.00000000000E+00  0.00000000000E+00  0.40352520009E+03  0.86086896857E+03  0.76043592363E+03 0.  0.
        5    1    3    3  502    0  0.30238890679E+03 -0.10989088710E+03  0.43106970694E+03  0.53792029173E+03  0.46999998093E+01 0.  1.
       -5    1    3    3    0  502 -0.30238890679E+03  0.10989088710E+03 -0.27544506854E+02  0.32294867684E+03  0.46999998093E+01 0. -1.
</event>
<event>
 5   0  0.6167756E-02  0.7058729E+03  0.7818609E-02  0.9707241E-01
       -2   -1    0    0    0  501  0.00000000000E+00  0.00000000000E+00  0.20644223088E+03  0.20644223090E+03  0.25500000920E-02 0. -1.
        2   -1    0    0  501    0  0.00000000000E+00  0.00000000000E+00 -0.60338502219E+03  0.60338502220E+03  0.25500000920E-02 0.  1.
    10030    2    1    2    0    0  0.00000000000E+00  0.00000000000E+00 -0.39694279131E+03  0.80982725310E+03  0.70587293495E+03 0.  0.
        4    1    3    3  502    0  0.14569722675E+03  0.19576258000E+03  0.94053059260E+02  0.26153061095E+03  0.12699999809E+01 0. -1.
       -4    1    3    3    0  502 -0.14569722675E+03 -0.19576258000E+03 -0.49099585057E+03  0.54829664214E+03  0.12699999809E+01 0.  1.
</event>
<event>
 5   0  0.3439015E-02  0.7045082E+03  0.7818609E-02  0.9709554E-01
        1   -1    0    0  501    0  0.00000000000E+00  0.00000000000E+00  0.14411863260E+04  0.14411863260E+04  0.50400001928E-02 0.  1.
       -1   -1    0    0    0  501  0.00000000000E+00  0.00000000000E+00 -0.86097777442E+02  0.86097777589E+02  0.50400001928E-02 0. -1.
    10030    2    1    2    0    0  0.00000000000E+00  0.00000000000E+00  0.13550885485E+04  0.15272841036E+04  0.70450816792E+03 0.  0.
        1    1    3    3  502    0  0.99764241469E+02 -0.32283059278E+03  0.89335864372E+03  0.95512416044E+03  0.50400001928E-02 0. -1.
       -1    1    3    3    0  502 -0.99764241469E+02  0.32283059278E+03  0.46172990482E+03  0.57215994315E+03  0.50400001928E-02 0.  1.
</event>
<event>
 5   0  0.6248886E-02  0.5785537E+03  0.7818609E-02  0.9950927E-01
        2   -1    0    0  501    0  0.00000000000E+00  0.00000000000E+00  0.10932220812E+04  0.10932220812E+04  0.25500000920E-02 0. -1.
       -2   -1    0    0    0  501  0.00000000000E+00  0.00000000000E+00 -0.76545389437E+02  0.76545389479E+02  0.25500000920E-02 0.  1.
    10030    2    1    2    0    0  0.00000000000E+00  0.00000000000E+00  0.10166766918E+04  0.11697674707E+04  0.57855374849E+03 0.  0.
        3    1    3    3  502    0 -0.27281056254E+02 -0.25468899978E+03  0.23654476449E+03  0.34866054903E+03  0.10100000352E+00 0. -1.
       -3    1    3    3    0  502  0.27281056254E+02  0.25468899978E+03  0.78013192729E+03  0.82110692167E+03  0.10100000352E+00 0.  1.
</event>
<event>
 5   0  0.6131198E-02  0.7094186E+03  0.7818609E-02  0.9701259E-01
       -2   -1    0    0    0  501  0.00000000000E+00  0.00000000000E+00  0.13197985266E+03  0.13197985269E+03  0.25500000920E-02 0.  1.
        2   -1    0    0  501    0  0.00000000000E+00  0.00000000000E+00 -0.95331742234E+03  0.95331742234E+03  0.25500000920E-02 0. -1.
    10030    2    1    2    0    0  0.00000000000E+00  0.00000000000E+00 -0.82133756967E+03  0.10852972750E+04  0.70941861536E+03 0.  0.
        1    1    3    3  502    0 -0.22889983141E+03 -0.11933535182E+03 -0.38497144150E+02  0.26099442360E+03  0.50400001928E-02 0.  1.
       -1    1    3    3    0  502  0.22889983141E+03  0.11933535182E+03 -0.78284042552E+03  0.82430285143E+03  0.50400001928E-02 0. -1.
</event>
<event>
 5   0  0.3749730E-02  0.7049501E+03  0.7818609E-02  0.9708804E-01
        1   -1    0    0  501    0  0.00000000000E+00  0.00000000000E+00  0.34682402077E+03  0.34682402080E+03  0.50400001928E-02 0. -1.
       -1   -1    0    0    0  501  0.00000000000E+00  0.00000000000E+00 -0.35821813093E+03  0.35821813096E+03  0.50400001928E-02 0.  1.
    10030    2    1    2    0    0  0.00000000000E+00  0.00000000000E+00 -0.11394110161E+02  0.70504215177E+03  0.70495007626E+03 0.  0.
        4    1    3    3  502    0  0.17466734851E+03 -0.11202487705E+03  0.27925906655E+03  0.34791593074E+03  0.12699999809E+01 0. -1.
       -4    1    3    3    0  502 -0.17466734851E+03  0.11202487705E+03 -0.29065317671E+03  0.35712622103E+03  0.12699999809E+01 0.  1.
</event>
<event>
 5   0  0.6248886E-02  0.7066815E+03  0.7818609E-02  0.9705874E-01
        2   -1    0    0  501    0  0.00000000000E+00  0.00000000000E+00  0.12157097050E+04  0.12157097050E+04  0.25500000920E-02 0.  1.
       -2   -1    0    0    0  501  0.00000000000E+00  0.00000000000E+00 -0.10269695179E+03  0.10269695182E+03  0.25500000920E-02 0. -1.
    10030    2    1    2    0    0  0.00000000000E+00  0.00000000000E+00  0.11130127532E+04  0.13184066568E+04  0.70668148689E+03 0.  0.
        3    1    3    3  502    0  0.22908550031E+03  0.22743349845E+03  0.82455737187E+03  0.88549479523E+03  0.10100000352E+00 0.  1.
       -3    1    3    3    0  502 -0.22908550031E+03 -0.22743349845E+03  0.28845538131E+03  0.43291186156E+03  0.10100000352E+00 0. -1.
</event>
<event>
 5   0  0.6131198E-02  0.7035304E+03  0.7818609E-02  0.9711214E-01
        2   -1    0    0  501    0  0.00000000000E+00  0.00000000000E+00  0.18970916118E+04  0.18970916118E+04  0.25500000920E-02 0. -1.
       -2   -1    0    0    0  501  0.00000000000E+00  0.00000000000E+00 -0.65225503090E+02  0.65225503140E+02  0.25500000920E-02 0.  1.
    10030    2    1    2    0    0  0.00000000000E+00  0.00000000000E+00  0.18318661087E+04  0.19623171150E+04  0.70353039690E+03 0.  0.
        1    1    3    3  502    0 -0.30526107325E+02  0.11721099202E+03  0.18370949937E+04  0.18410834516E+04  0.50400001928E-02 0. -1.
       -1    1    3    3    0  502  0.30526107325E+02 -0.11721099202E+03 -0.52288849178E+01  0.12123366341E+03  0.50400001928E-02 0.  1.
</event>
<event>
 5   0  0.3755872E-02  0.5575521E+03  0.7818609E-02  0.9997609E-01
        1   -1    0    0  501    0  0.00000000000E+00  0.00000000000E+00  0.24138458475E+03  0.24138458481E+03  0.50400001928E-02 0. -1.
       -1   -1    0    0    0  501  0.00000000000E+00  0.00000000000E+00 -0.32195964738E+03  0.32195964742E+03  0.50400001928E-02 0.  1.
    10030    2    1    2    0    0  0.00000000000E+00  0.00000000000E+00 -0.80575062626E+02  0.56334423223E+03  0.55755213502E+03 0.  0.
        2    1    3    3  502    0  0.45651179264E+02 -0.52121602298E+02  0.23254616878E+03  0.24264874246E+03  0.25500000920E-02 0. -1.
       -2    1    3    3    0  502 -0.45651179264E+02  0.52121602298E+02 -0.31312123141E+03  0.32069548977E+03  0.25500000920E-02 0.  1.
</event>
<event>
 5   0  0.5987810E-02  0.6761020E+03  0.7818609E-02  0.9758997E-01
       -2   -1    0    0    0  501  0.00000000000E+00  0.00000000000E+00  0.17441477472E+03  0.17441477474E+03  0.25500000920E-02 0.  1.
        2   -1    0    0  501    0  0.00000000000E+00  0.00000000000E+00 -0.65521099839E+03  0.65521099839E+03  0.25500000920E-02 0. -1.
    10030    2    1    2    0    0  0.00000000000E+00  0.00000000000E+00 -0.48079622367E+03  0.82962577313E+03  0.67610200026E+03 0.  0.
        5    1    3    3  502    0  0.27433103435E+03  0.10180122411E+03 -0.44804312862E+03  0.53515020391E+03  0.46999998093E+01 0. -1.
       -5    1    3    3    0  502 -0.27433103435E+03 -0.10180122411E+03 -0.32753095045E+02  0.29447556922E+03  0.46999998093E+01 0.  1.
</event>
<event>
 5   0  0.3439015E-02  0.5776214E+03  0.7818609E-02  0.9952954E-01
        1   -1    0    0  501    0  0.00000000000E+00  0.00000000000E+00  0.14810642943E+03  0.14810642951E+03  0.50400001928E-02 0.  1.
       -1   -1    0    0    0  501  0.00000000000E+00  0.00000000000E+00 -0.56318710626E+03  0.56318710628E+03  0.50400001928E-02 0. -1.
    10030    2    1    2    0    0  0.00000000000E+00  0.00000000000E+00 -0.41508067683E+03  0.71129353579E+03  0.57762143813E+03 0.  0.
        1    1    3    3  502    0  0.13007480271E+03 -0.25782336534E+03 -0.20213198642E+03  0.35249068353E+03  0.50400001928E-02 0.  1.
       -1    1    3    3    0  502 -0.13007480271E+03  0.25782336534E+03 -0.21294869041E+03  0.35880285226E+03  0.50400001928E-02 0. -1.
</event>
<event>
 5   0  0.6131198E-02  0.6990265E+03  0.7818609E-02  0.9718899E-01
       -2   -1    0    0    0  501  0.00000000000E+00  0.00000000000E+00  0.19695225204E+03  0.19695225206E+03  0.25500000920E-02 0. -1.
        2   -1    0    0  501    0  0.00000000000E+00  0.00000000000E+00 -0.62024932196E+03  0.62024932196E+03  0.25500000920E-02 0.  1.
    10030    2    1    2    0    0  0.00000000000E+00  0.00000000000E+00 -0.42329706991E+03  0.81720157402E+03  0.69902646815E+03 0.  0.
        1    1    3    3  502    0  0.66699532596E+02  0.33474676158E+03 -0.29956345421E+03  0.45413927947E+03  0.50400001928E-02 0.  1.
       -1    1    3    3    0  502 -0.66699532596E+02 -0.33474676158E+03 -0.12373361571E+03  0.36306229455E+03  0.50400001928E-02 0. -1.
</event>
<event>
 5   0  0.5899787E-02  0.7041898E+03  0.7818609E-02  0.9710094E-01
       -2   -1    0    0    0  501  0.00000000000E+00  0.00000000000E+00  0.22728852552E+03  0.22728852553E+03  0.25500000920E-02 0. -1.
        2   -1    0    0  501    0  0.00000000000E+00  0.00000000000E+00 -0.54543372978E+03  0.54543372978E+03  0.25500000920E-02 0.  1.
    10030    2    1    2    0    0  0.00000000000E+00  0.00000000000E+00 -0.31814520426E+03  0.77272225531E+03  0.70418982730E+03 0.  0.
        2    1    3    3  502    0 -0.56971597015E+02 -0.10544811730E+03  0.20421482044E+03  0.23678843131E+03  0.25500000920E-02 0. -1.
       -2    1    3    3    0  502  0.56971597015E+02  0.10544811730E+03 -0.52236002470E+03  0.53593382401E+03  0.25500000920E-02 0.  1.
</event>
<event>
 5   0  0.3601475E-02  0.7487216E+03  0.7818609E-02  0.9637358E-01
        1   -1    0    0  501    0  0.00000000000E+00  0.00000000000E+00  0.45392725634E+03  0.45392725637E+03  0.50400001928E-02 0.  1.
       -1   -1    0    0    0  501  0.00000000000E+00  0.00000000000E+00 -0.30874108503E+03  0.30874108507E+03  0.50400001928E-02 0. -1.
    10030    2    1    2    0    0  0.00000000000E+00  0.00000000000E+00  0.14518617130E+03  0.76266834144E+03  0.74872156019E+03 0.  0.
        5    1    3    3  502    0  0.10124140663E+03 -0.22935373389E+02 -0.29375617769E+03  0.31159370292E+03  0.46999998093E+01 0. -1.
       -5    1    3    3    0  502 -0.10124140663E+03  0.22935373389E+02  0.43894234900E+03  0.45107463852E+03  0.46999998093E+01 0.  1.
</event>
<event>
 5   0  0.3717372E-02  0.6651724E+03  0.7818609E-02  0.9778719E-01
       -1   -1    0    0    0  501  0.00000000000E+00  0.00000000000E+00  0.59653436675E+02  0.59653436888E+02  0.50400001928E-02 0.  1.
        1   -1    0    0  501    0  0.00000000000E+00  0.00000000000E+00 -0.18542700442E+04  0.18542700442E+04  0.50400001928E-02 0. -1.
    10030    2    1    2    0    0  0.00000000000E+00  0.00000000000E+00 -0.17946166076E+04  0.19139234811E+04  0.66517240133E+03 0.  0.
        3    1    3    3  502    0 -0.72487099670E+02 -0.23965004134E+03 -0.26739512814E+03  0.36631501019E+03  0.10100000352E+00 0.  1.
       -3    1    3    3    0  502  0.72487099670E+02  0.23965004134E+03 -0.15272214794E+04  0.15476084709E+04  0.10100000352E+00 0. -1.
</event>
<event>
 5   0  0.6248886E-02  0.7041135E+03  0.7818609E-02  0.9710223E-01
        2   -1    0    0  501    0  0.00000000000E+00  0.00000000000E+00  0.32548645513E+03  0.32548645514E+03  0.25500000920E-02 0.  1.
       -2   -1    0    0    0  501  0.00000000000E+00  0.00000000000E+00 -0.38079605939E+03  0.38079605940E+03  0.25500000920E-02 0. -1.
    10030    2    1    2    0    0  0.00000000000E+00  0.00000000000E+00 -0.55309604260E+02  0.70628251454E+03  0.70411351217E+03 0.  0.
        3    1    3    3  502    0  0.12874620045E+03 -0.23725175687E+03 -0.25435979687E+03  0.37089472459E+03  0.10100000352E+00 0. -1.
       -3    1    3    3    0  502 -0.12874620045E+03  0.23725175687E+03  0.19905019261E+03  0.33538778995E+03  0.10100000352E+00 0.  1.
</event>
<event>
 5   0  0.5987810E-02  0.5049715E+03  0.7818609E-02  0.1012489E+00
       -2   -1    0    0    0  501  0.00000000000E+00  0.00000000000E+00  0.45158456402E+03  0.45158456403E+03  0.25500000920E-02 0.  1.
        2   -1    0    0  501    0  0.00000000000E+00  0.00000000000E+00 -0.14116747868E+03  0.14116747870E+03  0.25500000920E-02 0. -1.
    10030    2    1    2    0    0  0.00000000000E+00  0.00000000000E+00  0.31041708534E+03  0.59275204274E+03  0.50497150147E+03 0.  0.
        5    1    3    3  502    0 -0.79819535353E+02  0.22996369382E+03  0.23371070836E+03  0.33748665737E+03  0.46999998093E+01 0.  1.
       -5    1    3    3    0  502  0.79819535353E+02 -0.22996369382E+03  0.76706376982E+02  0.25526538537E+03  0.46999998093E+01 0. -1.
</event>
<event>
 5   0  0.3601475E-02  0.6858355E+03  0.7818609E-02  0.9741767E-01
        1   -1    0    0  501    0  0.00000000000E+00  0.00000000000E+00  0.41005463993E+03  0.41005463996E+03  0.50400001928E-02 0. -1.
       -1   -1    0    0    0  501  0.00000000000E+00  0.00000000000E+00 -0.28677292094E+03  0.28677292099E+03  0.50400001928E-02 0.  1.
    10030    2    1    2    0    0  0.00000000000E+00  0.00000000000E+00  0.12328171899E+03  0.69682756095E+03  0.68583545217E+03 0.  0.
        5    1    3    3  502    0  0.11633723774E+03  0.22716062859E+03 -0.17101425233E+03  0.30725277634E+03  0.46999998093E+01 0.  1.
       -5    1    3    3    0  502 -0.11633723774E+03 -0.22716062859E+03  0.29429597132E+03  0.38957478461E+03  0.46999998093E+01 0. -1.
</event>
<event>
 5   0  0.6131198E-02  0.7760211E+03  0.7818609E-02  0.9595389E-01
       -2   -1    0    0    0  501  0.00000000000E+00  0.00000000000E+00  0.21816996150E+03  0.21816996152E+03  0.25500000920E-02 0.  1.
        2   -1    0    0  501    0  0.00000000000E+00  0.00000000000E+00 -0.69006836648E+03  0.69006836648E+03  0.25500000920E-02 0. -1.
    10030    2    1    2    0    0  0.00000000000E+00  0.00000000000E+00 -0.47189840498E+03  0.90823832800E+03  0.77602110528E+03 0.  0.
        1    1    3    3  502    0  0.20763664306E+03 -0.31811736899E+03 -0.32840578327E+03  0.50215734039E+03  0.50400001928E-02 0. -1.
       -1    1    3    3    0  502 -0.20763664306E+03  0.31811736899E+03 -0.14349262171E+03  0.40608098762E+03  0.50400001928E-02 0.  1.
</event>
<event>
 5   0  0.3749730E-02  0.6901116E+03  0.7818609E-02  0.9734294E-01
       -1   -1    0    0    0  501  0.00000000000E+00  0.00000000000E+00  0.14921666666E+03  0.14921666674E+03  0.50400001928E-02 0.  1.
        1   -1    0    0  501    0  0.00000000000E+00  0.00000000000E+00 -0.79792362924E+03  0.79792362925E+03  0.50400001928E-02 0. -1.
    10030    2    1    2    0    0  0.00000000000E+00  0.00000000000E+00 -0.64870696258E+03  0.94714029599E+03  0.69011159749E+03 0.  0.
        4    1    3    3  502    0  0.14760508764E+03 -0.76282088592E+01  0.10356874526E+03  0.18048143772E+03  0.12699999809E+01 0.  1.
       -4    1    3    3    0  502 -0.14760508764E+03  0.76282088592E+01 -0.75227570783E+03  0.76665885827E+03  0.12699999809E+01 0. -1.
</event>
<event>
 5   0  0.6248886E-02  0.7077619E+03  0.7818609E-02  0.9704050E-01
        2   -1    0    0  501    0  0.00000000000E+00  0.00000000000E+00  0.56643283511E+03  0.56643283512E+03  0.25500000920E-02 0.  1.
       -2   -1    0    0    0  501  0.00000000000E+00  0.00000000000E+00 -0.22108836471E+03  0.22108836472E+03  0.25500000920E-02 0. -1.
    10030    2    1    2    0    0  0.00000000000E+00  0.00000000000E+00  0.34534447040E+03  0.78752119984E+03  0.70776185045E+03 0.  0.
        3    1    3    3  502    0  0.24565704513E+03 -0.60354860172E+02  0.44803067343E+03  0.51451101787E+03  0.10100000352E+00 0.  1.
       -3    1    3    3    0  502 -0.24565704513E+03  0.60354860172E+02 -0.10268620303E+03  0.27301018197E+03  0.10100000352E+00 0. -1.
</event>
<event>
 5   0  0.2439375E-02  0.6970565E+03  0.7818609E-02  0.9722279E-01
        3   -1    0    0  501    0  0.00000000000E+00  0.00000000000E+00  0.17686264445E+03  0.17686267329E+03  0.10100000352E+00 0. -1.
       -3   -1    0    0    0  501  0.00000000000E+00  0.00000000000E+00 -0.68681512132E+03  0.68681512875E+03  0.10100000352E+00 0.  1.
    10030    2    1    2    0    0  0.00000000000E+00  0.00000000000E+00 -0.50995247687E+03  0.86367780203E+03  0.69705653792E+03 0.  0.
        3    1    3    3  502    0 -0.12125351295E+03  0.87024020537E+02 -0.64521607202E+03  0.66225326300E+03  0.10100000352E+00 0.  1.
       -3    1    3    3    0  502  0.12125351295E+03 -0.87024020537E+02  0.13526359515E+03  0.20142453904E+03  0.10100000352E+00 0. -1.
</event>
<event>
 5   0  0.6167756E-02  0.7009512E+03  0.7818609E-02  0.9715607E-01
        2   -1    0    0  501    0  0.00000000000E+00  0.00000000000E+00  0.48365498555E+03  0.48365498556E+03  0.25500000920E-02 0. -1.
       -2   -1    0    0    0  501  0.00000000000E+00  0.00000000000E+00 -0.25396850852E+03  0.25396850853E+03  0.25500000920E-02 0.  1.
    10030    2    1    2    0    0  0.00000000000E+00  0.00000000000E+00  0.22968647703E+03  0.73762349409E+03  0.70095116899E+03 0.  0.
        4    1    3    3  502    0 -0.14596081495E+03 -0.25941507548E+03  0.30953850104E+03  0.42943734981E+03  0.12699999809E+01 0. -1.
       -4    1    3    3    0  502  0.14596081495E+03  0.25941507548E+03 -0.79852024004E+02  0.30818614428E+03  0.12699999809E+01 0.  1.
</event>
<event>
 5   0  0.5899787E-02  0.6851310E+03  0.7818609E-02  0.9743004E-01
       -2   -1    0    0    0  501  0.00000000000E+00  0.00000000000E+00  0.18285792274E+03  0.18285792276E+03  0.25500000920E-02 0. -1.
        2   -1    0    0  501    0  0.00000000000E+00  0.00000000000E+00 -0.64176117165E+03  0.64176117166E+03  0.25500000920E-02 0.  1.
    10030    2    1    2    0    0  0.00000000000E+00  0.00000000000E+00 -0.45890324891E+03  0.82461909442E+03  0.68513097947E+03 0.  0.
        2    1    3    3  502    0  0.11983725116E+03  0.25783902947E+03  0.52348694218E+00  0.28432763835E+03  0.25500000920E-02 0. -1.
       -2    1    3    3    0  502 -0.11983725116E+03 -0.25783902947E+03 -0.45942673585E+03  0.54029145607E+03  0.25500000920E-02 0.  1.
</event>
<event>
 5   0  0.5899787E-02  0.7006368E+03  0.7818609E-02  0.9716144E-01
        2   -1    0    0  501    0  0.00000000000E+00  0.00000000000E+00  0.56269329525E+03  0.56269329525E+03  0.25500000920E-02 0.  1.
       -2   -1    0    0    0  501  0.00000000000E+00  0.00000000000E+00 -0.21809921482E+03  0.21809921483E+03  0.25500000920E-02 0. -1.
    10030    2    1    2    0    0  0.00000000000E+00  0.00000000000E+00  0.34459408043E+03  0.78079251008E+03  0.70063675577E+03 0.  0.
        2    1    3    3  502    0 -0.10096611295E+03 -0.24126870491E+03  0.43202308046E+03  0.50502345093E+03  0.25500000920E-02 0.  1.
       -2    1    3    3    0  502  0.10096611295E+03  0.24126870491E+03 -0.87429000029E+02  0.27576905915E+03  0.25500000920E-02 0. -1.
</event>
<event>
 5   0  0.6131198E-02  0.7158308E+03  0.7818609E-02  0.9690536E-01
        2   -1    0    0  501    0  0.00000000000E+00  0.00000000000E+00  0.24853351932E+03  0.24853351933E+03  0.25500000920E-02 0.  1.
       -2   -1    0    0    0  501  0.00000000000E+00  0.00000000000E+00 -0.51543724663E+03  0.51543724663E+03  0.25500000920E-02 0. -1.
    10030    2    1    2    0    0  0.00000000000E+00  0.00000000000E+00 -0.26690372731E+03  0.76397076597E+03  0.71583079817E+03 0.  0.
        1    1    3    3  502    0  0.27860518583E+03 -0.22111060534E+03 -0.17604416459E+03  0.39686559095E+03  0.50400001928E-02 0.  1.
       -1    1    3    3    0  502 -0.27860518583E+03  0.22111060534E+03 -0.90859562713E+02  0.36710517502E+03  0.50400001928E-02 0. -1.
</event>
<event>
 5   0  0.3601475E-02  0.7077040E+03  0.7818609E-02  0.9704147E-01
        1   -1    0    0  501    0  0.00000000000E+00  0.00000000000E+00  0.59146151424E+03  0.59146151426E+03  0.50400001928E-02 0.  1.
       -1   -1    0    0    0  501  0.00000000000E+00  0.00000000000E+00 -0.21169803670E+03  0.21169803676E+03  0.50400001928E-02 0. -1.
    10030    2    1    2    0    0  0.00000000000E+00  0.00000000000E+00  0.37976347754E+03  0.80315955102E+03  0.70770400982E+03 0.  0.
        5    1    3    3  502    0  0.34967355461E+03 -0.36665204414E+02  0.23489544944E+03  0.42286391921E+03  0.46999998093E+01 0.  1.
       -5    1    3    3    0  502 -0.34967355461E+03  0.36665204414E+02  0.14486802810E+03  0.38029563181E+03  0.46999998093E+01 0. -1.
</event>
<event>
 5   0  0.3439015E-02  0.7022437E+03  0.7818609E-02  0.9713403E-01
        1   -1    0    0  501    0  0.00000000000E+00  0.00000000000E+00  0.89191866771E+03  0.89191866772E+03  0.50400001928E-02 0. -1.
       -1   -1    0    0    0  501  0.00000000000E+00  0.00000000000E+00 -0.13822624537E+03  0.13822624546E+03  0.50400001928E-02 0.  1.
    10030    2    1    2    0    0  0.00000000000E+00  0.00000000000E+00  0.75369242234E+03  0.10301449132E+04  0.70224374306E+03 0.  0.
        1    1    3    3  502    0 -0.25813469518E+03 -0.22753734381E+03  0.27437268612E+03  0.44009900545E+03  0.50400001928E-02 0.  1.
       -1    1    3    3    0  502  0.25813469518E+03  0.22753734381E+03  0.47931973621E+03  0.59004590773E+03  0.50400001928E-02 0. -1.
</event>
<event>
 5   0  0.6131198E-02  0.6985403E+03  0.7818609E-02  0.9719732E-01
       -2   -1    0    0    0  501  0.00000000000E+00  0.00000000000E+00  0.20699225828E+03  0.20699225830E+03  0.25500000920E-02 0. -1.
        2   -1    0    0  501    0  0.00000000000E+00  0.00000000000E+00 -0.58934387954E+03  0.58934387955E+03  0.25500000920E-02 0.  1.
    10030    2    1    2    0    0  0.00000000000E+00  0.00000000000E+00 -0.38235162126E+03  0.79633613784E+03  0.69854025092E+03 0.  0.
        1    1    3    3  502    0 -0.20705335550E+03 -0.51531172772E+02 -0.50640820800E+03  0.54952327243E+03  0.50400001928E-02 0.  1.
       -1    1    3    3    0  502  0.20705335550E+03  0.51531172772E+02  0.12405658674E+03  0.24681286541E+03  0.50400001928E-02 0. -1.
</event>
<event>
 5   0  0.3755872E-02  0.7188143E+03  0.7818609E-02  0.9685587E-01
        1   -1    0    0  501    0  0.00000000000E+00  0.00000000000E+00  0.30310944775E+03  0.30310944779E+03  0.50400001928E-02 0.  1.
       -1   -1    0    0    0  501  0.00000000000E+00  0.00000000000E+00 -0.42616118754E+03  0.42616118757E+03  0.50400001928E-02 0. -1.
    10030    2    1    2    0    0  0.00000000000E+00  0.00000000000E+00 -0.12305173979E+03  0.72927063536E+03  0.71881425204E+03 0.  0.
        2    1    3    3  502    0  0.19101025796E+03 -0.30437311230E+03 -0.68374780741E+02  0.36579095230E+03  0.25500000920E-02 0. -1.
       -2    1    3    3    0  502 -0.19101025796E+03  0.30437311230E+03 -0.54676959053E+02  0.36347968306E+03  0.25500000920E-02 0.  1.
</event>
<event>
 5   0  0.3717372E-02  0.7010816E+03  0.7818609E-02  0.9715384E-01
       -1   -1    0    0    0  501  0.00000000000E+00  0.00000000000E+00  0.16789515747E+03  0.16789515754E+03  0.50400001928E-02 0. -1.
        1   -1    0    0  501    0  0.00000000000E+00  0.00000000000E+00 -0.73187847559E+03  0.73187847561E+03  0.50400001928E-02 0.  1.
    10030    2    1    2    0    0  0.00000000000E+00  0.00000000000E+00 -0.56398331812E+03  0.89977363315E+03  0.70108159852E+03 0.  0.
        3    1    3    3  502    0  0.25684694085E+03  0.43524611392E+02 -0.58301605690E+03  0.63857065046E+03  0.10100000352E+00 0.  1.
       -3    1    3    3    0  502 -0.25684694085E+03 -0.43524611392E+02  0.19032738780E+02  0.26120298269E+03  0.10100000352E+00 0. -1.
</event>
<event>
 5   0  0.3749730E-02  0.7005516E+03  0.7818609E-02  0.9716289E-01
        1   -1    0    0  501    0  0.00000000000E+00  0.00000000000E+00  0.11467957294E+04  0.11467957294E+04  0.50400001928E-02 0. -1.
       -1   -1    0    0    0  501  0.00000000000E+00  0.00000000000E+00 -0.10698777498E+03  0.10698777510E+03  0.50400001928E-02 0.  1.
    10030    2    1    2    0    0  0.00000000000E+00  0.00000000000E+00  0.10398079544E+04  0.12537835045E+04  0.70055156420E+03 0.  0.
        4    1    3    3  502    0  0.10430502674E+03 -0.33432911527E+03  0.53064442466E+03  0.63579919333E+03  0.12699999809E+01 0.  1.
       -4    1    3    3    0  502 -0.10430502674E+03  0.33432911527E+03  0.50916352979E+03  0.61798431120E+03  0.12699999809E+01 0. -1.
</event>
<event>
 5   0  0.6131198E-02  0.7135220E+03  0.7818609E-02  0.9694383E-01
       -2   -1    0    0    0  501  0.00000000000E+00  0.00000000000E+00  0.24513364125E+03  0.24513364127E+03  0.25500000920E-02 0.  1.
        2   -1    0    0  501    0  0.00000000000E+00  0.00000000000E+00 -0.51922048016E+03  0.51922048016E+03  0.25500000920E-02 0. -1.
    10030    2    1    2    0    0  0.00000000000E+00  0.00000000000E+00 -0.27408683890E+03  0.76435412143E+03  0.71352198823E+03 0.  0.
        1    1    3    3  502    0  0.15390781897E+03  0.13018196474E+03 -0.45236602716E+03  0.49524739599E+03  0.50400001928E-02 0. -1.
       -1    1    3    3    0  502 -0.15390781897E+03 -0.13018196474E+03  0.17827918826E+03  0.26910672543E+03  0.50400001928E-02 0.  1.
</event>
<event>
 5   0  0.3755872E-02  0.6722631E+03  0.7818609E-02  0.9765878E-01
       -1   -1    0    0    0  501  0.00000000000E+00  0.00000000000E+00  0.12448035640E+03  0.12448035650E+03  0.50400001928E-02 0.  1.
        1   -1    0    0  501    0  0.00000000000E+00  0.00000000000E+00 -0.90764848336E+03  0.90764848337E+03  0.50400001928E-02 0. -1.
    10030    2    1    2    0    0  0.00000000000E+00  0.00000000000E+00 -0.78316812696E+03  0.10321288399E+04  0.67226306386E+03 0.  0.
        2    1    3    3  502    0  0.33012690490E+03 -0.52012176787E+02 -0.44684154120E+03  0.55799319245E+03  0.25500000920E-02 0. -1.
       -2    1    3    3    0  502 -0.33012690490E+03  0.52012176787E+02 -0.33632658576E+03  0.47413564743E+03  0.25500000920E-02 0.  1.
</event>
<event>
 5   0  0.3717372E-02  0.7189374E+03  0.7818609E-02  0.9685384E-01
        1   -1    0    0  501    0  0.00000000000E+00  0.00000000000E+00  0.89517904835E+03  0.89517904836E+03  0.50400001928E-02 0.  1.
       -1   -1    0    0    0  501  0.00000000000E+00  0.00000000000E+00 -0.14434850932E+03  0.14434850941E+03  0.50400001928E-02 0. -1.
    10030    2    1    2    0    0  0.00000000000E+00  0.00000000000E+00  0.75083053903E+03  0.10395275578E+04  0.71893744166E+03 0.  0.
        3    1    3    3  502    0  0.21802677734E+03 -0.24166495162E+03  0.59603155783E+03  0.67911063356E+03  0.10100000352E+00 0. -1.
       -3    1    3    3    0  502 -0.21802677734E+03  0.24166495162E+03  0.15479898119E+03  0.36041692421E+03  0.10100000352E+00 0.  1.
</event>
<event>
 5   0  0.3601475E-02  0.6961027E+03  0.7818609E-02  0.9723920E-01
        1   -1    0    0  501    0  0.00000000000E+00  0.00000000000E+00  0.10804346477E+04  0.10804346477E+04  0.50400001928E-02 0.  1.
       -1   -1    0    0    0  501  0.00000000000E+00  0.00000000000E+00 -0.11212131278E+03  0.11212131290E+03  0.50400001928E-02 0. -1.
    10030    2    1    2    0    0  0.00000000000E+00  0.00000000000E+00  0.96831333495E+03  0.11925559606E+04  0.69610272562E+03 0.  0.
        5    1    3    3  502    0  0.92672480869E+02 -0.42529947106E+02  0.10542156556E+04  0.10591457519E+04  0.46999998093E+01 0.  1.
       -5    1    3    3    0  502 -0.92672480869E+02  0.42529947106E+02 -0.85902320678E+02  0.13341020878E+03  0.46999998093E+01 0. -1.
</event>
<event>
 5   0  0.6131198E-02  0.6999454E+03  0.7818609E-02  0.9717325E-01
       -2   -1    0    0    0  501  0.00000000000E+00  0.00000000000E+00  0.34067188164E+03  0.34067188165E+03  0.25500000920E-02 0.  1.
        2   -1    0    0  501    0  0.00000000000E+00  0.00000000000E+00 -0.35952748781E+03  0.35952748782E+03  0.25500000920E-02 0. -1.
    10030    2    1    2    0    0  0.00000000000E+00  0.00000000000E+00 -0.18855606174E+02  0.70019936947E+03  0.69994544296E+03 0.  0.
        1    1    3    3  502    0 -0.16395689740E+03 -0.24647290368E+03 -0.19617747455E+03  0.35512864993E+03  0.50400001928E-02 0. -1.
       -1    1    3    3    0  502  0.16395689740E+03  0.24647290368E+03  0.17732186838E+03  0.34507071954E+03  0.50400001928E-02 0.  1.
</event>
<event>
 5   0  0.3601475E-02  0.6892081E+03  0.7818609E-02  0.9735868E-01
       -1   -1    0    0    0  501  0.00000000000E+00  0.00000000000E+00  0.16782655333E+03  0.16782655341E+03  0.50400001928E-02 0. -1.
        1   -1    0    0  501    0  0.00000000000E+00  0.00000000000E+00 -0.70758729148E+03  0.70758729150E+03  0.50400001928E-02 0.  1.
    10030    2    1    2    0    0  0.00000000000E+00  0.00000000000E+00 -0.53976073815E+03  0.87541384491E+03  0.68920805669E+03 0.  0.
        5    1    3    3  502    0  0.30866703651E+03  0.13511735065E+03 -0.36145458351E+03  0.49416954966E+03  0.46999998093E+01 0.  1.
       -5    1    3    3    0  502 -0.30866703651E+03 -0.13511735065E+03 -0.17830615464E+03  0.38124429524E+03  0.46999998093E+01 0. -1.
</event>
<event>
 5   0  0.3717372E-02  0.6899257E+03  0.7818609E-02  0.9734617E-01
        1   -1    0    0  501    0  0.00000000000E+00  0.00000000000E+00  0.40610229439E+03  0.40610229442E+03  0.50400001928E-02 0.  1.
       -1   -1    0    0    0  501  0.00000000000E+00  0.00000000000E+00 -0.29302803265E+03  0.29302803269E+03  0.50400001928E-02 0. -1.
    10030    2    1    2    0    0  0.00000000000E+00  0.00000000000E+00  0.11307426174E+03  0.69913032711E+03  0.68992566674E+03 0.  0.
        3    1    3    3  502    0 -0.22464192200E+03  0.21404164845E+03  0.20928479782E+03  0.37426989886E+03  0.10100000352E+00 0.  1.
       -3    1    3    3    0  502  0.22464192200E+03 -0.21404164845E+03 -0.96210536083E+02  0.32486042825E+03  0.10100000352E+00 0. -1.
</event>
<event>
 5   0  0.2439375E-02  0.7012314E+03  0.7818609E-02  0.9715129E-01
        3   -1    0    0  501    0  0.00000000000E+00  0.00000000000E+00  0.10690782069E+03  0.10690786840E+03  0.10100000352E+00 0. -1.
       -3   -1    0    0    0  501  0.00000000000E+00  0.00000000000E+00 -0.11498815460E+04  0.11498815504E+04  0.10100000352E+00 0.  1.
    10030    2    1    2    0    0  0.00000000000E+00  0.00000000000E+00 -0.10429737253E+04  0.12567894188E+04  0.70123138236E+03 0.  0.
        1    1    3    3  502    0 -0.28670321114E+03 -0.17894540706E+03 -0.35420860803E+03  0.48957525265E+03  0.50400001928E-02 0. -1.
       -1    1    3    3    0  502  0.28670321114E+03  0.17894540706E+03 -0.68876511727E+03  0.76721416617E+03  0.50400001928E-02 0.  1.
</event>
<event>
 5   0  0.5899787E-02  0.5477563E+03  0.7818609E-02  0.1002015E+00
        2   -1    0    0  501    0  0.00000000000E+00  0.00000000000E+00  0.44462411720E+03  0.44462411721E+03  0.25500000920E-02 0. -1.
       -2   -1    0    0    0  501  0.00000000000E+00  0.00000000000E+00 -0.16870257435E+03  0.16870257437E+03  0.25500000920E-02 0.  1.
    10030    2    1    2    0    0  0.00000000000E+00  0.00000000000E+00  0.27592154285E+03  0.61332669158E+03  0.54775627134E+03 0.  0.
        2    1    3    3  502    0 -0.19132360519E+03 -0.10085751326E+03 -0.50177622187E+02  0.22202421863E+03  0.25500000920E-02 0.  1.
       -2    1    3    3    0  502  0.19132360519E+03  0.10085751326E+03  0.32609916504E+03  0.39130247294E+03  0.25500000920E-02 0. -1.
</event>
<event>
 5   0  0.3755872E-02  0.6985944E+03  0.7818609E-02  0.9719639E-01
       -1   -1    0    0    0  501  0.00000000000E+00  0.00000000000E+00  0.61452005624E+02  0.61452005831E+02  0.50400001928E-02 0.  1.
        1   -1    0    0  501    0  0.00000000000E+00  0.00000000000E+00 -0.19854279137E+04  0.19854279137E+04  0.50400001928E-02 0. -1.
    10030    2    1    2    0    0  0.00000000000E+00  0.00000000000E+00 -0.19239759081E+04  0.20468799195E+04  0.69859438171E+03 0.  0.
        2    1    3    3  502    0  0.19368260660E+03  0.24261616653E+03 -0.49288652990E+03  0.58250552591E+03  0.25500000920E-02 0.  1.
       -2    1    3    3    0  502 -0.19368260660E+03 -0.24261616653E+03 -0.14310893782E+04  0.14643743936E+04  0.25500000920E-02 0. -1.
</event>
<event>
 5   0  0.5987810E-02  0.6982497E+03  0.7818609E-02  0.9720230E-01
        2   -1    0    0  501    0  0.00000000000E+00  0.00000000000E+00  0.22975876878E+04  0.22975876878E+04  0.25500000920E-02 0. -1.
       -2   -1    0    0    0  501  0.00000000000E+00  0.00000000000E+00 -0.53050490716E+02  0.53050490777E+02  0.25500000920E-02 0.  1.
    10030    2    1    2    0    0  0.00000000000E+00  0.00000000000E+00  0.22445371971E+04  0.23506381786E+04  0.69824968135E+03 0.  0.
        5    1    3    3  502    0  0.22703217838E+03 -0.65810271463E+02  0.19870750408E+04  0.20010906800E+04  0.46999998093E+01 0. -1.
       -5    1    3    3    0  502 -0.22703217838E+03  0.65810271463E+02  0.25746215633E+03  0.34954749861E+03  0.46999998093E+01 0.  1.
</event>
<event>
 5   0  0.6167756E-02  0.7056240E+03  0.7818609E-02  0.9707662E-01
        2   -1    0    0  501    0  0.00000000000E+00  0.00000000000E+00  0.29768895705E+03  0.29768895706E+03  0.25500000920E-02 0.  1.
       -2   -1    0    0    0  501  0.00000000000E+00  0.00000000000E+00 -0.41814220327E+03  0.41814220328E+03  0.25500000920E-02 0. -1.
    10030    2    1    2    0    0  0.00000000000E+00  0.00000000000E+00 -0.12045324622E+03  0.71583116034E+03  0.70562402566E+03 0.  0.
        4    1    3    3  502    0 -0.33286549322E+03  0.69453466735E+02 -0.15566988129E+03  0.37397586214E+03  0.12699999809E+01 0.  1.
       -4    1    3    3    0  502  0.33286549322E+03 -0.69453466735E+02  0.35216635072E+02  0.34185529820E+03  0.12699999809E+01 0. -1.
</event>
<event>
 5   0  0.6167756E-02  0.7020203E+03  0.7818609E-02  0.9713783E-01
       -2   -1    0    0    0  501  0.00000000000E+00  0.00000000000E+00  0.82155019951E+02  0.82155019991E+02  0.25500000920E-02 0.  1.
        2   -1    0    0  501    0  0.00000000000E+00  0.00000000000E+00 -0.14997031418E+04  0.14997031418E+04  0.25500000920E-02 0. -1.
    10030    2    1    2    0    0  0.00000000000E+00  0.00000000000E+00 -0.14175481218E+04  0.15818581617E+04  0.70202034604E+03 0.  0.
        4    1    3    3  502    0 -0.34290673476E+03  0.71938018014E+02 -0.75638320605E+03  0.83359299090E+03  0.12699999809E+01 0. -1.
       -4    1    3    3    0  502  0.34290673476E+03 -0.71938018014E+02 -0.66116491576E+03  0.74826517085E+03  0.12699999809E+01 0.  1.
</event>
<event>
 5   0  0.3601475E-02  0.7509462E+03  0.7818609E-02  0.9633867E-01
       -1   -1    0    0    0  501  0.00000000000E+00  0.00000000000E+00  0.11043041941E+03  0.11043041953E+03  0.50400001928E-02 0. -1.
        1   -1    0    0  501    0  0.00000000000E+00  0.00000000000E+00 -0.12766413949E+04  0.12766413949E+04  0.50400001928E-02 0.  1.
    10030    2    1    2    0    0  0.00000000000E+00  0.00000000000E+00 -0.11662109755E+04  0.13870718144E+04  0.75094618919E+03 0.  0.
        5    1    3    3  502    0 -0.17167783588E+03  0.28281443255E+03 -0.25527447172E+03  0.41790480794E+03  0.46999998093E+01 0. -1.
       -5    1    3    3    0  502  0.17167783588E+03 -0.28281443255E+03 -0.91093650374E+03  0.96916700647E+03  0.46999998093E+01 0.  1.
</event>
<event>
 5   0  0.3601475E-02  0.6909986E+03  0.7818609E-02  0.9732751E-01
        1   -1    0    0  501    0  0.00000000000E+00  0.00000000000E+00  0.13412762774E+03  0.13412762783E+03  0.50400001928E-02 0.  1.
       -1   -1    0    0    0  501  0.00000000000E+00  0.00000000000E+00 -0.88997153709E+03  0.88997153711E+03  0.50400001928E-02 0. -1.
    10030    2    1    2    0    0  0.00000000000E+00  0.00000000000E+00 -0.75584390936E+03  0.10240991649E+04  0.69099861384E+03 0.  0.
        5    1    3    3  502    0  0.61430991435E+02  0.26723369683E+03 -0.66478153690E+02  0.28218619800E+03  0.46999998093E+01 0.  1.
       -5    1    3    3    0  502 -0.61430991435E+02 -0.26723369683E+03 -0.68936575567E+03  0.74191296694E+03  0.46999998093E+01 0. -1.
</event>
<event>
 5   0  0.3601475E-02  0.6490234E+03  0.7818609E-02  0.9808613E-01
       -1   -1    0    0    0  501  0.00000000000E+00  0.00000000000E+00  0.60021613425E+03  0.60021613427E+03  0.50400001928E-02 0.  1.
        1   -1    0    0  501    0  0.00000000000E+00  0.00000000000E+00 -0.17544985111E+03  0.17544985118E+03  0.50400001928E-02 0. -1.
    10030    2    1    2    0    0  0.00000000000E+00  0.00000000000E+00  0.42476628314E+03  0.77566598545E+03  0.64902336297E+03 0.  0.
        5    1    3    3  502    0  0.26293697847E+03  0.95429575687E+02  0.40891932409E+03  0.49545914279E+03  0.46999998093E+01 0.  1.
       -5    1    3    3    0  502 -0.26293697847E+03 -0.95429575687E+02  0.15846959050E+02  0.28020684266E+03  0.46999998093E+01 0. -1.
</event>
<event>
 5   0  0.6167756E-02  0.6786672E+03  0.7818609E-02  0.9754426E-01
       -2   -1    0    0    0  501  0.00000000000E+00  0.00000000000E+00  0.32139900547E+03  0.32139900548E+03  0.25500000920E-02 0. -1.
        2   -1    0    0  501    0  0.00000000000E+00  0.00000000000E+00 -0.35826894675E+03  0.35826894676E+03  0.25500000920E-02 0.  1.
    10030    2    1    2    0    0  0.00000000000E+00  0.00000000000E+00 -0.36869941281E+02  0.67966795224E+03  0.67866717375E+03 0.  0.
        4    1    3    3  502    0 -0.71865310177E+02  0.23047706962E+03 -0.25724282165E+03  0.35278858346E+03  0.12699999809E+01 0.  1.
       -4    1    3    3    0  502  0.71865310177E+02 -0.23047706962E+03  0.22037288037E+03  0.32687936878E+03  0.12699999809E+01 0. -1.
</event>
<event>
 5   0  0.5987810E-02  0.6965308E+03  0.7818609E-02  0.9723183E-01
       -2   -1    0    0    0  501  0.00000000000E+00  0.00000000000E+00  0.33809169876E+03  0.33809169877E+03  0.25500000920E-02 0.  1.
        2   -1    0    0  501    0  0.00000000000E+00  0.00000000000E+00 -0.35874526078E+03  0.35874526079E+03  0.25500000920E-02 0. -1.
    10030    2    1    2    0    0  0.00000000000E+00  0.00000000000E+00 -0.20653562020E+02  0.69683695956E+03  0.69653081668E+03 0.  0.
        5    1    3    3  502    0  0.31155505830E+02 -0.34373931154E+03 -0.56599945958E+02  0.34978997087E+03  0.46999998093E+01 0. -1.
       -5    1    3    3    0  502 -0.31155505830E+02  0.34373931154E+03  0.35946383938E+02  0.34704698869E+03  0.46999998093E+01 0.  1.
</event>
<event>
 5   0  0.3717372E-02  0.6975172E+03  0.7818609E-02  0.9721488E-01
       -1   -1    0    0    0  501  0.00000000000E+00  0.00000000000E+00  0.10207736220E+03  0.10207736233E+03  0.50400001928E-02 0. -1.
        1   -1    0    0  501    0  0.00000000000E+00  0.00000000000E+00 -0.11915721863E+04  0.11915721863E+04  0.50400001928E-02 0.  1.
    10030    2    1    2    0    0  0.00000000000E+00  0.00000000000E+00 -0.10894948241E+04  0.12936495486E+04  0.69751715603E+03 0.  0.
        3    1    3    3  502    0  0.93503833143E+02 -0.33354036101E+03 -0.46963077466E+03  0.58356251931E+03  0.10100000352E+00 0. -1.
       -3    1    3    3    0  502 -0.93503833143E+02  0.33354036101E+03 -0.61986404944E+03  0.71008702933E+03  0.10100000352E+00 0.  1.
</event>
<event>
 5   0  0.6167756E-02  0.6825190E+03  0.7818609E-02  0.9747603E-01
        2   -1    0    0  501    0  0.00000000000E+00  0.00000000000E+00  0.10129631457E+03  0.10129631460E+03  0.25500000920E-02 0.  1.
       -2   -1    0    0    0  501  0.00000000000E+00  0.00000000000E+00 -0.11496769221E+04  0.11496769221E+04  0.25500000920E-02 0. -1.
    10030    2    1    2    0    0  0.00000000000E+00  0.00000000000E+00 -0.10483806075E+04  0.12509732367E+04  0.68251896727E+03 0.  0.
        4    1    3    3  502    0  0.15933310795E+03  0.29578692804E+03 -0.41453161911E+03  0.53358693971E+03  0.12699999809E+01 0. -1.
       -4    1    3    3    0  502 -0.15933310795E+03 -0.29578692804E+03 -0.63384898837E+03  0.71738629695E+03  0.12699999809E+01 0.  1.
</event>
<event>
 5   0  0.6131198E-02  0.7034333E+03  0.7818609E-02  0.9711379E-01
       -2   -1    0    0    0  501  0.00000000000E+00  0.00000000000E+00  0.67339719067E+02  0.67339719115E+02  0.25500000920E-02 0.  1.
        2   -1    0    0  501    0  0.00000000000E+00  0.00000000000E+00 -0.18370230914E+04  0.18370230914E+04  0.25500000920E-02 0. -1.
    10030    2    1    2    0    0  0.00000000000E+00  0.00000000000E+00 -0.17696833723E+04  0.19043628105E+04  0.70343334849E+03 0.  0.
        1    1    3    3  502    0 -0.15238603763E+03  0.12155007876E+03 -0.16774145044E+04  0.16887022668E+04  0.50400001928E-02 0. -1.
       -1    1    3    3    0  502  0.15238603763E+03 -0.12155007876E+03 -0.92268867880E+02  0.21566054372E+03  0.50400001928E-02 0.  1.
</event>
<event>
 5   0  0.2439375E-02  0.6953553E+03  0.7818609E-02  0.9725208E-01
       -3   -1    0    0    0  501  0.00000000000E+00  0.00000000000E+00  0.68578550867E+03  0.68578551611E+03  0.10100000352E+00 0. -1.
        3   -1    0    0  501    0  0.00000000000E+00  0.00000000000E+00 -0.17626464571E+03  0.17626467464E+03  0.10100000352E+00 0.  1.
    10030    2    1    2    0    0  0.00000000000E+00  0.00000000000E+00  0.50952086296E+03  0.86205019075E+03  0.69535532038E+03 0.  0.
        1    1    3    3  502    0 -0.32680265258E+01 -0.22671538625E+02 -0.17532821422E+03  0.17681815910E+03  0.50400001928E-02 0.  1.
       -1    1    3    3    0  502  0.32680265258E+01  0.22671538625E+02  0.68484907718E+03  0.68523203165E+03  0.50400001928E-02 0. -1.
</event>
<event>
 5   0  0.3439015E-02  0.7008066E+03  0.7818609E-02  0.9715854E-01
       -1   -1    0    0    0  501  0.00000000000E+00  0.00000000000E+00  0.14490003150E+04  0.14490003150E+04  0.50400001928E-02 0.  1.
        1   -1    0    0  501    0  0.00000000000E+00  0.00000000000E+00 -0.84735985222E+02  0.84735985372E+02  0.50400001928E-02 0. -1.
    10030    2    1    2    0    0  0.00000000000E+00  0.00000000000E+00  0.13642643298E+04  0.15337363004E+04  0.70080659072E+03 0.  0.
        1    1    3    3  502    0 -0.26653711341E+02 -0.26534026004E+03  0.18467299427E+03  0.32437630734E+03  0.50400001928E-02 0. -1.
       -1    1    3    3    0  502  0.26653711341E+02  0.26534026004E+03  0.11795913355E+04  0.12093599930E+04  0.50400001928E-02 0.  1.
</event>
<event>
 5   0  0.6248886E-02  0.7052986E+03  0.7818609E-02  0.9708214E-01
       -2   -1    0    0    0  501  0.00000000000E+00  0.00000000000E+00  0.96629826999E+03  0.96629826999E+03  0.25500000920E-02 0.  1.
        2   -1    0    0  501    0  0.00000000000E+00  0.00000000000E+00 -0.12869889547E+03  0.12869889550E+03  0.25500000920E-02 0. -1.
    10030    2    1    2    0    0  0.00000000000E+00  0.00000000000E+00  0.83759937452E+03  0.10949971655E+04  0.70529857524E+03 0.  0.
        3    1    3    3  502    0  0.18489039927E+03 -0.12182712593E+03 -0.73272273535E+01  0.22154007948E+03  0.10100000352E+00 0. -1.
       -3    1    3    3    0  502 -0.18489039927E+03  0.12182712593E+03  0.84492660187E+03  0.87345708601E+03  0.10100000352E+00 0.  1.
</event>
<event>
 5   0  0.3717372E-02  0.7094416E+03  0.7818609E-02  0.9701221E-01
       -1   -1    0    0    0  501  0.00000000000E+00  0.00000000000E+00  0.12693609060E+03  0.12693609070E+03  0.50400001928E-02 0.  1.
        1   -1    0    0  501    0  0.00000000000E+00  0.00000000000E+00 -0.99126149403E+03  0.99126149405E+03  0.50400001928E-02 0. -1.
    10030    2    1    2    0    0  0.00000000000E+00  0.00000000000E+00 -0.86432540344E+03  0.11181975847E+04  0.70944163643E+03 0.  0.
        3    1    3    3  502    0  0.17893071477E+03  0.29832425664E+03 -0.32281171520E+03  0.47457452150E+03  0.10100000352E+00 0. -1.
       -3    1    3    3    0  502 -0.17893071477E+03 -0.29832425664E+03 -0.54151368824E+03  0.64362306324E+03  0.10100000352E+00 0.  1.
</event>
<event>
 5   0  0.3601475E-02  0.7070803E+03  0.7818609E-02  0.9705200E-01
        1   -1    0    0  501    0  0.00000000000E+00  0.00000000000E+00  0.94270262078E+02  0.94270262213E+02  0.50400001928E-02 0. -1.
       -1   -1    0    0    0  501  0.00000000000E+00  0.00000000000E+00 -0.13258754525E+04  0.13258754525E+04  0.50400001928E-02 0.  1.
    10030    2    1    2    0    0  0.00000000000E+00  0.00000000000E+00 -0.12316051904E+04  0.14201457147E+04  0.70708026841E+03 0.  0.
        5    1    3    3  502    0 -0.10214566182E+03  0.18328217837E+03 -0.44386663842E+02  0.21451890141E+03  0.46999998093E+01 0. -1.
       -5    1    3    3    0  502  0.10214566182E+03 -0.18328217837E+03 -0.11872185266E+04  0.12056268133E+04  0.46999998093E+01 0.  1.
</event>
<event>
 5   0  0.2439375E-02  0.6973242E+03  0.7818609E-02  0.9721819E-01
        3   -1    0    0  501    0  0.00000000000E+00  0.00000000000E+00  0.16161446207E+03  0.16161449363E+03  0.10100000352E+00 0.  1.
       -3   -1    0    0    0  501  0.00000000000E+00  0.00000000000E+00 -0.75219290742E+03  0.75219291420E+03  0.10100000352E+00 0. -1.
    10030    2    1    2    0    0  0.00000000000E+00  0.00000000000E+00 -0.59057844536E+03  0.91380740783E+03  0.69732422767E+03 0.  0.
        1    1    3    3  502    0 -0.48463020851E+02 -0.27875125642E+03 -0.28284464647E+02  0.28434299413E+03  0.50400001928E-02 0.  1.
       -1    1    3    3    0  502  0.48463020851E+02  0.27875125642E+03 -0.56229398071E+03  0.62946441370E+03  0.50400001928E-02 0. -1.
</event>
<event>
 5   0  0.3439015E-02  0.7068508E+03  0.7818609E-02  0.9705588E-01
       -1   -1    0    0    0  501  0.00000000000E+00  0.00000000000E+00  0.47854407967E+03  0.47854407969E+03  0.50400001928E-02 0.  1.
        1   -1    0    0  501    0  0.00000000000E+00  0.00000000000E+00 -0.26101984758E+03  0.26101984762E+03  0.50400001928E-02 0. -1.
    10030    2    1    2    0    0  0.00000000000E+00  0.00000000000E+00  0.21752423209E+03  0.73956392732E+03  0.70685076999E+03 0.  0.
        1    1    3    3  502    0 -0.78177242125E+02  0.29918919572E+03  0.28780644262E+03  0.42244337427E+03  0.50400001928E-02 0. -1.
       -1    1    3    3    0  502  0.78177242125E+02 -0.29918919572E+03 -0.70282210528E+02  0.31712055305E+03  0.50400001928E-02 0.  1.
</event>
<event>
 5   0  0.3439015E-02  0.7640970E+03  0.7818609E-02  0.9613490E-01
        1   -1    0    0  501    0  0.00000000000E+00  0.00000000000E+00  0.11280933429E+04  0.11280933429E+04  0.50400001928E-02 0. -1.
       -1   -1    0    0    0  501  0.00000000000E+00  0.00000000000E+00 -0.12938738204E+03  0.12938738214E+03  0.50400001928E-02 0.  1.
    10030    2    1    2    0    0  0.00000000000E+00  0.00000000000E+00  0.99870596085E+03  0.12574807250E+04  0.76409696873E+03 0.  0.
        1    1    3    3  502    0  0.23381219226E+03 -0.29321705228E+03  0.61935054784E+03  0.72404383993E+03  0.50400001928E-02 0. -1.
       -1    1    3    3    0  502 -0.23381219226E+03  0.29321705228E+03  0.37935541301E+03  0.53343688511E+03  0.50400001928E-02 0.  1.
</event>
<event>
 5   0  0.2439375E-02  0.8152908E+03  0.7818609E-02  0.9538144E-01
       -3   -1    0    0    0  501  0.00000000000E+00  0.00000000000E+00  0.32799397991E+03  0.32799399546E+03  0.10100000352E+00 0.  1.
        3   -1    0    0  501    0  0.00000000000E+00  0.00000000000E+00 -0.50663961322E+03  0.50663962328E+03  0.10100000352E+00 0. -1.
    10030    2    1    2    0    0  0.00000000000E+00  0.00000000000E+00 -0.17864563331E+03  0.83463361874E+03  0.81529075503E+03 0.  0.
        1    1    3    3  502    0 -0.14232135593E+03 -0.36994331667E+03 -0.18677224123E+03  0.43817496051E+03  0.50400001928E-02 0. -1.
       -1    1    3    3    0  502  0.14232135593E+03  0.36994331667E+03  0.81266079228E+01  0.39645865823E+03  0.50400001928E-02 0.  1.
</event>
<event>
 5   0  0.6248886E-02  0.6954367E+03  0.7818609E-02  0.9725068E-01
       -2   -1    0    0    0  501  0.00000000000E+00  0.00000000000E+00  0.76079391931E+02  0.76079391974E+02  0.25500000920E-02 0.  1.
        2   -1    0    0  501    0  0.00000000000E+00  0.00000000000E+00 -0.15892351566E+04  0.15892351566E+04  0.25500000920E-02 0. -1.
    10030    2    1    2    0    0  0.00000000000E+00  0.00000000000E+00 -0.15131557647E+04  0.16653145486E+04  0.69543668119E+03 0.  0.
        3    1    3    3  502    0 -0.28240167521E+03  0.11768848950E+03 -0.36087094051E+03  0.47310583660E+03  0.10100000352E+00 0.  1.
       -3    1    3    3    0  502  0.28240167521E+03 -0.11768848950E+03 -0.11522848242E+04  0.11922087120E+04  0.10100000352E+00 0. -1.
</event>
<event>
 5   0  0.2439375E-02  0.6526384E+03  0.7818609E-02  0.9801841E-01
       -3   -1    0    0    0  501  0.00000000000E+00  0.00000000000E+00  0.92946604680E+03  0.92946605228E+03  0.10100000352E+00 0.  1.
        3   -1    0    0  501    0  0.00000000000E+00  0.00000000000E+00 -0.11456490879E+03  0.11456495331E+03  0.10100000352E+00 0. -1.
    10030    2    1    2    0    0  0.00000000000E+00  0.00000000000E+00  0.81490113800E+03  0.10440310056E+04  0.65263839600E+03 0.  0.
        3    1    3    3  502    0  0.62362663064E+02 -0.23342843358E+03  0.75831685005E+03  0.79587837678E+03  0.10100000352E+00 0.  1.
       -3    1    3    3    0  502 -0.62362663064E+02  0.23342843358E+03  0.56584287950E+02  0.24815262882E+03  0.10100000352E+00 0. -1.
</event>
<event>
 5   0  0.3439015E-02  0.7118294E+03  0.7818609E-02  0.9697214E-01
        1   -1    0    0  501    0  0.00000000000E+00  0.00000000000E+00  0.47413177780E+03  0.47413177782E+03  0.50400001928E-02 0. -1.
       -1   -1    0    0    0  501  0.00000000000E+00  0.00000000000E+00 -0.26717312237E+03  0.26717312242E+03  0.50400001928E-02 0.  1.
    10030    2    1    2    0    0  0.00000000000E+00  0.00000000000E+00  0.20695865543E+03  0.74130490024E+03  0.71182938269E+03 0.  0.
        1    1    3    3  502    0  0.11955356946E+03 -0.15769407574E+03  0.41155803813E+03  0.45666234383E+03  0.50400001928E-02 0. -1.
       -1    1    3    3    0  502 -0.11955356946E+03  0.15769407574E+03 -0.20459938270E+03  0.28464255641E+03  0.50400001928E-02 0.  1.
</event>
<event>
 5   0  0.3755872E-02  0.7331276E+03  0.7818609E-02  0.9662199E-01
       -1   -1    0    0    0  501  0.00000000000E+00  0.00000000000E+00  0.16137343308E+03  0.16137343316E+03  0.50400001928E-02 0. -1.
        1   -1    0    0  501    0  0.00000000000E+00  0.00000000000E+00 -0.83265892760E+03  0.83265892762E+03  0.50400001928E-02 0.  1.
    10030    2    1    2    0    0  0.00000000000E+00  0.00000000000E+00 -0.67128549452E+03  0.99403236078E+03  0.73312762813E+03 0.  0.
        2    1    3    3  502    0  0.52119882864E+02  0.23343019005E+03  0.40996168046E+02  0.24266607018E+03  0.25500000920E-02 0. -1.
       -2    1    3    3    0  502 -0.52119882864E+02 -0.23343019005E+03 -0.71228166257E+03  0.75136629060E+03  0.25500000920E-02 0.  1.
</event>
<event>
 5   0  0.3717372E-02  0.6977356E+03  0.7818609E-02  0.9721112E-01
       -1   -1    0    0    0  501  0.00000000000E+00  0.00000000000E+00  0.13609799812E+03  0.13609799821E+03  0.50400001928E-02 0.  1.
        1   -1    0    0  501    0  0.00000000000E+00  0.00000000000E+00 -0.89427288731E+03  0.89427288733E+03  0.50400001928E-02 0. -1.
    10030    2    1    2    0    0  0.00000000000E+00  0.00000000000E+00 -0.75817488919E+03  0.10303708855E+04  0.69773562268E+03 0.  0.
        3    1    3    3  502    0 -0.11354010406E+03 -0.32935015881E+03 -0.40655064359E+03  0.53539361067E+03  0.10100000352E+00 0. -1.
       -3    1    3    3    0  502  0.11354010406E+03  0.32935015881E+03 -0.35162424560E+03  0.49497727487E+03  0.10100000352E+00 0.  1.
</event>
<event>
 5   0  0.6167756E-02  0.6245147E+03  0.7818609E-02  0.9855812E-01
       -2   -1    0    0    0  501  0.00000000000E+00  0.00000000000E+00  0.97354694931E+02  0.97354694964E+02  0.25500000920E-02 0.  1.
        2   -1    0    0  501    0  0.00000000000E+00  0.00000000000E+00 -0.10015402257E+04  0.10015402257E+04  0.25500000920E-02 0. -1.
    10030    2    1    2    0    0  0.00000000000E+00  0.00000000000E+00 -0.90418553078E+03  0.10988949207E+04  0.62451466966E+03 0.  0.
        4    1    3    3  502    0 -0.30732142154E+03 -0.55284636979E+02 -0.45133996735E+03  0.54882804798E+03  0.12699999809E+01 0.  1.
       -4    1    3    3    0  502  0.30732142154E+03  0.55284636979E+02 -0.45284556342E+03  0.55006687269E+03  0.12699999809E+01 0. -1.
</event>
<event>
 5   0  0.6248886E-02  0.6951536E+03  0.7818609E-02  0.9725556E-01
       -2   -1    0    0    0  501  0.00000000000E+00  0.00000000000E+00  0.17257846001E+03  0.17257846003E+03  0.25500000920E-02 0. -1.
        2   -1    0    0  501    0  0.00000000000E+00  0.00000000000E+00 -0.70002736162E+03  0.70002736162E+03  0.25500000920E-02 0.  1.
    10030    2    1    2    0    0  0.00000000000E+00  0.00000000000E+00 -0.52744890161E+03  0.87260582165E+03  0.69515363494E+03 0.  0.
        3    1    3    3  502    0 -0.40865653407E+02  0.34282319552E+03 -0.21332743154E+03  0.40584029896E+03  0.10100000352E+00 0. -1.
       -3    1    3    3    0  502  0.40865653407E+02 -0.34282319552E+03 -0.31412147006E+03  0.46676552269E+03  0.10100000352E+00 0.  1.
</event>
<event>
 5   0  0.3749730E-02  0.7181706E+03  0.7818609E-02  0.9686653E-01
        1   -1    0    0  501    0  0.00000000000E+00  0.00000000000E+00  0.67367628318E+03  0.67367628320E+03  0.50400001928E-02 0.  1.
       -1   -1    0    0    0  501  0.00000000000E+00  0.00000000000E+00 -0.19140089334E+03  0.19140089340E+03  0.50400001928E-02 0. -1.
    10030    2    1    2    0    0  0.00000000000E+00  0.00000000000E+00  0.48227538985E+03  0.86507717661E+03  0.71817057155E+03 0.  0.
        4    1    3    3  502    0 -0.16154393506E+03  0.20154356355E+03 -0.59336744188E+02  0.26502587247E+03  0.12699999809E+01 0. -1.
       -4    1    3    3    0  502  0.16154393506E+03 -0.20154356355E+03  0.54161213403E+03  0.60005130414E+03  0.12699999809E+01 0.  1.
</event>
<event>
 5   0  0.3755872E-02  0.7765015E+03  0.7818609E-02  0.9594667E-01
       -1   -1    0    0    0  501  0.00000000000E+00  0.00000000000E+00  0.41534652355E+03  0.41534652358E+03  0.50400001928E-02 0. -1.
        1   -1    0    0  501    0  0.00000000000E+00  0.00000000000E+00 -0.36292262221E+03  0.36292262224E+03  0.50400001928E-02 0.  1.
    10030    2    1    2    0    0  0.00000000000E+00  0.00000000000E+00  0.52423901340E+02  0.77826914582E+03  0.77650151185E+03 0.  0.
        2    1    3    3  502    0 -0.34518366600E+03  0.16909336137E+03 -0.28633007569E+02  0.38544023825E+03  0.25500000920E-02 0. -1.
       -2    1    3    3    0  502  0.34518366600E+03 -0.16909336137E+03  0.81056908909E+02  0.39282890757E+03  0.25500000920E-02 0.  1.
</event>
<event>
 5   0  0.3755872E-02  0.7035289E+03  0.7818609E-02  0.9711216E-01
        1   -1    0    0  501    0  0.00000000000E+00  0.00000000000E+00  0.70956361114E+02  0.70956361293E+02  0.50400001928E-02 0.  1.
       -1   -1    0    0    0  501  0.00000000000E+00  0.00000000000E+00 -0.17438637042E+04  0.17438637042E+04  0.50400001928E-02 0. -1.
    10030    2    1    2    0    0  0.00000000000E+00  0.00000000000E+00 -0.16729073431E+04  0.18148200655E+04  0.70352888469E+03 0.  0.
        2    1    3    3  502    0  0.34214233147E+02 -0.15690885696E+03 -0.16437773605E+04  0.16516037703E+04  0.25500000920E-02 0. -1.
       -2    1    3    3    0  502 -0.34214233147E+02  0.15690885696E+03 -0.29129982636E+02  0.16321629526E+03  0.25500000920E-02 0.  1.
</event>
<event>
 5   0  0.3439015E-02  0.6985566E+03  0.7818609E-02  0.9719704E-01
       -1   -1    0    0    0  501  0.00000000000E+00  0.00000000000E+00  0.49872969477E+03  0.49872969479E+03  0.50400001928E-02 0.  1.
        1   -1    0    0  501    0  0.00000000000E+00  0.00000000000E+00 -0.24461215892E+03  0.24461215897E+03  0.50400001928E-02 0. -1.
    10030    2    1    2    0    0  0.00000000000E+00  0.00000000000E+00  0.25411753584E+03  0.74334185377E+03  0.69855664733E+03 0.  0.
        1    1    3    3  502    0  0.18125368655E+03 -0.98458972888E+02 -0.17287765247E+03  0.26913519090E+03  0.50400001928E-02 0. -1.
       -1    1    3    3    0  502 -0.18125368655E+03  0.98458972888E+02  0.42699518832E+03  0.47420666286E+03  0.50400001928E-02 0.  1.
</event>
<event>
 5   0  0.3601475E-02  0.6758740E+03  0.7818609E-02  0.9759404E-01
       -1   -1    0    0    0  501  0.00000000000E+00  0.00000000000E+00  0.13291892582E+03  0.13291892591E+03  0.50400001928E-02 0. -1.
        1   -1    0    0  501    0  0.00000000000E+00  0.00000000000E+00 -0.85918091145E+03  0.85918091147E+03  0.50400001928E-02 0.  1.
    10030    2    1    2    0    0  0.00000000000E+00  0.00000000000E+00 -0.72626198564E+03  0.99209983738E+03  0.67587396425E+03 0.  0.
        5    1    3    3  502    0 -0.45237432594E+02  0.23496891267E+03 -0.71334348963E+03  0.75242131776E+03  0.46999998093E+01 0.  1.
       -5    1    3    3    0  502  0.45237432594E+02 -0.23496891267E+03 -0.12918496006E+02  0.23967851962E+03  0.46999998093E+01 0. -1.
</event>
<event>
 5   0  0.3749730E-02  0.6837937E+03  0.7818609E-02  0.9745356E-01
       -1   -1    0    0    0  501  0.00000000000E+00  0.00000000000E+00  0.56251979301E+03  0.56251979303E+03  0.50400001928E-02 0.  1.
        1   -1    0    0  501    0  0.00000000000E+00  0.00000000000E+00 -0.20780325700E+03  0.20780325706E+03  0.50400001928E-02 0. -1.
    10030    2    1    2    0    0  0.00000000000E+00  0.00000000000E+00  0.35471653601E+03  0.77032305009E+03  0.68379366814E+03 0.  0.
        4    1    3    3  502    0  0.17294178057E+03 -0.73374566069E+02  0.49916166531E+03  0.53334479225E+03  0.12699999809E+01 0.  1.
       -4    1    3    3    0  502 -0.17294178057E+03  0.73374566069E+02 -0.14444512929E+03  0.23697825784E+03  0.12699999809E+01 0. -1.
</event>
<event>
 5   0  0.6167756E-02  0.7183784E+03  0.7818609E-02  0.9686309E-01
        2   -1    0    0  501    0  0.00000000000E+00  0.00000000000E+00  0.10074360957E+04  0.10074360957E+04  0.25500000920E-02 0. -1.
       -2   -1    0    0    0  501  0.00000000000E+00  0.00000000000E+00 -0.12806457760E+03  0.12806457762E+03  0.25500000920E-02 0.  1.
    10030    2    1    2    0    0  0.00000000000E+00  0.00000000000E+00  0.87937151808E+03  0.11355006733E+04  0.71837839073E+03 0.  0.
        4    1    3    3  502    0  0.96319913761E+02 -0.34235754693E+03  0.51917581367E+03  0.62931022090E+03  0.12699999809E+01 0. -1.
       -4    1    3    3    0  502 -0.96319913761E+02  0.34235754693E+03  0.36019570441E+03  0.50619045240E+03  0.12699999809E+01 0.  1.
</event>
<event>
 5   0  0.2439375E-02  0.5216947E+03  0.7818609E-02  0.1008266E+00
        3   -1    0    0  501    0  0.00000000000E+00  0.00000000000E+00  0.42145614586E+03  0.42145615796E+03  0.10100000352E+00 0.  1.
       -3   -1    0    0    0  501  0.00000000000E+00  0.00000000000E+00 -0.16144341543E+03  0.16144344702E+03  0.10100000352E+00 0. -1.
    10030    2    1    2    0    0  0.00000000000E+00  0.00000000000E+00  0.26001273043E+03  0.58289960499E+03  0.52169467077E+03 0.  0.
        2    1    3    3  502    0 -0.14552314497E+03 -0.63513204450E+02 -0.10122861069E+03  0.18830333106E+03  0.25500000920E-02 0. -1.
       -2    1    3    3    0  502  0.14552314497E+03  0.63513204450E+02  0.36124134111E+03  0.39459627393E+03  0.25500000920E-02 0.  1.
</event>
<event>
 5   0  0.6167756E-02  0.7031631E+03  0.7818609E-02  0.9711838E-01
       -2   -1    0    0    0  501  0.00000000000E+00  0.00000000000E+00  0.10570237114E+04  0.10570237114E+04  0.25500000920E-02 0.  1.
        2   -1    0    0  501    0  0.00000000000E+00  0.00000000000E+00 -0.11694116462E+03  0.11694116465E+03  0.25500000920E-02 0. -1.
    10030    2    1    2    0    0  0.00000000000E+00  0.00000000000E+00  0.94008254677E+03  0.11739648760E+04  0.70316309306E+03 0.  0.
        4    1    3    3  502    0  0.14172974001E+03 -0.23749186568E+02 -0.65664331781E+02  0.15800240642E+03  0.12699999809E+01 0. -1.
       -4    1    3    3    0  502 -0.14172974001E+03  0.23749186568E+02  0.10057468786E+04  0.10159624696E+04  0.12699999809E+01 0.  1.
</event>
<event>
 5   0  0.3439015E-02  0.7111528E+03  0.7818609E-02  0.9698347E-01
       -1   -1    0    0    0  501  0.00000000000E+00  0.00000000000E+00  0.82111518937E+02  0.82111519092E+02  0.50400001928E-02 0.  1.
        1   -1    0    0  501    0  0.00000000000E+00  0.00000000000E+00 -0.15397908993E+04  0.15397908993E+04  0.50400001928E-02 0. -1.
    10030    2    1    2    0    0  0.00000000000E+00  0.00000000000E+00 -0.14576793804E+04  0.16219024184E+04  0.71115278167E+03 0.  0.
        1    1    3    3  502    0  0.56158739480E+02 -0.21258892100E+03 -0.13661491846E+04  0.13837309883E+04  0.50400001928E-02 0. -1.
       -1    1    3    3    0  502 -0.56158739480E+02  0.21258892100E+03 -0.91530195738E+02  0.23817143008E+03  0.50400001928E-02 0.  1.
</event>
<event>
 5   0  0.3749730E-02  0.7144891E+03  0.7818609E-02  0.9692770E-01
       -1   -1    0    0    0  501  0.00000000000E+00  0.00000000000E+00  0.34558886785E+03  0.34558886789E+03  0.50400001928E-02 0. -1.
        1   -1    0    0  501    0  0.00000000000E+00  0.00000000000E+00 -0.36929338635E+03  0.36929338638E+03  0.50400001928E-02 0.  1.
    10030    2    1    2    0    0  0.00000000000E+00  0.00000000000E+00 -0.23704518492E+02  0.71488225427E+03  0.71448914147E+03 0.  0.
        4    1    3    3  502    0  0.56268442698E+02 -0.29824318533E+03 -0.20038877520E+03  0.36369274032E+03  0.12699999809E+01 0.  1.
       -4    1    3    3    0  502 -0.56268442698E+02  0.29824318533E+03  0.17668425671E+03  0.35118951395E+03  0.12699999809E+01 0. -1.
</event>
<event>
 5   0  0.6167756E-02  0.7030488E+03  0.7818609E-02  0.9712033E-01
        2   -1    0    0  501    0  0.00000000000E+00  0.00000000000E+00  0.77797047390E+03  0.77797047391E+03  0.25500000920E-02 0.  1.
       -2   -1    0    0    0  501  0.00000000000E+00  0.00000000000E+00 -0.15883559344E+03  0.15883559346E+03  0.25500000920E-02 0. -1.
    10030    2    1    2    0    0  0.00000000000E+00  0.00000000000E+00  0.61913488046E+03  0.93680606737E+03  0.70304879465E+03 0.  0.
        4    1    3    3  502    0  0.31754036020E+03 -0.15986449477E+02  0.10978114904E+03  0.33636432704E+03  0.12699999809E+01 0.  1.
       -4    1    3    3    0  502 -0.31754036020E+03  0.15986449477E+02  0.50935373142E+03  0.60044174033E+03  0.12699999809E+01 0. -1.
</event>
<event>
 5   0  0.6167756E-02  0.7347322E+03  0.7818609E-02  0.9659612E-01
       -2   -1    0    0    0  501  0.00000000000E+00  0.00000000000E+00  0.59244305128E+03  0.59244305128E+03  0.25500000920E-02 0.  1.
        2   -1    0    0  501    0  0.00000000000E+00  0.00000000000E+00 -0.22779888193E+03  0.22779888194E+03  0.25500000920E-02 0. -1.
    10030    2    1    2    0    0  0.00000000000E+00  0.00000000000E+00  0.36464416935E+03  0.82024193322E+03  0.73473223611E+03 0.  0.
        4    1    3    3  502    0  0.11352926346E+03 -0.26950056534E+03 -0.65898654142E+02  0.29977273708E+03  0.12699999809E+01 0. -1.
       -4    1    3    3    0  502 -0.11352926346E+03  0.26950056534E+03  0.43054282349E+03  0.52046919615E+03  0.12699999809E+01 0.  1.
</event>
<event>
 5   0  0.5987810E-02  0.6987655E+03  0.7818609E-02  0.9719346E-01
        2   -1    0    0  501    0  0.00000000000E+00  0.00000000000E+00  0.22692324235E+04  0.22692324235E+04  0.25500000920E-02 0.  1.
       -2   -1    0    0    0  501  0.00000000000E+00  0.00000000000E+00 -0.53792771783E+02  0.53792771844E+02  0.25500000920E-02 0. -1.
    10030    2    1    2    0    0  0.00000000000E+00  0.00000000000E+00  0.22154396517E+04  0.23230251954E+04  0.69876548842E+03 0.  0.
        5    1    3    3  502    0  0.14459731281E+03 -0.13383899983E+03  0.20667874874E+04  0.20761632568E+04  0.46999998093E+01 0.  1.
       -5    1    3    3    0  502 -0.14459731281E+03  0.13383899983E+03  0.14865216428E+03  0.24686193852E+03  0.46999998093E+01 0. -1.
</event>
<event>
 5   0  0.6131198E-02  0.6924816E+03  0.7818609E-02  0.9730177E-01
        2   -1    0    0  501    0  0.00000000000E+00  0.00000000000E+00  0.15767497360E+04  0.15767497360E+04  0.25500000920E-02 0. -1.
       -2   -1    0    0    0  501  0.00000000000E+00  0.00000000000E+00 -0.76031522852E+02  0.76031522894E+02  0.25500000920E-02 0.  1.
    10030    2    1    2    0    0  0.00000000000E+00  0.00000000000E+00  0.15007182132E+04  0.16527812589E+04  0.69248157700E+03 0.  0.
        1    1    3    3  502    0 -0.14356372684E+02  0.30407190877E+03  0.35660408503E+03  0.46886277803E+03  0.50400001928E-02 0.  1.
       -1    1    3    3    0  502  0.14356372684E+02 -0.30407190877E+03  0.11441141281E+04  0.11839184809E+04  0.50400001928E-02 0. -1.
</event>
<event>
 5   0  0.3601475E-02  0.7086955E+03  0.7818609E-02  0.9702476E-01
        1   -1    0    0  501    0  0.00000000000E+00  0.00000000000E+00  0.32383421199E+03  0.32383421203E+03  0.50400001928E-02 0.  1.
       -1   -1    0    0    0  501  0.00000000000E+00  0.00000000000E+00 -0.38773647504E+03  0.38773647507E+03  0.50400001928E-02 0. -1.
    10030    2    1    2    0    0  0.00000000000E+00  0.00000000000E+00 -0.63902263052E+02  0.71157068710E+03  0.70869552243E+03 0.  0.
        5    1    3    3  502    0  0.46585442615E+02  0.26534723674E+03  0.19911483468E+03  0.33503457567E+03  0.46999998093E+01 0.  1.
       -5    1    3    3    0  502 -0.46585442615E+02 -0.26534723674E+03 -0.26301709773E+03  0.37653611142E+03  0.46999998093E+01 0. -1.
</event>
<event>
 5   0  0.5987810E-02  0.7190588E+03  0.7818609E-02  0.9685183E-01
       -2   -1    0    0    0  501  0.00000000000E+00  0.00000000000E+00  0.36324876956E+03  0.36324876957E+03  0.25500000920E-02 0.  1.
        2   -1    0    0  501    0  0.00000000000E+00  0.00000000000E+00 -0.35584809504E+03  0.35584809505E+03  0.25500000920E-02 0. -1.
    10030    2    1    2    0    0  0.00000000000E+00  0.00000000000E+00  0.74006745211E+01  0.71909686462E+03  0.71905878113E+03 0.  0.
        5    1    3    3  502    0  0.79947029756E+02 -0.99976979127E+02  0.33965319566E+03  0.36300593280E+03  0.46999998093E+01 0.  1.
       -5    1    3    3    0  502 -0.79947029756E+02  0.99976979127E+02 -0.33225252114E+03  0.35609093182E+03  0.46999998093E+01 0. -1.
</event>
<event>
 5   0  0.2439375E-02  0.6955320E+03  0.7818609E-02  0.9724904E-01
       -4   -1    0    0    0  501  0.00000000000E+00  0.00000000000E+00  0.28066008449E+03  0.28066295788E+03  0.12699999809E+01 0.  1.
        4   -1    0    0  501    0  0.00000000000E+00  0.00000000000E+00 -0.43091092433E+03  0.43091279582E+03  0.12699999809E+01 0. -1.
    10030    2    1    2    0    0  0.00000000000E+00  0.00000000000E+00 -0.15025083983E+03  0.71157575371E+03  0.69553198229E+03 0.  0.
        1    1    3    3  502    0 -0.12203784951E+03 -0.90963904900E+02 -0.39502572402E+03  0.42333555411E+03  0.50400001928E-02 0. -1.
       -1    1    3    3    0  502  0.12203784951E+03  0.90963904900E+02  0.24477488419E+03  0.28824019960E+03  0.50400001928E-02 0.  1.
</event>
<event>
 5   0  0.5987810E-02  0.6973532E+03  0.7818609E-02  0.9721769E-01
        2   -1    0    0  501    0  0.00000000000E+00  0.00000000000E+00  0.75527570938E+03  0.75527570939E+03  0.25500000920E-02 0. -1.
       -2   -1    0    0    0  501  0.00000000000E+00  0.00000000000E+00 -0.16096820255E+03  0.16096820257E+03  0.25500000920E-02 0.  1.
    10030    2    1    2    0    0  0.00000000000E+00  0.00000000000E+00  0.59430750683E+03  0.91624391196E+03  0.69735320572E+03 0.  0.
        5    1    3    3  502    0 -0.34511867908E+03 -0.29315532750E+02  0.24481250647E+03  0.42417161201E+03  0.46999998093E+01 0.  1.
       -5    1    3    3    0  502  0.34511867908E+03  0.29315532750E+02  0.34949500036E+03  0.49207229995E+03  0.46999998093E+01 0. -1.
</event>
<event>
 5   0  0.3439015E-02  0.6983072E+03  0.7818609E-02  0.9720131E-01
        1   -1    0    0  501    0  0.00000000000E+00  0.00000000000E+00  0.96681495956E+03  0.96681495958E+03  0.50400001928E-02 0.  1.
       -1   -1    0    0    0  501  0.00000000000E+00  0.00000000000E+00 -0.12609264196E+03  0.12609264207E+03  0.50400001928E-02 0. -1.
    10030    2    1    2    0    0  0.00000000000E+00  0.00000000000E+00  0.84072231760E+03  0.10929076016E+04  0.69830724643E+03 0.  0.
        1    1    3    3  502    0  0.17274773061E+02 -0.34196212886E+03  0.52733463308E+03  0.62874345375E+03  0.50400001928E-02 0.  1.
       -1    1    3    3    0  502 -0.17274773061E+02  0.34196212886E+03  0.31338768452E+03  0.46416414790E+03  0.50400001928E-02 0. -1.
</event>
<event>
 5   0  0.3755872E-02  0.6983075E+03  0.7818609E-02  0.9720131E-01
       -1   -1    0    0    0  501  0.00000000000E+00  0.00000000000E+00  0.36462306828E+03  0.36462306832E+03  0.50400001928E-02 0. -1.
        1   -1    0    0  501    0  0.00000000000E+00  0.00000000000E+00 -0.33434076988E+03  0.33434076992E+03  0.50400001928E-02 0.  1.
    10030    2    1    2    0    0  0.00000000000E+00  0.00000000000E+00  0.30282298401E+02  0.69896383824E+03  0.69830754655E+03 0.  0.
        2    1    3    3  502    0  0.13163883085E+03 -0.80020786492E+02  0.32876652187E+03  0.36306959934E+03  0.25500000920E-02 0. -1.
       -2    1    3    3    0  502 -0.13163883085E+03  0.80020786492E+02 -0.29848422347E+03  0.33589423890E+03  0.25500000920E-02 0.  1.
</event>
<event>
 5   0  0.3717372E-02  0.7070584E+03  0.7818609E-02  0.9705237E-01
        1   -1    0    0  501    0  0.00000000000E+00  0.00000000000E+00  0.66866020759E+03  0.66866020761E+03  0.50400001928E-02 0.  1.
       -1   -1    0    0    0  501  0.00000000000E+00  0.00000000000E+00 -0.18691542553E+03  0.18691542560E+03  0.50400001928E-02 0. -1.
    10030    2    1    2    0    0  0.00000000000E+00  0.00000000000E+00  0.48174478206E+03  0.85557563320E+03  0.70705843400E+03 0.  0.
        3    1    3    3  502    0  0.71228883501E+02 -0.70457703211E+02 -0.16937728530E+03  0.19679054033E+03  0.10100000352E+00 0. -1.
       -3    1    3    3    0  502 -0.71228883501E+02  0.70457703211E+02  0.65112206736E+03  0.65878509287E+03  0.10100000352E+00 0.  1.
</event>
<event>
 5   0  0.3717372E-02  0.7069002E+03  0.7818609E-02  0.9705504E-01
        1   -1    0    0  501    0  0.00000000000E+00  0.00000000000E+00  0.86452882710E+03  0.86452882711E+03  0.50400001928E-02 0.  1.
       -1   -1    0    0    0  501  0.00000000000E+00  0.00000000000E+00 -0.14450294746E+03  0.14450294755E+03  0.50400001928E-02 0. -1.
    10030    2    1    2    0    0  0.00000000000E+00  0.00000000000E+00  0.72002587964E+03  0.10090317747E+04  0.70690017324E+03 0.  0.
        3    1    3    3  502    0 -0.23754138887E+03  0.82762850964E+02  0.55930721884E+01  0.25160861190E+03  0.10100000352E+00 0. -1.
       -3    1    3    3    0  502  0.23754138887E+03 -0.82762850964E+02  0.71443280745E+03  0.75742316276E+03  0.10100000352E+00 0.  1.
</event>
<event>
 5   0  0.5899787E-02  0.6924826E+03  0.7818609E-02  0.9730175E-01
        2   -1    0    0  501    0  0.00000000000E+00  0.00000000000E+00  0.75030292308E+03  0.75030292308E+03  0.25500000920E-02 0.  1.
       -2   -1    0    0    0  501  0.00000000000E+00  0.00000000000E+00 -0.15977952615E+03  0.15977952617E+03  0.25500000920E-02 0. -1.
    10030    2    1    2    0    0  0.00000000000E+00  0.00000000000E+00  0.59052339693E+03  0.91008244925E+03  0.69248262225E+03 0.  0.
        2    1    3    3  502    0 -0.45560158865E+02 -0.58154038928E+01  0.74628153991E+03  0.74769357615E+03  0.25500000920E-02 0.  1.
       -2    1    3    3    0  502  0.45560158865E+02  0.58154038928E+01 -0.15575814298E+03  0.16238887311E+03  0.25500000920E-02 0. -1.
</event>
<event>
 5   0  0.3717372E-02  0.6993153E+03  0.7818609E-02  0.9718404E-01
       -1   -1    0    0    0  501  0.00000000000E+00  0.00000000000E+00  0.10907510450E+03  0.10907510461E+03  0.50400001928E-02 0.  1.
        1   -1    0    0  501    0  0.00000000000E+00  0.00000000000E+00 -0.11208835215E+04  0.11208835216E+04  0.50400001928E-02 0. -1.
    10030    2    1    2    0    0  0.00000000000E+00  0.00000000000E+00 -0.10118084170E+04  0.12299586262E+04  0.69931534323E+03 0.  0.
        3    1    3    3  502    0 -0.55231578350E+02  0.17799324061E+03 -0.10262497431E+04  0.10430343553E+04  0.10100000352E+00 0. -1.
       -3    1    3    3    0  502  0.55231578350E+02 -0.17799324061E+03  0.14441326012E+02  0.18692427089E+03  0.10100000352E+00 0.  1.
</event>
<event>
 5   0  0.3755872E-02  0.6911132E+03  0.7818609E-02  0.9732552E-01
       -1   -1    0    0    0  501  0.00000000000E+00  0.00000000000E+00  0.32354893027E+03  0.32354893031E+03  0.50400001928E-02 0.  1.
        1   -1    0    0  501    0  0.00000000000E+00  0.00000000000E+00 -0.36906117911E+03  0.36906117915E+03  0.50400001928E-02 0. -1.
    10030    2    1    2    0    0  0.00000000000E+00  0.00000000000E+00 -0.45512248844E+02  0.69261010945E+03  0.69111315927E+03 0.  0.
        2    1    3    3  502    0 -0.40499097038E+02 -0.33701201869E+03 -0.87642577818E+02  0.35056882214E+03  0.25500000920E-02 0.  1.
       -2    1    3    3    0  502  0.40499097038E+02  0.33701201869E+03  0.42130328974E+02  0.34204128731E+03  0.25500000920E-02 0. -1.
</event>
<event>
 5   0  0.3439015E-02  0.6960936E+03  0.7818609E-02  0.9723936E-01
        1   -1    0    0  501    0  0.00000000000E+00  0.00000000000E+00  0.24318577658E+03  0.24318577663E+03  0.50400001928E-02 0. -1.
       -1   -1    0    0    0  501  0.00000000000E+00  0.00000000000E+00 -0.49812354242E+03  0.49812354245E+03  0.50400001928E-02 0.  1.
    10030    2    1    2    0    0  0.00000000000E+00  0.00000000000E+00 -0.25493776584E+03  0.74130931908E+03  0.69609355844E+03 0.  0.
        1    1    3    3  502    0  0.30848298597E+03 -0.10595463046E+02 -0.29873342843E+03  0.42955288121E+03  0.50400001928E-02 0.  1.
       -1    1    3    3    0  502 -0.30848298597E+03  0.10595463046E+02  0.43795662585E+02  0.31175643787E+03  0.50400001928E-02 0. -1.
</event>
<event>
 5   0  0.6131198E-02  0.7051292E+03  0.7818609E-02  0.9708501E-01
        2   -1    0    0  501    0  0.00000000000E+00  0.00000000000E+00  0.31223409925E+03  0.31223409926E+03  0.25500000920E-02 0.  1.
       -2   -1    0    0    0  501  0.00000000000E+00  0.00000000000E+00 -0.39810444861E+03  0.39810444862E+03  0.25500000920E-02 0. -1.
    10030    2    1    2    0    0  0.00000000000E+00  0.00000000000E+00 -0.85870349362E+02  0.71033854788E+03  0.70512916243E+03 0.  0.
        1    1    3    3  502    0  0.26147241354E+03 -0.83257682616E+02  0.18006445286E+03  0.32821162680E+03  0.50400001928E-02 0.  1.
       -1    1    3    3    0  502 -0.26147241354E+03  0.83257682616E+02 -0.26593480222E+03  0.38212692108E+03  0.50400001928E-02 0. -1.
</event>
<event>
 5   0  0.5899787E-02  0.7072359E+03  0.7818609E-02  0.9704937E-01
        2   -1    0    0  501    0  0.00000000000E+00  0.00000000000E+00  0.11302433961E+04  0.11302433961E+04  0.25500000920E-02 0. -1.
       -2   -1    0    0    0  501  0.00000000000E+00  0.00000000000E+00 -0.11063602531E+03  0.11063602534E+03  0.25500000920E-02 0.  1.
    10030    2    1    2    0    0  0.00000000000E+00  0.00000000000E+00  0.10196073708E+04  0.12408794214E+04  0.70723585034E+03 0.  0.
        2    1    3    3  502    0 -0.14808512012E+03  0.28685786484E+03  0.25658280140E+03  0.41237285484E+03  0.25500000920E-02 0.  1.
       -2    1    3    3    0  502  0.14808512012E+03 -0.28685786484E+03  0.76302456937E+03  0.82850656660E+03  0.25500000920E-02 0. -1.
</event>
<event>
 5   0  0.2439375E-02  0.7193822E+03  0.7818609E-02  0.9684648E-01
        3   -1    0    0  501    0  0.00000000000E+00  0.00000000000E+00  0.22006528665E+03  0.22006530982E+03  0.10100000352E+00 0.  1.
       -3   -1    0    0    0  501  0.00000000000E+00  0.00000000000E+00 -0.58790593184E+03  0.58790594052E+03  0.10100000352E+00 0. -1.
    10030    2    1    2    0    0  0.00000000000E+00  0.00000000000E+00 -0.36784064519E+03  0.80797125034E+03  0.71938223576E+03 0.  0.
        5    1    3    3  502    0  0.21816392434E+03 -0.28547278193E+03 -0.20221771718E+03  0.41231577977E+03  0.46999998093E+01 0. -1.
       -5    1    3    3    0  502 -0.21816392434E+03  0.28547278193E+03 -0.16562292801E+03  0.39565547057E+03  0.46999998093E+01 0.  1.
</event>
<event>
 5   0  0.3717372E-02  0.6175928E+03  0.7818609E-02  0.9869564E-01
       -1   -1    0    0    0  501  0.00000000000E+00  0.00000000000E+00  0.95428946644E+02  0.95428946777E+02  0.50400001928E-02 0.  1.
        1   -1    0    0  501    0  0.00000000000E+00  0.00000000000E+00 -0.99922744269E+03  0.99922744271E+03  0.50400001928E-02 0. -1.
    10030    2    1    2    0    0  0.00000000000E+00  0.00000000000E+00 -0.90379849605E+03  0.10946563895E+04  0.61759281859E+03 0.  0.
        3    1    3    3  502    0  0.15181247934E+03 -0.19561635862E+03 -0.77892790771E+03  0.81733804772E+03  0.10100000352E+00 0. -1.
       -3    1    3    3    0  502 -0.15181247934E+03  0.19561635862E+03 -0.12487058834E+03  0.27731834176E+03  0.10100000352E+00 0.  1.
</event>
<event>
 5   0  0.6131198E-02  0.7199528E+03  0.7818609E-02  0.9683706E-01
       -2   -1    0    0    0  501  0.00000000000E+00  0.00000000000E+00  0.17093064649E+03  0.17093064651E+03  0.25500000920E-02 0. -1.
        2   -1    0    0  501    0  0.00000000000E+00  0.00000000000E+00 -0.75810279763E+03  0.75810279764E+03  0.25500000920E-02 0.  1.
    10030    2    1    2    0    0  0.00000000000E+00  0.00000000000E+00 -0.58717215114E+03  0.92903344415E+03  0.71995277988E+03 0.  0.
        1    1    3    3  502    0 -0.18378329435E+03 -0.30683379617E+03 -0.34615695130E+03  0.49774281784E+03  0.50400001928E-02 0.  1.
       -1    1    3    3    0  502  0.18378329435E+03  0.30683379617E+03 -0.24101519984E+03  0.43129062630E+03  0.50400001928E-02 0. -1.
</event>
<event>
 5   0  0.3439015E-02  0.6607630E+03  0.7818609E-02  0.9786790E-01
       -1   -1    0    0    0  501  0.00000000000E+00  0.00000000000E+00  0.15041151609E+03  0.15041151618E+03  0.50400001928E-02 0.  1.
        1   -1    0    0  501    0  0.00000000000E+00  0.00000000000E+00 -0.72568874938E+03  0.72568874940E+03  0.50400001928E-02 0. -1.
    10030    2    1    2    0    0  0.00000000000E+00  0.00000000000E+00 -0.57527723329E+03  0.87610026558E+03  0.66076302878E+03 0.  0.
        1    1    3    3  502    0  0.12913349851E+03 -0.15085604913E+03 -0.63773163922E+03  0.66793311917E+03  0.50400001928E-02 0. -1.
       -1    1    3    3    0  502 -0.12913349851E+03  0.15085604913E+03  0.62454405932E+02  0.20816714641E+03  0.50400001928E-02 0.  1.
</event>
<event>
 5   0  0.3717372E-02  0.7014467E+03  0.7818609E-02  0.9714761E-01
        1   -1    0    0  501    0  0.00000000000E+00  0.00000000000E+00  0.14092718168E+04  0.14092718168E+04  0.50400001928E-02 0. -1.
       -1   -1    0    0    0  501  0.00000000000E+00  0.00000000000E+00 -0.87283993325E+02  0.87283993471E+02  0.50400001928E-02 0.  1.
    10030    2    1    2    0    0  0.00000000000E+00  0.00000000000E+00  0.13219878234E+04  0.14965558102E+04  0.70144671063E+03 0.  0.
        3    1    3    3  502    0  0.12484272182E+02  0.28716912750E+03  0.23224036683E+03  0.36953695759E+03  0.10100000352E+00 0.  1.
       -3    1    3    3    0  502 -0.12484272182E+02 -0.28716912750E+03  0.10897474566E+04  0.11270188526E+04  0.10100000352E+00 0. -1.
</event>
<event>
 5   0  0.6167756E-02  0.7064080E+03  0.7818609E-02  0.9706336E-01
       -2   -1    0    0    0  501  0.00000000000E+00  0.00000000000E+00  0.70017013064E+03  0.70017013064E+03  0.25500000920E-02 0.  1.
        2   -1    0    0  501    0  0.00000000000E+00  0.00000000000E+00 -0.17817536406E+03  0.17817536407E+03  0.25500000920E-02 0. -1.
    10030    2    1    2    0    0  0.00000000000E+00  0.00000000000E+00  0.52199476658E+03  0.87834549471E+03  0.70640800657E+03 0.  0.
        4    1    3    3  502    0  0.31552524538E+01  0.17654907880E+03  0.64134661256E+03  0.66521171306E+03  0.12699999809E+01 0.  1.
       -4    1    3    3    0  502 -0.31552524538E+01 -0.17654907880E+03 -0.11935184598E+03  0.21313378166E+03  0.12699999809E+01 0. -1.
</event>
<event>
 5   0  0.5987810E-02  0.7034935E+03  0.7818609E-02  0.9711276E-01
        2   -1    0    0  501    0  0.00000000000E+00  0.00000000000E+00  0.60483334958E+03  0.60483334958E+03  0.25500000920E-02 0. -1.
       -2   -1    0    0    0  501  0.00000000000E+00  0.00000000000E+00 -0.20456175515E+03  0.20456175517E+03  0.25500000920E-02 0.  1.
    10030    2    1    2    0    0  0.00000000000E+00  0.00000000000E+00  0.40027159443E+03  0.80939510475E+03  0.70349348703E+03 0.  0.
        5    1    3    3  502    0 -0.35222265630E+02 -0.42028703597E+02  0.59984865753E+03  0.60236826100E+03  0.46999998093E+01 0. -1.
       -5    1    3    3    0  502  0.35222265630E+02  0.42028703597E+02 -0.19957706310E+03  0.20702684376E+03  0.46999998093E+01 0.  1.
</event>
<event>
 5   0  0.3601475E-02  0.6888466E+03  0.7818609E-02  0.9736498E-01
       -1   -1    0    0    0  501  0.00000000000E+00  0.00000000000E+00  0.11224120698E+03  0.11224120710E+03  0.50400001928E-02 0. -1.
        1   -1    0    0  501    0  0.00000000000E+00  0.00000000000E+00 -0.10568971916E+04  0.10568971917E+04  0.50400001928E-02 0.  1.
    10030    2    1    2    0    0  0.00000000000E+00  0.00000000000E+00 -0.94465598466E+03  0.11691383988E+04  0.68884662014E+03 0.  0.
        5    1    3    3  502    0  0.38818908757E+02 -0.27799338830E+03 -0.13365260871E+03  0.31092176095E+03  0.46999998093E+01 0. -1.
       -5    1    3    3    0  502 -0.38818908757E+02  0.27799338830E+03 -0.81100337594E+03  0.85821663780E+03  0.46999998093E+01 0.  1.
</event>
<event>
 5   0  0.6131198E-02  0.7033460E+03  0.7818609E-02  0.9711527E-01
        2   -1    0    0  501    0  0.00000000000E+00  0.00000000000E+00  0.11915873464E+04  0.11915873464E+04  0.25500000920E-02 0. -1.
       -2   -1    0    0    0  501  0.00000000000E+00  0.00000000000E+00 -0.10378919807E+03  0.10378919810E+03  0.25500000920E-02 0.  1.
    10030    2    1    2    0    0  0.00000000000E+00  0.00000000000E+00  0.10877981484E+04  0.12953765445E+04  0.70334598923E+03 0.  0.
        1    1    3    3  502    0  0.31827535444E+03  0.10874872655E+03  0.73305523051E+03  0.80653298617E+03  0.50400001928E-02 0. -1.
       -1    1    3    3    0  502 -0.31827535444E+03 -0.10874872655E+03  0.35474291785E+03  0.48884355837E+03  0.50400001928E-02 0.  1.
</event>
<event>
 5   0  0.5987810E-02  0.6962536E+03  0.7818609E-02  0.9723660E-01
       -2   -1    0    0    0  501  0.00000000000E+00  0.00000000000E+00  0.18879576946E+03  0.18879576948E+03  0.25500000920E-02 0. -1.
        2   -1    0    0  501    0  0.00000000000E+00  0.00000000000E+00 -0.64192267595E+03  0.64192267596E+03  0.25500000920E-02 0.  1.
    10030    2    1    2    0    0  0.00000000000E+00  0.00000000000E+00 -0.45312690649E+03  0.83071844543E+03  0.69625364789E+03 0.  0.
        5    1    3    3  502    0  0.12647673258E+03 -0.20370651303E+03  0.74514761512E+02  0.25113193149E+03  0.46999998093E+01 0. -1.
       -5    1    3    3    0  502 -0.12647673258E+03  0.20370651303E+03 -0.52764166800E+03  0.57958651394E+03  0.46999998093E+01 0.  1.
</event>
<event>
 5   0  0.6167756E-02  0.7042324E+03  0.7818609E-02  0.9710022E-01
        2   -1    0    0  501    0  0.00000000000E+00  0.00000000000E+00  0.36559277284E+03  0.36559277284E+03  0.25500000920E-02 0. -1.
       -2   -1    0    0    0  501  0.00000000000E+00  0.00000000000E+00 -0.33913638180E+03  0.33913638181E+03  0.25500000920E-02 0.  1.
    10030    2    1    2    0    0  0.00000000000E+00  0.00000000000E+00  0.26456391033E+02  0.70472915466E+03  0.70423237699E+03 0.  0.
        4    1    3    3  502    0 -0.22090830379E+03  0.17720199129E+03  0.22262009005E+03  0.36022540415E+03  0.12699999809E+01 0. -1.
       -4    1    3    3    0  502  0.22090830379E+03 -0.17720199129E+03 -0.19616369902E+03  0.34450375051E+03  0.12699999809E+01 0.  1.
</event>
<event>
 5   0  0.3717372E-02  0.6876332E+03  0.7818609E-02  0.9738618E-01
       -1   -1    0    0    0  501  0.00000000000E+00  0.00000000000E+00  0.39668655583E+03  0.39668655586E+03  0.50400001928E-02 0. -1.
        1   -1    0    0  501    0  0.00000000000E+00  0.00000000000E+00 -0.29799309365E+03  0.29799309369E+03  0.50400001928E-02 0.  1.
    10030    2    1    2    0    0  0.00000000000E+00  0.00000000000E+00  0.98693462174E+02  0.69467964955E+03  0.68763319875E+03 0.  0.
        3    1    3    3  502    0 -0.26481583711E+03 -0.14426651792E+03 -0.11748053350E+03  0.32363859740E+03  0.10100000352E+00 0.  1.
       -3    1    3    3    0  502  0.26481583711E+03  0.14426651792E+03  0.21617399567E+03  0.37104105215E+03  0.10100000352E+00 0. -1.
</event>
<event>
 5   0  0.3717372E-02  0.6742509E+03  0.7818609E-02  0.9762309E-01
       -1   -1    0    0    0  501  0.00000000000E+00  0.00000000000E+00  0.20085519469E+03  0.20085519475E+03  0.50400001928E-02 0.  1.
        1   -1    0    0  501    0  0.00000000000E+00  0.00000000000E+00 -0.56584825620E+03  0.56584825623E+03  0.50400001928E-02 0. -1.
    10030    2    1    2    0    0  0.00000000000E+00  0.00000000000E+00 -0.36499306152E+03  0.76670345098E+03  0.67425087822E+03 0.  0.
        3    1    3    3  502    0 -0.19976770032E+03 -0.17127524124E+03  0.57139543304E+02  0.26927175857E+03  0.10100000352E+00 0.  1.
       -3    1    3    3    0  502  0.19976770032E+03  0.17127524124E+03 -0.42213260482E+03  0.49743169240E+03  0.10100000352E+00 0. -1.
</event>
<event>
 5   0  0.6248886E-02  0.6958741E+03  0.7818609E-02  0.9724314E-01
        2   -1    0    0  501    0  0.00000000000E+00  0.00000000000E+00  0.20363252806E+04  0.20363252806E+04  0.25500000920E-02 0.  1.
       -2   -1    0    0    0  501  0.00000000000E+00  0.00000000000E+00 -0.59450318126E+02  0.59450318181E+02  0.25500000920E-02 0. -1.
    10030    2    1    2    0    0  0.00000000000E+00  0.00000000000E+00  0.19768749625E+04  0.20957755988E+04  0.69587408573E+03 0.  0.
        3    1    3    3  502    0 -0.10442702639E+03  0.42215630398E+02 -0.30213564572E+01  0.11267786866E+03  0.10100000352E+00 0. -1.
       -3    1    3    3    0  502  0.10442702639E+03 -0.42215630398E+02  0.19798963189E+04  0.19830977301E+04  0.10100000352E+00 0.  1.
</event>
<event>
 5   0  0.6167756E-02  0.6893516E+03  0.7818609E-02  0.9735618E-01
       -2   -1    0    0    0  501  0.00000000000E+00  0.00000000000E+00  0.20635962844E+03  0.20635962846E+03  0.25500000920E-02 0. -1.
        2   -1    0    0  501    0  0.00000000000E+00  0.00000000000E+00 -0.57570084317E+03  0.57570084317E+03  0.25500000920E-02 0.  1.
    10030    2    1    2    0    0  0.00000000000E+00  0.00000000000E+00 -0.36934121473E+03  0.78206047163E+03  0.68935161449E+03 0.  0.
        4    1    3    3  502    0 -0.26328932526E+03  0.12408970375E+03 -0.39410648885E+03  0.48993985429E+03  0.12699999809E+01 0.  1.
       -4    1    3    3    0  502  0.26328932526E+03 -0.12408970375E+03  0.24765274125E+02  0.29212061734E+03  0.12699999809E+01 0. -1.
</event>
<event>
 5   0  0.3755872E-02  0.8720259E+03  0.7818609E-02  0.9461242E-01
        1   -1    0    0  501    0  0.00000000000E+00  0.00000000000E+00  0.62365503265E+03  0.62365503267E+03  0.50400001928E-02 0. -1.
       -1   -1    0    0    0  501  0.00000000000E+00  0.00000000000E+00 -0.30482761155E+03  0.30482761159E+03  0.50400001928E-02 0.  1.
    10030    2    1    2    0    0  0.00000000000E+00  0.00000000000E+00  0.31882742110E+03  0.92848264426E+03  0.87202585756E+03 0.  0.
        2    1    3    3  502    0  0.14789463000E+03 -0.19057508995E+03 -0.22730259599E+03  0.33144857315E+03  0.25500000920E-02 0.  1.
       -2    1    3    3    0  502 -0.14789463000E+03  0.19057508995E+03  0.54613001710E+03  0.59703407111E+03  0.25500000920E-02 0. -1.
</event>
<event>
 5   0  0.3439015E-02  0.6783802E+03  0.7818609E-02  0.9754936E-01
       -1   -1    0    0    0  501  0.00000000000E+00  0.00000000000E+00  0.10904303513E+04  0.10904303513E+04  0.50400001928E-02 0. -1.
        1   -1    0    0  501    0  0.00000000000E+00  0.00000000000E+00 -0.10550873512E+03  0.10550873524E+03  0.50400001928E-02 0.  1.
    10030    2    1    2    0    0  0.00000000000E+00  0.00000000000E+00  0.98492161617E+03  0.11959390865E+04  0.67838020956E+03 0.  0.
        1    1    3    3  502    0 -0.20162964210E+03 -0.10456844474E+03  0.48352549201E+02  0.23222196548E+03  0.50400001928E-02 0.  1.
       -1    1    3    3    0  502  0.20162964210E+03  0.10456844474E+03  0.93656906697E+03  0.96371712106E+03  0.50400001928E-02 0. -1.
</event>
<event>
 5   0  0.3755872E-02  0.6990848E+03  0.7818609E-02  0.9718799E-01
       -1   -1    0    0    0  501  0.00000000000E+00  0.00000000000E+00  0.13987626303E+03  0.13987626312E+03  0.50400001928E-02 0. -1.
        1   -1    0    0  501    0  0.00000000000E+00  0.00000000000E+00 -0.87348544122E+03  0.87348544123E+03  0.50400001928E-02 0.  1.
    10030    2    1    2    0    0  0.00000000000E+00  0.00000000000E+00 -0.73360917819E+03  0.10133617044E+04  0.69908477135E+03 0.  0.
        2    1    3    3  502    0  0.13199687317E+03  0.25466177728E+03 -0.65636775715E+03  0.71630609935E+03  0.25500000920E-02 0.  1.
       -2    1    3    3    0  502 -0.13199687317E+03 -0.25466177728E+03 -0.77241421035E+02  0.29705560500E+03  0.25500000920E-02 0. -1.
</event>
<event>
 5   0  0.2439375E-02  0.6867090E+03  0.7818609E-02  0.9740235E-01
       -3   -1    0    0    0  501  0.00000000000E+00  0.00000000000E+00  0.14764113299E+03  0.14764116753E+03  0.10100000352E+00 0. -1.
        3   -1    0    0  501    0  0.00000000000E+00  0.00000000000E+00 -0.79850575829E+03  0.79850576468E+03  0.10100000352E+00 0.  1.
    10030    2    1    2    0    0  0.00000000000E+00  0.00000000000E+00 -0.65086462531E+03  0.94614693221E+03  0.68670900450E+03 0.  0.
        2    1    3    3  502    0 -0.13957311285E+03 -0.20122912360E+03 -0.65701702328E+03  0.70117414592E+03  0.25500000920E-02 0.  1.
       -2    1    3    3    0  502  0.13957311285E+03  0.20122912360E+03  0.61523979758E+01  0.24497278629E+03  0.25500000920E-02 0. -1.
</event>
<event>
 5   0  0.6167756E-02  0.6952736E+03  0.7818609E-02  0.9725349E-01
       -2   -1    0    0    0  501  0.00000000000E+00  0.00000000000E+00  0.10906789709E+03  0.10906789712E+03  0.25500000920E-02 0. -1.
        2   -1    0    0  501    0  0.00000000000E+00  0.00000000000E+00 -0.11080378661E+04  0.11080378661E+04  0.25500000920E-02 0.  1.
    10030    2    1    2    0    0  0.00000000000E+00  0.00000000000E+00 -0.99896996901E+03  0.12171057632E+04  0.69527364389E+03 0.  0.
        4    1    3    3  502    0  0.19334041379E+03  0.89173654440E+01  0.60238959014E+01  0.19364383603E+03  0.12699999809E+01 0. -1.
       -4    1    3    3    0  502 -0.19334041379E+03 -0.89173654440E+01 -0.10049938649E+04  0.10234619272E+04  0.12699999809E+01 0.  1.
</event>
<event>
 5   0  0.6167756E-02  0.7080970E+03  0.7818609E-02  0.9703485E-01
       -2   -1    0    0    0  501  0.00000000000E+00  0.00000000000E+00  0.80637716448E+03  0.80637716449E+03  0.25500000920E-02 0. -1.
        2   -1    0    0  501    0  0.00000000000E+00  0.00000000000E+00 -0.15544879218E+03  0.15544879220E+03  0.25500000920E-02 0.  1.
    10030    2    1    2    0    0  0.00000000000E+00  0.00000000000E+00  0.65092837230E+03  0.96182595668E+03  0.70809704496E+03 0.  0.
        4    1    3    3  502    0 -0.28906840770E+03  0.14197054743E+03  0.12568156961E+03  0.34570746377E+03  0.12699999809E+01 0.  1.
       -4    1    3    3    0  502  0.28906840770E+03 -0.14197054743E+03  0.52524680270E+03  0.61611849291E+03  0.12699999809E+01 0. -1.
</event>
<event>
 5   0  0.5987810E-02  0.6619566E+03  0.7818609E-02  0.9784599E-01
       -2   -1    0    0    0  501  0.00000000000E+00  0.00000000000E+00  0.16423579565E+04  0.16423579565E+04  0.25500000920E-02 0. -1.
        2   -1    0    0  501    0  0.00000000000E+00  0.00000000000E+00 -0.66700824610E+02  0.66700824659E+02  0.25500000920E-02 0.  1.
    10030    2    1    2    0    0  0.00000000000E+00  0.00000000000E+00  0.15756571319E+04  0.17090587812E+04  0.66195658483E+03 0.  0.
        5    1    3    3  502    0 -0.27633653134E+03  0.18198453068E+03  0.77064589857E+03  0.83868792703E+03  0.46999998093E+01 0. -1.
       -5    1    3    3    0  502  0.27633653134E+03 -0.18198453068E+03  0.80501123336E+03  0.87037085417E+03  0.46999998093E+01 0.  1.
</event>
<event>
 5   0  0.2439375E-02  0.6897847E+03  0.7818609E-02  0.9734863E-01
       -3   -1    0    0    0  501  0.00000000000E+00  0.00000000000E+00  0.24556554495E+03  0.24556556572E+03  0.10100000352E+00 0.  1.
        3   -1    0    0  501    0  0.00000000000E+00  0.00000000000E+00 -0.48439496679E+03  0.48439497732E+03  0.10100000352E+00 0. -1.
    10030    2    1    2    0    0  0.00000000000E+00  0.00000000000E+00 -0.23882942184E+03  0.72996054304E+03  0.68978467775E+03 0.  0.
        1    1    3    3  502    0 -0.26001192621E+03  0.21922005063E+03 -0.58742218013E+02  0.34512936788E+03  0.50400001928E-02 0.  1.
       -1    1    3    3    0  502  0.26001192621E+03 -0.21922005063E+03 -0.18008720383E+03  0.38483117516E+03  0.50400001928E-02 0. -1.
</event>
<event>
 5   0  0.3717372E-02  0.7153507E+03  0.7818609E-02  0.9691335E-01
       -1   -1    0    0    0  501  0.00000000000E+00  0.00000000000E+00  0.21751963712E+03  0.21751963718E+03  0.50400001928E-02 0. -1.
        1   -1    0    0  501    0  0.00000000000E+00  0.00000000000E+00 -0.58813849093E+03  0.58813849095E+03  0.50400001928E-02 0.  1.
    10030    2    1    2    0    0  0.00000000000E+00  0.00000000000E+00 -0.37061885381E+03  0.80565812813E+03  0.71535074238E+03 0.  0.
        3    1    3    3  502    0 -0.11276009560E+03 -0.17152854425E+02  0.19648930783E+03  0.22719400931E+03  0.10100000352E+00 0. -1.
       -3    1    3    3    0  502  0.11276009560E+03  0.17152854425E+02 -0.56710816163E+03  0.57846411882E+03  0.10100000352E+00 0.  1.
</event>
<event>
 5   0  0.3755872E-02  0.6926501E+03  0.7818609E-02  0.9729885E-01
        1   -1    0    0  501    0  0.00000000000E+00  0.00000000000E+00  0.46905341916E+03  0.46905341919E+03  0.50400001928E-02 0.  1.
       -1   -1    0    0    0  501  0.00000000000E+00  0.00000000000E+00 -0.25570873299E+03  0.25570873304E+03  0.50400001928E-02 0. -1.
    10030    2    1    2    0    0  0.00000000000E+00  0.00000000000E+00  0.21334468617E+03  0.72476215223E+03  0.69265014415E+03 0.  0.
        2    1    3    3  502    0 -0.22079597781E+03 -0.55071105956E+01 -0.17245291015E+03  0.28021634197E+03  0.25500000920E-02 0. -1.
       -2    1    3    3    0  502  0.22079597781E+03  0.55071105956E+01  0.38579759632E+03  0.44454581026E+03  0.25500000920E-02 0.  1.
</event>
<event>
 5   0  0.6131198E-02  0.7008731E+03  0.7818609E-02  0.9715740E-01
        2   -1    0    0  501    0  0.00000000000E+00  0.00000000000E+00  0.10008968728E+04  0.10008968728E+04  0.25500000920E-02 0. -1.
       -2   -1    0    0    0  501  0.00000000000E+00  0.00000000000E+00 -0.12269572006E+03  0.12269572009E+03  0.25500000920E-02 0.  1.
    10030    2    1    2    0    0  0.00000000000E+00  0.00000000000E+00  0.87820115276E+03  0.11235925929E+04  0.70087306278E+03 0.  0.
        1    1    3    3  502    0  0.15919785714E+03 -0.31013609109E+03  0.38180321539E+03  0.51701261882E+03  0.50400001928E-02 0. -1.
       -1    1    3    3    0  502 -0.15919785714E+03  0.31013609109E+03  0.49639793737E+03  0.60657997408E+03  0.50400001928E-02 0.  1.
</event>
<event>
 5   0  0.3755872E-02  0.8743566E+03  0.7818609E-02  0.9458217E-01
        1   -1    0    0  501    0  0.00000000000E+00  0.00000000000E+00  0.32513639068E+03  0.32513639072E+03  0.50400001928E-02 0.  1.
       -1   -1    0    0    0  501  0.00000000000E+00  0.00000000000E+00 -0.58782987515E+03  0.58782987517E+03  0.50400001928E-02 0. -1.
    10030    2    1    2    0    0  0.00000000000E+00  0.00000000000E+00 -0.26269348447E+03  0.91296626589E+03  0.87435664112E+03 0.  0.
        2    1    3    3  502    0  0.65747277568E+01  0.42799976715E+03 -0.22414092038E+03  0.48318338125E+03  0.25500000920E-02 0.  1.
       -2    1    3    3    0  502 -0.65747277568E+01 -0.42799976715E+03 -0.38552564088E+02  0.42978288464E+03  0.25500000920E-02 0. -1.
</event>
<event>
 5   0  0.6167756E-02  0.7635723E+03  0.7818609E-02  0.9614295E-01
       -2   -1    0    0    0  501  0.00000000000E+00  0.00000000000E+00  0.41714058127E+03  0.41714058128E+03  0.25500000920E-02 0. -1.
        2   -1    0    0  501    0  0.00000000000E+00  0.00000000000E+00 -0.34942817543E+03  0.34942817544E+03  0.25500000920E-02 0.  1.
    10030    2    1    2    0    0  0.00000000000E+00  0.00000000000E+00  0.67712405846E+02  0.76656875672E+03  0.76357232066E+03 0.  0.
        4    1    3    3  502    0 -0.34987236611E+03 -0.11314249023E+03  0.13695860418E+03  0.39239160009E+03  0.12699999809E+01 0. -1.
       -4    1    3    3    0  502  0.34987236611E+03  0.11314249023E+03 -0.69246198334E+02  0.37417715663E+03  0.12699999809E+01 0.  1.
</event>
<event>
 5   0  0.3601475E-02  0.6985452E+03  0.7818609E-02  0.9719723E-01
       -1   -1    0    0    0  501  0.00000000000E+00  0.00000000000E+00  0.97412145757E+02  0.97412145887E+02  0.50400001928E-02 0.  1.
        1   -1    0    0  501    0  0.00000000000E+00  0.00000000000E+00 -0.12523216505E+04  0.12523216505E+04  0.50400001928E-02 0. -1.
    10030    2    1    2    0    0  0.00000000000E+00  0.00000000000E+00 -0.11549095048E+04  0.13497337964E+04  0.69854517177E+03 0.  0.
        5    1    3    3  502    0 -0.27854638978E+03  0.13260014258E+03 -0.89376097605E+03  0.94551661085E+03  0.46999998093E+01 0. -1.
       -5    1    3    3    0  502  0.27854638978E+03 -0.13260014258E+03 -0.26114852873E+03  0.40421718559E+03  0.46999998093E+01 0.  1.
</event>
<event>
 5   0  0.5899787E-02  0.7642054E+03  0.7818609E-02  0.9613324E-01
       -2   -1    0    0    0  501  0.00000000000E+00  0.00000000000E+00  0.41260303039E+03  0.41260303040E+03  0.25500000920E-02 0.  1.
        2   -1    0    0  501    0  0.00000000000E+00  0.00000000000E+00 -0.35385698883E+03  0.35385698884E+03  0.25500000920E-02 0. -1.
    10030    2    1    2    0    0  0.00000000000E+00  0.00000000000E+00  0.58746041557E+02  0.76646001924E+03  0.76420538058E+03 0.  0.
        2    1    3    3  502    0  0.68907723183E+02  0.34576326570E+03 -0.11837744237E+03  0.37190553786E+03  0.25500000920E-02 0. -1.
       -2    1    3    3    0  502 -0.68907723183E+02 -0.34576326570E+03  0.17712348392E+03  0.39455448139E+03  0.25500000920E-02 0.  1.
</event>
<event>
 5   0  0.3749730E-02  0.7166341E+03  0.7818609E-02  0.9689201E-01
        1   -1    0    0  501    0  0.00000000000E+00  0.00000000000E+00  0.98338739652E+03  0.98338739653E+03  0.50400001928E-02 0.  1.
       -1   -1    0    0    0  501  0.00000000000E+00  0.00000000000E+00 -0.13056005567E+03  0.13056005577E+03  0.50400001928E-02 0. -1.
    10030    2    1    2    0    0  0.00000000000E+00  0.00000000000E+00  0.85282734085E+03  0.11139474523E+04  0.71663411389E+03 0.  0.
        4    1    3    3  502    0 -0.23053599498E+03 -0.16775898921E+03  0.76375979837E+03  0.81524264238E+03  0.12699999809E+01 0.  1.
       -4    1    3    3    0  502  0.23053599498E+03  0.16775898921E+03  0.89067542475E+02  0.29870480992E+03  0.12699999809E+01 0. -1.
</event>
<event>
 5   0  0.6167756E-02  0.7052767E+03  0.7818609E-02  0.9708251E-01
        2   -1    0    0  501    0  0.00000000000E+00  0.00000000000E+00  0.11597180490E+04  0.11597180490E+04  0.25500000920E-02 0.  1.
       -2   -1    0    0    0  501  0.00000000000E+00  0.00000000000E+00 -0.10722760829E+03  0.10722760832E+03  0.25500000920E-02 0. -1.
    10030    2    1    2    0    0  0.00000000000E+00  0.00000000000E+00  0.10524904407E+04  0.12669456573E+04  0.70527666261E+03 0.  0.
        4    1    3    3  502    0  0.52307316711E+02  0.21153491490E+03  0.10242968711E+04  0.10472195418E+04  0.12699999809E+01 0.  1.
       -4    1    3    3    0  502 -0.52307316711E+02 -0.21153491490E+03  0.28193569644E+02  0.21972611559E+03  0.12699999809E+01 0. -1.
</event>
<event>
 5   0  0.3717372E-02  0.7496548E+03  0.7818609E-02  0.9635892E-01
       -1   -1    0    0    0  501  0.00000000000E+00  0.00000000000E+00  0.89617232363E+02  0.89617232505E+02  0.50400001928E-02 0. -1.
        1   -1    0    0  501    0  0.00000000000E+00  0.00000000000E+00 -0.15677296414E+04  0.15677296414E+04  0.50400001928E-02 0.  1.
    10030    2    1    2    0    0  0.00000000000E+00  0.00000000000E+00 -0.14781124090E+04  0.16573468739E+04  0.74965483171E+03 0.  0.
        3    1    3    3  502    0  0.19460157504E+03  0.24155971540E+03 -0.12042457470E+04  0.12435548635E+04  0.10100000352E+00 0.  1.
       -3    1    3    3    0  502 -0.19460157504E+03 -0.24155971540E+03 -0.27386666201E+03  0.41379201040E+03  0.10100000352E+00 0. -1.
</event>
<event>
 5   0  0.5987810E-02  0.7039400E+03  0.7818609E-02  0.9710518E-01
       -2   -1    0    0    0  501  0.00000000000E+00  0.00000000000E+00  0.11326658458E+03  0.11326658461E+03  0.25500000920E-02 0.  1.
        2   -1    0    0  501    0  0.00000000000E+00  0.00000000000E+00 -0.10937282788E+04  0.10937282788E+04  0.25500000920E-02 0. -1.
    10030    2    1    2    0    0  0.00000000000E+00  0.00000000000E+00 -0.98046169424E+03  0.12069948634E+04  0.70393995942E+03 0.  0.
        5    1    3    3  502    0 -0.14227175587E+03  0.21804626433E+03 -0.89625867739E+03  0.93332048767E+03  0.46999998093E+01 0. -1.
       -5    1    3    3    0  502  0.14227175587E+03 -0.21804626433E+03 -0.84203016853E+02  0.27367437576E+03  0.46999998093E+01 0.  1.
</event>
<event>
 5   0  0.5987810E-02  0.6293723E+03  0.7818609E-02  0.9846274E-01
        2   -1    0    0  501    0  0.00000000000E+00  0.00000000000E+00  0.10897296303E+04  0.10897296303E+04  0.25500000920E-02 0. -1.
       -2   -1    0    0    0  501  0.00000000000E+00  0.00000000000E+00 -0.90873339943E+02  0.90873339979E+02  0.25500000920E-02 0.  1.
    10030    2    1    2    0    0  0.00000000000E+00  0.00000000000E+00  0.99885629034E+03  0.11806029703E+04  0.62937229415E+03 0.  0.
        5    1    3    3  502    0  0.17205003743E+03  0.96803285088E+02  0.39815508689E+02  0.20144343155E+03  0.46999998093E+01 0.  1.
       -5    1    3    3    0  502 -0.17205003743E+03 -0.96803285088E+02  0.95904078165E+03  0.97915953871E+03  0.46999998093E+01 0. -1.
</event>
<event>
 5   0  0.6131198E-02  0.7003545E+03  0.7818609E-02  0.9716626E-01
        2   -1    0    0  501    0  0.00000000000E+00  0.00000000000E+00  0.13916798178E+03  0.13916798180E+03  0.25500000920E-02 0. -1.
       -2   -1    0    0    0  501  0.00000000000E+00  0.00000000000E+00 -0.88112308175E+03  0.88112308176E+03  0.25500000920E-02 0.  1.
    10030    2    1    2    0    0  0.00000000000E+00  0.00000000000E+00 -0.74195509998E+03  0.10202910636E+04  0.70035454164E+03 0.  0.
        1    1    3    3  502    0  0.28229154619E+02  0.11776417399E+03  0.10769136871E+03  0.16205775750E+03  0.50400001928E-02 0. -1.
       -1    1    3    3    0  502 -0.28229154619E+02 -0.11776417399E+03 -0.84964646869E+03  0.85823330606E+03  0.50400001928E-02 0.  1.
</event>
<event>
 5   0  0.3755872E-02  0.7012206E+03  0.7818609E-02  0.9715147E-01
        1   -1    0    0  501    0  0.00000000000E+00  0.00000000000E+00  0.19645490064E+03  0.19645490070E+03  0.50400001928E-02 0.  1.
       -1   -1    0    0    0  501  0.00000000000E+00  0.00000000000E+00 -0.62572927899E+03  0.62572927901E+03  0.50400001928E-02 0. -1.
    10030    2    1    2    0    0  0.00000000000E+00  0.00000000000E+00 -0.42927437836E+03  0.82218417971E+03  0.70122060256E+03 0.  0.
        2    1    3    3  502    0 -0.30262843148E+03  0.21581529405E+02 -0.42067076445E+03  0.51866523116E+03  0.25500000920E-02 0. -1.
       -2    1    3    3    0  502  0.30262843148E+03 -0.21581529405E+02 -0.86036139085E+01  0.30351894855E+03  0.25500000920E-02 0.  1.
</event>
<event>
 5   0  0.3717372E-02  0.7017912E+03  0.7818609E-02  0.9714174E-01
        1   -1    0    0  501    0  0.00000000000E+00  0.00000000000E+00  0.84885558193E+03  0.84885558194E+03  0.50400001928E-02 0.  1.
       -1   -1    0    0    0  501  0.00000000000E+00  0.00000000000E+00 -0.14505144082E+03  0.14505144091E+03  0.50400001928E-02 0. -1.
    10030    2    1    2    0    0  0.00000000000E+00  0.00000000000E+00  0.70380414110E+03  0.99390702285E+03  0.70179120901E+03 0.  0.
        3    1    3    3  502    0 -0.12633840076E+03 -0.38015168221E+02  0.81239060049E+03  0.82303404698E+03  0.10100000352E+00 0.  1.
       -3    1    3    3    0  502  0.12633840076E+03  0.38015168221E+02 -0.10858645939E+03  0.17087297587E+03  0.10100000352E+00 0. -1.
</event>
<event>
 5   0  0.3439015E-02  0.5578729E+03  0.7818609E-02  0.9996879E-01
       -1   -1    0    0    0  501  0.00000000000E+00  0.00000000000E+00  0.17623388268E+04  0.17623388268E+04  0.50400001928E-02 0. -1.
        1   -1    0    0  501    0  0.00000000000E+00  0.00000000000E+00 -0.44149032340E+02  0.44149032628E+02  0.50400001928E-02 0.  1.
    10030    2    1    2    0    0  0.00000000000E+00  0.00000000000E+00  0.17181897945E+04  0.18064878595E+04  0.55787293939E+03 0.  0.
        1    1    3    3  502    0  0.11679702407E+03 -0.19811798978E+03  0.34798401112E+03  0.41711527750E+03  0.50400001928E-02 0. -1.
       -1    1    3    3    0  502 -0.11679702407E+03  0.19811798978E+03  0.13702057834E+04  0.13893725820E+04  0.50400001928E-02 0.  1.
</event>
<event>
 5   0  0.6167756E-02  0.6994485E+03  0.7818609E-02  0.9718176E-01
       -2   -1    0    0    0  501  0.00000000000E+00  0.00000000000E+00  0.17629129687E+03  0.17629129689E+03  0.25500000920E-02 0.  1.
        2   -1    0    0  501    0  0.00000000000E+00  0.00000000000E+00 -0.69377813187E+03  0.69377813188E+03  0.25500000920E-02 0. -1.
    10030    2    1    2    0    0  0.00000000000E+00  0.00000000000E+00 -0.51748683500E+03  0.87006942877E+03  0.69944848737E+03 0.  0.
        4    1    3    3  502    0  0.30639331323E+03 -0.13843824098E+03 -0.13901866076E+03  0.36382662066E+03  0.12699999809E+01 0. -1.
       -4    1    3    3    0  502 -0.30639331323E+03  0.13843824098E+03 -0.37846817423E+03  0.50624280811E+03  0.12699999809E+01 0.  1.
</event>
<event>
 5   0  0.3601475E-02  0.7016563E+03  0.7818609E-02  0.9714404E-01
        1   -1    0    0  501    0  0.00000000000E+00  0.00000000000E+00  0.16609185952E+04  0.16609185952E+04  0.50400001928E-02 0. -1.
       -1   -1    0    0    0  501  0.00000000000E+00  0.00000000000E+00 -0.74103814618E+02  0.74103814789E+02  0.50400001928E-02 0.  1.
    10030    2    1    2    0    0  0.00000000000E+00  0.00000000000E+00  0.15868147806E+04  0.17350224100E+04  0.70165633705E+03 0.  0.
        5    1    3    3  502    0 -0.71890971603E+02  0.17582307250E+03  0.64149772823E+02  0.20054762022E+03  0.46999998093E+01 0.  1.
       -5    1    3    3    0  502  0.71890971603E+02 -0.17582307250E+03  0.15226650078E+04  0.15344747898E+04  0.46999998093E+01 0. -1.
</event>
<event>
 5   0  0.3749730E-02  0.8277672E+03  0.7818609E-02  0.9520673E-01
       -1   -1    0    0    0  501  0.00000000000E+00  0.00000000000E+00  0.39163622138E+03  0.39163622141E+03  0.50400001928E-02 0.  1.
        1   -1    0    0  501    0  0.00000000000E+00  0.00000000000E+00 -0.43739473084E+03  0.43739473087E+03  0.50400001928E-02 0. -1.
    10030    2    1    2    0    0  0.00000000000E+00  0.00000000000E+00 -0.45758509465E+02  0.82903095229E+03  0.82776716452E+03 0.  0.
        4    1    3    3  502    0 -0.26471985001E+03 -0.31810777253E+03 -0.28258938703E+02  0.41481240875E+03  0.12699999809E+01 0. -1.
       -4    1    3    3    0  502  0.26471985001E+03  0.31810777253E+03 -0.17499570762E+02  0.41421854354E+03  0.12699999809E+01 0.  1.
</event>
<event>
 5   0  0.3755872E-02  0.6781174E+03  0.7818609E-02  0.9755404E-01
       -1   -1    0    0    0  501  0.00000000000E+00  0.00000000000E+00  0.17938806463E+03  0.17938806470E+03  0.50400001928E-02 0. -1.
        1   -1    0    0  501    0  0.00000000000E+00  0.00000000000E+00 -0.64084978816E+03  0.64084978818E+03  0.50400001928E-02 0.  1.
    10030    2    1    2    0    0  0.00000000000E+00  0.00000000000E+00 -0.46146172353E+03  0.82023785289E+03  0.67811740357E+03 0.  0.
        2    1    3    3  502    0  0.41187188807E+02  0.10026576774E+03  0.15786513234E+03  0.19149675903E+03  0.25500000920E-02 0. -1.
       -2    1    3    3    0  502 -0.41187188807E+02 -0.10026576774E+03 -0.61932685587E+03  0.62874109386E+03  0.25500000920E-02 0.  1.
</event>
<event>
 5   0  0.6248886E-02  0.8318819E+03  0.7818609E-02  0.9514982E-01
        2   -1    0    0  501    0  0.00000000000E+00  0.00000000000E+00  0.14315400464E+04  0.14315400464E+04  0.25500000920E-02 0. -1.
       -2   -1    0    0    0  501  0.00000000000E+00  0.00000000000E+00 -0.12085368030E+03  0.12085368032E+03  0.25500000920E-02 0.  1.
    10030    2    1    2    0    0  0.00000000000E+00  0.00000000000E+00  0.13106863661E+04  0.15523937267E+04  0.83188192219E+03 0.  0.
        3    1    3    3  502    0  0.10480397581E+03  0.40240064235E+03  0.67369606126E+03  0.79169220248E+03  0.10100000352E+00 0.  1.
       -3    1    3    3    0  502 -0.10480397581E+03 -0.40240064235E+03  0.63699030483E+03  0.76070152423E+03  0.10100000352E+00 0. -1.
</event>
<event>
 5   0  0.6167756E-02  0.7102608E+03  0.7818609E-02  0.9699844E-01
        2   -1    0    0  501    0  0.00000000000E+00  0.00000000000E+00  0.19353145693E+04  0.19353145693E+04  0.25500000920E-02 0.  1.
       -2   -1    0    0    0  501  0.00000000000E+00  0.00000000000E+00 -0.65166459831E+02  0.65166459881E+02  0.25500000920E-02 0. -1.
    10030    2    1    2    0    0  0.00000000000E+00  0.00000000000E+00  0.18701481095E+04  0.20004810292E+04  0.71026079491E+03 0.  0.
        4    1    3    3  502    0 -0.25680703846E+03 -0.19592513237E+03  0.13507360191E+04  0.13888217735E+04  0.12699999809E+01 0.  1.
       -4    1    3    3    0  502  0.25680703846E+03  0.19592513237E+03  0.51941209044E+03  0.61165925571E+03  0.12699999809E+01 0. -1.
</event>
<event>
 5   0  0.6131198E-02  0.7467761E+03  0.7818609E-02  0.9640422E-01
        2   -1    0    0  501    0  0.00000000000E+00  0.00000000000E+00  0.16448453492E+04  0.16448453492E+04  0.25500000920E-02 0. -1.
       -2   -1    0    0    0  501  0.00000000000E+00  0.00000000000E+00 -0.84760932991E+02  0.84760933029E+02  0.25500000920E-02 0.  1.
    10030    2    1    2    0    0  0.00000000000E+00  0.00000000000E+00  0.15600844162E+04  0.17296062822E+04  0.74677607475E+03 0.  0.
        1    1    3    3  502    0  0.91651781166E+02  0.20483729916E+03  0.88849999883E+02  0.24135594176E+03  0.50400001928E-02 0.  1.
       -1    1    3    3    0  502 -0.91651781166E+02 -0.20483729916E+03  0.14712344163E+04  0.14882503404E+04  0.50400001928E-02 0. -1.
</event>
<event>
 5   0  0.6248886E-02  0.7040796E+03  0.7818609E-02  0.9710281E-01
       -2   -1    0    0    0  501  0.00000000000E+00  0.00000000000E+00  0.78321955536E+02  0.78321955578E+02  0.25500000920E-02 0. -1.
        2   -1    0    0  501    0  0.00000000000E+00  0.00000000000E+00 -0.15823405202E+04  0.15823405202E+04  0.25500000920E-02 0.  1.
    10030    2    1    2    0    0  0.00000000000E+00  0.00000000000E+00 -0.15040185646E+04  0.16606624758E+04  0.70407955204E+03 0.  0.
        3    1    3    3  502    0  0.82286459815E+02 -0.15371211628E+03 -0.30663869370E+02  0.17702756634E+03  0.10100000352E+00 0. -1.
       -3    1    3    3    0  502 -0.82286459815E+02  0.15371211628E+03 -0.14733546953E+04  0.14836349094E+04  0.10100000352E+00 0.  1.
</event>
<event>
 5   0  0.3601475E-02  0.7319789E+03  0.7818609E-02  0.9664055E-01
        1   -1    0    0  501    0  0.00000000000E+00  0.00000000000E+00  0.12184261260E+04  0.12184261260E+04  0.50400001928E-02 0.  1.
       -1   -1    0    0    0  501  0.00000000000E+00  0.00000000000E+00 -0.10993548118E+03  0.10993548129E+03  0.50400001928E-02 0. -1.
    10030    2    1    2    0    0  0.00000000000E+00  0.00000000000E+00  0.11084906448E+04  0.13283616073E+04  0.73197885904E+03 0.  0.
        5    1    3    3  502    0 -0.21515592075E+03 -0.23412387102E+03  0.88301202684E+03  0.93852990723E+03  0.46999998093E+01 0.  1.
       -5    1    3    3    0  502  0.21515592075E+03  0.23412387102E+03  0.22547861797E+03  0.38983170006E+03  0.46999998093E+01 0. -1.
</event>
<event>
 5   0  0.3749730E-02  0.7208060E+03  0.7818609E-02  0.9682298E-01
        1   -1    0    0  501    0  0.00000000000E+00  0.00000000000E+00  0.62778063274E+03  0.62778063276E+03  0.50400001928E-02 0. -1.
       -1   -1    0    0    0  501  0.00000000000E+00  0.00000000000E+00 -0.20690402342E+03  0.20690402348E+03  0.50400001928E-02 0.  1.
    10030    2    1    2    0    0  0.00000000000E+00  0.00000000000E+00  0.42087660932E+03  0.83468465624E+03  0.72080604540E+03 0.  0.
        4    1    3    3  502    0  0.18453931028E+03 -0.30955453676E+03  0.21409241306E+03  0.41918485481E+03  0.12699999809E+01 0. -1.
       -4    1    3    3    0  502 -0.18453931028E+03  0.30955453676E+03  0.20678419625E+03  0.41549980143E+03  0.12699999809E+01 0.  1.
</event>
<event>
 5   0  0.3717372E-02  0.7005958E+03  0.7818609E-02  0.9716214E-01
       -1   -1    0    0    0  501  0.00000000000E+00  0.00000000000E+00  0.32701688842E+03  0.32701688846E+03  0.50400001928E-02 0. -1.
        1   -1    0    0  501    0  0.00000000000E+00  0.00000000000E+00 -0.37523634059E+03  0.37523634062E+03  0.50400001928E-02 0.  1.
    10030    2    1    2    0    0  0.00000000000E+00  0.00000000000E+00 -0.48219452165E+02  0.70225322908E+03  0.70059580515E+03 0.  0.
        3    1    3    3  502    0  0.14096285304E+03  0.74861845572E+02  0.28845129421E+03  0.32966495293E+03  0.10100000352E+00 0. -1.
       -3    1    3    3    0  502 -0.14096285304E+03 -0.74861845572E+02 -0.33667074638E+03  0.37258827615E+03  0.10100000352E+00 0.  1.
</event>
<event>
 5   0  0.3439015E-02  0.7158025E+03  0.7818609E-02  0.9690583E-01
        1   -1    0    0  501    0  0.00000000000E+00  0.00000000000E+00  0.69646366683E+03  0.69646366685E+03  0.50400001928E-02 0. -1.
       -1   -1    0    0    0  501  0.00000000000E+00  0.00000000000E+00 -0.18391958935E+03  0.18391958942E+03  0.50400001928E-02 0.  1.
    10030    2    1    2    0    0  0.00000000000E+00  0.00000000000E+00  0.51254407748E+03  0.88038325627E+03  0.71580251924E+03 0.  0.
        1    1    3    3  502    0 -0.69823745655E+02 -0.34305218662E+03  0.16478387572E+03  0.38692878405E+03  0.50400001928E-02 0. -1.
       -1    1    3    3    0  502  0.69823745655E+02  0.34305218662E+03  0.34776020177E+03  0.49345447222E+03  0.50400001928E-02 0.  1.
</event>
<event>
 5   0  0.6167756E-02  0.6632785E+03  0.7818609E-02  0.9782177E-01
        2   -1    0    0  501    0  0.00000000000E+00  0.00000000000E+00  0.73457438411E+03  0.73457438412E+03  0.25500000920E-02 0.  1.
       -2   -1    0    0    0  501  0.00000000000E+00  0.00000000000E+00 -0.14972561046E+03  0.14972561049E+03  0.25500000920E-02 0. -1.
    10030    2    1    2    0    0  0.00000000000E+00  0.00000000000E+00  0.58484877365E+03  0.88429999460E+03  0.66327851798E+03 0.  0.
        4    1    3    3  502    0 -0.25429047766E+03 -0.10681157177E+02  0.57588853183E+03  0.62962445008E+03  0.12699999809E+01 0.  1.
       -4    1    3    3    0  502  0.25429047766E+03  0.10681157177E+02  0.89602418239E+01  0.25467554453E+03  0.12699999809E+01 0. -1.
</event>
<event>
 5   0  0.6131198E-02  0.6619191E+03  0.7818609E-02  0.9784667E-01
       -2   -1    0    0    0  501  0.00000000000E+00  0.00000000000E+00  0.66708613154E+02  0.66708613202E+02  0.25500000920E-02 0. -1.
        2   -1    0    0  501    0  0.00000000000E+00  0.00000000000E+00 -0.16419802693E+04  0.16419802693E+04  0.25500000920E-02 0.  1.
    10030    2    1    2    0    0  0.00000000000E+00  0.00000000000E+00 -0.15752716562E+04  0.17086888825E+04  0.66191910876E+03 0.  0.
        1    1    3    3  502    0  0.11935826774E+03 -0.10924656258E+03 -0.15329145848E+04  0.15414306121E+04  0.50400001928E-02 0. -1.
       -1    1    3    3    0  502 -0.11935826774E+03  0.10924656258E+03 -0.42357071361E+02  0.16725827045E+03  0.50400001928E-02 0.  1.
</event>
<event>
 5   0  0.5899787E-02  0.6908371E+03  0.7818609E-02  0.9733032E-01
        2   -1    0    0  501    0  0.00000000000E+00  0.00000000000E+00  0.12226144849E+03  0.12226144852E+03  0.25500000920E-02 0. -1.
       -2   -1    0    0    0  501  0.00000000000E+00  0.00000000000E+00 -0.97589207860E+03  0.97589207860E+03  0.25500000920E-02 0.  1.
    10030    2    1    2    0    0  0.00000000000E+00  0.00000000000E+00 -0.85363063011E+03  0.10981535271E+04  0.69083711283E+03 0.  0.
        2    1    3    3  502    0 -0.31805872097E+03  0.26318912741E+02 -0.21677201984E+03  0.38580324486E+03  0.25500000920E-02 0. -1.
       -2    1    3    3    0  502  0.31805872097E+03 -0.26318912741E+02 -0.63685861027E+03  0.71235028226E+03  0.25500000920E-02 0.  1.
</event>
<event>
 5   0  0.3439015E-02  0.7172981E+03  0.7818609E-02  0.9688099E-01
       -1   -1    0    0    0  501  0.00000000000E+00  0.00000000000E+00  0.47089416094E+03  0.47089416097E+03  0.50400001928E-02 0.  1.
        1   -1    0    0  501    0  0.00000000000E+00  0.00000000000E+00 -0.27315933574E+03  0.27315933578E+03  0.50400001928E-02 0. -1.
    10030    2    1    2    0    0  0.00000000000E+00  0.00000000000E+00  0.19773482520E+03  0.74405349675E+03  0.71729808652E+03 0.  0.
        1    1    3    3  502    0  0.54683531257E+02  0.25470799667E+03  0.35456284171E+03  0.43997870506E+03  0.50400001928E-02 0.  1.
       -1    1    3    3    0  502 -0.54683531257E+02 -0.25470799667E+03 -0.15682801651E+03  0.30407479169E+03  0.50400001928E-02 0. -1.
</event>
<event>
 5   0  0.6248886E-02  0.5999732E+03  0.7818609E-02  0.9905462E-01
       -2   -1    0    0    0  501  0.00000000000E+00  0.00000000000E+00  0.93831499376E+02  0.93831499410E+02  0.25500000920E-02 0. -1.
        2   -1    0    0  501    0  0.00000000000E+00  0.00000000000E+00 -0.95908033439E+03  0.95908033440E+03  0.25500000920E-02 0.  1.
    10030    2    1    2    0    0  0.00000000000E+00  0.00000000000E+00 -0.86524883502E+03  0.10529118338E+04  0.59997315213E+03 0.  0.
        3    1    3    3  502    0 -0.83847404051E+02  0.11137874405E+03 -0.89877707281E+03  0.90952506760E+03  0.10100000352E+00 0.  1.
       -3    1    3    3    0  502  0.83847404051E+02 -0.11137874405E+03  0.33528237790E+02  0.14338676620E+03  0.10100000352E+00 0. -1.
</event>
<event>
 5   0  0.5987810E-02  0.7013720E+03  0.7818609E-02  0.9714889E-01
       -2   -1    0    0    0  501  0.00000000000E+00  0.00000000000E+00  0.21507477054E+03  0.21507477056E+03  0.25500000920E-02 0. -1.
        2   -1    0    0  501    0  0.00000000000E+00  0.00000000000E+00 -0.57180425898E+03  0.57180425898E+03  0.25500000920E-02 0.  1.
    10030    2    1    2    0    0  0.00000000000E+00  0.00000000000E+00 -0.35672948844E+03  0.78687902954E+03  0.70137199774E+03 0.  0.
        5    1    3    3  502    0  0.24105145661E+03 -0.15264081041E+03  0.50333935321E+02  0.28975958444E+03  0.46999998093E+01 0. -1.
       -5    1    3    3    0  502 -0.24105145661E+03  0.15264081041E+03 -0.40706342376E+03  0.49711944510E+03  0.46999998093E+01 0.  1.
</event>
<event>
 5   0  0.6131198E-02  0.7021452E+03  0.7818609E-02  0.9713571E-01
       -2   -1    0    0    0  501  0.00000000000E+00  0.00000000000E+00  0.14704684549E+03  0.14704684551E+03  0.25500000920E-02 0. -1.
        2   -1    0    0  501    0  0.00000000000E+00  0.00000000000E+00 -0.83818164678E+03  0.83818164678E+03  0.25500000920E-02 0.  1.
    10030    2    1    2    0    0  0.00000000000E+00  0.00000000000E+00 -0.69113480129E+03  0.98522849229E+03  0.70214519045E+03 0.  0.
        1    1    3    3  502    0 -0.15745714010E+03  0.14982932374E+03  0.41286087947E+02  0.22123769639E+03  0.50400001928E-02 0. -1.
       -1    1    3    3    0  502  0.15745714010E+03 -0.14982932374E+03 -0.73242088923E+03  0.76399079591E+03  0.50400001928E-02 0.  1.
</event>
<event>
 5   0  0.3439015E-02  0.7042190E+03  0.7818609E-02  0.9710044E-01
        1   -1    0    0  501    0  0.00000000000E+00  0.00000000000E+00  0.36184738630E+03  0.36184738633E+03  0.50400001928E-02 0.  1.
       -1   -1    0    0    0  501  0.00000000000E+00  0.00000000000E+00 -0.34263369247E+03  0.34263369251E+03  0.50400001928E-02 0. -1.
    10030    2    1    2    0    0  0.00000000000E+00  0.00000000000E+00  0.19213693822E+02  0.70448107884E+03  0.70421901737E+03 0.  0.
        1    1    3    3  502    0 -0.24000148868E+03  0.22349126093E+03  0.13784209874E+03  0.35573796886E+03  0.50400001928E-02 0.  1.
       -1    1    3    3    0  502  0.24000148868E+03 -0.22349126093E+03 -0.11862840492E+03  0.34874310998E+03  0.50400001928E-02 0. -1.
</event>
<event>
 5   0  0.3749730E-02  0.6450687E+03  0.7818609E-02  0.9816077E-01
        1   -1    0    0  501    0  0.00000000000E+00  0.00000000000E+00  0.14947470995E+04  0.14947470995E+04  0.50400001928E-02 0.  1.
       -1   -1    0    0    0  501  0.00000000000E+00  0.00000000000E+00 -0.69596000090E+02  0.69596000272E+02  0.50400001928E-02 0. -1.
    10030    2    1    2    0    0  0.00000000000E+00  0.00000000000E+00  0.14251510994E+04  0.15643430998E+04  0.64506873873E+03 0.  0.
        4    1    3    3  502    0  0.12528431404E+03 -0.20234904190E+03  0.18467902139E+03  0.30124615839E+03  0.12699999809E+01 0. -1.
       -4    1    3    3    0  502 -0.12528431404E+03  0.20234904190E+03  0.12404720780E+04  0.12630969414E+04  0.12699999809E+01 0.  1.
</event>
<event>
 5   0  0.3717372E-02  0.6959901E+03  0.7818609E-02  0.9724114E-01
        1   -1    0    0  501    0  0.00000000000E+00  0.00000000000E+00  0.10811315565E+04  0.10811315565E+04  0.50400001928E-02 0. -1.
       -1   -1    0    0    0  501  0.00000000000E+00  0.00000000000E+00 -0.11201278359E+03  0.11201278370E+03  0.50400001928E-02 0.  1.
    10030    2    1    2    0    0  0.00000000000E+00  0.00000000000E+00  0.96911877287E+03  0.11931443402E+04  0.69599010091E+03 0.  0.
        3    1    3    3  502    0  0.28424623820E+03 -0.10073217505E+03  0.78226612879E+03  0.83838129838E+03  0.10100000352E+00 0. -1.
       -3    1    3    3    0  502 -0.28424623820E+03  0.10073217505E+03  0.18685264408E+03  0.35476304179E+03  0.10100000352E+00 0.  1.
</event>
<event>
 5   0  0.6167756E-02  0.6913399E+03  0.7818609E-02  0.9732158E-01
        2   -1    0    0  501    0  0.00000000000E+00  0.00000000000E+00  0.81138125213E+03  0.81138125214E+03  0.25500000920E-02 0.  1.
       -2   -1    0    0    0  501  0.00000000000E+00  0.00000000000E+00 -0.14726458392E+03  0.14726458394E+03  0.25500000920E-02 0. -1.
    10030    2    1    2    0    0  0.00000000000E+00  0.00000000000E+00  0.66411666822E+03  0.95864583607E+03  0.69133992364E+03 0.  0.
        4    1    3    3  502    0 -0.11276266129E+03  0.32657793610E+03  0.34709203220E+03  0.48973774394E+03  0.12699999809E+01 0.  1.
       -4    1    3    3    0  502  0.11276266129E+03 -0.32657793610E+03  0.31702463601E+03  0.46890809213E+03  0.12699999809E+01 0. -1.
</event>
<event>
 5   0  0.5987810E-02  0.7031635E+03  0.7818609E-02  0.9711837E-01
       -2   -1    0    0    0  501  0.00000000000E+00  0.00000000000E+00  0.28485533894E+03  0.28485533895E+03  0.25500000920E-02 0.  1.
        2   -1    0    0  501    0  0.00000000000E+00  0.00000000000E+00 -0.43393864116E+03  0.43393864117E+03  0.25500000920E-02 0. -1.
    10030    2    1    2    0    0  0.00000000000E+00  0.00000000000E+00 -0.14908330222E+03  0.71879398012E+03  0.70316353351E+03 0.  0.
        5    1    3    3  502    0  0.82538505556E+02 -0.28664456691E+03 -0.26471449013E+03  0.39884027370E+03  0.46999998093E+01 0. -1.
       -5    1    3    3    0  502 -0.82538505556E+02  0.28664456691E+03  0.11563118791E+03  0.31995370642E+03  0.46999998093E+01 0.  1.
</event>
<event>
 5   0  0.5899787E-02  0.6975181E+03  0.7818609E-02  0.9721486E-01
        2   -1    0    0  501    0  0.00000000000E+00  0.00000000000E+00  0.89967274531E+03  0.89967274531E+03  0.25500000920E-02 0.  1.
       -2   -1    0    0    0  501  0.00000000000E+00  0.00000000000E+00 -0.13519678944E+03  0.13519678946E+03  0.25500000920E-02 0. -1.
    10030    2    1    2    0    0  0.00000000000E+00  0.00000000000E+00  0.76447595587E+03  0.10348695348E+04  0.69751807639E+03 0.  0.
        2    1    3    3  502    0 -0.21147507489E+03 -0.24310644324E+03  0.18423707307E+03  0.37116808746E+03  0.25500000920E-02 0. -1.
       -2    1    3    3    0  502  0.21147507489E+03  0.24310644324E+03  0.58023888280E+03  0.66370144731E+03  0.25500000920E-02 0.  1.
</event>
<event>
 5   0  0.6248886E-02  0.6911647E+03  0.7818609E-02  0.9732462E-01
       -2   -1    0    0    0  501  0.00000000000E+00  0.00000000000E+00  0.18859569842E+03  0.18859569843E+03  0.25500000920E-02 0.  1.
        2   -1    0    0  501    0  0.00000000000E+00  0.00000000000E+00 -0.63324432587E+03  0.63324432588E+03  0.25500000920E-02 0. -1.
    10030    2    1    2    0    0  0.00000000000E+00  0.00000000000E+00 -0.44464862745E+03  0.82184002431E+03  0.69116468635E+03 0.  0.
        3    1    3    3  502    0 -0.30790266663E+02  0.10917007076E+03 -0.61047905261E+03  0.62092739410E+03  0.10100000352E+00 0. -1.
       -3    1    3    3    0  502  0.30790266663E+02 -0.10917007076E+03  0.16583042515E+03  0.20091263021E+03  0.10100000352E+00 0.  1.
</event>
<event>
 5   0  0.5899787E-02  0.6993646E+03  0.7818609E-02  0.9718319E-01
       -2   -1    0    0    0  501  0.00000000000E+00  0.00000000000E+00  0.15067077631E+03  0.15067077633E+03  0.25500000920E-02 0.  1.
        2   -1    0    0  501    0  0.00000000000E+00  0.00000000000E+00 -0.81155553550E+03  0.81155553550E+03  0.25500000920E-02 0. -1.
    10030    2    1    2    0    0  0.00000000000E+00  0.00000000000E+00 -0.66088475919E+03  0.96222631184E+03  0.69936457608E+03 0.  0.
        2    1    3    3  502    0  0.63036333362E+02 -0.32782397406E+03 -0.47366096632E+03  0.57947980838E+03  0.25500000920E-02 0. -1.
       -2    1    3    3    0  502 -0.63036333362E+02  0.32782397406E+03 -0.18722379286E+03  0.38274650346E+03  0.25500000920E-02 0.  1.
</event>
<event>
 5   0  0.6248886E-02  0.7210990E+03  0.7818609E-02  0.9681815E-01
        2   -1    0    0  501    0  0.00000000000E+00  0.00000000000E+00  0.15486598276E+04  0.15486598276E+04  0.25500000920E-02 0. -1.
       -2   -1    0    0    0  501  0.00000000000E+00  0.00000000000E+00 -0.83940923588E+02  0.83940923627E+02  0.25500000920E-02 0.  1.
    10030    2    1    2    0    0  0.00000000000E+00  0.00000000000E+00  0.14647189041E+04  0.16326007513E+04  0.72109898430E+03 0.  0.
        3    1    3    3  502    0  0.45463494896E+01 -0.25425563431E+03  0.13110404312E+04  0.13354750538E+04  0.10100000352E+00 0. -1.
       -3    1    3    3    0  502 -0.45463494896E+01  0.25425563431E+03  0.15367847284E+03  0.29712569746E+03  0.10100000352E+00 0.  1.
</event>
<event>
 5   0  0.6248886E-02  0.7108880E+03  0.7818609E-02  0.9698791E-01
       -2   -1    0    0    0  501  0.00000000000E+00  0.00000000000E+00  0.12159401605E+03  0.12159401608E+03  0.25500000920E-02 0.  1.
        2   -1    0    0  501    0  0.00000000000E+00  0.00000000000E+00 -0.10390351283E+04  0.10390351283E+04  0.25500000920E-02 0. -1.
    10030    2    1    2    0    0  0.00000000000E+00  0.00000000000E+00 -0.91744111226E+03  0.11606291444E+04  0.71088804768E+03 0.  0.
        3    1    3    3  502    0  0.55947318799E+01 -0.15643207691E+03 -0.97973229231E+03  0.99215808746E+03  0.10100000352E+00 0. -1.
       -3    1    3    3    0  502 -0.55947318799E+01  0.15643207691E+03  0.62291180050E+02  0.16847105693E+03  0.10100000352E+00 0.  1.
</event>
<event>
 5   0  0.5899787E-02  0.6936314E+03  0.7818609E-02  0.9728186E-01
        2   -1    0    0  501    0  0.00000000000E+00  0.00000000000E+00  0.15824911421E+04  0.15824911421E+04  0.25500000920E-02 0.  1.
       -2   -1    0    0    0  501  0.00000000000E+00  0.00000000000E+00 -0.76007454444E+02  0.76007454487E+02  0.25500000920E-02 0. -1.
    10030    2    1    2    0    0  0.00000000000E+00  0.00000000000E+00  0.15064836876E+04  0.16584985966E+04  0.69363138172E+03 0.  0.
        2    1    3    3  502    0 -0.30492686923E+03  0.94318557849E+02  0.10776196920E+04  0.11238952738E+04  0.25500000920E-02 0. -1.
       -2    1    3    3    0  502  0.30492686923E+03 -0.94318557849E+02  0.42886399563E+03  0.53460332274E+03  0.25500000920E-02 0.  1.
</event>
<event>
 5   0  0.3717372E-02  0.7011980E+03  0.7818609E-02  0.9715186E-01
        1   -1    0    0  501    0  0.00000000000E+00  0.00000000000E+00  0.17535953295E+04  0.17535953296E+04  0.50400001928E-02 0.  1.
       -1   -1    0    0    0  501  0.00000000000E+00  0.00000000000E+00 -0.70095790233E+02  0.70095790414E+02  0.50400001928E-02 0. -1.
    10030    2    1    2    0    0  0.00000000000E+00  0.00000000000E+00  0.16834995393E+04  0.18236911200E+04  0.70119797645E+03 0.  0.
        3    1    3    3  502    0  0.15036333440E+03  0.26954900599E+02  0.21010365361E+02  0.15419839381E+03  0.10100000352E+00 0. -1.
       -3    1    3    3    0  502 -0.15036333440E+03 -0.26954900599E+02  0.16624891740E+04  0.16694927262E+04  0.10100000352E+00 0.  1.
</event>
<event>
 5   0  0.3755872E-02  0.6962349E+03  0.7818609E-02  0.9723693E-01
        1   -1    0    0  501    0  0.00000000000E+00  0.00000000000E+00  0.82539579387E+03  0.82539579389E+03  0.50400001928E-02 0.  1.
       -1   -1    0    0    0  501  0.00000000000E+00  0.00000000000E+00 -0.14682140498E+03  0.14682140507E+03  0.50400001928E-02 0. -1.
    10030    2    1    2    0    0  0.00000000000E+00  0.00000000000E+00  0.67857438889E+03  0.97221719895E+03  0.69623493211E+03 0.  0.
        2    1    3    3  502    0  0.30031393287E+03  0.97888364250E+02  0.54363423631E+03  0.62873585315E+03  0.25500000920E-02 0.  1.
       -2    1    3    3    0  502 -0.30031393287E+03 -0.97888364250E+02  0.13494015258E+03  0.34348134581E+03  0.25500000920E-02 0. -1.
</event>
<event>
 5   0  0.3755872E-02  0.6469801E+03  0.7818609E-02  0.9812462E-01
       -1   -1    0    0    0  501  0.00000000000E+00  0.00000000000E+00  0.71094398442E+02  0.71094398621E+02  0.50400001928E-02 0. -1.
        1   -1    0    0  501    0  0.00000000000E+00  0.00000000000E+00 -0.14719275613E+04  0.14719275613E+04  0.50400001928E-02 0.  1.
    10030    2    1    2    0    0  0.00000000000E+00  0.00000000000E+00 -0.14008331628E+04  0.15430219599E+04  0.64698007593E+03 0.  0.
        2    1    3    3  502    0 -0.23507767962E+03  0.22176694635E+03 -0.66637669292E+03  0.74060785226E+03  0.25500000920E-02 0.  1.
       -2    1    3    3    0  502  0.23507767962E+03 -0.22176694635E+03 -0.73445646991E+03  0.80241410764E+03  0.25500000920E-02 0. -1.
</event>
<event>
 5   0  0.3717372E-02  0.6989042E+03  0.7818609E-02  0.9719108E-01
       -1   -1    0    0    0  501  0.00000000000E+00  0.00000000000E+00  0.20253551978E+03  0.20253551985E+03  0.50400001928E-02 0. -1.
        1   -1    0    0  501    0  0.00000000000E+00  0.00000000000E+00 -0.60293995069E+03  0.60293995071E+03  0.50400001928E-02 0.  1.
    10030    2    1    2    0    0  0.00000000000E+00  0.00000000000E+00 -0.40040443091E+03  0.80547547056E+03  0.69890416037E+03 0.  0.
        3    1    3    3  502    0  0.14470027456E+03  0.76768702422E+02 -0.55595416489E+03  0.57958316641E+03  0.10100000352E+00 0.  1.
       -3    1    3    3    0  502 -0.14470027456E+03 -0.76768702422E+02  0.15554973398E+03  0.22589230415E+03  0.10100000352E+00 0. -1.
</event>
<event>
 5   0  0.6131198E-02  0.7027236E+03  0.7818609E-02  0.9712586E-01
       -2   -1    0    0    0  501  0.00000000000E+00  0.00000000000E+00  0.18023970832E+03  0.18023970834E+03  0.25500000920E-02 0.  1.
        2   -1    0    0  501    0  0.00000000000E+00  0.00000000000E+00 -0.68494963193E+03  0.68494963193E+03  0.25500000920E-02 0. -1.
    10030    2    1    2    0    0  0.00000000000E+00  0.00000000000E+00 -0.50470992360E+03  0.86518934027E+03  0.70272362102E+03 0.  0.
        1    1    3    3  502    0  0.52409643663E+02 -0.21571426311E+03  0.82963494094E+02  0.23698598152E+03  0.50400001928E-02 0.  1.
       -1    1    3    3    0  502 -0.52409643663E+02  0.21571426311E+03 -0.58767341770E+03  0.62820335876E+03  0.50400001928E-02 0. -1.
</event>
<event>
 5   0  0.3717372E-02  0.4406419E+03  0.7818609E-02  0.1030550E+00
       -1   -1    0    0    0  501  0.00000000000E+00  0.00000000000E+00  0.39377965572E+03  0.39377965575E+03  0.50400001928E-02 0. -1.
        1   -1    0    0  501    0  0.00000000000E+00  0.00000000000E+00 -0.12327026210E+03  0.12327026221E+03  0.50400001928E-02 0.  1.
    10030    2    1    2    0    0  0.00000000000E+00  0.00000000000E+00  0.27050939362E+03  0.51704991796E+03  0.44064190180E+03 0.  0.
        3    1    3    3  502    0 -0.20507755525E+03  0.68996899763E+01  0.22939706587E+03  0.30777822116E+03  0.10100000352E+00 0. -1.
       -3    1    3    3    0  502  0.20507755525E+03 -0.68996899763E+01  0.41112327746E+02  0.20927169680E+03  0.10100000352E+00 0.  1.
</event>
<event>
 5   0  0.6248886E-02  0.7049864E+03  0.7818609E-02  0.9708743E-01
        2   -1    0    0  501    0  0.00000000000E+00  0.00000000000E+00  0.45434898334E+03  0.45434898335E+03  0.25500000920E-02 0. -1.
       -2   -1    0    0    0  501  0.00000000000E+00  0.00000000000E+00 -0.27347137002E+03  0.27347137003E+03  0.25500000920E-02 0.  1.
    10030    2    1    2    0    0  0.00000000000E+00  0.00000000000E+00  0.18087761332E+03  0.72782035339E+03  0.70498635150E+03 0.  0.
        3    1    3    3  502    0  0.11907041002E+03  0.32768925502E+03  0.36859709069E+02  0.35059472151E+03  0.10100000352E+00 0. -1.
       -3    1    3    3    0  502 -0.11907041002E+03 -0.32768925502E+03  0.14401790425E+03  0.37722563188E+03  0.10100000352E+00 0.  1.
</event>
<event>
 5   0  0.3439015E-02  0.7181967E+03  0.7818609E-02  0.9686610E-01
        1   -1    0    0  501    0  0.00000000000E+00  0.00000000000E+00  0.31111439996E+03  0.31111440000E+03  0.50400001928E-02 0.  1.
       -1   -1    0    0    0  501  0.00000000000E+00  0.00000000000E+00 -0.41448297007E+03  0.41448297010E+03  0.50400001928E-02 0. -1.
    10030    2    1    2    0    0  0.00000000000E+00  0.00000000000E+00 -0.10336857011E+03  0.72559737011E+03  0.71819668770E+03 0.  0.
        1    1    3    3  502    0  0.44624623848E+02 -0.88912498356E+02  0.29691445554E+03  0.31313732347E+03  0.50400001928E-02 0.  1.
       -1    1    3    3    0  502 -0.44624623848E+02  0.88912498356E+02 -0.40028302565E+03  0.41246004663E+03  0.50400001928E-02 0. -1.
</event>
<event>
 5   0  0.6167756E-02  0.6951512E+03  0.7818609E-02  0.9725560E-01
        2   -1    0    0  501    0  0.00000000000E+00  0.00000000000E+00  0.27699066377E+03  0.27699066379E+03  0.25500000920E-02 0.  1.
       -2   -1    0    0    0  501  0.00000000000E+00  0.00000000000E+00 -0.43614755173E+03  0.43614755174E+03  0.25500000920E-02 0. -1.
    10030    2    1    2    0    0  0.00000000000E+00  0.00000000000E+00 -0.15915688796E+03  0.71313821552E+03  0.69515120618E+03 0.  0.
        4    1    3    3  502    0  0.10373835411E+03 -0.22402312750E+03  0.17141351487E+03  0.30055317957E+03  0.12699999809E+01 0.  1.
       -4    1    3    3    0  502 -0.10373835411E+03  0.22402312750E+03 -0.33057040283E+03  0.41258503595E+03  0.12699999809E+01 0. -1.
</event>
<event>
 5   0  0.6167756E-02  0.6724861E+03  0.7818609E-02  0.9765477E-01
        2   -1    0    0  501    0  0.00000000000E+00  0.00000000000E+00  0.27970966657E+04  0.27970966657E+04  0.25500000920E-02 0.  1.
       -2   -1    0    0    0  501  0.00000000000E+00  0.00000000000E+00 -0.40420260714E+02  0.40420260795E+02  0.25500000920E-02 0. -1.
    10030    2    1    2    0    0  0.00000000000E+00  0.00000000000E+00  0.27566764049E+04  0.28375169265E+04  0.67248606405E+03 0.  0.
        4    1    3    3  502    0 -0.23614213404E+03  0.14550518843E+03  0.21802866566E+04  0.21978595007E+04  0.12699999809E+01 0.  1.
       -4    1    3    3    0  502  0.23614213404E+03 -0.14550518843E+03  0.57638974839E+03  0.63965742572E+03  0.12699999809E+01 0. -1.
</event>
<event>
 5   0  0.3601475E-02  0.7004837E+03  0.7818609E-02  0.9716405E-01
        1   -1    0    0  501    0  0.00000000000E+00  0.00000000000E+00  0.27831143228E+03  0.27831143233E+03  0.50400001928E-02 0. -1.
       -1   -1    0    0    0  501  0.00000000000E+00  0.00000000000E+00 -0.44076292058E+03  0.44076292061E+03  0.50400001928E-02 0.  1.
    10030    2    1    2    0    0  0.00000000000E+00  0.00000000000E+00 -0.16245148830E+03  0.71907435294E+03  0.70048371787E+03 0.  0.
        5    1    3    3  502    0  0.30759472698E+03 -0.13310363932E+03  0.23038428688E+02  0.33598207402E+03  0.46999998093E+01 0. -1.
       -5    1    3    3    0  502 -0.30759472698E+03  0.13310363932E+03 -0.18548991698E+03  0.38309227892E+03  0.46999998093E+01 0.  1.
</event>
<event>
 5   0  0.3717372E-02  0.6732460E+03  0.7818609E-02  0.9764112E-01
       -1   -1    0    0    0  501  0.00000000000E+00  0.00000000000E+00  0.86282321034E+03  0.86282321035E+03  0.50400001928E-02 0.  1.
        1   -1    0    0  501    0  0.00000000000E+00  0.00000000000E+00 -0.13133055405E+03  0.13133055415E+03  0.50400001928E-02 0. -1.
    10030    2    1    2    0    0  0.00000000000E+00  0.00000000000E+00  0.73149265628E+03  0.99415376450E+03  0.67324601839E+03 0.  0.
        3    1    3    3  502    0 -0.18235847323E+03  0.25326281950E+03  0.55205329152E+03  0.63416048078E+03  0.10100000352E+00 0.  1.
       -3    1    3    3    0  502  0.18235847323E+03 -0.25326281950E+03  0.17943936477E+03  0.35999328373E+03  0.10100000352E+00 0. -1.
</event>
<event>
 5   0  0.3755872E-02  0.6893311E+03  0.7818609E-02  0.9735653E-01
       -1   -1    0    0    0  501  0.00000000000E+00  0.00000000000E+00  0.51799628300E+03  0.51799628302E+03  0.50400001928E-02 0.  1.
        1   -1    0    0  501    0  0.00000000000E+00  0.00000000000E+00 -0.22933438310E+03  0.22933438316E+03  0.50400001928E-02 0. -1.
    10030    2    1    2    0    0  0.00000000000E+00  0.00000000000E+00  0.28866189990E+03  0.74733066618E+03  0.68933114841E+03 0.  0.
        2    1    3    3  502    0  0.23856162553E+03 -0.47147129216E+02  0.40913584238E+03  0.47594814686E+03  0.25500000920E-02 0.  1.
       -2    1    3    3    0  502 -0.23856162553E+03  0.47147129216E+02 -0.12047394249E+03  0.27138251933E+03  0.25500000920E-02 0. -1.
</event>
<event>
 5   0  0.6167756E-02  0.6938404E+03  0.7818609E-02  0.9727824E-01
        2   -1    0    0  501    0  0.00000000000E+00  0.00000000000E+00  0.39700885845E+03  0.39700885846E+03  0.25500000920E-02 0. -1.
       -2   -1    0    0    0  501  0.00000000000E+00  0.00000000000E+00 -0.30315098464E+03  0.30315098465E+03  0.25500000920E-02 0.  1.
    10030    2    1    2    0    0  0.00000000000E+00  0.00000000000E+00  0.93857873809E+02  0.70015984311E+03  0.69384040343E+03 0.  0.
        4    1    3    3  502    0  0.28254788758E+03 -0.33361707104E+02 -0.15338775644E+03  0.32322705487E+03  0.12699999809E+01 0.  1.
       -4    1    3    3    0  502 -0.28254788758E+03  0.33361707104E+02  0.24724563025E+03  0.37693278824E+03  0.12699999809E+01 0. -1.
</event>
<event>
 5   0  0.3717372E-02  0.8090843E+03  0.7818609E-02  0.9546960E-01
        1   -1    0    0  501    0  0.00000000000E+00  0.00000000000E+00  0.13389009283E+04  0.13389009283E+04  0.50400001928E-02 0.  1.
       -1   -1    0    0    0  501  0.00000000000E+00  0.00000000000E+00 -0.12223035759E+03  0.12223035770E+03  0.50400001928E-02 0. -1.
    10030    2    1    2    0    0  0.00000000000E+00  0.00000000000E+00  0.12166705707E+04  0.14611312860E+04  0.80908427084E+03 0.  0.
        3    1    3    3  502    0 -0.97451102470E+02  0.25683969854E+03  0.72035567376E+02  0.28399380501E+03  0.10100000352E+00 0. -1.
       -3    1    3    3    0  502  0.97451102470E+02 -0.25683969854E+03  0.11446350033E+04  0.11771374810E+04  0.10100000352E+00 0.  1.
</event>
<event>
 5   0  0.5899787E-02  0.7025418E+03  0.7818609E-02  0.9712895E-01
       -2   -1    0    0    0  501  0.00000000000E+00  0.00000000000E+00  0.30702402705E+03  0.30702402706E+03  0.25500000920E-02 0.  1.
        2   -1    0    0  501    0  0.00000000000E+00  0.00000000000E+00 -0.40189441840E+03  0.40189441841E+03  0.25500000920E-02 0. -1.
    10030    2    1    2    0    0  0.00000000000E+00  0.00000000000E+00 -0.94870391349E+02  0.70891844547E+03  0.70254179319E+03 0.  0.
        2    1    3    3  502    0 -0.30054372827E+02  0.20467442567E+03  0.23903656507E+03  0.31612238974E+03  0.25500000920E-02 0.  1.
       -2    1    3    3    0  502  0.30054372827E+02 -0.20467442567E+03 -0.33390695642E+03  0.39279605573E+03  0.25500000920E-02 0. -1.
</event>
<event>
 5   0  0.6167756E-02  0.7063242E+03  0.7818609E-02  0.9706478E-01
       -2   -1    0    0    0  501  0.00000000000E+00  0.00000000000E+00  0.22375916810E+03  0.22375916812E+03  0.25500000920E-02 0. -1.
        2   -1    0    0  501    0  0.00000000000E+00  0.00000000000E+00 -0.55740046262E+03  0.55740046263E+03  0.25500000920E-02 0.  1.
    10030    2    1    2    0    0  0.00000000000E+00  0.00000000000E+00 -0.33364129452E+03  0.78115963074E+03  0.70632418570E+03 0.  0.
        4    1    3    3  502    0  0.31052247514E+03  0.26714284554E+02 -0.35050165786E+03  0.46903185993E+03  0.12699999809E+01 0.  1.
       -4    1    3    3    0  502 -0.31052247514E+03 -0.26714284554E+02  0.16860363342E+02  0.31212777082E+03  0.12699999809E+01 0. -1.
</event>
<event>
 5   0  0.3601475E-02  0.7014389E+03  0.7818609E-02  0.9714775E-01
        1   -1    0    0  501    0  0.00000000000E+00  0.00000000000E+00  0.87194489680E+03  0.87194489681E+03  0.50400001928E-02 0.  1.
       -1   -1    0    0    0  501  0.00000000000E+00  0.00000000000E+00 -0.14106868020E+03  0.14106868029E+03  0.50400001928E-02 0. -1.
    10030    2    1    2    0    0  0.00000000000E+00  0.00000000000E+00  0.73087621659E+03  0.10130135771E+04  0.70143885223E+03 0.  0.
        5    1    3    3  502    0 -0.10447465135E+03  0.56257675227E+02  0.84202673013E+03  0.85035932584E+03  0.46999998093E+01 0.  1.
       -5    1    3    3    0  502  0.10447465135E+03 -0.56257675227E+02 -0.11115051354E+03  0.16265425126E+03  0.46999998093E+01 0. -1.
</event>
<event>
 5   0  0.2439375E-02  0.7369771E+03  0.7818609E-02  0.9656006E-01
        4   -1    0    0  501    0  0.00000000000E+00  0.00000000000E+00  0.20259614077E+03  0.20260012131E+03  0.12699999809E+01 0. -1.
       -4   -1    0    0    0  501  0.00000000000E+00  0.00000000000E+00 -0.67020798425E+03  0.67020918754E+03  0.12699999809E+01 0.  1.
    10030    2    1    2    0    0  0.00000000000E+00  0.00000000000E+00 -0.46761184348E+03  0.87280930885E+03  0.73697710510E+03 0.  0.
        4    1    3    3  502    0 -0.11757964486E+03  0.21461900203E+03  0.92462140736E+02  0.26160494890E+03  0.12699999809E+01 0. -1.
       -4    1    3    3    0  502  0.11757964486E+03 -0.21461900203E+03 -0.56007398422E+03  0.61120435995E+03  0.12699999809E+01 0.  1.
</event>
<event>
 5   0  0.5899787E-02  0.6778128E+03  0.7818609E-02  0.9755946E-01
        2   -1    0    0  501    0  0.00000000000E+00  0.00000000000E+00  0.14531466118E+04  0.14531466118E+04  0.25500000920E-02 0.  1.
       -2   -1    0    0    0  501  0.00000000000E+00  0.00000000000E+00 -0.79040576091E+02  0.79040576133E+02  0.25500000920E-02 0. -1.
    10030    2    1    2    0    0  0.00000000000E+00  0.00000000000E+00  0.13741060358E+04  0.15321871880E+04  0.67781279238E+03 0.  0.
        2    1    3    3  502    0  0.12164572375E+03 -0.23027909222E+02  0.14001985214E+04  0.14056613625E+04  0.25500000920E-02 0.  1.
       -2    1    3    3    0  502 -0.12164572375E+03  0.23027909222E+02 -0.26092485610E+02  0.12652582551E+03  0.25500000920E-02 0. -1.
</event>
<event>
 5   0  0.6248886E-02  0.6907161E+03  0.7818609E-02  0.9733242E-01
        2   -1    0    0  501    0  0.00000000000E+00  0.00000000000E+00  0.89629702146E+03  0.89629702147E+03  0.25500000920E-02 0.  1.
       -2   -1    0    0    0  501  0.00000000000E+00  0.00000000000E+00 -0.13307215640E+03  0.13307215642E+03  0.25500000920E-02 0. -1.
    10030    2    1    2    0    0  0.00000000000E+00  0.00000000000E+00  0.76322486507E+03  0.10293691779E+04  0.69071608474E+03 0.  0.
        3    1    3    3  502    0 -0.60429006608E+02 -0.16398326702E+03  0.82553457536E+03  0.84383026849E+03  0.10100000352E+00 0.  1.
       -3    1    3    3    0  502  0.60429006608E+02  0.16398326702E+03 -0.62309710293E+02  0.18553890940E+03  0.10100000352E+00 0. -1.
</event>
<event>
 5   0  0.5987810E-02  0.5653519E+03  0.7818609E-02  0.9980017E-01
       -2   -1    0    0    0  501  0.00000000000E+00  0.00000000000E+00  0.10514823444E+03  0.10514823447E+03  0.25500000920E-02 0. -1.
        2   -1    0    0  501    0  0.00000000000E+00  0.00000000000E+00 -0.75993386262E+03  0.75993386262E+03  0.25500000920E-02 0.  1.
    10030    2    1    2    0    0  0.00000000000E+00  0.00000000000E+00 -0.65478562818E+03  0.86508209709E+03  0.56535193980E+03 0.  0.
        5    1    3    3  502    0 -0.26643182568E+03 -0.79306994738E+02 -0.40553765149E+03  0.49168932663E+03  0.46999998093E+01 0.  1.
       -5    1    3    3    0  502  0.26643182568E+03  0.79306994738E+02 -0.24924797669E+03  0.37339277046E+03  0.46999998093E+01 0. -1.
</event>
<event>
 5   0  0.3755872E-02  0.6897418E+03  0.7818609E-02  0.9734938E-01
        1   -1    0    0  501    0  0.00000000000E+00  0.00000000000E+00  0.72398309167E+03  0.72398309169E+03  0.50400001928E-02 0. -1.
       -1   -1    0    0    0  501  0.00000000000E+00  0.00000000000E+00 -0.16427997302E+03  0.16427997309E+03  0.50400001928E-02 0.  1.
    10030    2    1    2    0    0  0.00000000000E+00  0.00000000000E+00  0.55970311866E+03  0.88826306479E+03  0.68974175691E+03 0.  0.
        2    1    3    3  502    0  0.19353816668E+03  0.12971830147E+03  0.60730252766E+03  0.65046154368E+03  0.25500000920E-02 0. -1.
       -2    1    3    3    0  502 -0.19353816668E+03 -0.12971830147E+03 -0.47599409005E+02  0.23780152111E+03  0.25500000920E-02 0.  1.
</event>
<event>
 5   0  0.5899787E-02  0.7030551E+03  0.7818609E-02  0.9712022E-01
        2   -1    0    0  501    0  0.00000000000E+00  0.00000000000E+00  0.32360564661E+03  0.32360564662E+03  0.25500000920E-02 0.  1.
       -2   -1    0    0    0  501  0.00000000000E+00  0.00000000000E+00 -0.38185869688E+03  0.38185869689E+03  0.25500000920E-02 0. -1.
    10030    2    1    2    0    0  0.00000000000E+00  0.00000000000E+00 -0.58253050273E+02  0.70546434351E+03  0.70305513447E+03 0.  0.
        2    1    3    3  502    0 -0.21271422488E+03  0.37013422526E+02 -0.30748350597E+03  0.37571723592E+03  0.25500000920E-02 0. -1.
       -2    1    3    3    0  502  0.21271422488E+03 -0.37013422526E+02  0.24923045570E+03  0.32974710760E+03  0.25500000920E-02 0.  1.
</event>
<event>
 5   0  0.2439375E-02  0.6483624E+03  0.7818609E-02  0.9809857E-01
       -4   -1    0    0    0  501  0.00000000000E+00  0.00000000000E+00  0.10127500183E+03  0.10128296449E+03  0.12699999809E+01 0. -1.
        4   -1    0    0  501    0  0.00000000000E+00  0.00000000000E+00 -0.10376547401E+04  0.10376555173E+04  0.12699999809E+01 0.  1.
    10030    2    1    2    0    0  0.00000000000E+00  0.00000000000E+00 -0.93637973827E+03  0.11389384818E+04  0.64836243800E+03 0.  0.
        3    1    3    3  502    0 -0.12714839397E+03  0.17895986973E+03 -0.88721391745E+03  0.91397040137E+03  0.10100000352E+00 0.  1.
       -3    1    3    3    0  502  0.12714839397E+03 -0.17895986973E+03 -0.49165820823E+02  0.22496808040E+03  0.10100000352E+00 0. -1.
</event>
<event>
 5   0  0.5987810E-02  0.7143325E+03  0.7818609E-02  0.9693031E-01
        2   -1    0    0  501    0  0.00000000000E+00  0.00000000000E+00  0.65296160137E+03  0.65296160137E+03  0.25500000920E-02 0. -1.
       -2   -1    0    0    0  501  0.00000000000E+00  0.00000000000E+00 -0.19536790937E+03  0.19536790938E+03  0.25500000920E-02 0.  1.
    10030    2    1    2    0    0  0.00000000000E+00  0.00000000000E+00  0.45759369200E+03  0.84832951075E+03  0.71433253591E+03 0.  0.
        5    1    3    3  502    0  0.19217247185E+03 -0.53558595062E+02  0.58058398879E+03  0.61392071155E+03  0.46999998093E+01 0. -1.
       -5    1    3    3    0  502 -0.19217247185E+03  0.53558595062E+02 -0.12299029679E+03  0.23440879920E+03  0.46999998093E+01 0.  1.
</event>
<event>
 5   0  0.3749730E-02  0.7038739E+03  0.7818609E-02  0.9710630E-01
        1   -1    0    0  501    0  0.00000000000E+00  0.00000000000E+00  0.68194040772E+03  0.68194040774E+03  0.50400001928E-02 0.  1.
       -1   -1    0    0    0  501  0.00000000000E+00  0.00000000000E+00 -0.18162820604E+03  0.18162820611E+03  0.50400001928E-02 0. -1.
    10030    2    1    2    0    0  0.00000000000E+00  0.00000000000E+00  0.50031220168E+03  0.86356861385E+03  0.70387388905E+03 0.  0.
        4    1    3    3  502    0 -0.10969956309E+02 -0.18234625199E+03  0.61921552543E+03  0.64560047661E+03  0.12699999809E+01 0.  1.
       -4    1    3    3    0  502  0.10969956309E+02  0.18234625199E+03 -0.11890332375E+03  0.21796813725E+03  0.12699999809E+01 0. -1.
</event>
<event>
 5   0  0.3755872E-02  0.7000026E+03  0.7818609E-02  0.9717228E-01
       -1   -1    0    0    0  501  0.00000000000E+00  0.00000000000E+00  0.36199956337E+03  0.36199956340E+03  0.50400001928E-02 0. -1.
        1   -1    0    0  501    0  0.00000000000E+00  0.00000000000E+00 -0.33840070380E+03  0.33840070384E+03  0.50400001928E-02 0.  1.
    10030    2    1    2    0    0  0.00000000000E+00  0.00000000000E+00  0.23598859567E+02  0.70040026724E+03  0.70000259156E+03 0.  0.
        2    1    3    3  502    0  0.30580522657E+03 -0.14847649734E+03 -0.71547353987E+02  0.34739189791E+03  0.25500000920E-02 0.  1.
       -2    1    3    3    0  502 -0.30580522657E+03  0.14847649734E+03  0.95146213554E+02  0.35300836934E+03  0.25500000920E-02 0. -1.
</event>
<event>
 5   0  0.3439015E-02  0.7120663E+03  0.7818609E-02  0.9696817E-01
        1   -1    0    0  501    0  0.00000000000E+00  0.00000000000E+00  0.43173455931E+03  0.43173455934E+03  0.50400001928E-02 0. -1.
       -1   -1    0    0    0  501  0.00000000000E+00  0.00000000000E+00 -0.29360541682E+03  0.29360541687E+03  0.50400001928E-02 0.  1.
    10030    2    1    2    0    0  0.00000000000E+00  0.00000000000E+00  0.13812914249E+03  0.72533997621E+03  0.71206630385E+03 0.  0.
        1    1    3    3  502    0  0.16668706824E+03  0.28103443860E+03 -0.74973835420E+02  0.33524022792E+03  0.50400001928E-02 0.  1.
       -1    1    3    3    0  502 -0.16668706824E+03 -0.28103443860E+03  0.21310297791E+03  0.39009974829E+03  0.50400001928E-02 0. -1.
</event>
<event>
 5   0  0.5987810E-02  0.7929713E+03  0.7818609E-02  0.9570247E-01
       -2   -1    0    0    0  501  0.00000000000E+00  0.00000000000E+00  0.36824211471E+03  0.36824211472E+03  0.25500000920E-02 0. -1.
        2   -1    0    0  501    0  0.00000000000E+00  0.00000000000E+00 -0.42689543988E+03  0.42689543989E+03  0.25500000920E-02 0.  1.
    10030    2    1    2    0    0  0.00000000000E+00  0.00000000000E+00 -0.58653325172E+02  0.79513755461E+03  0.79297132243E+03 0.  0.
        5    1    3    3  502    0  0.32782662605E+03  0.10501158877E+03 -0.22653894632E+03  0.41211614227E+03  0.46999998093E+01 0.  1.
       -5    1    3    3    0  502 -0.32782662605E+03 -0.10501158877E+03  0.16788562115E+03  0.38302141234E+03  0.46999998093E+01 0. -1.
</event>
<event>
 5   0  0.3601475E-02  0.7041174E+03  0.7818609E-02  0.9710217E-01
        1   -1    0    0  501    0  0.00000000000E+00  0.00000000000E+00  0.81137629773E+03  0.81137629775E+03  0.50400001928E-02 0. -1.
       -1   -1    0    0    0  501  0.00000000000E+00  0.00000000000E+00 -0.15275937708E+03  0.15275937716E+03  0.50400001928E-02 0.  1.
    10030    2    1    2    0    0  0.00000000000E+00  0.00000000000E+00  0.65861692066E+03  0.96413567491E+03  0.70411742732E+03 0.  0.
        5    1    3    3  502    0  0.60375815384E+02 -0.34219758175E+03  0.25210686250E+03  0.42933015753E+03  0.46999998093E+01 0.  1.
       -5    1    3    3    0  502 -0.60375815384E+02  0.34219758175E+03  0.40651005815E+03  0.53480551738E+03  0.46999998093E+01 0. -1.
</event>
<event>
 5   0  0.3717372E-02  0.6990238E+03  0.7818609E-02  0.9718903E-01
        1   -1    0    0  501    0  0.00000000000E+00  0.00000000000E+00  0.64809669830E+03  0.64809669832E+03  0.50400001928E-02 0. -1.
       -1   -1    0    0    0  501  0.00000000000E+00  0.00000000000E+00 -0.18848816169E+03  0.18848816175E+03  0.50400001928E-02 0.  1.
    10030    2    1    2    0    0  0.00000000000E+00  0.00000000000E+00  0.45960853661E+03  0.83658486007E+03  0.69902376295E+03 0.  0.
        3    1    3    3  502    0  0.16919029088E+03  0.57009043174E+02 -0.12979718297E+03  0.22073220073E+03  0.10100000352E+00 0.  1.
       -3    1    3    3    0  502 -0.16919029088E+03 -0.57009043174E+02  0.58940571959E+03  0.61585265934E+03  0.10100000352E+00 0. -1.
</event>
<event>
 5   0  0.6131198E-02  0.7298410E+03  0.7818609E-02  0.9667518E-01
       -2   -1    0    0    0  501  0.00000000000E+00  0.00000000000E+00  0.17705834140E+03  0.17705834142E+03  0.25500000920E-02 0.  1.
        2   -1    0    0  501    0  0.00000000000E+00  0.00000000000E+00 -0.75210795603E+03  0.75210795604E+03  0.25500000920E-02 0. -1.
    10030    2    1    2    0    0  0.00000000000E+00  0.00000000000E+00 -0.57504961463E+03  0.92916629746E+03  0.72984104369E+03 0.  0.
        1    1    3    3  502    0  0.52996897387E+02  0.34806957462E+03 -0.40967607921E+03  0.54018107132E+03  0.50400001928E-02 0. -1.
       -1    1    3    3    0  502 -0.52996897387E+02 -0.34806957462E+03 -0.16537353542E+03  0.38898522614E+03  0.50400001928E-02 0.  1.
</event>
<event>
 5   0  0.3439015E-02  0.5961995E+03  0.7818609E-02  0.9913322E-01
       -1   -1    0    0    0  501  0.00000000000E+00  0.00000000000E+00  0.49930118319E+03  0.49930118322E+03  0.50400001928E-02 0.  1.
        1   -1    0    0  501    0  0.00000000000E+00  0.00000000000E+00 -0.17797569019E+03  0.17797569026E+03  0.50400001928E-02 0. -1.
    10030    2    1    2    0    0  0.00000000000E+00  0.00000000000E+00  0.32132549300E+03  0.67727687348E+03  0.59619953950E+03 0.  0.
        1    1    3    3  502    0  0.19500741485E+03  0.14312900058E+03 -0.37239897742E+02  0.24474601664E+03  0.50400001928E-02 0. -1.
       -1    1    3    3    0  502 -0.19500741485E+03 -0.14312900058E+03  0.35856539074E+03  0.43253085684E+03  0.50400001928E-02 0.  1.
</event>
<event>
 5   0  0.6248886E-02  0.6858126E+03  0.7818609E-02  0.9741807E-01
        2   -1    0    0  501    0  0.00000000000E+00  0.00000000000E+00  0.12206138921E+04  0.12206138921E+04  0.25500000920E-02 0. -1.
       -2   -1    0    0    0  501  0.00000000000E+00  0.00000000000E+00 -0.96332457234E+02  0.96332457267E+02  0.25500000920E-02 0.  1.
    10030    2    1    2    0    0  0.00000000000E+00  0.00000000000E+00  0.11242814349E+04  0.13169463494E+04  0.68581261460E+03 0.  0.
        3    1    3    3  502    0  0.92633980558E+02 -0.18346110624E+03  0.10892392790E+04  0.11084589523E+04  0.10100000352E+00 0. -1.
       -3    1    3    3    0  502 -0.92633980558E+02  0.18346110624E+03  0.35042155915E+02  0.20848739710E+03  0.10100000352E+00 0.  1.
</event>
<event>
 5   0  0.3439015E-02  0.6978143E+03  0.7818609E-02  0.9720977E-01
       -1   -1    0    0    0  501  0.00000000000E+00  0.00000000000E+00  0.10885365223E+03  0.10885365235E+03  0.50400001928E-02 0.  1.
        1   -1    0    0  501    0  0.00000000000E+00  0.00000000000E+00 -0.11183475583E+04  0.11183475583E+04  0.50400001928E-02 0. -1.
    10030    2    1    2    0    0  0.00000000000E+00  0.00000000000E+00 -0.10094939060E+04  0.12272012106E+04  0.69781434853E+03 0.  0.
        1    1    3    3  502    0  0.39106255371E+02  0.22440646243E+03 -0.96953495515E+03  0.99593453041E+03  0.50400001928E-02 0. -1.
       -1    1    3    3    0  502 -0.39106255371E+02 -0.22440646243E+03 -0.39958950879E+02  0.23126668020E+03  0.50400001928E-02 0.  1.
</event>
<event>
 5   0  0.3749730E-02  0.6878127E+03  0.7818609E-02  0.9738304E-01
       -1   -1    0    0    0  501  0.00000000000E+00  0.00000000000E+00  0.23362309839E+03  0.23362309845E+03  0.50400001928E-02 0. -1.
        1   -1    0    0  501    0  0.00000000000E+00  0.00000000000E+00 -0.50624954818E+03  0.50624954820E+03  0.50400001928E-02 0.  1.
    10030    2    1    2    0    0  0.00000000000E+00  0.00000000000E+00 -0.27262644978E+03  0.73987264665E+03  0.68781273043E+03 0.  0.
        4    1    3    3  502    0 -0.33420717990E+03 -0.80257398073E+01 -0.49514223346E+02  0.33795284111E+03  0.12699999809E+01 0. -1.
       -4    1    3    3    0  502  0.33420717990E+03  0.80257398073E+01 -0.22311222644E+03  0.40191980554E+03  0.12699999809E+01 0.  1.
</event>
<event>
 5   0  0.6131198E-02  0.4570560E+03  0.7818609E-02  0.1025639E+00
        2   -1    0    0  501    0  0.00000000000E+00  0.00000000000E+00  0.13760664947E+03  0.13760664949E+03  0.25500000920E-02 0.  1.
       -2   -1    0    0    0  501  0.00000000000E+00  0.00000000000E+00 -0.37952417797E+03  0.37952417798E+03  0.25500000920E-02 0. -1.
    10030    2    1    2    0    0  0.00000000000E+00  0.00000000000E+00 -0.24191752850E+03  0.51713082748E+03  0.45705601640E+03 0.  0.
        1    1    3    3  502    0  0.46139914631E+02 -0.13127605382E+03  0.84149421016E+02  0.16261432628E+03  0.50400001928E-02 0.  1.
       -1    1    3    3    0  502 -0.46139914631E+02  0.13127605382E+03 -0.32606694952E+03  0.35451650120E+03  0.50400001928E-02 0. -1.
</event>
<event>
 5   0  0.3439015E-02  0.7030805E+03  0.7818609E-02  0.9711979E-01
       -1   -1    0    0    0  501  0.00000000000E+00  0.00000000000E+00  0.22217272576E+03  0.22217272581E+03  0.50400001928E-02 0. -1.
        1   -1    0    0  501    0  0.00000000000E+00  0.00000000000E+00 -0.55623636724E+03  0.55623636726E+03  0.50400001928E-02 0.  1.
    10030    2    1    2    0    0  0.00000000000E+00  0.00000000000E+00 -0.33406364148E+03  0.77840909307E+03  0.70308050721E+03 0.  0.
        1    1    3    3  502    0  0.20767054652E+03  0.19944042942E+03  0.56262331417E+02  0.29337517063E+03  0.50400001928E-02 0. -1.
       -1    1    3    3    0  502 -0.20767054652E+03 -0.19944042942E+03 -0.39032597290E+03  0.48503392244E+03  0.50400001928E-02 0.  1.
</event>
<event>
 5   0  0.3439015E-02  0.7002053E+03  0.7818609E-02  0.9716881E-01
        1   -1    0    0  501    0  0.00000000000E+00  0.00000000000E+00  0.36920413914E+03  0.36920413917E+03  0.50400001928E-02 0. -1.
       -1   -1    0    0    0  501  0.00000000000E+00  0.00000000000E+00 -0.33198936772E+03  0.33198936776E+03  0.50400001928E-02 0.  1.
    10030    2    1    2    0    0  0.00000000000E+00  0.00000000000E+00  0.37214771418E+02  0.70119350693E+03  0.70020525201E+03 0.  0.
        1    1    3    3  502    0 -0.34073881791E+03 -0.27308321887E+02 -0.57150971840E+02  0.34657599467E+03  0.50400001928E-02 0.  1.
       -1    1    3    3    0  502  0.34073881791E+03  0.27308321887E+02  0.94365743258E+02  0.35461751226E+03  0.50400001928E-02 0. -1.
</event>
<event>
 5   0  0.6248886E-02  0.5247984E+03  0.7818609E-02  0.1007501E+00
        2   -1    0    0  501    0  0.00000000000E+00  0.00000000000E+00  0.67018728410E+03  0.67018728410E+03  0.25500000920E-02 0. -1.
       -2   -1    0    0    0  501  0.00000000000E+00  0.00000000000E+00 -0.10273746312E+03  0.10273746315E+03  0.25500000920E-02 0.  1.
    10030    2    1    2    0    0  0.00000000000E+00  0.00000000000E+00  0.56744982098E+03  0.77292474725E+03  0.52479840470E+03 0.  0.
        3    1    3    3  502    0  0.21401000942E+03  0.15034898975E+03  0.31490622103E+03  0.40935441990E+03  0.10100000352E+00 0. -1.
       -3    1    3    3    0  502 -0.21401000942E+03 -0.15034898975E+03  0.25254359995E+03  0.36357032735E+03  0.10100000352E+00 0.  1.
</event>
<event>
 5   0  0.5987810E-02  0.7026998E+03  0.7818609E-02  0.9712626E-01
       -2   -1    0    0    0  501  0.00000000000E+00  0.00000000000E+00  0.10859376141E+03  0.10859376144E+03  0.25500000920E-02 0. -1.
        2   -1    0    0  501    0  0.00000000000E+00  0.00000000000E+00 -0.11367756768E+04  0.11367756768E+04  0.25500000920E-02 0.  1.
    10030    2    1    2    0    0  0.00000000000E+00  0.00000000000E+00 -0.10281819154E+04  0.12453694383E+04  0.70269978412E+03 0.  0.
        5    1    3    3  502    0 -0.17130136014E+03  0.12749842329E+03 -0.19681261514E+02  0.21449812582E+03  0.46999998093E+01 0. -1.
       -5    1    3    3    0  502  0.17130136014E+03 -0.12749842329E+03 -0.10085006539E+04  0.10308713124E+04  0.46999998093E+01 0.  1.
</event>
<event>
 5   0  0.2439375E-02  0.6967580E+03  0.7818609E-02  0.9722793E-01
       -3   -1    0    0    0  501  0.00000000000E+00  0.00000000000E+00  0.66067450313E+02  0.66067527515E+02  0.10100000352E+00 0. -1.
        3   -1    0    0  501    0  0.00000000000E+00  0.00000000000E+00 -0.18370292799E+04  0.18370292827E+04  0.10100000352E+00 0.  1.
    10030    2    1    2    0    0  0.00000000000E+00  0.00000000000E+00 -0.17709618296E+04  0.19030968102E+04  0.69675796882E+03 0.  0.
        5    1    3    3  502    0 -0.99119596398E+02 -0.10666606424E+03 -0.17498322023E+04  0.17558864342E+04  0.46999998093E+01 0.  1.
       -5    1    3    3    0  502  0.99119596398E+02  0.10666606424E+03 -0.21129627296E+02  0.14721037599E+03  0.46999998093E+01 0. -1.
</event>
<event>
 5   0  0.5899787E-02  0.9147089E+03  0.7818609E-02  0.9407379E-01
        2   -1    0    0  501    0  0.00000000000E+00  0.00000000000E+00  0.11196056568E+04  0.11196056568E+04  0.25500000920E-02 0.  1.
       -2   -1    0    0    0  501  0.00000000000E+00  0.00000000000E+00 -0.18682745783E+03  0.18682745784E+03  0.25500000920E-02 0. -1.
    10030    2    1    2    0    0  0.00000000000E+00  0.00000000000E+00  0.93277819895E+03  0.13064331146E+04  0.91470886874E+03 0.  0.
        2    1    3    3  502    0  0.84450836075E+02 -0.44933144859E+03  0.48343167485E+03  0.66538475987E+03  0.25500000920E-02 0. -1.
       -2    1    3    3    0  502 -0.84450836075E+02  0.44933144859E+03  0.44934652410E+03  0.64104835476E+03  0.25500000920E-02 0.  1.
</event>
<event>
 5   0  0.5899787E-02  0.7120646E+03  0.7818609E-02  0.9696820E-01
        2   -1    0    0  501    0  0.00000000000E+00  0.00000000000E+00  0.53632437685E+03  0.53632437686E+03  0.25500000920E-02 0.  1.
       -2   -1    0    0    0  501  0.00000000000E+00  0.00000000000E+00 -0.23634761207E+03  0.23634761209E+03  0.25500000920E-02 0. -1.
    10030    2    1    2    0    0  0.00000000000E+00  0.00000000000E+00  0.29997676478E+03  0.77267198894E+03  0.71206456385E+03 0.  0.
        2    1    3    3  502    0 -0.10469940348E+03 -0.31018820436E+03  0.30182812176E+03  0.44528519210E+03  0.25500000920E-02 0.  1.
       -2    1    3    3    0  502  0.10469940348E+03  0.31018820436E+03 -0.18513569826E+01  0.32738679684E+03  0.25500000920E-02 0. -1.
</event>
<event>
 5   0  0.6248886E-02  0.6967142E+03  0.7818609E-02  0.9722868E-01
       -2   -1    0    0    0  501  0.00000000000E+00  0.00000000000E+00  0.38477944342E+03  0.38477944343E+03  0.25500000920E-02 0. -1.
        2   -1    0    0  501    0  0.00000000000E+00  0.00000000000E+00 -0.31538242820E+03  0.31538242821E+03  0.25500000920E-02 0.  1.
    10030    2    1    2    0    0  0.00000000000E+00  0.00000000000E+00  0.69397015219E+02  0.70016187163E+03  0.69671421743E+03 0.  0.
        3    1    3    3  502    0  0.13686324196E+03  0.31487147160E+03 -0.24560008662E+02  0.34420748809E+03  0.10100000352E+00 0.  1.
       -3    1    3    3    0  502 -0.13686324196E+03 -0.31487147160E+03  0.93957023881E+02  0.35595438355E+03  0.10100000352E+00 0. -1.
</event>
<event>
 5   0  0.3755872E-02  0.7017044E+03  0.7818609E-02  0.9714322E-01
       -1   -1    0    0    0  501  0.00000000000E+00  0.00000000000E+00  0.12190924835E+03  0.12190924846E+03  0.50400001928E-02 0. -1.
        1   -1    0    0  501    0  0.00000000000E+00  0.00000000000E+00 -0.10097450729E+04  0.10097450729E+04  0.50400001928E-02 0.  1.
    10030    2    1    2    0    0  0.00000000000E+00  0.00000000000E+00 -0.88783582451E+03  0.11316543213E+04  0.70170439054E+03 0.  0.
        2    1    3    3  502    0  0.11176166464E+03  0.67016752408E+02  0.81432036047E+02  0.15366551756E+03  0.25500000920E-02 0.  1.
       -2    1    3    3    0  502 -0.11176166464E+03 -0.67016752408E+02 -0.96926786055E+03  0.97798880377E+03  0.25500000920E-02 0. -1.
</event>
<event>
 5   0  0.6131198E-02  0.6961460E+03  0.7818609E-02  0.9723846E-01
        2   -1    0    0  501    0  0.00000000000E+00  0.00000000000E+00  0.16823179904E+04  0.16823179904E+04  0.25500000920E-02 0. -1.
       -2   -1    0    0    0  501  0.00000000000E+00  0.00000000000E+00 -0.72016594391E+02  0.72016594437E+02  0.25500000920E-02 0.  1.
    10030    2    1    2    0    0  0.00000000000E+00  0.00000000000E+00  0.16103013960E+04  0.17543345848E+04  0.69614599730E+03 0.  0.
        1    1    3    3  502    0  0.10824580080E+01 -0.31899956266E+03  0.45421003356E+03  0.55503932050E+03  0.50400001928E-02 0.  1.
       -1    1    3    3    0  502 -0.10824580080E+01  0.31899956266E+03  0.11560913624E+04  0.11992952643E+04  0.50400001928E-02 0. -1.
</event>
<event>
 5   0  0.3439015E-02  0.6885966E+03  0.7818609E-02  0.9736935E-01
        1   -1    0    0  501    0  0.00000000000E+00  0.00000000000E+00  0.76886853486E+03  0.76886853488E+03  0.50400001928E-02 0. -1.
       -1   -1    0    0    0  501  0.00000000000E+00  0.00000000000E+00 -0.15417633706E+03  0.15417633714E+03  0.50400001928E-02 0.  1.
    10030    2    1    2    0    0  0.00000000000E+00  0.00000000000E+00  0.61469219781E+03  0.92304487202E+03  0.68859664370E+03 0.  0.
        1    1    3    3  502    0 -0.92166874731E+02  0.30558956819E+03  0.48037414014E+03  0.57674867276E+03  0.50400001928E-02 0. -1.
       -1    1    3    3    0  502  0.92166874731E+02 -0.30558956819E+03  0.13431805767E+03  0.34629619926E+03  0.50400001928E-02 0.  1.
</event>
<event>
 5   0  0.3717372E-02  0.7293047E+03  0.7818609E-02  0.9668389E-01
       -1   -1    0    0    0  501  0.00000000000E+00  0.00000000000E+00  0.27587862468E+03  0.27587862472E+03  0.50400001928E-02 0.  1.
        1   -1    0    0  501    0  0.00000000000E+00  0.00000000000E+00 -0.48199218511E+03  0.48199218514E+03  0.50400001928E-02 0. -1.
    10030    2    1    2    0    0  0.00000000000E+00  0.00000000000E+00 -0.20611356043E+03  0.75787080986E+03  0.72930471317E+03 0.  0.
        3    1    3    3  502    0  0.27999233700E+03 -0.21974327083E+03 -0.18546305518E+03  0.40134694330E+03  0.10100000352E+00 0. -1.
       -3    1    3    3    0  502 -0.27999233700E+03  0.21974327083E+03 -0.20650505250E+02  0.35652386656E+03  0.10100000352E+00 0.  1.
</event>
<event>
 5   0  0.3749730E-02  0.7214575E+03  0.7818609E-02  0.9681225E-01
        1   -1    0    0  501    0  0.00000000000E+00  0.00000000000E+00  0.44120112744E+03  0.44120112747E+03  0.50400001928E-02 0.  1.
       -1   -1    0    0    0  501  0.00000000000E+00  0.00000000000E+00 -0.29493402241E+03  0.29493402245E+03  0.50400001928E-02 0. -1.
    10030    2    1    2    0    0  0.00000000000E+00  0.00000000000E+00  0.14626710503E+03  0.73613514993E+03  0.72145747826E+03 0.  0.
        4    1    3    3  502    0  0.78124517551E+02  0.15214501447E+03  0.39719865896E+03  0.43245801328E+03  0.12699999809E+01 0.  1.
       -4    1    3    3    0  502 -0.78124517551E+02 -0.15214501447E+03 -0.25093155392E+03  0.30367713665E+03  0.12699999809E+01 0. -1.
</event>
<event>
 5   0  0.6167756E-02  0.6963808E+03  0.7818609E-02  0.9723442E-01
        2   -1    0    0  501    0  0.00000000000E+00  0.00000000000E+00  0.51430255160E+03  0.51430255160E+03  0.25500000920E-02 0. -1.
       -2   -1    0    0    0  501  0.00000000000E+00  0.00000000000E+00 -0.23573002741E+03  0.23573002742E+03  0.25500000920E-02 0.  1.
    10030    2    1    2    0    0  0.00000000000E+00  0.00000000000E+00  0.27857252418E+03  0.75003257903E+03  0.69638079983E+03 0.  0.
        4    1    3    3  502    0 -0.31386368833E+03  0.84268606894E+02  0.46629952815E+01  0.32501533716E+03  0.12699999809E+01 0.  1.
       -4    1    3    3    0  502  0.31386368833E+03 -0.84268606894E+02  0.27390952890E+03  0.42501724187E+03  0.12699999809E+01 0. -1.
</event>
<event>
 5   0  0.3717372E-02  0.7364010E+03  0.7818609E-02  0.9656930E-01
       -1   -1    0    0    0  501  0.00000000000E+00  0.00000000000E+00  0.31711831411E+03  0.31711831415E+03  0.50400001928E-02 0. -1.
        1   -1    0    0  501    0  0.00000000000E+00  0.00000000000E+00 -0.42751109174E+03  0.42751109177E+03  0.50400001928E-02 0.  1.
    10030    2    1    2    0    0  0.00000000000E+00  0.00000000000E+00 -0.11039277763E+03  0.74462940592E+03  0.73640096877E+03 0.  0.
        3    1    3    3  502    0 -0.28678293701E+03  0.47108980283E+02 -0.28379298230E+03  0.40620459867E+03  0.10100000352E+00 0.  1.
       -3    1    3    3    0  502  0.28678293701E+03 -0.47108980283E+02  0.17340020467E+03  0.33842480725E+03  0.10100000352E+00 0. -1.
</event>
<event>
 5   0  0.5987810E-02  0.6971007E+03  0.7818609E-02  0.9722203E-01
       -2   -1    0    0    0  501  0.00000000000E+00  0.00000000000E+00  0.17578885046E+03  0.17578885048E+03  0.25500000920E-02 0.  1.
        2   -1    0    0  501    0  0.00000000000E+00  0.00000000000E+00 -0.69109813272E+03  0.69109813272E+03  0.25500000920E-02 0. -1.
    10030    2    1    2    0    0  0.00000000000E+00  0.00000000000E+00 -0.51530928225E+03  0.86688698321E+03  0.69710069952E+03 0.  0.
        5    1    3    3  502    0 -0.96154473094E+00  0.31693655164E+03 -0.43793042172E+03  0.54060599941E+03  0.46999998093E+01 0. -1.
       -5    1    3    3    0  502  0.96154473094E+00 -0.31693655164E+03 -0.77378860534E+02  0.32628098380E+03  0.46999998093E+01 0.  1.
</event>
<event>
 5   0  0.3717372E-02  0.7036880E+03  0.7818609E-02  0.9710946E-01
       -1   -1    0    0    0  501  0.00000000000E+00  0.00000000000E+00  0.45780817234E+03  0.45780817236E+03  0.50400001928E-02 0. -1.
        1   -1    0    0  501    0  0.00000000000E+00  0.00000000000E+00 -0.27040626831E+03  0.27040626835E+03  0.50400001928E-02 0.  1.
    10030    2    1    2    0    0  0.00000000000E+00  0.00000000000E+00  0.18740190403E+03  0.72821444072E+03  0.70368799765E+03 0.  0.
        3    1    3    3  502    0 -0.10453410818E+03 -0.31292846922E+03 -0.32799470810E+02  0.33155304569E+03  0.10100000352E+00 0.  1.
       -3    1    3    3    0  502  0.10453410818E+03  0.31292846922E+03  0.22020137484E+03  0.39666139502E+03  0.10100000352E+00 0. -1.
</event>
<event>
 5   0  0.6131198E-02  0.6684705E+03  0.7818609E-02  0.9772725E-01
       -2   -1    0    0    0  501  0.00000000000E+00  0.00000000000E+00  0.18342408698E+03  0.18342408700E+03  0.25500000920E-02 0.  1.
        2   -1    0    0  501    0  0.00000000000E+00  0.00000000000E+00 -0.60904316185E+03  0.60904316185E+03  0.25500000920E-02 0. -1.
    10030    2    1    2    0    0  0.00000000000E+00  0.00000000000E+00 -0.42561907487E+03  0.79246724885E+03  0.66847045082E+03 0.  0.
        1    1    3    3  502    0 -0.90202497293E+02  0.77634103991E+02  0.15745485309E+03  0.19737166820E+03  0.50400001928E-02 0.  1.
       -1    1    3    3    0  502  0.90202497293E+02 -0.77634103991E+02 -0.58307392796E+03  0.59509558065E+03  0.50400001928E-02 0. -1.
</event>
<event>
 5   0  0.3717372E-02  0.7025590E+03  0.7818609E-02  0.9712866E-01
        1   -1    0    0  501    0  0.00000000000E+00  0.00000000000E+00  0.16043556913E+04  0.16043556913E+04  0.50400001928E-02 0.  1.
       -1   -1    0    0    0  501  0.00000000000E+00  0.00000000000E+00 -0.76913914481E+02  0.76913914646E+02  0.50400001928E-02 0. -1.
    10030    2    1    2    0    0  0.00000000000E+00  0.00000000000E+00  0.15274417768E+04  0.16812696059E+04  0.70255897000E+03 0.  0.
        3    1    3    3  502    0 -0.16812716186E+03 -0.98362032038E+02  0.64161769481E+02  0.20508187332E+03  0.10100000352E+00 0. -1.
       -3    1    3    3    0  502  0.16812716186E+03  0.98362032038E+02  0.14632800073E+04  0.14761877326E+04  0.10100000352E+00 0.  1.
</event>
<event>
 5   0  0.5987810E-02  0.6976203E+03  0.7818609E-02  0.9721311E-01
       -2   -1    0    0    0  501  0.00000000000E+00  0.00000000000E+00  0.14380650166E+03  0.14380650168E+03  0.25500000920E-02 0. -1.
        2   -1    0    0  501    0  0.00000000000E+00  0.00000000000E+00 -0.84605707782E+03  0.84605707783E+03  0.25500000920E-02 0.  1.
    10030    2    1    2    0    0  0.00000000000E+00  0.00000000000E+00 -0.70225057617E+03  0.98986357951E+03  0.69762026512E+03 0.  0.
        5    1    3    3  502    0 -0.10092517221E+03 -0.31797445586E+03 -0.20675274183E+03  0.39250787409E+03  0.46999998093E+01 0. -1.
       -5    1    3    3    0  502  0.10092517221E+03  0.31797445586E+03 -0.49549783434E+03  0.59735570542E+03  0.46999998093E+01 0.  1.
</event>
<event>
 5   0  0.6248886E-02  0.7084521E+03  0.7818609E-02  0.9702886E-01
       -2   -1    0    0    0  501  0.00000000000E+00  0.00000000000E+00  0.25140263530E+03  0.25140263531E+03  0.25500000920E-02 0.  1.
        2   -1    0    0  501    0  0.00000000000E+00  0.00000000000E+00 -0.49910413383E+03  0.49910413384E+03  0.25500000920E-02 0. -1.
    10030    2    1    2    0    0  0.00000000000E+00  0.00000000000E+00 -0.24770149853E+03  0.75050676915E+03  0.70845210012E+03 0.  0.
        3    1    3    3  502    0 -0.96530210479E+02 -0.22689742681E+03 -0.39326106586E+03  0.46417108910E+03  0.10100000352E+00 0. -1.
       -3    1    3    3    0  502  0.96530210479E+02  0.22689742681E+03  0.14555956733E+03  0.28633568005E+03  0.10100000352E+00 0.  1.
</event>
<event>
 5   0  0.2439375E-02  0.6818260E+03  0.7818609E-02  0.9748827E-01
       -3   -1    0    0    0  501  0.00000000000E+00  0.00000000000E+00  0.13224180171E+03  0.13224184028E+03  0.10100000352E+00 0. -1.
        3   -1    0    0  501    0  0.00000000000E+00  0.00000000000E+00 -0.87885701560E+03  0.87885702140E+03  0.10100000352E+00 0.  1.
    10030    2    1    2    0    0  0.00000000000E+00  0.00000000000E+00 -0.74661521389E+03  0.10110988617E+04  0.68182595321E+03 0.  0.
        1    1    3    3  502    0 -0.18336663627E+03 -0.16402557898E+03 -0.72327217686E+03  0.76397012749E+03  0.50400001928E-02 0.  1.
       -1    1    3    3    0  502  0.18336663627E+03  0.16402557898E+03 -0.23343037033E+02  0.24712873419E+03  0.50400001928E-02 0. -1.
</event>
<event>
 5   0  0.6248886E-02  0.7064097E+03  0.7818609E-02  0.9706333E-01
       -2   -1    0    0    0  501  0.00000000000E+00  0.00000000000E+00  0.71198072259E+03  0.71198072259E+03  0.25500000920E-02 0.  1.
        2   -1    0    0  501    0  0.00000000000E+00  0.00000000000E+00 -0.17522058231E+03  0.17522058233E+03  0.25500000920E-02 0. -1.
    10030    2    1    2    0    0  0.00000000000E+00  0.00000000000E+00  0.53676014028E+03  0.88720130492E+03  0.70640973044E+03 0.  0.
        3    1    3    3  502    0 -0.26276921233E+03 -0.11875653536E+03  0.12210661991E+02  0.28861719302E+03  0.10100000352E+00 0. -1.
       -3    1    3    3    0  502  0.26276921233E+03  0.11875653536E+03  0.52454947829E+03  0.59858411190E+03  0.10100000352E+00 0.  1.
</event>
<event>
 5   0  0.3749730E-02  0.7047367E+03  0.7818609E-02  0.9709166E-01
       -1   -1    0    0    0  501  0.00000000000E+00  0.00000000000E+00  0.43061934274E+03  0.43061934277E+03  0.50400001928E-02 0. -1.
        1   -1    0    0  501    0  0.00000000000E+00  0.00000000000E+00 -0.28833695016E+03  0.28833695020E+03  0.50400001928E-02 0.  1.
    10030    2    1    2    0    0  0.00000000000E+00  0.00000000000E+00  0.14228239258E+03  0.71895629297E+03  0.70473673948E+03 0.  0.
        4    1    3    3  502    0 -0.52059689911E+02  0.13653148965E+03  0.39825203732E+03  0.42421381061E+03  0.12699999809E+01 0. -1.
       -4    1    3    3    0  502  0.52059689911E+02 -0.13653148965E+03 -0.25596964474E+03  0.29474248236E+03  0.12699999809E+01 0.  1.
</event>
<event>
 5   0  0.3749730E-02  0.6639334E+03  0.7818609E-02  0.9780980E-01
       -1   -1    0    0    0  501  0.00000000000E+00  0.00000000000E+00  0.16381517621E+03  0.16381517628E+03  0.50400001928E-02 0. -1.
        1   -1    0    0  501    0  0.00000000000E+00  0.00000000000E+00 -0.67272093078E+03  0.67272093080E+03  0.50400001928E-02 0.  1.
    10030    2    1    2    0    0  0.00000000000E+00  0.00000000000E+00 -0.50890575457E+03  0.83653610708E+03  0.66393342393E+03 0.  0.
        4    1    3    3  502    0 -0.19144642675E+02  0.56951692110E+02  0.15690417232E+03  0.16801947735E+03  0.12699999809E+01 0. -1.
       -4    1    3    3    0  502  0.19144642675E+02 -0.56951692110E+02 -0.66580992689E+03  0.66851662973E+03  0.12699999809E+01 0.  1.
</event>
<event>
 5   0  0.3439015E-02  0.7087142E+03  0.7818609E-02  0.9702445E-01
       -1   -1    0    0    0  501  0.00000000000E+00  0.00000000000E+00  0.28296756286E+03  0.28296756291E+03  0.50400001928E-02 0.  1.
        1   -1    0    0  501    0  0.00000000000E+00  0.00000000000E+00 -0.44375746381E+03  0.44375746384E+03  0.50400001928E-02 0. -1.
    10030    2    1    2    0    0  0.00000000000E+00  0.00000000000E+00 -0.16078990095E+03  0.72672502674E+03  0.70871423878E+03 0.  0.
        1    1    3    3  502    0 -0.14215975696E+03  0.18523851362E+03  0.19292389831E+03  0.30288997011E+03  0.50400001928E-02 0.  1.
       -1    1    3    3    0  502  0.14215975696E+03 -0.18523851362E+03 -0.35371379925E+03  0.42383505664E+03  0.50400001928E-02 0. -1.
</event>
<event>
 5   0  0.3601475E-02  0.7244377E+03  0.7818609E-02  0.9676330E-01
        1   -1    0    0  501    0  0.00000000000E+00  0.00000000000E+00  0.20638640327E+04  0.20638640327E+04  0.50400001928E-02 0.  1.
       -1   -1    0    0    0  501  0.00000000000E+00  0.00000000000E+00 -0.63571291615E+02  0.63571291814E+02  0.50400001928E-02 0. -1.
    10030    2    1    2    0    0  0.00000000000E+00  0.00000000000E+00  0.20002927411E+04  0.21274353245E+04  0.72443771987E+03 0.  0.
        5    1    3    3  502    0  0.14425503886E+03  0.15162532561E+03  0.13205994775E+03  0.24751096016E+03  0.46999998093E+01 0. -1.
       -5    1    3    3    0  502 -0.14425503886E+03 -0.15162532561E+03  0.18682327933E+04  0.18799243643E+04  0.46999998093E+01 0.  1.
</event>
<event>
 5   0  0.3717372E-02  0.6598491E+03  0.7818609E-02  0.9788472E-01
       -1   -1    0    0    0  501  0.00000000000E+00  0.00000000000E+00  0.17699155001E+03  0.17699155009E+03  0.50400001928E-02 0.  1.
        1   -1    0    0  501    0  0.00000000000E+00  0.00000000000E+00 -0.61500226681E+03  0.61500226683E+03  0.50400001928E-02 0. -1.
    10030    2    1    2    0    0  0.00000000000E+00  0.00000000000E+00 -0.43801071679E+03  0.79199381692E+03  0.65984908730E+03 0.  0.
        3    1    3    3  502    0 -0.31313246695E+03 -0.67085890551E+02 -0.12375439279E+03  0.34331853796E+03  0.10100000352E+00 0.  1.
       -3    1    3    3    0  502  0.31313246695E+03  0.67085890551E+02 -0.31425632401E+03  0.44867527896E+03  0.10100000352E+00 0. -1.
</event>
<event>
 5   0  0.3755872E-02  0.6986706E+03  0.7818609E-02  0.9719508E-01
       -1   -1    0    0    0  501  0.00000000000E+00  0.00000000000E+00  0.12272595077E+03  0.12272595088E+03  0.50400001928E-02 0. -1.
        1   -1    0    0  501    0  0.00000000000E+00  0.00000000000E+00 -0.99437131832E+03  0.99437131833E+03  0.50400001928E-02 0.  1.
    10030    2    1    2    0    0  0.00000000000E+00  0.00000000000E+00 -0.87164536754E+03  0.11170972692E+04  0.69867063922E+03 0.  0.
        2    1    3    3  502    0 -0.34016906493E+03  0.13151893053E+02 -0.56118216498E+03  0.65636376143E+03  0.25500000920E-02 0.  1.
       -2    1    3    3    0  502  0.34016906493E+03 -0.13151893053E+02 -0.31046320257E+03  0.46073350777E+03  0.25500000920E-02 0. -1.
</event>
<event>
 5   0  0.3755872E-02  0.6943128E+03  0.7818609E-02  0.9727008E-01
       -1   -1    0    0    0  501  0.00000000000E+00  0.00000000000E+00  0.35234006220E+03  0.35234006224E+03  0.50400001928E-02 0. -1.
        1   -1    0    0  501    0  0.00000000000E+00  0.00000000000E+00 -0.34204898120E+03  0.34204898124E+03  0.50400001928E-02 0.  1.
    10030    2    1    2    0    0  0.00000000000E+00  0.00000000000E+00  0.10291081005E+02  0.69438904348E+03  0.69431278063E+03 0.  0.
        2    1    3    3  502    0  0.21735035519E+03 -0.22047016231E+02  0.27497197149E+03  0.35119344091E+03  0.25500000920E-02 0. -1.
       -2    1    3    3    0  502 -0.21735035519E+03  0.22047016231E+02 -0.26468089048E+03  0.34319560257E+03  0.25500000920E-02 0.  1.
</event>
<event>
 5   0  0.5899787E-02  0.7165685E+03  0.7818609E-02  0.9689310E-01
       -2   -1    0    0    0  501  0.00000000000E+00  0.00000000000E+00  0.15884631404E+03  0.15884631406E+03  0.25500000920E-02 0.  1.
        2   -1    0    0  501    0  0.00000000000E+00  0.00000000000E+00 -0.80812448726E+03  0.80812448726E+03  0.25500000920E-02 0. -1.
    10030    2    1    2    0    0  0.00000000000E+00  0.00000000000E+00 -0.64927817322E+03  0.96697080132E+03  0.71656847851E+03 0.  0.
        2    1    3    3  502    0 -0.29686380256E+03  0.11538135113E+03 -0.54607425788E+03  0.63216933537E+03  0.25500000920E-02 0. -1.
       -2    1    3    3    0  502  0.29686380256E+03 -0.11538135113E+03 -0.10320391533E+03  0.33480146595E+03  0.25500000920E-02 0.  1.
</event>
<event>
 5   0  0.3717372E-02  0.6842927E+03  0.7818609E-02  0.9744477E-01
       -1   -1    0    0    0  501  0.00000000000E+00  0.00000000000E+00  0.58117969705E+03  0.58117969707E+03  0.50400001928E-02 0.  1.
        1   -1    0    0  501    0  0.00000000000E+00  0.00000000000E+00 -0.20142503171E+03  0.20142503177E+03  0.50400001928E-02 0. -1.
    10030    2    1    2    0    0  0.00000000000E+00  0.00000000000E+00  0.37975466534E+03  0.78260472884E+03  0.68429274127E+03 0.  0.
        3    1    3    3  502    0 -0.39943439006E+02  0.13559717379E+03 -0.16646713377E+03  0.21838816059E+03  0.10100000352E+00 0. -1.
       -3    1    3    3    0  502  0.39943439006E+02 -0.13559717379E+03  0.54622179911E+03  0.56421656825E+03  0.10100000352E+00 0.  1.
</event>
<event>
 5   0  0.3439015E-02  0.6847673E+03  0.7818609E-02  0.9743643E-01
       -1   -1    0    0    0  501  0.00000000000E+00  0.00000000000E+00  0.11462855714E+03  0.11462855725E+03  0.50400001928E-02 0. -1.
        1   -1    0    0  501    0  0.00000000000E+00  0.00000000000E+00 -0.10226645484E+04  0.10226645484E+04  0.50400001928E-02 0.  1.
    10030    2    1    2    0    0  0.00000000000E+00  0.00000000000E+00 -0.90803599124E+03  0.11372931056E+04  0.68476729388E+03 0.  0.
        1    1    3    3  502    0 -0.26659406410E+03 -0.25145492643E+02 -0.99662274918E+02  0.28572234753E+03  0.50400001928E-02 0. -1.
       -1    1    3    3    0  502  0.26659406410E+03  0.25145492643E+02 -0.80837371632E+03  0.85157075812E+03  0.50400001928E-02 0.  1.
</event>
<event>
 5   0  0.5899787E-02  0.7052194E+03  0.7818609E-02  0.9708348E-01
        2   -1    0    0  501    0  0.00000000000E+00  0.00000000000E+00  0.11092433358E+04  0.11092433358E+04  0.25500000920E-02 0. -1.
       -2   -1    0    0    0  501  0.00000000000E+00  0.00000000000E+00 -0.11208865415E+03  0.11208865418E+03  0.25500000920E-02 0.  1.
    10030    2    1    2    0    0  0.00000000000E+00  0.00000000000E+00  0.99715468163E+03  0.12213319900E+04  0.70521937764E+03 0.  0.
        2    1    3    3  502    0 -0.28170904192E+02 -0.17736533576E+03 -0.26950538061E+02  0.18159954208E+03  0.25500000920E-02 0.  1.
       -2    1    3    3    0  502  0.28170904192E+02  0.17736533576E+03  0.10241052197E+04  0.10397324479E+04  0.25500000920E-02 0. -1.
</event>
<event>
 5   0  0.3755872E-02  0.6960838E+03  0.7818609E-02  0.9723953E-01
        1   -1    0    0  501    0  0.00000000000E+00  0.00000000000E+00  0.10600869203E+04  0.10600869203E+04  0.50400001928E-02 0.  1.
       -1   -1    0    0    0  501  0.00000000000E+00  0.00000000000E+00 -0.11426720518E+03  0.11426720529E+03  0.50400001928E-02 0. -1.
    10030    2    1    2    0    0  0.00000000000E+00  0.00000000000E+00  0.94581971511E+03  0.11743541256E+04  0.69608381594E+03 0.  0.
        2    1    3    3  502    0 -0.92565303543E+02  0.32733361382E+03  0.34873359451E+03  0.48716603957E+03  0.25500000920E-02 0.  1.
       -2    1    3    3    0  502  0.92565303543E+02 -0.32733361382E+03  0.59708612060E+03  0.68718808603E+03  0.25500000920E-02 0. -1.
</event>
<event>
 5   0  0.3717372E-02  0.6753508E+03  0.7818609E-02  0.9760340E-01
        1   -1    0    0  501    0  0.00000000000E+00  0.00000000000E+00  0.64066227701E+03  0.64066227703E+03  0.50400001928E-02 0.  1.
       -1   -1    0    0    0  501  0.00000000000E+00  0.00000000000E+00 -0.17797937486E+03  0.17797937493E+03  0.50400001928E-02 0. -1.
    10030    2    1    2    0    0  0.00000000000E+00  0.00000000000E+00  0.46268290215E+03  0.81864165196E+03  0.67535078765E+03 0.  0.
        3    1    3    3  502    0  0.12260189258E+03 -0.30674405543E+03  0.14647620097E+03  0.36135637155E+03  0.10100000352E+00 0.  1.
       -3    1    3    3    0  502 -0.12260189258E+03  0.30674405543E+03  0.31620670118E+03  0.45728528041E+03  0.10100000352E+00 0. -1.
</event>
<event>
 5   0  0.6131198E-02  0.7041846E+03  0.7818609E-02  0.9710103E-01
       -2   -1    0    0    0  501  0.00000000000E+00  0.00000000000E+00  0.22764444013E+03  0.22764444014E+03  0.25500000920E-02 0. -1.
        2   -1    0    0  501    0  0.00000000000E+00  0.00000000000E+00 -0.54457290407E+03  0.54457290408E+03  0.25500000920E-02 0.  1.
    10030    2    1    2    0    0  0.00000000000E+00  0.00000000000E+00 -0.31692846395E+03  0.77221734422E+03  0.70418461745E+03 0.  0.
        1    1    3    3  502    0 -0.15262726747E+03 -0.20742021794E+03 -0.42176707736E+03  0.49417172841E+03  0.50400001928E-02 0.  1.
       -1    1    3    3    0  502  0.15262726747E+03  0.20742021794E+03  0.10483861341E+03  0.27804561581E+03  0.50400001928E-02 0. -1.
</event>
<event>
 5   0  0.5899787E-02  0.6709332E+03  0.7818609E-02  0.9768273E-01
        2   -1    0    0  501    0  0.00000000000E+00  0.00000000000E+00  0.66661023021E+03  0.66661023022E+03  0.25500000920E-02 0.  1.
       -2   -1    0    0    0  501  0.00000000000E+00  0.00000000000E+00 -0.16882106491E+03  0.16882106493E+03  0.25500000920E-02 0. -1.
    10030    2    1    2    0    0  0.00000000000E+00  0.00000000000E+00  0.49778916530E+03  0.83543129515E+03  0.67093322754E+03 0.  0.
        2    1    3    3  502    0  0.30754175188E+03  0.94698624139E+02  0.36694435526E+03  0.48805524116E+03  0.25500000920E-02 0. -1.
       -2    1    3    3    0  502 -0.30754175188E+03 -0.94698624139E+02  0.13084481004E+03  0.34737605399E+03  0.25500000920E-02 0.  1.
</event>
<event>
 5   0  0.6167756E-02  0.7279950E+03  0.7818609E-02  0.9670519E-01
       -2   -1    0    0    0  501  0.00000000000E+00  0.00000000000E+00  0.36899604602E+03  0.36899604603E+03  0.25500000920E-02 0. -1.
        2   -1    0    0  501    0  0.00000000000E+00  0.00000000000E+00 -0.35906668456E+03  0.35906668457E+03  0.25500000920E-02 0.  1.
    10030    2    1    2    0    0  0.00000000000E+00  0.00000000000E+00  0.99293614638E+01  0.72806273060E+03  0.72799501885E+03 0.  0.
        4    1    3    3  502    0  0.13063004684E+03 -0.50766834374E+02 -0.33099973284E+03  0.35944946327E+03  0.12699999809E+01 0.  1.
       -4    1    3    3    0  502 -0.13063004684E+03  0.50766834374E+02  0.34092909430E+03  0.36861326733E+03  0.12699999809E+01 0. -1.
</event>
<event>
 5   0  0.5987810E-02  0.7001632E+03  0.7818609E-02  0.9716953E-01
        2   -1    0    0  501    0  0.00000000000E+00  0.00000000000E+00  0.61559656216E+03  0.61559656217E+03  0.25500000920E-02 0.  1.
       -2   -1    0    0    0  501  0.00000000000E+00  0.00000000000E+00 -0.19908677514E+03  0.19908677516E+03  0.25500000920E-02 0. -1.
    10030    2    1    2    0    0  0.00000000000E+00  0.00000000000E+00  0.41650978702E+03  0.81468333733E+03  0.70016322199E+03 0.  0.
        5    1    3    3  502    0 -0.62590807465E+02  0.48771474573E+02  0.60495750364E+03  0.61015730523E+03  0.46999998093E+01 0.  1.
       -5    1    3    3    0  502  0.62590807465E+02 -0.48771474573E+02 -0.18844771662E+03  0.20452603210E+03  0.46999998093E+01 0. -1.
</event>
<event>
 5   0  0.6167756E-02  0.7682841E+03  0.7818609E-02  0.9607094E-01
        2   -1    0    0  501    0  0.00000000000E+00  0.00000000000E+00  0.23427508914E+04  0.23427508914E+04  0.25500000920E-02 0. -1.
       -2   -1    0    0    0  501  0.00000000000E+00  0.00000000000E+00 -0.62987969358E+02  0.62987969410E+02  0.25500000920E-02 0.  1.
    10030    2    1    2    0    0  0.00000000000E+00  0.00000000000E+00  0.22797629221E+04  0.24057388608E+04  0.76828411783E+03 0.  0.
        4    1    3    3  502    0  0.71782999558E+02 -0.22522486257E+03  0.20880259376E+04  0.21013645488E+04  0.12699999809E+01 0. -1.
       -4    1    3    3    0  502 -0.71782999558E+02  0.22522486257E+03  0.19173698446E+03  0.30437431208E+03  0.12699999809E+01 0.  1.
</event>
<event>
 5   0  0.6131198E-02  0.7072866E+03  0.7818609E-02  0.9704852E-01
        2   -1    0    0  501    0  0.00000000000E+00  0.00000000000E+00  0.63407309827E+03  0.63407309828E+03  0.25500000920E-02 0. -1.
       -2   -1    0    0    0  501  0.00000000000E+00  0.00000000000E+00 -0.19723841478E+03  0.19723841480E+03  0.25500000920E-02 0.  1.
    10030    2    1    2    0    0  0.00000000000E+00  0.00000000000E+00  0.43683468349E+03  0.83131151307E+03  0.70728656927E+03 0.  0.
        1    1    3    3  502    0 -0.46810050101E+02 -0.44596462159E+02 -0.19023310891E+03  0.20091953857E+03  0.50400001928E-02 0.  1.
       -1    1    3    3    0  502  0.46810050101E+02  0.44596462159E+02  0.62706779240E+03  0.63039197451E+03  0.50400001928E-02 0. -1.
</event>
<event>
 5   0  0.3755872E-02  0.6921988E+03  0.7818609E-02  0.9730667E-01
       -1   -1    0    0    0  501  0.00000000000E+00  0.00000000000E+00  0.25250516828E+03  0.25250516833E+03  0.50400001928E-02 0.  1.
        1   -1    0    0  501    0  0.00000000000E+00  0.00000000000E+00 -0.47438555609E+03  0.47438555611E+03  0.50400001928E-02 0. -1.
    10030    2    1    2    0    0  0.00000000000E+00  0.00000000000E+00 -0.22188038781E+03  0.72689072444E+03  0.69219882894E+03 0.  0.
        2    1    3    3  502    0 -0.41271693168E+02 -0.19575989953E+03  0.18563137570E+03  0.27291811698E+03  0.25500000920E-02 0.  1.
       -2    1    3    3    0  502  0.41271693168E+02  0.19575989953E+03 -0.40751176351E+03  0.45397260747E+03  0.25500000920E-02 0. -1.
</event>
<event>
 5   0  0.5899787E-02  0.6969702E+03  0.7818609E-02  0.9722428E-01
       -2   -1    0    0    0  501  0.00000000000E+00  0.00000000000E+00  0.63023433043E+02  0.63023433095E+02  0.25500000920E-02 0. -1.
        2   -1    0    0  501    0  0.00000000000E+00  0.00000000000E+00 -0.19269321771E+04  0.19269321771E+04  0.25500000920E-02 0.  1.
    10030    2    1    2    0    0  0.00000000000E+00  0.00000000000E+00 -0.18639087441E+04  0.19899556102E+04  0.69697024641E+03 0.  0.
        2    1    3    3  502    0 -0.19840202126E+02 -0.27379335142E+03 -0.31902411880E+03  0.42087150210E+03  0.25500000920E-02 0. -1.
       -2    1    3    3    0  502  0.19840202126E+02  0.27379335142E+03 -0.15448846253E+04  0.15690841081E+04  0.25500000920E-02 0.  1.
</event>
<event>
 5   0  0.6248886E-02  0.7105087E+03  0.7818609E-02  0.9699428E-01
        2   -1    0    0  501    0  0.00000000000E+00  0.00000000000E+00  0.62635673022E+02  0.62635673074E+02  0.25500000920E-02 0.  1.
       -2   -1    0    0    0  501  0.00000000000E+00  0.00000000000E+00 -0.20149167373E+04  0.20149167373E+04  0.25500000920E-02 0. -1.
    10030    2    1    2    0    0  0.00000000000E+00  0.00000000000E+00 -0.19522810643E+04  0.20775524104E+04  0.71050873600E+03 0.  0.
        3    1    3    3  502    0  0.23804387479E+02  0.27557729289E+03 -0.16279850145E+04  0.16513160542E+04  0.10100000352E+00 0. -1.
       -3    1    3    3    0  502 -0.23804387479E+02 -0.27557729289E+03 -0.32429604977E+03  0.42623635617E+03  0.10100000352E+00 0.  1.
</event>
<event>
 5   0  0.5987810E-02  0.5961230E+03  0.7818609E-02  0.9913482E-01
       -2   -1    0    0    0  501  0.00000000000E+00  0.00000000000E+00  0.14583780642E+03  0.14583780644E+03  0.25500000920E-02 0. -1.
        2   -1    0    0  501    0  0.00000000000E+00  0.00000000000E+00 -0.60917444481E+03  0.60917444482E+03  0.25500000920E-02 0.  1.
    10030    2    1    2    0    0  0.00000000000E+00  0.00000000000E+00 -0.46333663839E+03  0.75501225126E+03  0.59612302344E+03 0.  0.
        5    1    3    3  502    0 -0.19806929535E+03  0.20836914704E+03 -0.13218722846E+03  0.31645647500E+03  0.46999998093E+01 0.  1.
       -5    1    3    3    0  502  0.19806929535E+03 -0.20836914704E+03 -0.33114940993E+03  0.43855577627E+03  0.46999998093E+01 0. -1.
</event>
<event>
 5   0  0.6131198E-02  0.7327721E+03  0.7818609E-02  0.9662773E-01
        2   -1    0    0  501    0  0.00000000000E+00  0.00000000000E+00  0.12197166051E+04  0.12197166051E+04  0.25500000920E-02 0. -1.
       -2   -1    0    0    0  501  0.00000000000E+00  0.00000000000E+00 -0.11005730876E+03  0.11005730879E+03  0.25500000920E-02 0.  1.
    10030    2    1    2    0    0  0.00000000000E+00  0.00000000000E+00  0.11096592964E+04  0.13297739139E+04  0.73277207105E+03 0.  0.
        1    1    3    3  502    0 -0.20834717255E+03  0.18282106589E+03  0.98963008056E+03  0.10277158084E+04  0.50400001928E-02 0. -1.
       -1    1    3    3    0  502  0.20834717255E+03 -0.18282106589E+03  0.12002921582E+03  0.30205810553E+03  0.50400001928E-02 0.  1.
</event>
<event>
 5   0  0.3439015E-02  0.6913079E+03  0.7818609E-02  0.9732213E-01
       -1   -1    0    0    0  501  0.00000000000E+00  0.00000000000E+00  0.92200122764E+02  0.92200122902E+02  0.50400001928E-02 0. -1.
        1   -1    0    0  501    0  0.00000000000E+00  0.00000000000E+00 -0.12958404682E+04  0.12958404682E+04  0.50400001928E-02 0.  1.
    10030    2    1    2    0    0  0.00000000000E+00  0.00000000000E+00 -0.12036403454E+04  0.13880405911E+04  0.69130789190E+03 0.  0.
        1    1    3    3  502    0  0.12794498998E+02 -0.31753312007E+03 -0.87481111363E+03  0.93074457619E+03  0.50400001928E-02 0.  1.
       -1    1    3    3    0  502 -0.12794498998E+02  0.31753312007E+03 -0.32882923179E+03  0.45729601491E+03  0.50400001928E-02 0. -1.
</event>
<event>
 5   0  0.5899787E-02  0.6799099E+03  0.7818609E-02  0.9752219E-01
       -2   -1    0    0    0  501  0.00000000000E+00  0.00000000000E+00  0.16638974478E+03  0.16638974480E+03  0.25500000920E-02 0. -1.
        2   -1    0    0  501    0  0.00000000000E+00  0.00000000000E+00 -0.69457035388E+03  0.69457035389E+03  0.25500000920E-02 0.  1.
    10030    2    1    2    0    0  0.00000000000E+00  0.00000000000E+00 -0.52818060910E+03  0.86096009869E+03  0.67990994675E+03 0.  0.
        2    1    3    3  502    0 -0.10798211879E+03  0.19877700480E+03  0.57249313626E+02  0.23334506537E+03  0.25500000920E-02 0. -1.
       -2    1    3    3    0  502  0.10798211879E+03 -0.19877700480E+03 -0.58542992273E+03  0.62761503332E+03  0.25500000920E-02 0.  1.
</event>
<event>
 5   0  0.3717372E-02  0.7116590E+03  0.7818609E-02  0.9697499E-01
        1   -1    0    0  501    0  0.00000000000E+00  0.00000000000E+00  0.13239246762E+04  0.13239246762E+04  0.50400001928E-02 0.  1.
       -1   -1    0    0    0  501  0.00000000000E+00  0.00000000000E+00 -0.95635824392E+02  0.95635824525E+02  0.50400001928E-02 0. -1.
    10030    2    1    2    0    0  0.00000000000E+00  0.00000000000E+00  0.12282888518E+04  0.14195605007E+04  0.71165898559E+03 0.  0.
        3    1    3    3  502    0 -0.15408102787E+03  0.17068365658E+03  0.11558156028E+04  0.11784666273E+04  0.10100000352E+00 0.  1.
       -3    1    3    3    0  502  0.15408102787E+03 -0.17068365658E+03  0.72473248970E+02  0.24109387340E+03  0.10100000352E+00 0. -1.
</event>
<event>
 5   0  0.5987810E-02  0.7080002E+03  0.7818609E-02  0.9703648E-01
       -2   -1    0    0    0  501  0.00000000000E+00  0.00000000000E+00  0.31073744241E+03  0.31073744242E+03  0.25500000920E-02 0.  1.
        2   -1    0    0  501    0  0.00000000000E+00  0.00000000000E+00 -0.40328597973E+03  0.40328597974E+03  0.25500000920E-02 0. -1.
    10030    2    1    2    0    0  0.00000000000E+00  0.00000000000E+00 -0.92548537325E+02  0.71402342216E+03  0.70800015229E+03 0.  0.
        5    1    3    3  502    0 -0.97924866082E+02 -0.22711626689E+03  0.20910499875E+03  0.32391058733E+03  0.46999998093E+01 0.  1.
       -5    1    3    3    0  502  0.97924866082E+02  0.22711626689E+03 -0.30165353607E+03  0.39011283484E+03  0.46999998093E+01 0. -1.
</event>
<event>
 5   0  0.3755872E-02  0.6835287E+03  0.7818609E-02  0.9745822E-01
       -1   -1    0    0    0  501  0.00000000000E+00  0.00000000000E+00  0.30886064282E+03  0.30886064286E+03  0.50400001928E-02 0.  1.
        1   -1    0    0  501    0  0.00000000000E+00  0.00000000000E+00 -0.37817337790E+03  0.37817337793E+03  0.50400001928E-02 0. -1.
    10030    2    1    2    0    0  0.00000000000E+00  0.00000000000E+00 -0.69312735082E+02  0.68703402079E+03  0.68352870494E+03 0.  0.
        2    1    3    3  502    0  0.21925399666E+03 -0.20609753782E+03 -0.19751929013E+03  0.35994774638E+03  0.25500000920E-02 0. -1.
       -2    1    3    3    0  502 -0.21925399666E+03  0.20609753782E+03  0.12820655504E+03  0.32708627441E+03  0.25500000920E-02 0.  1.
</event>
<event>
 5   0  0.6167756E-02  0.7069709E+03  0.7818609E-02  0.9705385E-01
       -2   -1    0    0    0  501  0.00000000000E+00  0.00000000000E+00  0.66196820418E+02  0.66196820467E+02  0.25500000920E-02 0. -1.
        2   -1    0    0  501    0  0.00000000000E+00  0.00000000000E+00 -0.18875826415E+04  0.18875826415E+04  0.25500000920E-02 0.  1.
    10030    2    1    2    0    0  0.00000000000E+00  0.00000000000E+00 -0.18213858211E+04  0.19537794620E+04  0.70697091650E+03 0.  0.
        4    1    3    3  502    0 -0.21912559862E+03  0.25964476942E+03 -0.64106311847E+03  0.72553081879E+03  0.12699999809E+01 0. -1.
       -4    1    3    3    0  502  0.21912559862E+03 -0.25964476942E+03 -0.11803227026E+04  0.12282486432E+04  0.12699999809E+01 0.  1.
</event>
<event>
 5   0  0.3439015E-02  0.7141351E+03  0.7818609E-02  0.9693360E-01
       -1   -1    0    0    0  501  0.00000000000E+00  0.00000000000E+00  0.20209258977E+03  0.20209258983E+03  0.50400001928E-02 0. -1.
        1   -1    0    0  501    0  0.00000000000E+00  0.00000000000E+00 -0.63088517001E+03  0.63088517003E+03  0.50400001928E-02 0.  1.
    10030    2    1    2    0    0  0.00000000000E+00  0.00000000000E+00 -0.42879258024E+03  0.83297775986E+03  0.71413505135E+03 0.  0.
        1    1    3    3  502    0  0.13980775373E+03  0.30158227094E+03 -0.62318224745E+02  0.33820354125E+03  0.50400001928E-02 0. -1.
       -1    1    3    3    0  502 -0.13980775373E+03 -0.30158227094E+03 -0.36647435549E+03  0.49477421862E+03  0.50400001928E-02 0.  1.
</event>
<event>
 5   0  0.6131198E-02  0.7095803E+03  0.7818609E-02  0.9700987E-01
        2   -1    0    0  501    0  0.00000000000E+00  0.00000000000E+00  0.30640064748E+03  0.30640064749E+03  0.25500000920E-02 0.  1.
       -2   -1    0    0    0  501  0.00000000000E+00  0.00000000000E+00 -0.41082176298E+03  0.41082176299E+03  0.25500000920E-02 0. -1.
    10030    2    1    2    0    0  0.00000000000E+00  0.00000000000E+00 -0.10442111550E+03  0.71722241048E+03  0.70958031027E+03 0.  0.
        1    1    3    3  502    0  0.17521391060E+03 -0.77409415996E+02 -0.35406361492E+03  0.40255828844E+03  0.50400001928E-02 0. -1.
       -1    1    3    3    0  502 -0.17521391060E+03  0.77409415996E+02  0.24964249942E+03  0.31466412204E+03  0.50400001928E-02 0.  1.
</event>
<event>
 5   0  0.3749730E-02  0.6992617E+03  0.7818609E-02  0.9718496E-01
        1   -1    0    0  501    0  0.00000000000E+00  0.00000000000E+00  0.15449751355E+03  0.15449751363E+03  0.50400001928E-02 0. -1.
       -1   -1    0    0    0  501  0.00000000000E+00  0.00000000000E+00 -0.79122141492E+03  0.79122141493E+03  0.50400001928E-02 0.  1.
    10030    2    1    2    0    0  0.00000000000E+00  0.00000000000E+00 -0.63672390136E+03  0.94571892857E+03  0.69926172874E+03 0.  0.
        4    1    3    3  502    0  0.78465915673E+02  0.86416660570E+02  0.12736408575E+03  0.17276562849E+03  0.12699999809E+01 0. -1.
       -4    1    3    3    0  502 -0.78465915673E+02 -0.86416660570E+02 -0.76408798712E+03  0.77295330008E+03  0.12699999809E+01 0.  1.
</event>
<event>
 5   0  0.2439375E-02  0.6847347E+03  0.7818609E-02  0.9743700E-01
       -3   -1    0    0    0  501  0.00000000000E+00  0.00000000000E+00  0.54035880173E+03  0.54035881117E+03  0.10100000352E+00 0.  1.
        3   -1    0    0  501    0  0.00000000000E+00  0.00000000000E+00 -0.21692141075E+03  0.21692143426E+03  0.10100000352E+00 0. -1.
    10030    2    1    2    0    0  0.00000000000E+00  0.00000000000E+00  0.32343739098E+03  0.75728024544E+03  0.68473471085E+03 0.  0.
        2    1    3    3  502    0 -0.19158597241E+03 -0.22869580693E+03  0.34746658538E+03  0.45797378189E+03  0.25500000920E-02 0.  1.
       -2    1    3    3    0  502  0.19158597241E+03  0.22869580693E+03 -0.24029194395E+02  0.29930646355E+03  0.25500000920E-02 0. -1.
</event>
<event>
 5   0  0.6248886E-02  0.6994588E+03  0.7818609E-02  0.9718158E-01
       -2   -1    0    0    0  501  0.00000000000E+00  0.00000000000E+00  0.12687116829E+03  0.12687116831E+03  0.25500000920E-02 0.  1.
        2   -1    0    0  501    0  0.00000000000E+00  0.00000000000E+00 -0.96405404170E+03  0.96405404170E+03  0.25500000920E-02 0. -1.
    10030    2    1    2    0    0  0.00000000000E+00  0.00000000000E+00 -0.83718287341E+03  0.10909252100E+04  0.69945882675E+03 0.  0.
        3    1    3    3  502    0 -0.18846781640E+01 -0.34056656029E+03 -0.29458520075E+03  0.45029943893E+03  0.10100000352E+00 0.  1.
       -3    1    3    3    0  502  0.18846781640E+01  0.34056656029E+03 -0.54259767266E+03  0.64062577109E+03  0.10100000352E+00 0. -1.
</event>
<event>
 5   0  0.3717372E-02  0.7168151E+03  0.7818609E-02  0.9688901E-01
       -1   -1    0    0    0  501  0.00000000000E+00  0.00000000000E+00  0.15455161601E+03  0.15455161609E+03  0.50400001928E-02 0.  1.
        1   -1    0    0  501    0  0.00000000000E+00  0.00000000000E+00 -0.83115257952E+03  0.83115257953E+03  0.50400001928E-02 0. -1.
    10030    2    1    2    0    0  0.00000000000E+00  0.00000000000E+00 -0.67660096351E+03  0.98570419562E+03  0.71681510687E+03 0.  0.
        3    1    3    3  502    0 -0.74484053170E+02 -0.17898378608E+03  0.76230157273E+02  0.20831254627E+03  0.10100000352E+00 0.  1.
       -3    1    3    3    0  502  0.74484053170E+02  0.17898378608E+03 -0.75283112078E+03  0.77739164935E+03  0.10100000352E+00 0. -1.
</event>
<event>
 5   0  0.6131198E-02  0.6861782E+03  0.7818609E-02  0.9741166E-01
       -2   -1    0    0    0  501  0.00000000000E+00  0.00000000000E+00  0.13522836718E+03  0.13522836720E+03  0.25500000920E-02 0.  1.
        2   -1    0    0  501    0  0.00000000000E+00  0.00000000000E+00 -0.87045433276E+03  0.87045433276E+03  0.25500000920E-02 0. -1.
    10030    2    1    2    0    0  0.00000000000E+00  0.00000000000E+00 -0.73522596558E+03  0.10056827000E+04  0.68617816386E+03 0.  0.
        1    1    3    3  502    0  0.33389688038E+03  0.78867130430E+02 -0.37013757783E+03  0.50468700948E+03  0.50400001928E-02 0.  1.
       -1    1    3    3    0  502 -0.33389688038E+03 -0.78867130430E+02 -0.36508838775E+03  0.50099569049E+03  0.50400001928E-02 0. -1.
</event>
<event>
 5   0  0.3749730E-02  0.6971166E+03  0.7818609E-02  0.9722176E-01
       -1   -1    0    0    0  501  0.00000000000E+00  0.00000000000E+00  0.13070159729E+03  0.13070159739E+03  0.50400001928E-02 0.  1.
        1   -1    0    0  501    0  0.00000000000E+00  0.00000000000E+00 -0.92954412799E+03  0.92954412800E+03  0.50400001928E-02 0. -1.
    10030    2    1    2    0    0  0.00000000000E+00  0.00000000000E+00 -0.79884253070E+03  0.10602457254E+04  0.69711663970E+03 0.  0.
        4    1    3    3  502    0  0.11313240469E+03  0.18204257902E+03 -0.81746960278E+03  0.84510153588E+03  0.12699999809E+01 0. -1.
       -4    1    3    3    0  502 -0.11313240469E+03 -0.18204257902E+03  0.18627072084E+02  0.21514418951E+03  0.12699999809E+01 0.  1.
</event>
<event>
 5   0  0.6248886E-02  0.7210973E+03  0.7818609E-02  0.9681818E-01
        2   -1    0    0  501    0  0.00000000000E+00  0.00000000000E+00  0.15327246310E+04  0.15327246310E+04  0.25500000920E-02 0. -1.
       -2   -1    0    0    0  501  0.00000000000E+00  0.00000000000E+00 -0.84813239337E+02  0.84813239375E+02  0.25500000920E-02 0.  1.
    10030    2    1    2    0    0  0.00000000000E+00  0.00000000000E+00  0.14479113917E+04  0.16175378704E+04  0.72109733324E+03 0.  0.
        3    1    3    3  502    0 -0.16864234972E+03 -0.18131083387E+03  0.13118244254E+04  0.13349895857E+04  0.10100000352E+00 0. -1.
       -3    1    3    3    0  502  0.16864234972E+03  0.18131083387E+03  0.13608696626E+03  0.28254828470E+03  0.10100000352E+00 0.  1.
</event>
<event>
 5   0  0.3749730E-02  0.6832793E+03  0.7818609E-02  0.9746262E-01
        1   -1    0    0  501    0  0.00000000000E+00  0.00000000000E+00  0.17641221706E+04  0.17641221706E+04  0.50400001928E-02 0. -1.
       -1   -1    0    0    0  501  0.00000000000E+00  0.00000000000E+00 -0.66161885000E+02  0.66161885192E+02  0.50400001928E-02 0.  1.
    10030    2    1    2    0    0  0.00000000000E+00  0.00000000000E+00  0.16979602856E+04  0.18302840558E+04  0.68327929388E+03 0.  0.
        4    1    3    3  502    0  0.11051905934E+03 -0.27955485332E+03  0.12838065991E+04  0.13185319015E+04  0.12699999809E+01 0. -1.
       -4    1    3    3    0  502 -0.11051905934E+03  0.27955485332E+03  0.41415368653E+03  0.51175215433E+03  0.12699999809E+01 0.  1.
</event>
<event>
 5   0  0.3601475E-02  0.5827391E+03  0.7818609E-02  0.9941878E-01
       -1   -1    0    0    0  501  0.00000000000E+00  0.00000000000E+00  0.16655233514E+03  0.16655233521E+03  0.50400001928E-02 0. -1.
        1   -1    0    0  501    0  0.00000000000E+00  0.00000000000E+00 -0.50972699614E+03  0.50972699616E+03  0.50400001928E-02 0.  1.
    10030    2    1    2    0    0  0.00000000000E+00  0.00000000000E+00 -0.34317466100E+03  0.67627933138E+03  0.58273912353E+03 0.  0.
        5    1    3    3  502    0 -0.21949955155E+03  0.19144173163E+03 -0.16387693093E+03  0.33422706089E+03  0.46999998093E+01 0.  1.
       -5    1    3    3    0  502  0.21949955155E+03 -0.19144173163E+03 -0.17929773008E+03  0.34205227049E+03  0.46999998093E+01 0. -1.
</event>
<event>
 5   0  0.3749730E-02  0.6829415E+03  0.7818609E-02  0.9746858E-01
       -1   -1    0    0    0  501  0.00000000000E+00  0.00000000000E+00  0.11403858489E+03  0.11403858500E+03  0.50400001928E-02 0.  1.
        1   -1    0    0  501    0  0.00000000000E+00  0.00000000000E+00 -0.10224808364E+04  0.10224808364E+04  0.50400001928E-02 0. -1.
    10030    2    1    2    0    0  0.00000000000E+00  0.00000000000E+00 -0.90844225150E+03  0.11365194214E+04  0.68294148426E+03 0.  0.
        4    1    3    3  502    0 -0.25166989554E+03  0.18875189703E+03 -0.23322280262E+03  0.39161141903E+03  0.12699999809E+01 0.  1.
       -4    1    3    3    0  502  0.25166989554E+03 -0.18875189703E+03 -0.67521944888E+03  0.74490800237E+03  0.12699999809E+01 0. -1.
</event>
<event>
 5   0  0.3717372E-02  0.6908685E+03  0.7818609E-02  0.9732977E-01
        1   -1    0    0  501    0  0.00000000000E+00  0.00000000000E+00  0.50116906055E+03  0.50116906057E+03  0.50400001928E-02 0.  1.
       -1   -1    0    0    0  501  0.00000000000E+00  0.00000000000E+00 -0.23809292871E+03  0.23809292876E+03  0.50400001928E-02 0. -1.
    10030    2    1    2    0    0  0.00000000000E+00  0.00000000000E+00  0.26307613184E+03  0.73926198933E+03  0.69086846630E+03 0.  0.
        3    1    3    3  502    0  0.32859028737E+03  0.10346830334E+03  0.15876719715E+03  0.37932084024E+03  0.10100000352E+00 0.  1.
       -3    1    3    3    0  502 -0.32859028737E+03 -0.10346830334E+03  0.10430893469E+03  0.35994114909E+03  0.10100000352E+00 0. -1.
</event>
<event>
 5   0  0.5899787E-02  0.6882471E+03  0.7818609E-02  0.9737545E-01
        2   -1    0    0  501    0  0.00000000000E+00  0.00000000000E+00  0.12559863026E+04  0.12559863026E+04  0.25500000920E-02 0.  1.
       -2   -1    0    0    0  501  0.00000000000E+00  0.00000000000E+00 -0.94285269293E+02  0.94285269327E+02  0.25500000920E-02 0. -1.
    10030    2    1    2    0    0  0.00000000000E+00  0.00000000000E+00  0.11617010333E+04  0.13502715719E+04  0.68824706840E+03 0.  0.
        2    1    3    3  502    0  0.14628163576E+03  0.20655945527E+01  0.11919386636E+04  0.12008831589E+04  0.25500000920E-02 0.  1.
       -2    1    3    3    0  502 -0.14628163576E+03 -0.20655945527E+01 -0.30237630298E+02  0.14938841298E+03  0.25500000920E-02 0. -1.
</event>
<event>
 5   0  0.6167756E-02  0.6770893E+03  0.7818609E-02  0.9757235E-01
       -2   -1    0    0    0  501  0.00000000000E+00  0.00000000000E+00  0.37658760149E+02  0.37658760235E+02  0.25500000920E-02 0. -1.
        2   -1    0    0  501    0  0.00000000000E+00  0.00000000000E+00 -0.30434481266E+04  0.30434481266E+04  0.25500000920E-02 0.  1.
    10030    2    1    2    0    0  0.00000000000E+00  0.00000000000E+00 -0.30057893665E+04  0.30811068869E+04  0.67708930921E+03 0.  0.
        4    1    3    3  502    0  0.17400375839E+03  0.23853862366E+02 -0.28199103840E+04  0.28253747541E+04  0.12699999809E+01 0.  1.
       -4    1    3    3    0  502 -0.17400375839E+03 -0.23853862366E+02 -0.18587898252E+03  0.25573213276E+03  0.12699999809E+01 0. -1.
</event>
<event>
 5   0  0.5987810E-02  0.7082283E+03  0.7818609E-02  0.9703263E-01
        2   -1    0    0  501    0  0.00000000000E+00  0.00000000000E+00  0.19070906859E+04  0.19070906859E+04  0.25500000920E-02 0.  1.
       -2   -1    0    0    0  501  0.00000000000E+00  0.00000000000E+00 -0.65752950144E+02  0.65752950193E+02  0.25500000920E-02 0. -1.
    10030    2    1    2    0    0  0.00000000000E+00  0.00000000000E+00  0.18413377358E+04  0.19728436361E+04  0.70822832149E+03 0.  0.
        5    1    3    3  502    0  0.33282587678E+03 -0.11995155262E+03  0.87998477949E+03  0.94844965147E+03  0.46999998093E+01 0. -1.
       -5    1    3    3    0  502 -0.33282587678E+03  0.11995155262E+03  0.96135295629E+03  0.10243939847E+04  0.46999998093E+01 0.  1.
</event>
<event>
 5   0  0.5987810E-02  0.7119427E+03  0.7818609E-02  0.9697024E-01
        2   -1    0    0  501    0  0.00000000000E+00  0.00000000000E+00  0.14760632490E+04  0.14760632490E+04  0.25500000920E-02 0. -1.
       -2   -1    0    0    0  501  0.00000000000E+00  0.00000000000E+00 -0.85847003862E+02  0.85847003900E+02  0.25500000920E-02 0.  1.
    10030    2    1    2    0    0  0.00000000000E+00  0.00000000000E+00  0.13902162452E+04  0.15619102529E+04  0.71194271531E+03 0.  0.
        5    1    3    3  502    0 -0.12258098008E+03  0.99869486412E+02 -0.45044997584E+01  0.15824787995E+03  0.46999998093E+01 0.  1.
       -5    1    3    3    0  502  0.12258098008E+03 -0.99869486412E+02  0.13947207449E+04  0.14036623730E+04  0.46999998093E+01 0. -1.
</event>
<event>
 5   0  0.3755872E-02  0.7083860E+03  0.7818609E-02  0.9702998E-01
        1   -1    0    0  501    0  0.00000000000E+00  0.00000000000E+00  0.10966630849E+04  0.10966630849E+04  0.50400001928E-02 0.  1.
       -1   -1    0    0    0  501  0.00000000000E+00  0.00000000000E+00 -0.11439491249E+03  0.11439491260E+03  0.50400001928E-02 0. -1.
    10030    2    1    2    0    0  0.00000000000E+00  0.00000000000E+00  0.98226817240E+03  0.12110579975E+04  0.70838598999E+03 0.  0.
        2    1    3    3  502    0 -0.41449548359E+02  0.10080003099E+03  0.10672825061E+04  0.10728330061E+04  0.25500000920E-02 0.  1.
       -2    1    3    3    0  502  0.41449548359E+02 -0.10080003099E+03 -0.85014333656E+02  0.13822499137E+03  0.25500000920E-02 0. -1.
</event>
<event>
 5   0  0.3749730E-02  0.7668253E+03  0.7818609E-02  0.9609318E-01
       -1   -1    0    0    0  501  0.00000000000E+00  0.00000000000E+00  0.13559318871E+03  0.13559318881E+03  0.50400001928E-02 0.  1.
        1   -1    0    0  501    0  0.00000000000E+00  0.00000000000E+00 -0.10841640094E+04  0.10841640094E+04  0.50400001928E-02 0. -1.
    10030    2    1    2    0    0  0.00000000000E+00  0.00000000000E+00 -0.94857082070E+03  0.12197571982E+04  0.76682528698E+03 0.  0.
        4    1    3    3  502    0  0.35399771203E+03 -0.57110152423E+02 -0.69021514152E+03  0.77780106975E+03  0.12699999809E+01 0. -1.
       -4    1    3    3    0  502 -0.35399771203E+03  0.57110152423E+02 -0.25835567918E+03  0.44195612847E+03  0.12699999809E+01 0.  1.
</event>
<event>
 5   0  0.6248886E-02  0.6896573E+03  0.7818609E-02  0.9735085E-01
        2   -1    0    0  501    0  0.00000000000E+00  0.00000000000E+00  0.19153286929E+04  0.19153286929E+04  0.25500000920E-02 0.  1.
       -2   -1    0    0    0  501  0.00000000000E+00  0.00000000000E+00 -0.62081671050E+02  0.62081671103E+02  0.25500000920E-02 0. -1.
    10030    2    1    2    0    0  0.00000000000E+00  0.00000000000E+00  0.18532470218E+04  0.19774103640E+04  0.68965732337E+03 0.  0.
        3    1    3    3  502    0 -0.22516102253E+03 -0.62258488066E+01  0.17800278291E+03  0.28709101028E+03  0.10100000352E+00 0. -1.
       -3    1    3    3    0  502  0.22516102253E+03  0.62258488066E+01  0.16752442389E+04  0.16903193537E+04  0.10100000352E+00 0.  1.
</event>
<event>
 5   0  0.6131198E-02  0.6986145E+03  0.7818609E-02  0.9719604E-01
        2   -1    0    0  501    0  0.00000000000E+00  0.00000000000E+00  0.75996057387E+03  0.75996057388E+03  0.25500000920E-02 0. -1.
       -2   -1    0    0    0  501  0.00000000000E+00  0.00000000000E+00 -0.16055512410E+03  0.16055512412E+03  0.25500000920E-02 0.  1.
    10030    2    1    2    0    0  0.00000000000E+00  0.00000000000E+00  0.59940544977E+03  0.92051569800E+03  0.69861452679E+03 0.  0.
        1    1    3    3  502    0  0.73019415972E+02  0.28963441911E+03  0.61085609090E+02  0.30487929334E+03  0.50400001928E-02 0.  1.
       -1    1    3    3    0  502 -0.73019415972E+02 -0.28963441911E+03  0.53831984068E+03  0.61563640466E+03  0.50400001928E-02 0. -1.
</event>
<event>
 5   0  0.3601475E-02  0.6947837E+03  0.7818609E-02  0.9726195E-01
       -1   -1    0    0    0  501  0.00000000000E+00  0.00000000000E+00  0.59524881427E+03  0.59524881429E+03  0.50400001928E-02 0. -1.
        1   -1    0    0  501    0  0.00000000000E+00  0.00000000000E+00 -0.20274056955E+03  0.20274056962E+03  0.50400001928E-02 0.  1.
    10030    2    1    2    0    0  0.00000000000E+00  0.00000000000E+00  0.39250824471E+03  0.79798938390E+03  0.69478366033E+03 0.  0.
        5    1    3    3  502    0 -0.43427696817E+02  0.34462314624E+03  0.19948557264E+03  0.40058415029E+03  0.46999998093E+01 0.  1.
       -5    1    3    3    0  502  0.43427696817E+02 -0.34462314624E+03  0.19302267207E+03  0.39740523362E+03  0.46999998093E+01 0. -1.
</event>
<event>
 5   0  0.5987810E-02  0.6901550E+03  0.7818609E-02  0.9734218E-01
       -2   -1    0    0    0  501  0.00000000000E+00  0.00000000000E+00  0.43969642111E+03  0.43969642112E+03  0.25500000920E-02 0. -1.
        2   -1    0    0  501    0  0.00000000000E+00  0.00000000000E+00 -0.27081980316E+03  0.27081980317E+03  0.25500000920E-02 0.  1.
    10030    2    1    2    0    0  0.00000000000E+00  0.00000000000E+00  0.16887661795E+03  0.71051622429E+03  0.69015504989E+03 0.  0.
        5    1    3    3  502    0  0.18997517518E+03  0.26338120755E+03 -0.35604400895E+02  0.32672617134E+03  0.46999998093E+01 0. -1.
       -5    1    3    3    0  502 -0.18997517518E+03 -0.26338120755E+03  0.20448101885E+03  0.38379005295E+03  0.46999998093E+01 0.  1.
</event>
<event>
 5   0  0.3717372E-02  0.7027758E+03  0.7818609E-02  0.9712497E-01
        1   -1    0    0  501    0  0.00000000000E+00  0.00000000000E+00  0.42787821518E+03  0.42787821521E+03  0.50400001928E-02 0. -1.
       -1   -1    0    0    0  501  0.00000000000E+00  0.00000000000E+00 -0.28857153060E+03  0.28857153065E+03  0.50400001928E-02 0.  1.
    10030    2    1    2    0    0  0.00000000000E+00  0.00000000000E+00  0.13930668458E+03  0.71644974586E+03  0.70277584334E+03 0.  0.
        3    1    3    3  502    0 -0.10606672235E+03 -0.14241161654E+03  0.37877288028E+03  0.41833016046E+03  0.10100000352E+00 0. -1.
       -3    1    3    3    0  502  0.10606672235E+03  0.14241161654E+03 -0.23946619570E+03  0.29811958540E+03  0.10100000352E+00 0.  1.
</event>
<event>
 5   0  0.2439375E-02  0.7040592E+03  0.7818609E-02  0.9710316E-01
       -3   -1    0    0    0  501  0.00000000000E+00  0.00000000000E+00  0.20850949917E+03  0.20850952364E+03  0.10100000352E+00 0. -1.
        3   -1    0    0  501    0  0.00000000000E+00  0.00000000000E+00 -0.59433658396E+03  0.59433659254E+03  0.10100000352E+00 0.  1.
    10030    2    1    2    0    0  0.00000000000E+00  0.00000000000E+00 -0.38582708478E+03  0.80284611617E+03  0.70405919276E+03 0.  0.
        2    1    3    3  502    0  0.12458426767E+03  0.50847512416E+02 -0.56385312029E+03  0.57968702809E+03  0.25500000920E-02 0.  1.
       -2    1    3    3    0  502 -0.12458426767E+03 -0.50847512416E+02  0.17802603550E+03  0.22315908808E+03  0.25500000920E-02 0. -1.
</event>
<event>
 5   0  0.5899787E-02  0.6444391E+03  0.7818609E-02  0.9817270E-01
       -2   -1    0    0    0  501  0.00000000000E+00  0.00000000000E+00  0.11336457081E+03  0.11336457084E+03  0.25500000920E-02 0.  1.
        2   -1    0    0  501    0  0.00000000000E+00  0.00000000000E+00 -0.91585425481E+03  0.91585425481E+03  0.25500000920E-02 0. -1.
    10030    2    1    2    0    0  0.00000000000E+00  0.00000000000E+00 -0.80248968400E+03  0.10292188257E+04  0.64443905697E+03 0.  0.
        2    1    3    3  502    0  0.17454226997E+03 -0.24833723953E+03 -0.57391417672E+03  0.64924099593E+03  0.25500000920E-02 0. -1.
       -2    1    3    3    0  502 -0.17454226997E+03  0.24833723953E+03 -0.22857550728E+03  0.37997782972E+03  0.25500000920E-02 0.  1.
</event>
<event>
 5   0  0.3439015E-02  0.7094856E+03  0.7818609E-02  0.9701147E-01
       -1   -1    0    0    0  501  0.00000000000E+00  0.00000000000E+00  0.69170960230E+03  0.69170960231E+03  0.50400001928E-02 0. -1.
        1   -1    0    0  501    0  0.00000000000E+00  0.00000000000E+00 -0.18192958300E+03  0.18192958307E+03  0.50400001928E-02 0.  1.
    10030    2    1    2    0    0  0.00000000000E+00  0.00000000000E+00  0.50978001930E+03  0.87363918538E+03  0.70948555881E+03 0.  0.
        1    1    3    3  502    0  0.15427353752E+03  0.27686845789E+03  0.45108388463E+03  0.55130131357E+03  0.50400001928E-02 0.  1.
       -1    1    3    3    0  502 -0.15427353752E+03 -0.27686845789E+03  0.58696134672E+02  0.32233787181E+03  0.50400001928E-02 0. -1.
</event>
<event>
 5   0  0.6248886E-02  0.7569188E+03  0.7818609E-02  0.9624558E-01
       -2   -1    0    0    0  501  0.00000000000E+00  0.00000000000E+00  0.58621749854E+03  0.58621749855E+03  0.25500000920E-02 0.  1.
        2   -1    0    0  501    0  0.00000000000E+00  0.00000000000E+00 -0.24433172850E+03  0.24433172851E+03  0.25500000920E-02 0. -1.
    10030    2    1    2    0    0  0.00000000000E+00  0.00000000000E+00  0.34188577004E+03  0.83054922706E+03  0.75691884559E+03 0.  0.
        3    1    3    3  502    0 -0.12144152649E+03  0.23937566562E+03  0.46369733465E+03  0.53578352159E+03  0.10100000352E+00 0.  1.
       -3    1    3    3    0  502  0.12144152649E+03 -0.23937566562E+03 -0.12181156461E+03  0.29476570547E+03  0.10100000352E+00 0. -1.
</event>
<event>
 5   0  0.5899787E-02  0.7078842E+03  0.7818609E-02  0.9703843E-01
        2   -1    0    0  501    0  0.00000000000E+00  0.00000000000E+00  0.77689271134E+03  0.77689271134E+03  0.25500000920E-02 0.  1.
       -2   -1    0    0    0  501  0.00000000000E+00  0.00000000000E+00 -0.16125136376E+03  0.16125136378E+03  0.25500000920E-02 0. -1.
    10030    2    1    2    0    0  0.00000000000E+00  0.00000000000E+00  0.61564134758E+03  0.93814407512E+03  0.70788419734E+03 0.  0.
        2    1    3    3  502    0 -0.50989277339E+02  0.17988454236E+03  0.70610319090E+03  0.73043827336E+03  0.25500000920E-02 0.  1.
       -2    1    3    3    0  502  0.50989277339E+02 -0.17988454236E+03 -0.90461843321E+02  0.20770580176E+03  0.25500000920E-02 0. -1.
</event>
<event>
 5   0  0.3439015E-02  0.6925348E+03  0.7818609E-02  0.9730084E-01
       -1   -1    0    0    0  501  0.00000000000E+00  0.00000000000E+00  0.30150281737E+03  0.30150281742E+03  0.50400001928E-02 0.  1.
        1   -1    0    0  501    0  0.00000000000E+00  0.00000000000E+00 -0.39767827968E+03  0.39767827972E+03  0.50400001928E-02 0. -1.
    10030    2    1    2    0    0  0.00000000000E+00  0.00000000000E+00 -0.96175462310E+02  0.69918109713E+03  0.69253482731E+03 0.  0.
        1    1    3    3  502    0 -0.42759456727E+02  0.84015396801E+02  0.28829775970E+03  0.30331923169E+03  0.50400001928E-02 0.  1.
       -1    1    3    3    0  502  0.42759456727E+02 -0.84015396801E+02 -0.38447322201E+03  0.39586186544E+03  0.50400001928E-02 0. -1.
</event>
<event>
 5   0  0.5987810E-02  0.7036553E+03  0.7818609E-02  0.9711001E-01
       -2   -1    0    0    0  501  0.00000000000E+00  0.00000000000E+00  0.17182940350E+03  0.17182940352E+03  0.25500000920E-02 0.  1.
        2   -1    0    0  501    0  0.00000000000E+00  0.00000000000E+00 -0.72038132710E+03  0.72038132710E+03  0.25500000920E-02 0. -1.
    10030    2    1    2    0    0  0.00000000000E+00  0.00000000000E+00 -0.54855192360E+03  0.89221073062E+03  0.70365529555E+03 0.  0.
        5    1    3    3  502    0 -0.34726812622E+03  0.13820625329E+02 -0.34342884237E+03  0.48862216584E+03  0.46999998093E+01 0. -1.
       -5    1    3    3    0  502  0.34726812622E+03 -0.13820625329E+02 -0.20512308123E+03  0.40358856479E+03  0.46999998093E+01 0.  1.
</event>
<event>
 5   0  0.5899787E-02  0.6863115E+03  0.7818609E-02  0.9740932E-01
       -2   -1    0    0    0  501  0.00000000000E+00  0.00000000000E+00  0.20512527534E+03  0.20512527535E+03  0.25500000920E-02 0.  1.
        2   -1    0    0  501    0  0.00000000000E+00  0.00000000000E+00 -0.57406811920E+03  0.57406811920E+03  0.25500000920E-02 0. -1.
    10030    2    1    2    0    0  0.00000000000E+00  0.00000000000E+00 -0.36894284386E+03  0.77919339456E+03  0.68631153574E+03 0.  0.
        2    1    3    3  502    0 -0.10883748140E+03 -0.15785919837E+03  0.13863210079E+03  0.23660934733E+03  0.25500000920E-02 0.  1.
       -2    1    3    3    0  502  0.10883748140E+03  0.15785919837E+03 -0.50757494465E+03  0.54258404723E+03  0.25500000920E-02 0. -1.
</event>
<event>
 5   0  0.5987810E-02  0.7272271E+03  0.7818609E-02  0.9671771E-01
       -2   -1    0    0    0  501  0.00000000000E+00  0.00000000000E+00  0.12452356408E+03  0.12452356411E+03  0.25500000920E-02 0.  1.
        2   -1    0    0  501    0  0.00000000000E+00  0.00000000000E+00 -0.10617654921E+04  0.10617654921E+04  0.25500000920E-02 0. -1.
    10030    2    1    2    0    0  0.00000000000E+00  0.00000000000E+00 -0.93724192800E+03  0.11862890562E+04  0.72722712631E+03 0.  0.
        5    1    3    3  502    0 -0.27279733787E+03  0.22428042111E+03 -0.60963340792E+03  0.70455310438E+03  0.46999998093E+01 0. -1.
       -5    1    3    3    0  502  0.27279733787E+03 -0.22428042111E+03 -0.32760852008E+03  0.48173595181E+03  0.46999998093E+01 0.  1.
</event>
<event>
 5   0  0.3749730E-02  0.6981578E+03  0.7818609E-02  0.9720388E-01
       -1   -1    0    0    0  501  0.00000000000E+00  0.00000000000E+00  0.97456076773E+03  0.97456076775E+03  0.50400001928E-02 0.  1.
        1   -1    0    0  501    0  0.00000000000E+00  0.00000000000E+00 -0.12503690954E+03  0.12503690964E+03  0.50400001928E-02 0. -1.
    10030    2    1    2    0    0  0.00000000000E+00  0.00000000000E+00  0.84952385819E+03  0.10995976774E+04  0.69815776619E+03 0.  0.
        4    1    3    3  502    0 -0.42685668642E+02 -0.15800313738E+03  0.91038134198E+03  0.92497722051E+03  0.12699999809E+01 0.  1.
       -4    1    3    3    0  502  0.42685668642E+02  0.15800313738E+03 -0.60857483792E+02  0.17462045688E+03  0.12699999809E+01 0. -1.
</event>
<event>
 5   0  0.6167756E-02  0.4950707E+03  0.7818609E-02  0.1015074E+00
       -2   -1    0    0    0  501  0.00000000000E+00  0.00000000000E+00  0.13165039505E+03  0.13165039507E+03  0.25500000920E-02 0. -1.
        2   -1    0    0  501    0  0.00000000000E+00  0.00000000000E+00 -0.46542771742E+03  0.46542771742E+03  0.25500000920E-02 0.  1.
    10030    2    1    2    0    0  0.00000000000E+00  0.00000000000E+00 -0.33377732237E+03  0.59707811250E+03  0.49507067323E+03 0.  0.
        4    1    3    3  502    0 -0.22123010957E+03 -0.11057058761E+03 -0.17915918118E+03  0.30539849595E+03  0.12699999809E+01 0.  1.
       -4    1    3    3    0  502  0.22123010957E+03  0.11057058761E+03 -0.15461814119E+03  0.29167961655E+03  0.12699999809E+01 0. -1.
</event>
<event>
 5   0  0.6248886E-02  0.6975813E+03  0.7818609E-02  0.9721378E-01
        2   -1    0    0  501    0  0.00000000000E+00  0.00000000000E+00  0.20128837632E+03  0.20128837634E+03  0.25500000920E-02 0. -1.
       -2   -1    0    0    0  501  0.00000000000E+00  0.00000000000E+00 -0.60438117068E+03  0.60438117068E+03  0.25500000920E-02 0.  1.
    10030    2    1    2    0    0  0.00000000000E+00  0.00000000000E+00 -0.40309279436E+03  0.80566954702E+03  0.69758126274E+03 0.  0.
        3    1    3    3  502    0  0.34500255351E+03 -0.27160147157E+02 -0.25176281750E+03  0.42795906580E+03  0.10100000352E+00 0.  1.
       -3    1    3    3    0  502 -0.34500255351E+03  0.27160147157E+02 -0.15132997686E+03  0.37771048122E+03  0.10100000352E+00 0. -1.
</event>
<event>
 5   0  0.5987810E-02  0.4459678E+03  0.7818609E-02  0.1028931E+00
        2   -1    0    0  501    0  0.00000000000E+00  0.00000000000E+00  0.40121755092E+03  0.40121755092E+03  0.25500000920E-02 0. -1.
       -2   -1    0    0    0  501  0.00000000000E+00  0.00000000000E+00 -0.12392731520E+03  0.12392731522E+03  0.25500000920E-02 0.  1.
    10030    2    1    2    0    0  0.00000000000E+00  0.00000000000E+00  0.27729023572E+03  0.52514486615E+03  0.44596777419E+03 0.  0.
        5    1    3    3  502    0 -0.45431426571E+02 -0.18020950627E+03  0.28363200686E+03  0.33912930570E+03  0.46999998093E+01 0. -1.
       -5    1    3    3    0  502  0.45431426571E+02  0.18020950627E+03 -0.63417711458E+01  0.18601556045E+03  0.46999998093E+01 0.  1.
</event>
<event>
 5   0  0.6248886E-02  0.5348132E+03  0.7818609E-02  0.1005071E+00
       -2   -1    0    0    0  501  0.00000000000E+00  0.00000000000E+00  0.30634578011E+03  0.30634578012E+03  0.25500000920E-02 0.  1.
        2   -1    0    0  501    0  0.00000000000E+00  0.00000000000E+00 -0.23341695670E+03  0.23341695672E+03  0.25500000920E-02 0. -1.
    10030    2    1    2    0    0  0.00000000000E+00  0.00000000000E+00  0.72928823410E+02  0.53976273684E+03  0.53481323730E+03 0.  0.
        3    1    3    3  502    0  0.88797742285E+02  0.13059458963E+03 -0.18132493588E+03  0.24045525249E+03  0.10100000352E+00 0. -1.
       -3    1    3    3    0  502 -0.88797742285E+02 -0.13059458963E+03  0.25425375929E+03  0.29930748435E+03  0.10100000352E+00 0.  1.
</event>
<event>
 5   0  0.3717372E-02  0.7326447E+03  0.7818609E-02  0.9662978E-01
        1   -1    0    0  501    0  0.00000000000E+00  0.00000000000E+00  0.16280637159E+04  0.16280637160E+04  0.50400001928E-02 0. -1.
       -1   -1    0    0    0  501  0.00000000000E+00  0.00000000000E+00 -0.82424333791E+02  0.82424333945E+02  0.50400001928E-02 0.  1.
    10030    2    1    2    0    0  0.00000000000E+00  0.00000000000E+00  0.15456393822E+04  0.17104880499E+04  0.73264470870E+03 0.  0.
        3    1    3    3  502    0 -0.55540188717E+02  0.30867161758E+03  0.33089828018E+03  0.45591288871E+03  0.10100000352E+00 0.  1.
       -3    1    3    3    0  502  0.55540188717E+02 -0.30867161758E+03  0.12147411020E+04  0.12545751612E+04  0.10100000352E+00 0. -1.
</event>
<event>
 5   0  0.3717372E-02  0.6844163E+03  0.7818609E-02  0.9744260E-01
        1   -1    0    0  501    0  0.00000000000E+00  0.00000000000E+00  0.96479352124E+02  0.96479352256E+02  0.50400001928E-02 0.  1.
       -1   -1    0    0    0  501  0.00000000000E+00  0.00000000000E+00 -0.12137977601E+04  0.12137977602E+04  0.50400001928E-02 0. -1.
    10030    2    1    2    0    0  0.00000000000E+00  0.00000000000E+00 -0.11173184080E+04  0.13102771124E+04  0.68441631074E+03 0.  0.
        3    1    3    3  502    0  0.18057977948E+03 -0.32272418469E+02 -0.56005592537E+01  0.18352640741E+03  0.10100000352E+00 0.  1.
       -3    1    3    3    0  502 -0.18057977948E+03  0.32272418469E+02 -0.11117178488E+04  0.11267507050E+04  0.10100000352E+00 0. -1.
</event>
<event>
 5   0  0.6167756E-02  0.6999267E+03  0.7818609E-02  0.9717357E-01
       -2   -1    0    0    0  501  0.00000000000E+00  0.00000000000E+00  0.11733699284E+03  0.11733699286E+03  0.25500000920E-02 0. -1.
        2   -1    0    0  501    0  0.00000000000E+00  0.00000000000E+00 -0.10437830186E+04  0.10437830186E+04  0.25500000920E-02 0.  1.
    10030    2    1    2    0    0  0.00000000000E+00  0.00000000000E+00 -0.92644602578E+03  0.11611200115E+04  0.69992674073E+03 0.  0.
        4    1    3    3  502    0  0.29301883682E+03  0.16039442850E+03 -0.63631038987E+03  0.71866468996E+03  0.12699999809E+01 0.  1.
       -4    1    3    3    0  502 -0.29301883682E+03 -0.16039442850E+03 -0.29013563591E+03  0.44245532153E+03  0.12699999809E+01 0. -1.
</event>
<event>
 5   0  0.3601475E-02  0.7078808E+03  0.7818609E-02  0.9703849E-01
       -1   -1    0    0    0  501  0.00000000000E+00  0.00000000000E+00  0.11178193829E+03  0.11178193840E+03  0.50400001928E-02 0. -1.
        1   -1    0    0  501    0  0.00000000000E+00  0.00000000000E+00 -0.11206981949E+04  0.11206981949E+04  0.50400001928E-02 0.  1.
    10030    2    1    2    0    0  0.00000000000E+00  0.00000000000E+00 -0.10089162566E+04  0.12324801333E+04  0.70788082766E+03 0.  0.
        5    1    3    3  502    0  0.28567865748E+03  0.90571873770E+02 -0.17670779149E+03  0.34794150834E+03  0.46999998093E+01 0. -1.
       -5    1    3    3    0  502 -0.28567865748E+03 -0.90571873770E+02 -0.83220846513E+03  0.88453862498E+03  0.46999998093E+01 0.  1.
</event>
<event>
 5   0  0.3601475E-02  0.7157122E+03  0.7818609E-02  0.9690733E-01
        1   -1    0    0  501    0  0.00000000000E+00  0.00000000000E+00  0.82909459764E+03  0.82909459766E+03  0.50400001928E-02 0. -1.
       -1   -1    0    0    0  501  0.00000000000E+00  0.00000000000E+00 -0.15445885904E+03  0.15445885913E+03  0.50400001928E-02 0.  1.
    10030    2    1    2    0    0  0.00000000000E+00  0.00000000000E+00  0.67463573860E+03  0.98355345678E+03  0.71571224843E+03 0.  0.
        5    1    3    3  502    0 -0.18014793961E+02  0.24236192595E+03 -0.23597706405E+02  0.24421870874E+03  0.46999998093E+01 0.  1.
       -5    1    3    3    0  502  0.18014793961E+02 -0.24236192595E+03  0.69823344500E+03  0.73933474805E+03  0.46999998093E+01 0. -1.
</event>
<event>
 5   0  0.3717372E-02  0.6973759E+03  0.7818609E-02  0.9721730E-01
        1   -1    0    0  501    0  0.00000000000E+00  0.00000000000E+00  0.11520108484E+04  0.11520108484E+04  0.50400001928E-02 0.  1.
       -1   -1    0    0    0  501  0.00000000000E+00  0.00000000000E+00 -0.10554006001E+03  0.10554006013E+03  0.50400001928E-02 0. -1.
    10030    2    1    2    0    0  0.00000000000E+00  0.00000000000E+00  0.10464707884E+04  0.12575509085E+04  0.69737592201E+03 0.  0.
        3    1    3    3  502    0  0.16049153213E+03  0.27998940721E+03  0.76131834570E+03  0.82689614447E+03  0.10100000352E+00 0.  1.
       -3    1    3    3    0  502 -0.16049153213E+03 -0.27998940721E+03  0.28515244267E+03  0.43065476405E+03  0.10100000352E+00 0. -1.
</event>
<event>
 5   0  0.3601475E-02  0.6967320E+03  0.7818609E-02  0.9722837E-01
       -1   -1    0    0    0  501  0.00000000000E+00  0.00000000000E+00  0.76865021885E+03  0.76865021887E+03  0.50400001928E-02 0.  1.
        1   -1    0    0  501    0  0.00000000000E+00  0.00000000000E+00 -0.15788567902E+03  0.15788567910E+03  0.50400001928E-02 0. -1.
    10030    2    1    2    0    0  0.00000000000E+00  0.00000000000E+00  0.61076453984E+03  0.92653589797E+03  0.69673197652E+03 0.  0.
        5    1    3    3  502    0  0.14385225823E+02  0.50959114729E+02 -0.15246028458E+03  0.16146205272E+03  0.46999998093E+01 0. -1.
       -5    1    3    3    0  502 -0.14385225823E+02 -0.50959114729E+02  0.76322482441E+03  0.76507384525E+03  0.46999998093E+01 0.  1.
</event>
<event>
 5   0  0.3439015E-02  0.6981887E+03  0.7818609E-02  0.9720335E-01
        1   -1    0    0  501    0  0.00000000000E+00  0.00000000000E+00  0.75142214312E+03  0.75142214314E+03  0.50400001928E-02 0. -1.
       -1   -1    0    0    0  501  0.00000000000E+00  0.00000000000E+00 -0.16218160831E+03  0.16218160838E+03  0.50400001928E-02 0.  1.
    10030    2    1    2    0    0  0.00000000000E+00  0.00000000000E+00  0.58924053482E+03  0.91360375153E+03  0.69818866141E+03 0.  0.
        1    1    3    3  502    0 -0.19948843053E+03  0.80492784325E+02  0.65438896381E+03  0.68883934138E+03  0.50400001928E-02 0. -1.
       -1    1    3    3    0  502  0.19948843053E+03 -0.80492784325E+02 -0.65148428993E+02  0.22476441015E+03  0.50400001928E-02 0.  1.
</event>
<event>
 5   0  0.6131198E-02  0.5084439E+03  0.7818609E-02  0.1011598E+00
        2   -1    0    0  501    0  0.00000000000E+00  0.00000000000E+00  0.94776920478E+03  0.94776920479E+03  0.25500000920E-02 0. -1.
       -2   -1    0    0    0  501  0.00000000000E+00  0.00000000000E+00 -0.68190442792E+02  0.68190442840E+02  0.25500000920E-02 0.  1.
    10030    2    1    2    0    0  0.00000000000E+00  0.00000000000E+00  0.87957876199E+03  0.10159596476E+04  0.50844390749E+03 0.  0.
        1    1    3    3  502    0  0.14602025334E+03 -0.18276425859E+03  0.63864652943E+03  0.68014268958E+03  0.50400001928E-02 0. -1.
       -1    1    3    3    0  502 -0.14602025334E+03  0.18276425859E+03  0.24093223255E+03  0.33581695805E+03  0.50400001928E-02 0.  1.
</event>
<event>
 5   0  0.3755872E-02  0.6811914E+03  0.7818609E-02  0.9749949E-01
        1   -1    0    0  501    0  0.00000000000E+00  0.00000000000E+00  0.14053838046E+04  0.14053838046E+04  0.50400001928E-02 0.  1.
       -1   -1    0    0    0  501  0.00000000000E+00  0.00000000000E+00 -0.82543604500E+02  0.82543604654E+02  0.50400001928E-02 0. -1.
    10030    2    1    2    0    0  0.00000000000E+00  0.00000000000E+00  0.13228402001E+04  0.14879274093E+04  0.68119144170E+03 0.  0.
        2    1    3    3  502    0  0.19777667103E+03 -0.27409667698E+03  0.56976151675E+03  0.66247474360E+03  0.25500000920E-02 0. -1.
       -2    1    3    3    0  502 -0.19777667103E+03  0.27409667698E+03  0.75307868335E+03  0.82545266567E+03  0.25500000920E-02 0.  1.
</event>
<event>
 5   0  0.3717372E-02  0.6942230E+03  0.7818609E-02  0.9727163E-01
       -1   -1    0    0    0  501  0.00000000000E+00  0.00000000000E+00  0.48154413211E+02  0.48154413474E+02  0.50400001928E-02 0.  1.
        1   -1    0    0  501    0  0.00000000000E+00  0.00000000000E+00 -0.25020838752E+04  0.25020838752E+04  0.50400001928E-02 0. -1.
    10030    2    1    2    0    0  0.00000000000E+00  0.00000000000E+00 -0.24539294620E+04  0.25502382887E+04  0.69422296464E+03 0.  0.
        3    1    3    3  502    0 -0.23238787705E+03  0.42901275952E+02 -0.29298326475E+03  0.37640915040E+03  0.10100000352E+00 0.  1.
       -3    1    3    3    0  502  0.23238787705E+03 -0.42901275952E+02 -0.21609461973E+04  0.21738291383E+04  0.10100000352E+00 0. -1.
</event>
<event>
 5   0  0.2439375E-02  0.7075382E+03  0.7818609E-02  0.9704427E-01
        3   -1    0    0  501    0  0.00000000000E+00  0.00000000000E+00  0.10388808342E+04  0.10388808391E+04  0.10100000352E+00 0.  1.
       -3   -1    0    0    0  501  0.00000000000E+00  0.00000000000E+00 -0.12046864122E+03  0.12046868356E+03  0.10100000352E+00 0. -1.
    10030    2    1    2    0    0  0.00000000000E+00  0.00000000000E+00  0.91841219298E+03  0.11593495227E+04  0.70753823889E+03 0.  0.
        5    1    3    3  502    0 -0.32401609897E+03  0.18238706748E+02  0.22857267516E+03  0.39697183860E+03  0.46999998093E+01 0. -1.
       -5    1    3    3    0  502  0.32401609897E+03 -0.18238706748E+02  0.68983951782E+03  0.76237768407E+03  0.46999998093E+01 0.  1.
</event>
<event>
 5   0  0.3755872E-02  0.4719477E+03  0.7818609E-02  0.1021372E+00
       -1   -1    0    0    0  501  0.00000000000E+00  0.00000000000E+00  0.21511880205E+03  0.21511880211E+03  0.50400001928E-02 0. -1.
        1   -1    0    0  501    0  0.00000000000E+00  0.00000000000E+00 -0.25885070541E+03  0.25885070546E+03  0.50400001928E-02 0.  1.
    10030    2    1    2    0    0  0.00000000000E+00  0.00000000000E+00 -0.43731903359E+02  0.47396950757E+03  0.47194768220E+03 0.  0.
        2    1    3    3  502    0  0.22963715531E+03  0.53679622046E+02 -0.13528050226E+02  0.23621543784E+03  0.25500000920E-02 0.  1.
       -2    1    3    3    0  502 -0.22963715531E+03 -0.53679622046E+02 -0.30203853133E+02  0.23775406973E+03  0.25500000920E-02 0. -1.
</event>
<event>
 5   0  0.3717372E-02  0.6876340E+03  0.7818609E-02  0.9738617E-01
       -1   -1    0    0    0  501  0.00000000000E+00  0.00000000000E+00  0.29883161285E+03  0.29883161290E+03  0.50400001928E-02 0.  1.
        1   -1    0    0  501    0  0.00000000000E+00  0.00000000000E+00 -0.39557436031E+03  0.39557436034E+03  0.50400001928E-02 0. -1.
    10030    2    1    2    0    0  0.00000000000E+00  0.00000000000E+00 -0.96742747458E+02  0.69440597324E+03  0.68763398439E+03 0.  0.
        3    1    3    3  502    0 -0.32557811209E+03 -0.49494226415E+02 -0.14813358841E+03  0.36110158645E+03  0.10100000352E+00 0. -1.
       -3    1    3    3    0  502  0.32557811209E+03  0.49494226415E+02  0.51390840947E+02  0.33330438679E+03  0.10100000352E+00 0.  1.
</event>
<event>
 5   0  0.5987810E-02  0.6988970E+03  0.7818609E-02  0.9719120E-01
       -2   -1    0    0    0  501  0.00000000000E+00  0.00000000000E+00  0.68217047910E+02  0.68217047957E+02  0.25500000920E-02 0.  1.
        2   -1    0    0  501    0  0.00000000000E+00  0.00000000000E+00 -0.17900843179E+04  0.17900843179E+04  0.25500000920E-02 0. -1.
    10030    2    1    2    0    0  0.00000000000E+00  0.00000000000E+00 -0.17218672699E+04  0.18583013658E+04  0.69889703882E+03 0.  0.
        5    1    3    3  502    0  0.34562543869E+03  0.49784193694E+02 -0.82764227540E+03  0.89830353213E+03  0.46999998093E+01 0.  1.
       -5    1    3    3    0  502 -0.34562543869E+03 -0.49784193694E+02 -0.89422499454E+03  0.95999783368E+03  0.46999998093E+01 0. -1.
</event>
<event>
 5   0  0.6131198E-02  0.6977238E+03  0.7818609E-02  0.9721133E-01
        2   -1    0    0  501    0  0.00000000000E+00  0.00000000000E+00  0.11469374917E+03  0.11469374920E+03  0.25500000920E-02 0.  1.
       -2   -1    0    0    0  501  0.00000000000E+00  0.00000000000E+00 -0.10611268479E+04  0.10611268479E+04  0.25500000920E-02 0. -1.
    10030    2    1    2    0    0  0.00000000000E+00  0.00000000000E+00 -0.94643309869E+03  0.11758205971E+04  0.69772377498E+03 0.  0.
        1    1    3    3  502    0  0.34585953530E+03  0.24582028952E+02 -0.53808172900E+03  0.64012111464E+03  0.50400001928E-02 0. -1.
       -1    1    3    3    0  502 -0.34585953530E+03 -0.24582028952E+02 -0.40835136969E+03  0.53569948241E+03  0.50400001928E-02 0.  1.
</event>
<event>
 5   0  0.3439015E-02  0.7029605E+03  0.7818609E-02  0.9712183E-01
        1   -1    0    0  501    0  0.00000000000E+00  0.00000000000E+00  0.18436698599E+03  0.18436698606E+03  0.50400001928E-02 0. -1.
       -1   -1    0    0    0  501  0.00000000000E+00  0.00000000000E+00 -0.67006779383E+03  0.67006779385E+03  0.50400001928E-02 0.  1.
    10030    2    1    2    0    0  0.00000000000E+00  0.00000000000E+00 -0.48570080784E+03  0.85443477990E+03  0.70296053828E+03 0.  0.
        1    1    3    3  502    0 -0.16624355482E+03  0.30947566076E+02 -0.61737562329E+03  0.64011509248E+03  0.50400001928E-02 0.  1.
       -1    1    3    3    0  502  0.16624355482E+03 -0.30947566076E+02  0.13167481546E+03  0.21431968742E+03  0.50400001928E-02 0. -1.
</event>
<event>
 5   0  0.5899787E-02  0.7122926E+03  0.7818609E-02  0.9696438E-01
       -2   -1    0    0    0  501  0.00000000000E+00  0.00000000000E+00  0.19745868307E+03  0.19745868309E+03  0.25500000920E-02 0. -1.
        2   -1    0    0  501    0  0.00000000000E+00  0.00000000000E+00 -0.64236310431E+03  0.64236310431E+03  0.25500000920E-02 0.  1.
    10030    2    1    2    0    0  0.00000000000E+00  0.00000000000E+00 -0.44490442124E+03  0.83982178740E+03  0.71229255966E+03 0.  0.
        2    1    3    3  502    0  0.27995420086E+03  0.15311309217E+03 -0.35946786545E+02  0.32110768449E+03  0.25500000920E-02 0. -1.
       -2    1    3    3    0  502 -0.27995420086E+03 -0.15311309217E+03 -0.40895763469E+03  0.51871410290E+03  0.25500000920E-02 0.  1.
</event>
<event>
 5   0  0.5987810E-02  0.6770212E+03  0.7818609E-02  0.9757356E-01
        2   -1    0    0  501    0  0.00000000000E+00  0.00000000000E+00  0.13512017363E+04  0.13512017363E+04  0.25500000920E-02 0.  1.
       -2   -1    0    0    0  501  0.00000000000E+00  0.00000000000E+00 -0.84805572168E+02  0.84805572206E+02  0.25500000920E-02 0. -1.
    10030    2    1    2    0    0  0.00000000000E+00  0.00000000000E+00  0.12663961641E+04  0.14360073085E+04  0.67702122976E+03 0.  0.
        5    1    3    3  502    0  0.29562932477E+03  0.10605899293E+03  0.90084057402E+03  0.95403408610E+03  0.46999998093E+01 0.  1.
       -5    1    3    3    0  502 -0.29562932477E+03 -0.10605899293E+03  0.36555559009E+03  0.48197322238E+03  0.46999998093E+01 0. -1.
</event>
<event>
 5   0  0.3755872E-02  0.6920722E+03  0.7818609E-02  0.9730887E-01
       -1   -1    0    0    0  501  0.00000000000E+00  0.00000000000E+00  0.24230758431E+03  0.24230758436E+03  0.50400001928E-02 0. -1.
        1   -1    0    0  501    0  0.00000000000E+00  0.00000000000E+00 -0.49416935569E+03  0.49416935572E+03  0.50400001928E-02 0.  1.
    10030    2    1    2    0    0  0.00000000000E+00  0.00000000000E+00 -0.25186177138E+03  0.73647694008E+03  0.69207220100E+03 0.  0.
        2    1    3    3  502    0 -0.50231789998E+02  0.15743190283E+03  0.19760402223E+03  0.25759539274E+03  0.25500000920E-02 0. -1.
       -2    1    3    3    0  502  0.50231789998E+02 -0.15743190283E+03 -0.44946579361E+03  0.47888154734E+03  0.25500000920E-02 0.  1.
</event>
<event>
 5   0  0.5899787E-02  0.7032867E+03  0.7818609E-02  0.9711628E-01
       -2   -1    0    0    0  501  0.00000000000E+00  0.00000000000E+00  0.23472234033E+03  0.23472234034E+03  0.25500000920E-02 0.  1.
        2   -1    0    0  501    0  0.00000000000E+00  0.00000000000E+00 -0.52680563738E+03  0.52680563739E+03  0.25500000920E-02 0. -1.
    10030    2    1    2    0    0  0.00000000000E+00  0.00000000000E+00 -0.29208329705E+03  0.76152797773E+03  0.70328671852E+03 0.  0.
        2    1    3    3  502    0  0.13311855922E+03  0.13484139931E+03 -0.46679983429E+03  0.50379047140E+03  0.25500000920E-02 0. -1.
       -2    1    3    3    0  502 -0.13311855922E+03 -0.13484139931E+03  0.17471653724E+03  0.25773750633E+03  0.25500000920E-02 0.  1.
</event>
<event>
 5   0  0.6248886E-02  0.7095221E+03  0.7818609E-02  0.9701085E-01
        2   -1    0    0  501    0  0.00000000000E+00  0.00000000000E+00  0.12701691690E+04  0.12701691690E+04  0.25500000920E-02 0.  1.
       -2   -1    0    0    0  501  0.00000000000E+00  0.00000000000E+00 -0.99085537162E+02  0.99085537195E+02  0.25500000920E-02 0. -1.
    10030    2    1    2    0    0  0.00000000000E+00  0.00000000000E+00  0.11710836319E+04  0.13692547062E+04  0.70952207696E+03 0.  0.
        3    1    3    3  502    0  0.18303408939E+03  0.25670815046E+03  0.27165662104E+03  0.41617049672E+03  0.10100000352E+00 0. -1.
       -3    1    3    3    0  502 -0.18303408939E+03 -0.25670815046E+03  0.89942701084E+03  0.95308420951E+03  0.10100000352E+00 0.  1.
</event>
<event>
 5   0  0.3601475E-02  0.6920423E+03  0.7818609E-02  0.9730938E-01
       -1   -1    0    0    0  501  0.00000000000E+00  0.00000000000E+00  0.64537765262E+02  0.64537765459E+02  0.50400001928E-02 0.  1.
        1   -1    0    0  501    0  0.00000000000E+00  0.00000000000E+00 -0.18552029016E+04  0.18552029016E+04  0.50400001928E-02 0. -1.
    10030    2    1    2    0    0  0.00000000000E+00  0.00000000000E+00 -0.17906651364E+04  0.19197406671E+04  0.69204233852E+03 0.  0.
        5    1    3    3  502    0 -0.28566279530E+03  0.27612717560E+02 -0.35927218067E+03  0.45985245959E+03  0.46999998093E+01 0.  1.
       -5    1    3    3    0  502  0.28566279530E+03 -0.27612717560E+02 -0.14313929557E+04  0.14598882075E+04  0.46999998093E+01 0. -1.
</event>
<event>
 5   0  0.3717372E-02  0.7126244E+03  0.7818609E-02  0.9695883E-01
        1   -1    0    0  501    0  0.00000000000E+00  0.00000000000E+00  0.37666949917E+03  0.37666949921E+03  0.50400001928E-02 0. -1.
       -1   -1    0    0    0  501  0.00000000000E+00  0.00000000000E+00 -0.33705507982E+03  0.33705507986E+03  0.50400001928E-02 0.  1.
    10030    2    1    2    0    0  0.00000000000E+00  0.00000000000E+00  0.39614419349E+02  0.71372457907E+03  0.71262435584E+03 0.  0.
        3    1    3    3  502    0 -0.18346703164E+03 -0.17574229364E+03 -0.23040414113E+03  0.34297461119E+03  0.10100000352E+00 0.  1.
       -3    1    3    3    0  502  0.18346703164E+03  0.17574229364E+03  0.27001856048E+03  0.37074996787E+03  0.10100000352E+00 0. -1.
</event>
<event>
 5   0  0.6131198E-02  0.6689605E+03  0.7818609E-02  0.9771838E-01
        2   -1    0    0  501    0  0.00000000000E+00  0.00000000000E+00  0.10895841868E+04  0.10895841868E+04  0.25500000920E-02 0.  1.
       -2   -1    0    0    0  501  0.00000000000E+00  0.00000000000E+00 -0.10267864971E+03  0.10267864974E+03  0.25500000920E-02 0. -1.
    10030    2    1    2    0    0  0.00000000000E+00  0.00000000000E+00  0.98690553712E+03  0.11922628366E+04  0.66896048632E+03 0.  0.
        1    1    3    3  502    0  0.18871403002E+01  0.18530356745E+03  0.98972891842E+03  0.10069281530E+04  0.50400001928E-02 0.  1.
       -1    1    3    3    0  502 -0.18871403002E+01 -0.18530356745E+03 -0.28233813009E+01  0.18533468352E+03  0.50400001928E-02 0. -1.
</event>
<event>
 5   0  0.3749730E-02  0.7018051E+03  0.7818609E-02  0.9714150E-01
        1   -1    0    0  501    0  0.00000000000E+00  0.00000000000E+00  0.39631158517E+03  0.39631158520E+03  0.50400001928E-02 0. -1.
       -1   -1    0    0    0  501  0.00000000000E+00  0.00000000000E+00 -0.31069648048E+03  0.31069648052E+03  0.50400001928E-02 0.  1.
    10030    2    1    2    0    0  0.00000000000E+00  0.00000000000E+00  0.85615104691E+02  0.70700806572E+03  0.70180514307E+03 0.  0.
        4    1    3    3  502    0 -0.16229409636E+02  0.23683368242E+03 -0.21752149147E+03  0.32197950093E+03  0.12699999809E+01 0.  1.
       -4    1    3    3    0  502  0.16229409636E+02 -0.23683368242E+03  0.30313659616E+03  0.38502856479E+03  0.12699999809E+01 0. -1.
</event>
<event>
 5   0  0.3755872E-02  0.7070308E+03  0.7818609E-02  0.9705284E-01
        1   -1    0    0  501    0  0.00000000000E+00  0.00000000000E+00  0.36448392619E+03  0.36448392623E+03  0.50400001928E-02 0.  1.
       -1   -1    0    0    0  501  0.00000000000E+00  0.00000000000E+00 -0.34287693113E+03  0.34287693117E+03  0.50400001928E-02 0. -1.
    10030    2    1    2    0    0  0.00000000000E+00  0.00000000000E+00  0.21606995059E+02  0.70736085740E+03  0.70703077751E+03 0.  0.
        2    1    3    3  502    0 -0.91269169158E+01  0.20879692826E+03 -0.27445006411E+03  0.34496709344E+03  0.25500000920E-02 0. -1.
       -2    1    3    3    0  502  0.91269169158E+01 -0.20879692826E+03  0.29605705917E+03  0.36239376396E+03  0.25500000920E-02 0.  1.
</event>
<event>
 5   0  0.6167756E-02  0.6946038E+03  0.7818609E-02  0.9726505E-01
        2   -1    0    0  501    0  0.00000000000E+00  0.00000000000E+00  0.16563147680E+04  0.16563147680E+04  0.25500000920E-02 0. -1.
       -2   -1    0    0    0  501  0.00000000000E+00  0.00000000000E+00 -0.72823479760E+02  0.72823479805E+02  0.25500000920E-02 0.  1.
    10030    2    1    2    0    0  0.00000000000E+00  0.00000000000E+00  0.15834912883E+04  0.17291382479E+04  0.69460378642E+03 0.  0.
        4    1    3    3  502    0  0.33476541409E+03  0.86144193973E+02  0.87536416083E+03  0.94114437341E+03  0.12699999809E+01 0.  1.
       -4    1    3    3    0  502 -0.33476541409E+03 -0.86144193973E+02  0.70812712745E+03  0.78799387445E+03  0.12699999809E+01 0. -1.
</event>
<event>
 5   0  0.5899787E-02  0.7089501E+03  0.7818609E-02  0.9702048E-01
        2   -1    0    0  501    0  0.00000000000E+00  0.00000000000E+00  0.21484947641E+03  0.21484947643E+03  0.25500000920E-02 0. -1.
       -2   -1    0    0    0  501  0.00000000000E+00  0.00000000000E+00 -0.58483994589E+03  0.58483994590E+03  0.25500000920E-02 0.  1.
    10030    2    1    2    0    0  0.00000000000E+00  0.00000000000E+00 -0.36999046948E+03  0.79968942233E+03  0.70895008617E+03 0.  0.
        2    1    3    3  502    0 -0.33989138257E+03  0.10060897321E+03 -0.18731756150E+03  0.40091917676E+03  0.25500000920E-02 0.  1.
       -2    1    3    3    0  502  0.33989138257E+03 -0.10060897321E+03 -0.18267290798E+03  0.39877024557E+03  0.25500000920E-02 0. -1.
</event>
<event>
 5   0  0.6248886E-02  0.6988565E+03  0.7818609E-02  0.9719190E-01
       -2   -1    0    0    0  501  0.00000000000E+00  0.00000000000E+00  0.58854098338E+03  0.58854098339E+03  0.25500000920E-02 0. -1.
        2   -1    0    0  501    0  0.00000000000E+00  0.00000000000E+00 -0.20746238157E+03  0.20746238158E+03  0.25500000920E-02 0.  1.
    10030    2    1    2    0    0  0.00000000000E+00  0.00000000000E+00  0.38107860182E+03  0.79600336498E+03  0.69885653484E+03 0.  0.
        3    1    3    3  502    0  0.27525201248E+03  0.90488002597E+02 -0.31927280008E+02  0.29149804527E+03  0.10100000352E+00 0.  1.
       -3    1    3    3    0  502 -0.27525201248E+03 -0.90488002597E+02  0.41300588182E+03  0.50450531970E+03  0.10100000352E+00 0. -1.
</event>
<event>
 5   0  0.2439375E-02  0.7132815E+03  0.7818609E-02  0.9694785E-01
        4   -1    0    0  501    0  0.00000000000E+00  0.00000000000E+00  0.24492761358E+03  0.24493090616E+03  0.12699999809E+01 0. -1.
       -4   -1    0    0    0  501  0.00000000000E+00  0.00000000000E+00 -0.51929949020E+03  0.51930104315E+03  0.12699999809E+01 0.  1.
    10030    2    1    2    0    0  0.00000000000E+00  0.00000000000E+00 -0.27437187662E+03  0.76423194932E+03  0.71328153325E+03 0.  0.
        4    1    3    3  502    0 -0.18008319226E+03  0.12788867972E+03 -0.43719724360E+03  0.48982498226E+03  0.12699999809E+01 0.  1.
       -4    1    3    3    0  502  0.18008319226E+03 -0.12788867972E+03  0.16282536698E+03  0.27440696706E+03  0.12699999809E+01 0. -1.
</event>
<event>
 5   0  0.6167756E-02  0.6383682E+03  0.7818609E-02  0.9828853E-01
       -2   -1    0    0    0  501  0.00000000000E+00  0.00000000000E+00  0.26549688888E+03  0.26549688890E+03  0.25500000920E-02 0. -1.
        2   -1    0    0  501    0  0.00000000000E+00  0.00000000000E+00 -0.38372768113E+03  0.38372768114E+03  0.25500000920E-02 0.  1.
    10030    2    1    2    0    0  0.00000000000E+00  0.00000000000E+00 -0.11823079225E+03  0.64922457004E+03  0.63836824960E+03 0.  0.
        4    1    3    3  502    0  0.10555645315E+03  0.26696938311E+03 -0.20099444043E+03  0.35044998831E+03  0.12699999809E+01 0.  1.
       -4    1    3    3    0  502 -0.10555645315E+03 -0.26696938311E+03  0.82763648187E+02  0.29877458172E+03  0.12699999809E+01 0. -1.
</event>
<event>
 5   0  0.6248886E-02  0.6905589E+03  0.7818609E-02  0.9733515E-01
       -2   -1    0    0    0  501  0.00000000000E+00  0.00000000000E+00  0.22078562932E+03  0.22078562934E+03  0.25500000920E-02 0.  1.
        2   -1    0    0  501    0  0.00000000000E+00  0.00000000000E+00 -0.53997132325E+03  0.53997132325E+03  0.25500000920E-02 0. -1.
    10030    2    1    2    0    0  0.00000000000E+00  0.00000000000E+00 -0.31918569392E+03  0.76075695259E+03  0.69055892849E+03 0.  0.
        3    1    3    3  502    0  0.13791899573E+03  0.29052488388E+03 -0.21154170951E+02  0.32229468920E+03  0.10100000352E+00 0.  1.
       -3    1    3    3    0  502 -0.13791899573E+03 -0.29052488388E+03 -0.29803152297E+03  0.43846226339E+03  0.10100000352E+00 0. -1.
</event>
<event>
 5   0  0.3717372E-02  0.7231358E+03  0.7818609E-02  0.9678465E-01
       -1   -1    0    0    0  501  0.00000000000E+00  0.00000000000E+00  0.19902663760E+03  0.19902663766E+03  0.50400001928E-02 0.  1.
        1   -1    0    0  501    0  0.00000000000E+00  0.00000000000E+00 -0.65685355742E+03  0.65685355744E+03  0.50400001928E-02 0. -1.
    10030    2    1    2    0    0  0.00000000000E+00  0.00000000000E+00 -0.45782691982E+03  0.85588019510E+03  0.72313582394E+03 0.  0.
        3    1    3    3  502    0  0.32788828643E+03  0.15233574483E+03 -0.23341058589E+03  0.43034569748E+03  0.10100000352E+00 0.  1.
       -3    1    3    3    0  502 -0.32788828643E+03 -0.15233574483E+03 -0.22441633393E+03  0.42553449762E+03  0.10100000352E+00 0. -1.
</event>
<event>
 5   0  0.6248886E-02  0.6909894E+03  0.7818609E-02  0.9732767E-01
       -2   -1    0    0    0  501  0.00000000000E+00  0.00000000000E+00  0.34344335002E+03  0.34344335003E+03  0.25500000920E-02 0. -1.
        2   -1    0    0  501    0  0.00000000000E+00  0.00000000000E+00 -0.34755829990E+03  0.34755829991E+03  0.25500000920E-02 0.  1.
    10030    2    1    2    0    0  0.00000000000E+00  0.00000000000E+00 -0.41149498763E+01  0.69100164993E+03  0.69098939746E+03 0.  0.
        3    1    3    3  502    0 -0.40758095163E+02  0.16514488654E+03 -0.30278281119E+03  0.34729165960E+03  0.10100000352E+00 0. -1.
       -3    1    3    3    0  502  0.40758095163E+02 -0.16514488654E+03  0.29866786132E+03  0.34370999034E+03  0.10100000352E+00 0.  1.
</event>
<event>
 5   0  0.3755872E-02  0.6695902E+03  0.7818609E-02  0.9770698E-01
        1   -1    0    0  501    0  0.00000000000E+00  0.00000000000E+00  0.33429640589E+03  0.33429640593E+03  0.50400001928E-02 0. -1.
       -1   -1    0    0    0  501  0.00000000000E+00  0.00000000000E+00 -0.33529458530E+03  0.33529458534E+03  0.50400001928E-02 0.  1.
    10030    2    1    2    0    0  0.00000000000E+00  0.00000000000E+00 -0.99817940898E+00  0.66959099126E+03  0.66959024725E+03 0.  0.
        2    1    3    3  502    0 -0.13391894227E+03 -0.81507195678E+02 -0.29632042636E+03  0.33523648539E+03  0.25500000920E-02 0.  1.
       -2    1    3    3    0  502  0.13391894227E+03  0.81507195678E+02  0.29532224695E+03  0.33435450588E+03  0.25500000920E-02 0. -1.
</event>
<event>
 5   0  0.3439015E-02  0.7118979E+03  0.7818609E-02  0.9697099E-01
        1   -1    0    0  501    0  0.00000000000E+00  0.00000000000E+00  0.83619344096E+03  0.83619344098E+03  0.50400001928E-02 0. -1.
       -1   -1    0    0    0  501  0.00000000000E+00  0.00000000000E+00 -0.15151955976E+03  0.15151955985E+03  0.50400001928E-02 0.  1.
    10030    2    1    2    0    0  0.00000000000E+00  0.00000000000E+00  0.68467388120E+03  0.98771300082E+03  0.71189791993E+03 0.  0.
        1    1    3    3  502    0 -0.28424140641E+03  0.52458285379E+02  0.54115250395E+02  0.29406378419E+03  0.50400001928E-02 0.  1.
       -1    1    3    3    0  502  0.28424140641E+03 -0.52458285379E+02  0.63055863081E+03  0.69364921663E+03  0.50400001928E-02 0. -1.
</event>
<event>
 5   0  0.6167756E-02  0.7021780E+03  0.7818609E-02  0.9713515E-01
       -2   -1    0    0    0  501  0.00000000000E+00  0.00000000000E+00  0.19640597162E+03  0.19640597164E+03  0.25500000920E-02 0.  1.
        2   -1    0    0  501    0  0.00000000000E+00  0.00000000000E+00 -0.62759533186E+03  0.62759533186E+03  0.25500000920E-02 0. -1.
    10030    2    1    2    0    0  0.00000000000E+00  0.00000000000E+00 -0.43118936024E+03  0.82400130350E+03  0.70217795735E+03 0.  0.
        4    1    3    3  502    0  0.33362213988E+03 -0.10063614512E+03 -0.26580172253E+03  0.43827335594E+03  0.12699999809E+01 0.  1.
       -4    1    3    3    0  502 -0.33362213988E+03  0.10063614512E+03 -0.16538763771E+03  0.38572794756E+03  0.12699999809E+01 0. -1.
</event>
<event>
 5   0  0.6167756E-02  0.6976478E+03  0.7818609E-02  0.9721263E-01
        2   -1    0    0  501    0  0.00000000000E+00  0.00000000000E+00  0.48117823426E+03  0.48117823427E+03  0.25500000920E-02 0. -1.
       -2   -1    0    0    0  501  0.00000000000E+00  0.00000000000E+00 -0.25287537967E+03  0.25287537969E+03  0.25500000920E-02 0.  1.
    10030    2    1    2    0    0  0.00000000000E+00  0.00000000000E+00  0.22830285459E+03  0.73405361396E+03  0.69764784437E+03 0.  0.
        4    1    3    3  502    0 -0.31097571600E+03 -0.15688920867E+03  0.94287827056E+02  0.36084889769E+03  0.12699999809E+01 0. -1.
       -4    1    3    3    0  502  0.31097571600E+03  0.15688920867E+03  0.13401502754E+03  0.37320471626E+03  0.12699999809E+01 0.  1.
</event>
<event>
 5   0  0.6167756E-02  0.6943032E+03  0.7818609E-02  0.9727024E-01
       -2   -1    0    0    0  501  0.00000000000E+00  0.00000000000E+00  0.77250821836E+02  0.77250821878E+02  0.25500000920E-02 0. -1.
        2   -1    0    0  501    0  0.00000000000E+00  0.00000000000E+00 -0.15600383328E+04  0.15600383328E+04  0.25500000920E-02 0.  1.
    10030    2    1    2    0    0  0.00000000000E+00  0.00000000000E+00 -0.14827875109E+04  0.16372891546E+04  0.69430322868E+03 0.  0.
        4    1    3    3  502    0  0.26963287039E+01  0.82917422858E+02 -0.15363126513E+04  0.15385515086E+04  0.12699999809E+01 0.  1.
       -4    1    3    3    0  502 -0.26963287039E+01 -0.82917422858E+02  0.53525140342E+02  0.98737646065E+02  0.12699999809E+01 0. -1.
</event>
<event>
 5   0  0.3601475E-02  0.6687607E+03  0.7818609E-02  0.9772199E-01
       -1   -1    0    0    0  501  0.00000000000E+00  0.00000000000E+00  0.57324595823E+03  0.57324595825E+03  0.50400001928E-02 0. -1.
        1   -1    0    0  501    0  0.00000000000E+00  0.00000000000E+00 -0.19504754578E+03  0.19504754585E+03  0.50400001928E-02 0.  1.
    10030    2    1    2    0    0  0.00000000000E+00  0.00000000000E+00  0.37819841245E+03  0.76829350410E+03  0.66876069656E+03 0.  0.
        5    1    3    3  502    0 -0.71715014982E+02  0.30826994346E+03  0.31291068263E+03  0.44509390775E+03  0.46999998093E+01 0. -1.
       -5    1    3    3    0  502  0.71715014982E+02 -0.30826994346E+03  0.65287729814E+02  0.32319959634E+03  0.46999998093E+01 0.  1.
</event>
<event>
 5   0  0.3439015E-02  0.7034512E+03  0.7818609E-02  0.9711348E-01
        1   -1    0    0  501    0  0.00000000000E+00  0.00000000000E+00  0.63526778217E+03  0.63526778219E+03  0.50400001928E-02 0.  1.
       -1   -1    0    0    0  501  0.00000000000E+00  0.00000000000E+00 -0.19473816993E+03  0.19473816999E+03  0.50400001928E-02 0. -1.
    10030    2    1    2    0    0  0.00000000000E+00  0.00000000000E+00  0.44052961224E+03  0.83000595219E+03  0.70345116490E+03 0.  0.
        1    1    3    3  502    0 -0.20731457677E+03  0.18950694247E+03  0.47005577793E+03  0.54758072408E+03  0.50400001928E-02 0.  1.
       -1    1    3    3    0  502  0.20731457677E+03 -0.18950694247E+03 -0.29526165692E+02  0.28242522811E+03  0.50400001928E-02 0. -1.
</event>
<event>
 5   0  0.3601475E-02  0.6560333E+03  0.7818609E-02  0.9795524E-01
       -1   -1    0    0    0  501  0.00000000000E+00  0.00000000000E+00  0.13529269947E+03  0.13529269956E+03  0.50400001928E-02 0.  1.
        1   -1    0    0  501    0  0.00000000000E+00  0.00000000000E+00 -0.79527509199E+03  0.79527509201E+03  0.50400001928E-02 0. -1.
    10030    2    1    2    0    0  0.00000000000E+00  0.00000000000E+00 -0.65998239252E+03  0.93056779157E+03  0.65603327374E+03 0.  0.
        5    1    3    3  502    0  0.14750602996E+02 -0.51767979829E+02  0.12893653194E+03  0.13980065555E+03  0.46999998093E+01 0.  1.
       -5    1    3    3    0  502 -0.14750602996E+02  0.51767979829E+02 -0.78891892447E+03  0.79076713602E+03  0.46999998093E+01 0. -1.
</event>
<event>
 5   0  0.6248886E-02  0.6808826E+03  0.7818609E-02  0.9750496E-01
        2   -1    0    0  501    0  0.00000000000E+00  0.00000000000E+00  0.10892147715E+04  0.10892147715E+04  0.25500000920E-02 0.  1.
       -2   -1    0    0    0  501  0.00000000000E+00  0.00000000000E+00 -0.10640719255E+03  0.10640719258E+03  0.25500000920E-02 0. -1.
    10030    2    1    2    0    0  0.00000000000E+00  0.00000000000E+00  0.98280757892E+03  0.11956219640E+04  0.68088262111E+03 0.  0.
        3    1    3    3  502    0 -0.21761081391E+03 -0.26180188840E+03  0.49555202277E+03  0.60122085175E+03  0.10100000352E+00 0.  1.
       -3    1    3    3    0  502  0.21761081391E+03  0.26180188840E+03  0.48725555615E+03  0.59440111230E+03  0.10100000352E+00 0. -1.
</event>
<event>
 5   0  0.2439375E-02  0.6988633E+03  0.7818609E-02  0.9719178E-01
       -3   -1    0    0    0  501  0.00000000000E+00  0.00000000000E+00  0.47123487515E+03  0.47123488597E+03  0.10100000352E+00 0.  1.
        3   -1    0    0  501    0  0.00000000000E+00  0.00000000000E+00 -0.25911170138E+03  0.25911172107E+03  0.10100000352E+00 0. -1.
    10030    2    1    2    0    0  0.00000000000E+00  0.00000000000E+00  0.21212317377E+03  0.73034660704E+03  0.69886330964E+03 0.  0.
        4    1    3    3  502    0  0.54452791294E+02 -0.19156722803E+02 -0.25409215121E+03  0.26056960819E+03  0.12699999809E+01 0. -1.
       -4    1    3    3    0  502 -0.54452791294E+02  0.19156722803E+02  0.46621532497E+03  0.46977699885E+03  0.12699999809E+01 0.  1.
</event>
<event>
 5   0  0.6131198E-02  0.6879478E+03  0.7818609E-02  0.9738068E-01
        2   -1    0    0  501    0  0.00000000000E+00  0.00000000000E+00  0.49789504755E+03  0.49789504756E+03  0.25500000920E-02 0. -1.
       -2   -1    0    0    0  501  0.00000000000E+00  0.00000000000E+00 -0.23763651634E+03  0.23763651636E+03  0.25500000920E-02 0.  1.
    10030    2    1    2    0    0  0.00000000000E+00  0.00000000000E+00  0.26025853121E+03  0.73553156391E+03  0.68794780212E+03 0.  0.
        1    1    3    3  502    0 -0.30570682176E+03  0.96790631881E+02  0.26320932585E+03  0.41485447633E+03  0.50400001928E-02 0. -1.
       -1    1    3    3    0  502  0.30570682176E+03 -0.96790631881E+02 -0.29507946452E+01  0.32067708759E+03  0.50400001928E-02 0.  1.
</event>
<event>
 5   0  0.2439375E-02  0.7033400E+03  0.7818609E-02  0.9711537E-01
       -4   -1    0    0    0  501  0.00000000000E+00  0.00000000000E+00  0.57991440116E+03  0.57991579179E+03  0.12699999809E+01 0.  1.
        4   -1    0    0  501    0  0.00000000000E+00  0.00000000000E+00 -0.21325516138E+03  0.21325894296E+03  0.12699999809E+01 0. -1.
    10030    2    1    2    0    0  0.00000000000E+00  0.00000000000E+00  0.36665923978E+03  0.79317473476E+03  0.70334000437E+03 0.  0.
        4    1    3    3  502    0 -0.26636555320E+03  0.18231143181E+03  0.34073572176E+03  0.46935115967E+03  0.12699999809E+01 0.  1.
       -4    1    3    3    0  502  0.26636555320E+03 -0.18231143181E+03  0.25923518024E+02  0.32382357509E+03  0.12699999809E+01 0. -1.
</event>
<event>
 5   0  0.3439015E-02  0.6999479E+03  0.7818609E-02  0.9717321E-01
       -1   -1    0    0    0  501  0.00000000000E+00  0.00000000000E+00  0.56945986942E+03  0.56945986944E+03  0.50400001928E-02 0.  1.
        1   -1    0    0  501    0  0.00000000000E+00  0.00000000000E+00 -0.21508408296E+03  0.21508408302E+03  0.50400001928E-02 0. -1.
    10030    2    1    2    0    0  0.00000000000E+00  0.00000000000E+00  0.35437578646E+03  0.78454395246E+03  0.69994786614E+03 0.  0.
        1    1    3    3  502    0 -0.25862226254E+03 -0.96038653606E+02  0.41855801402E+03  0.50129802393E+03  0.50400001928E-02 0.  1.
       -1    1    3    3    0  502  0.25862226254E+03  0.96038653606E+02 -0.64182227559E+02  0.28324592853E+03  0.50400001928E-02 0. -1.
</event>
<event>
 5   0  0.2439375E-02  0.6987288E+03  0.7818609E-02  0.9719409E-01
        4   -1    0    0  501    0  0.00000000000E+00  0.00000000000E+00  0.14376618610E+03  0.14377179544E+03  0.12699999809E+01 0. -1.
       -4   -1    0    0    0  501  0.00000000000E+00  0.00000000000E+00 -0.84896331378E+03  0.84896426370E+03  0.12699999809E+01 0.  1.
    10030    2    1    2    0    0  0.00000000000E+00  0.00000000000E+00 -0.70519712768E+03  0.99273605915E+03  0.69872877015E+03 0.  0.
        5    1    3    3  502    0 -0.16026504044E+03  0.11804843697E+03 -0.76046992238E+03  0.78610235306E+03  0.46999998093E+01 0.  1.
       -5    1    3    3    0  502  0.16026504044E+03 -0.11804843697E+03  0.55272794694E+02  0.20663370608E+03  0.46999998093E+01 0. -1.
</event>
<event>
 5   0  0.6248886E-02  0.7409526E+03  0.7818609E-02  0.9649652E-01
        2   -1    0    0  501    0  0.00000000000E+00  0.00000000000E+00  0.10799060576E+04  0.10799060576E+04  0.25500000920E-02 0. -1.
       -2   -1    0    0    0  501  0.00000000000E+00  0.00000000000E+00 -0.12709686920E+03  0.12709686922E+03  0.25500000920E-02 0.  1.
    10030    2    1    2    0    0  0.00000000000E+00  0.00000000000E+00  0.95280918839E+03  0.12070029268E+04  0.74095257328E+03 0.  0.
        3    1    3    3  502    0  0.85742509440E+02  0.33503787854E+03  0.25998501340E+03  0.43265965305E+03  0.10100000352E+00 0.  1.
       -3    1    3    3    0  502 -0.85742509440E+02 -0.33503787854E+03  0.69282417499E+03  0.77434327377E+03  0.10100000352E+00 0. -1.
</event>
<event>
 5   0  0.3755872E-02  0.7079287E+03  0.7818609E-02  0.9703768E-01
       -1   -1    0    0    0  501  0.00000000000E+00  0.00000000000E+00  0.48356751132E+03  0.48356751135E+03  0.50400001928E-02 0.  1.
        1   -1    0    0  501    0  0.00000000000E+00  0.00000000000E+00 -0.25909674957E+03  0.25909674962E+03  0.50400001928E-02 0. -1.
    10030    2    1    2    0    0  0.00000000000E+00  0.00000000000E+00  0.22447076175E+03  0.74266426097E+03  0.70792872639E+03 0.  0.
        2    1    3    3  502    0 -0.33460750153E+03  0.11538223943E+03  0.10810132093E+03  0.37008260815E+03  0.25500000920E-02 0.  1.
       -2    1    3    3    0  502  0.33460750153E+03 -0.11538223943E+03  0.11636944082E+03  0.37258165283E+03  0.25500000920E-02 0. -1.
</event>
<event>
 5   0  0.5899787E-02  0.6876180E+03  0.7818609E-02  0.9738645E-01
       -2   -1    0    0    0  501  0.00000000000E+00  0.00000000000E+00  0.10160379238E+03  0.10160379241E+03  0.25500000920E-02 0. -1.
        2   -1    0    0  501    0  0.00000000000E+00  0.00000000000E+00 -0.11633879510E+04  0.11633879510E+04  0.25500000920E-02 0.  1.
    10030    2    1    2    0    0  0.00000000000E+00  0.00000000000E+00 -0.10617841587E+04  0.12649917435E+04  0.68761799819E+03 0.  0.
        2    1    3    3  502    0 -0.25252644619E+03  0.23282039879E+03 -0.55877290121E+03  0.65589793357E+03  0.25500000920E-02 0.  1.
       -2    1    3    3    0  502  0.25252644619E+03 -0.23282039879E+03 -0.50301125744E+03  0.60909380989E+03  0.25500000920E-02 0. -1.
</event>
<event>
 5   0  0.3717372E-02  0.6970102E+03  0.7818609E-02  0.9722359E-01
        1   -1    0    0  501    0  0.00000000000E+00  0.00000000000E+00  0.98677338263E+03  0.98677338264E+03  0.50400001928E-02 0. -1.
       -1   -1    0    0    0  501  0.00000000000E+00  0.00000000000E+00 -0.12308377704E+03  0.12308377714E+03  0.50400001928E-02 0.  1.
    10030    2    1    2    0    0  0.00000000000E+00  0.00000000000E+00  0.86368960559E+03  0.11098571598E+04  0.69701017232E+03 0.  0.
        3    1    3    3  502    0  0.28808530963E+02  0.25688562189E+03  0.59653730039E+02  0.26528990162E+03  0.10100000352E+00 0.  1.
       -3    1    3    3    0  502 -0.28808530963E+02 -0.25688562189E+03  0.80403587555E+03  0.84456725817E+03  0.10100000352E+00 0. -1.
</event>
<event>
 5   0  0.3439015E-02  0.7026274E+03  0.7818609E-02  0.9712750E-01
        1   -1    0    0  501    0  0.00000000000E+00  0.00000000000E+00  0.24335561249E+03  0.24335561255E+03  0.50400001928E-02 0. -1.
       -1   -1    0    0    0  501  0.00000000000E+00  0.00000000000E+00 -0.50716439179E+03  0.50716439182E+03  0.50400001928E-02 0.  1.
    10030    2    1    2    0    0  0.00000000000E+00  0.00000000000E+00 -0.26380877930E+03  0.75052000436E+03  0.70262735850E+03 0.  0.
        1    1    3    3  502    0 -0.21422593340E+03  0.24106747415E+03 -0.28073976853E+03  0.42757583572E+03  0.50400001928E-02 0. -1.
       -1    1    3    3    0  502  0.21422593340E+03 -0.24106747415E+03  0.16930989237E+02  0.32294416864E+03  0.50400001928E-02 0.  1.
</event>
<event>
 5   0  0.6167756E-02  0.6957502E+03  0.7818609E-02  0.9724528E-01
       -2   -1    0    0    0  501  0.00000000000E+00  0.00000000000E+00  0.13132849453E+03  0.13132849456E+03  0.25500000920E-02 0.  1.
        2   -1    0    0  501    0  0.00000000000E+00  0.00000000000E+00 -0.92148384324E+03  0.92148384324E+03  0.25500000920E-02 0. -1.
    10030    2    1    2    0    0  0.00000000000E+00  0.00000000000E+00 -0.79015534871E+03  0.10528123378E+04  0.69575020197E+03 0.  0.
        4    1    3    3  502    0 -0.33042987084E+03  0.43822746238E+02 -0.54572431026E+03  0.63946928647E+03  0.12699999809E+01 0.  1.
       -4    1    3    3    0  502  0.33042987084E+03 -0.43822746238E+02 -0.24443103845E+03  0.41334305134E+03  0.12699999809E+01 0. -1.
</event>
<event>
 5   0  0.5987810E-02  0.7059126E+03  0.7818609E-02  0.9707174E-01
        2   -1    0    0  501    0  0.00000000000E+00  0.00000000000E+00  0.51123340657E+03  0.51123340658E+03  0.25500000920E-02 0.  1.
       -2   -1    0    0    0  501  0.00000000000E+00  0.00000000000E+00 -0.24368158221E+03  0.24368158223E+03  0.25500000920E-02 0. -1.
    10030    2    1    2    0    0  0.00000000000E+00  0.00000000000E+00  0.26755182436E+03  0.75491498881E+03  0.70591264446E+03 0.  0.
        5    1    3    3  502    0  0.10524428580E+03  0.11232678076E+03  0.47341037965E+03  0.49782842720E+03  0.46999998093E+01 0.  1.
       -5    1    3    3    0  502 -0.10524428580E+03 -0.11232678076E+03 -0.20585855530E+03  0.25708656160E+03  0.46999998093E+01 0. -1.
</event>
<event>
 5   0  0.2439375E-02  0.7709564E+03  0.7818609E-02  0.9603035E-01
       -4   -1    0    0    0  501  0.00000000000E+00  0.00000000000E+00  0.71099213827E+03  0.71099327253E+03  0.12699999809E+01 0. -1.
        4   -1    0    0  501    0  0.00000000000E+00  0.00000000000E+00 -0.20899125666E+03  0.20899511540E+03  0.12699999809E+01 0.  1.
    10030    2    1    2    0    0  0.00000000000E+00  0.00000000000E+00  0.50200088161E+03  0.91998838792E+03  0.77095638578E+03 0.  0.
        5    1    3    3  502    0  0.31071740974E+03  0.16187534638E+03  0.59243572691E+02  0.35536013758E+03  0.46999998093E+01 0. -1.
       -5    1    3    3    0  502 -0.31071740974E+03 -0.16187534638E+03  0.44275730892E+03  0.56462825034E+03  0.46999998093E+01 0.  1.
</event>
<event>
 5   0  0.3755872E-02  0.7074898E+03  0.7818609E-02  0.9704509E-01
       -1   -1    0    0    0  501  0.00000000000E+00  0.00000000000E+00  0.10970270623E+03  0.10970270634E+03  0.50400001928E-02 0. -1.
        1   -1    0    0  501    0  0.00000000000E+00  0.00000000000E+00 -0.11406777695E+04  0.11406777695E+04  0.50400001928E-02 0.  1.
    10030    2    1    2    0    0  0.00000000000E+00  0.00000000000E+00 -0.10309750633E+04  0.12503804758E+04  0.70748975491E+03 0.  0.
        2    1    3    3  502    0  0.23830642566E+03  0.23899767385E+03 -0.70273966121E+03  0.77958506403E+03  0.25500000920E-02 0.  1.
       -2    1    3    3    0  502 -0.23830642566E+03 -0.23899767385E+03 -0.32823540205E+03  0.47079541181E+03  0.25500000920E-02 0. -1.
</event>
<event>
 5   0  0.3439015E-02  0.6408690E+03  0.7818609E-02  0.9824065E-01
       -1   -1    0    0    0  501  0.00000000000E+00  0.00000000000E+00  0.53099936569E+02  0.53099936808E+02  0.50400001928E-02 0.  1.
        1   -1    0    0  501    0  0.00000000000E+00  0.00000000000E+00 -0.19336797433E+04  0.19336797433E+04  0.50400001928E-02 0. -1.
    10030    2    1    2    0    0  0.00000000000E+00  0.00000000000E+00 -0.18805798068E+04  0.19867796802E+04  0.64086900989E+03 0.  0.
        1    1    3    3  502    0 -0.15271264671E+03  0.28143022713E+03 -0.90179993187E+03  0.95695728346E+03  0.50400001928E-02 0. -1.
       -1    1    3    3    0  502  0.15271264671E+03 -0.28143022713E+03 -0.97877987490E+03  0.10298223967E+04  0.50400001928E-02 0.  1.
</event>
<event>
 5   0  0.3601475E-02  0.6975295E+03  0.7818609E-02  0.9721466E-01
        1   -1    0    0  501    0  0.00000000000E+00  0.00000000000E+00  0.10369569190E+04  0.10369569190E+04  0.50400001928E-02 0.  1.
       -1   -1    0    0    0  501  0.00000000000E+00  0.00000000000E+00 -0.11730174740E+03  0.11730174751E+03  0.50400001928E-02 0. -1.
    10030    2    1    2    0    0  0.00000000000E+00  0.00000000000E+00  0.91965517159E+03  0.11542586665E+04  0.69752952238E+03 0.  0.
        5    1    3    3  502    0 -0.18523908664E+03  0.26689795211E+02 -0.27108177230E+02  0.18916344165E+03  0.46999998093E+01 0. -1.
       -5    1    3    3    0  502  0.18523908664E+03 -0.26689795211E+02  0.94676334882E+03  0.96509522486E+03  0.46999998093E+01 0.  1.
</event>
<event>
 5   0  0.3717372E-02  0.7038408E+03  0.7818609E-02  0.9710686E-01
       -1   -1    0    0    0  501  0.00000000000E+00  0.00000000000E+00  0.42207489879E+03  0.42207489882E+03  0.50400001928E-02 0. -1.
        1   -1    0    0  501    0  0.00000000000E+00  0.00000000000E+00 -0.29342651243E+03  0.29342651247E+03  0.50400001928E-02 0.  1.
    10030    2    1    2    0    0  0.00000000000E+00  0.00000000000E+00  0.12864838636E+03  0.71550141130E+03  0.70384079326E+03 0.  0.
        3    1    3    3  502    0  0.30852712319E+03  0.24997387751E+02  0.23453195913E+03  0.38835435519E+03  0.10100000352E+00 0. -1.
       -3    1    3    3    0  502 -0.30852712319E+03 -0.24997387751E+02 -0.10588357276E+03  0.32714705611E+03  0.10100000352E+00 0.  1.
</event>
<event>
 5   0  0.6131198E-02  0.7061207E+03  0.7818609E-02  0.9706822E-01
        2   -1    0    0  501    0  0.00000000000E+00  0.00000000000E+00  0.36114856810E+03  0.36114856811E+03  0.25500000920E-02 0. -1.
       -2   -1    0    0    0  501  0.00000000000E+00  0.00000000000E+00 -0.34515327141E+03  0.34515327142E+03  0.25500000920E-02 0.  1.
    10030    2    1    2    0    0  0.00000000000E+00  0.00000000000E+00  0.15995296692E+02  0.70630183953E+03  0.70612069720E+03 0.  0.
        1    1    3    3  502    0  0.64997243793E+02  0.24346565305E+03 -0.23935396859E+03  0.34754926014E+03  0.50400001928E-02 0.  1.
       -1    1    3    3    0  502 -0.64997243793E+02 -0.24346565305E+03  0.25534926529E+03  0.35875257940E+03  0.50400001928E-02 0. -1.
</event>
<event>
 5   0  0.3717372E-02  0.6892532E+03  0.7818609E-02  0.9735789E-01
        1   -1    0    0  501    0  0.00000000000E+00  0.00000000000E+00  0.65620972931E+03  0.65620972933E+03  0.50400001928E-02 0. -1.
       -1   -1    0    0    0  501  0.00000000000E+00  0.00000000000E+00 -0.18099014195E+03  0.18099014202E+03  0.50400001928E-02 0.  1.
    10030    2    1    2    0    0  0.00000000000E+00  0.00000000000E+00  0.47521958736E+03  0.83719987135E+03  0.68925319613E+03 0.  0.
        3    1    3    3  502    0 -0.27171347223E+03 -0.12076818564E+03  0.44923168501E+03  0.53872282546E+03  0.10100000352E+00 0. -1.
       -3    1    3    3    0  502  0.27171347223E+03  0.12076818564E+03  0.25987902343E+02  0.29847704589E+03  0.10100000352E+00 0.  1.
</event>
<event>
 5   0  0.3439015E-02  0.6884074E+03  0.7818609E-02  0.9737265E-01
       -1   -1    0    0    0  501  0.00000000000E+00  0.00000000000E+00  0.14999335782E+03  0.14999335790E+03  0.50400001928E-02 0. -1.
        1   -1    0    0  501    0  0.00000000000E+00  0.00000000000E+00 -0.78987622745E+03  0.78987622746E+03  0.50400001928E-02 0.  1.
    10030    2    1    2    0    0  0.00000000000E+00  0.00000000000E+00 -0.63988286963E+03  0.93986958537E+03  0.68840740166E+03 0.  0.
        1    1    3    3  502    0  0.11027422079E+02 -0.33545598735E+03 -0.21575104022E+03  0.39899979307E+03  0.50400001928E-02 0.  1.
       -1    1    3    3    0  502 -0.11027422079E+02  0.33545598735E+03 -0.42413182940E+03  0.54086979230E+03  0.50400001928E-02 0. -1.
</event>
<event>
 5   0  0.3439015E-02  0.7190372E+03  0.7818609E-02  0.9685219E-01
       -1   -1    0    0    0  501  0.00000000000E+00  0.00000000000E+00  0.10204407309E+03  0.10204407322E+03  0.50400001928E-02 0.  1.
        1   -1    0    0  501    0  0.00000000000E+00  0.00000000000E+00 -0.12666450507E+04  0.12666450507E+04  0.50400001928E-02 0. -1.
    10030    2    1    2    0    0  0.00000000000E+00  0.00000000000E+00 -0.11646009776E+04  0.13686891239E+04  0.71903719022E+03 0.  0.
        1    1    3    3  502    0  0.16059808725E+03  0.18733329636E+03 -0.84586036431E+02  0.26084537017E+03  0.50400001928E-02 0.  1.
       -1    1    3    3    0  502 -0.16059808725E+03 -0.18733329636E+03 -0.10800149412E+04  0.11078437538E+04  0.50400001928E-02 0. -1.
</event>
<event>
 5   0  0.3755872E-02  0.6943019E+03  0.7818609E-02  0.9727027E-01
       -1   -1    0    0    0  501  0.00000000000E+00  0.00000000000E+00  0.64244183005E+03  0.64244183007E+03  0.50400001928E-02 0.  1.
        1   -1    0    0  501    0  0.00000000000E+00  0.00000000000E+00 -0.18758704817E+03  0.18758704824E+03  0.50400001928E-02 0. -1.
    10030    2    1    2    0    0  0.00000000000E+00  0.00000000000E+00  0.45485478188E+03  0.83002887830E+03  0.69430185526E+03 0.  0.
        2    1    3    3  502    0  0.13446725299E+02 -0.23543774377E+03  0.53198817855E+03  0.58191336790E+03  0.25500000920E-02 0.  1.
       -2    1    3    3    0  502 -0.13446725299E+02  0.23543774377E+03 -0.77133396676E+02  0.24811551040E+03  0.25500000920E-02 0. -1.
</event>
<event>
 5   0  0.3717372E-02  0.6907641E+03  0.7818609E-02  0.9733158E-01
       -1   -1    0    0    0  501  0.00000000000E+00  0.00000000000E+00  0.12733964770E+03  0.12733964779E+03  0.50400001928E-02 0.  1.
        1   -1    0    0  501    0  0.00000000000E+00  0.00000000000E+00 -0.93677637781E+03  0.93677637782E+03  0.50400001928E-02 0. -1.
    10030    2    1    2    0    0  0.00000000000E+00  0.00000000000E+00 -0.80943673011E+03  0.10641160256E+04  0.69076413914E+03 0.  0.
        3    1    3    3  502    0  0.21199143885E+03  0.12415272041E+03 -0.30742146308E+02  0.24758707133E+03  0.10100000352E+00 0.  1.
       -3    1    3    3    0  502 -0.21199143885E+03 -0.12415272041E+03 -0.77869458380E+03  0.81652895428E+03  0.10100000352E+00 0. -1.
</event>
<event>
 5   0  0.6131198E-02  0.6260407E+03  0.7818609E-02  0.9852806E-01
        2   -1    0    0  501    0  0.00000000000E+00  0.00000000000E+00  0.35678441664E+03  0.35678441665E+03  0.25500000920E-02 0.  1.
       -2   -1    0    0    0  501  0.00000000000E+00  0.00000000000E+00 -0.27462449350E+03  0.27462449351E+03  0.25500000920E-02 0. -1.
    10030    2    1    2    0    0  0.00000000000E+00  0.00000000000E+00  0.82159923134E+02  0.63140891016E+03  0.62604070064E+03 0.  0.
        1    1    3    3  502    0 -0.37559579417E+02  0.99898714328E+02 -0.25570724653E+03  0.27708603552E+03  0.50400001928E-02 0. -1.
       -1    1    3    3    0  502  0.37559579417E+02 -0.99898714328E+02  0.33786716966E+03  0.35432287464E+03  0.50400001928E-02 0.  1.
</event>
<event>
 5   0  0.6248886E-02  0.6958035E+03  0.7818609E-02  0.9724436E-01
       -2   -1    0    0    0  501  0.00000000000E+00  0.00000000000E+00  0.62575622330E+02  0.62575622382E+02  0.25500000920E-02 0.  1.
        2   -1    0    0  501    0  0.00000000000E+00  0.00000000000E+00 -0.19342297816E+04  0.19342297816E+04  0.25500000920E-02 0. -1.
    10030    2    1    2    0    0  0.00000000000E+00  0.00000000000E+00 -0.18716541592E+04  0.19968054039E+04  0.69580351354E+03 0.  0.
        3    1    3    3  502    0 -0.74795028986E+02 -0.22096069261E+03 -0.19512436382E+03  0.30412407270E+03  0.10100000352E+00 0.  1.
       -3    1    3    3    0  502  0.74795028986E+02  0.22096069261E+03 -0.16765297954E+04  0.16926813312E+04  0.10100000352E+00 0. -1.
</event>
<event>
 5   0  0.3717372E-02  0.7119852E+03  0.7818609E-02  0.9696953E-01
       -1   -1    0    0    0  501  0.00000000000E+00  0.00000000000E+00  0.23847754249E+03  0.23847754254E+03  0.50400001928E-02 0.  1.
        1   -1    0    0  501    0  0.00000000000E+00  0.00000000000E+00 -0.53141572304E+03  0.53141572307E+03  0.50400001928E-02 0. -1.
    10030    2    1    2    0    0  0.00000000000E+00  0.00000000000E+00 -0.29293818056E+03  0.76989326561E+03  0.71198515631E+03 0.  0.
        3    1    3    3  502    0  0.15317075416E+03  0.20758396456E+03 -0.41173388950E+03  0.48587775030E+03  0.10100000352E+00 0. -1.
       -3    1    3    3    0  502 -0.15317075416E+03 -0.20758396456E+03  0.11879570894E+03  0.28401551531E+03  0.10100000352E+00 0.  1.
</event>
<event>
 5   0  0.5987810E-02  0.6735280E+03  0.7818609E-02  0.9763605E-01
       -2   -1    0    0    0  501  0.00000000000E+00  0.00000000000E+00  0.86976758524E+02  0.86976758562E+02  0.25500000920E-02 0. -1.
        2   -1    0    0  501    0  0.00000000000E+00  0.00000000000E+00 -0.13039116375E+04  0.13039116375E+04  0.25500000920E-02 0.  1.
    10030    2    1    2    0    0  0.00000000000E+00  0.00000000000E+00 -0.12169348790E+04  0.13908883961E+04  0.67352804741E+03 0.  0.
        5    1    3    3  502    0 -0.20148869104E+03 -0.26235106633E+03 -0.47847991484E+03  0.58171375566E+03  0.46999998093E+01 0.  1.
       -5    1    3    3    0  502  0.20148869104E+03  0.26235106633E+03 -0.73845496417E+03  0.80917464043E+03  0.46999998093E+01 0. -1.
</event>
<event>
 5   0  0.3755872E-02  0.6913433E+03  0.7818609E-02  0.9732152E-01
        1   -1    0    0  501    0  0.00000000000E+00  0.00000000000E+00  0.24861439450E+03  0.24861439455E+03  0.50400001928E-02 0.  1.
       -1   -1    0    0    0  501  0.00000000000E+00  0.00000000000E+00 -0.48061936927E+03  0.48061936930E+03  0.50400001928E-02 0. -1.
    10030    2    1    2    0    0  0.00000000000E+00  0.00000000000E+00 -0.23200497478E+03  0.72923376385E+03  0.69134331125E+03 0.  0.
        2    1    3    3  502    0  0.31173555236E+03  0.14832788812E+03 -0.13453459385E+03  0.37051285261E+03  0.25500000920E-02 0.  1.
       -2    1    3    3    0  502 -0.31173555236E+03 -0.14832788812E+03 -0.97470380932E+02  0.35872091124E+03  0.25500000920E-02 0. -1.
</event>
<event>
 5   0  0.3755872E-02  0.6945462E+03  0.7818609E-02  0.9726605E-01
        1   -1    0    0  501    0  0.00000000000E+00  0.00000000000E+00  0.29976236146E+03  0.29976236151E+03  0.50400001928E-02 0. -1.
       -1   -1    0    0    0  501  0.00000000000E+00  0.00000000000E+00 -0.40231402168E+03  0.40231402171E+03  0.50400001928E-02 0.  1.
    10030    2    1    2    0    0  0.00000000000E+00  0.00000000000E+00 -0.10255166022E+03  0.70207638322E+03  0.69454618627E+03 0.  0.
        2    1    3    3  502    0 -0.15405756009E+03  0.29018629032E+03  0.62446292468E+02  0.33442690436E+03  0.25500000920E-02 0. -1.
       -2    1    3    3    0  502  0.15405756009E+03 -0.29018629032E+03 -0.16499795269E+03  0.36764947886E+03  0.25500000920E-02 0.  1.
</event>
<event>
 5   0  0.3439015E-02  0.6909376E+03  0.7818609E-02  0.9732857E-01
       -1   -1    0    0    0  501  0.00000000000E+00  0.00000000000E+00  0.15832063753E+03  0.15832063761E+03  0.50400001928E-02 0.  1.
        1   -1    0    0  501    0  0.00000000000E+00  0.00000000000E+00 -0.75384174272E+03  0.75384174274E+03  0.50400001928E-02 0. -1.
    10030    2    1    2    0    0  0.00000000000E+00  0.00000000000E+00 -0.59552110519E+03  0.91216238034E+03  0.69093763929E+03 0.  0.
        1    1    3    3  502    0  0.12200763125E+03  0.19266924252E+03  0.44829221558E+02  0.23241548620E+03  0.50400001928E-02 0.  1.
       -1    1    3    3    0  502 -0.12200763125E+03 -0.19266924252E+03 -0.64035032675E+03  0.67974689414E+03  0.50400001928E-02 0. -1.
</event>
<event>
 5   0  0.3717372E-02  0.7227809E+03  0.7818609E-02  0.9679048E-01
       -1   -1    0    0    0  501  0.00000000000E+00  0.00000000000E+00  0.34652428499E+03  0.34652428503E+03  0.50400001928E-02 0. -1.
        1   -1    0    0  501    0  0.00000000000E+00  0.00000000000E+00 -0.37689434730E+03  0.37689434734E+03  0.50400001928E-02 0.  1.
    10030    2    1    2    0    0  0.00000000000E+00  0.00000000000E+00 -0.30370062309E+02  0.72341863237E+03  0.72278086373E+03 0.  0.
        3    1    3    3  502    0 -0.78838247064E+02  0.12626039756E+03  0.31441676285E+03  0.34787220089E+03  0.10100000352E+00 0. -1.
       -3    1    3    3    0  502  0.78838247064E+02 -0.12626039756E+03 -0.34478682516E+03  0.37554643148E+03  0.10100000352E+00 0.  1.
</event>
<event>
 5   0  0.5987810E-02  0.7046622E+03  0.7818609E-02  0.9709292E-01
        2   -1    0    0  501    0  0.00000000000E+00  0.00000000000E+00  0.76410928954E+03  0.76410928954E+03  0.25500000920E-02 0. -1.
       -2   -1    0    0    0  501  0.00000000000E+00  0.00000000000E+00 -0.16246001667E+03  0.16246001669E+03  0.25500000920E-02 0.  1.
    10030    2    1    2    0    0  0.00000000000E+00  0.00000000000E+00  0.60164927287E+03  0.92656930623E+03  0.70466221106E+03 0.  0.
        5    1    3    3  502    0  0.22051990705E+03  0.27008099799E+03  0.23452456403E+03  0.42023402529E+03  0.46999998093E+01 0.  1.
       -5    1    3    3    0  502 -0.22051990705E+03 -0.27008099799E+03  0.36712470884E+03  0.50633528093E+03  0.46999998093E+01 0. -1.
</event>
<event>
 5   0  0.6167756E-02  0.7078065E+03  0.7818609E-02  0.9703974E-01
       -2   -1    0    0    0  501  0.00000000000E+00  0.00000000000E+00  0.61381584446E+02  0.61381584499E+02  0.25500000920E-02 0. -1.
        2   -1    0    0  501    0  0.00000000000E+00  0.00000000000E+00 -0.20404737895E+04  0.20404737895E+04  0.25500000920E-02 0.  1.
    10030    2    1    2    0    0  0.00000000000E+00  0.00000000000E+00 -0.19790922050E+04  0.21018553740E+04  0.70780651107E+03 0.  0.
        4    1    3    3  502    0 -0.20018141243E+03  0.21321421544E+03 -0.15813184044E+04  0.16081363153E+04  0.12699999809E+01 0.  1.
       -4    1    3    3    0  502  0.20018141243E+03 -0.21321421544E+03 -0.39777380063E+03  0.49371905869E+03  0.12699999809E+01 0. -1.
</event>
<event>
 5   0  0.3601475E-02  0.6996615E+03  0.7818609E-02  0.9717811E-01
        1   -1    0    0  501    0  0.00000000000E+00  0.00000000000E+00  0.58160823601E+03  0.58160823603E+03  0.50400001928E-02 0. -1.
       -1   -1    0    0    0  501  0.00000000000E+00  0.00000000000E+00 -0.21041921914E+03  0.21041921920E+03  0.50400001928E-02 0.  1.
    10030    2    1    2    0    0  0.00000000000E+00  0.00000000000E+00  0.37118901687E+03  0.79202745523E+03  0.69966149215E+03 0.  0.
        5    1    3    3  502    0 -0.54175693964E+02  0.24685874835E+03 -0.88168840000E+02  0.26771268516E+03  0.46999998093E+01 0.  1.
       -5    1    3    3    0  502  0.54175693964E+02 -0.24685874835E+03  0.45935785687E+03  0.52431477007E+03  0.46999998093E+01 0. -1.
</event>
<event>
 5   0  0.3601475E-02  0.6849174E+03  0.7818609E-02  0.9743379E-01
       -1   -1    0    0    0  501  0.00000000000E+00  0.00000000000E+00  0.54599911950E+02  0.54599912183E+02  0.50400001928E-02 0. -1.
        1   -1    0    0  501    0  0.00000000000E+00  0.00000000000E+00 -0.21479515767E+04  0.21479515767E+04  0.50400001928E-02 0.  1.
    10030    2    1    2    0    0  0.00000000000E+00  0.00000000000E+00 -0.20933516648E+04  0.22025514889E+04  0.68491741758E+03 0.  0.
        5    1    3    3  502    0 -0.18616550085E+03  0.54850250892E+02 -0.13944796004E+03  0.23902712667E+03  0.46999998093E+01 0. -1.
       -5    1    3    3    0  502  0.18616550085E+03 -0.54850250892E+02 -0.19539037047E+04  0.19635243622E+04  0.46999998093E+01 0.  1.
</event>
<event>
 5   0  0.6131198E-02  0.7098067E+03  0.7818609E-02  0.9700607E-01
       -2   -1    0    0    0  501  0.00000000000E+00  0.00000000000E+00  0.14417523340E+03  0.14417523343E+03  0.25500000920E-02 0.  1.
        2   -1    0    0  501    0  0.00000000000E+00  0.00000000000E+00 -0.87363393607E+03  0.87363393608E+03  0.25500000920E-02 0. -1.
    10030    2    1    2    0    0  0.00000000000E+00  0.00000000000E+00 -0.72945870267E+03  0.10178091695E+04  0.70980666849E+03 0.  0.
        1    1    3    3  502    0  0.51935730821E+02 -0.31114281140E+02 -0.86617452725E+03  0.86828781536E+03  0.50400001928E-02 0. -1.
       -1    1    3    3    0  502 -0.51935730821E+02  0.31114281140E+02  0.13671582458E+03  0.14952135414E+03  0.50400001928E-02 0.  1.
</event>
<event>
 5   0  0.6167756E-02  0.7054643E+03  0.7818609E-02  0.9707933E-01
        2   -1    0    0  501    0  0.00000000000E+00  0.00000000000E+00  0.62283317245E+03  0.62283317246E+03  0.25500000920E-02 0.  1.
       -2   -1    0    0    0  501  0.00000000000E+00  0.00000000000E+00 -0.19976453825E+03  0.19976453827E+03  0.25500000920E-02 0. -1.
    10030    2    1    2    0    0  0.00000000000E+00  0.00000000000E+00  0.42306863420E+03  0.82259771073E+03  0.70546433251E+03 0.  0.
        4    1    3    3  502    0  0.62943366520E+02 -0.42395283281E+02  0.61319843369E+03  0.61787794864E+03  0.12699999809E+01 0.  1.
       -4    1    3    3    0  502 -0.62943366520E+02  0.42395283281E+02 -0.19012979949E+03  0.20471976209E+03  0.12699999809E+01 0. -1.
</event>
<event>
 5   0  0.6167756E-02  0.6966805E+03  0.7818609E-02  0.9722926E-01
       -2   -1    0    0    0  501  0.00000000000E+00  0.00000000000E+00  0.21872369109E+03  0.21872369111E+03  0.25500000920E-02 0.  1.
        2   -1    0    0  501    0  0.00000000000E+00  0.00000000000E+00 -0.55476818915E+03  0.55476818915E+03  0.25500000920E-02 0. -1.
    10030    2    1    2    0    0  0.00000000000E+00  0.00000000000E+00 -0.33604449805E+03  0.77349188026E+03  0.69668054671E+03 0.  0.
        4    1    3    3  502    0 -0.21916638929E+03  0.62426360403E+02 -0.46052369548E+03  0.51382355304E+03  0.12699999809E+01 0. -1.
       -4    1    3    3    0  502  0.21916638929E+03 -0.62426360403E+02  0.12447919742E+03  0.25966832722E+03  0.12699999809E+01 0.  1.
</event>
<event>
 5   0  0.3749730E-02  0.6963966E+03  0.7818609E-02  0.9723414E-01
       -1   -1    0    0    0  501  0.00000000000E+00  0.00000000000E+00  0.14596150858E+03  0.14596150866E+03  0.50400001928E-02 0.  1.
        1   -1    0    0  501    0  0.00000000000E+00  0.00000000000E+00 -0.83064398067E+03  0.83064398068E+03  0.50400001928E-02 0. -1.
    10030    2    1    2    0    0  0.00000000000E+00  0.00000000000E+00 -0.68468247209E+03  0.97660548934E+03  0.69639657828E+03 0.  0.
        4    1    3    3  502    0 -0.92106195614E+02  0.32085758371E+03 -0.48122042128E+03  0.58566871784E+03  0.12699999809E+01 0. -1.
       -4    1    3    3    0  502  0.92106195614E+02 -0.32085758371E+03 -0.20346205080E+03  0.39093677150E+03  0.12699999809E+01 0.  1.
</event>
<event>
 5   0  0.3717372E-02  0.6916812E+03  0.7818609E-02  0.9731565E-01
       -1   -1    0    0    0  501  0.00000000000E+00  0.00000000000E+00  0.13764766693E+04  0.13764766693E+04  0.50400001928E-02 0.  1.
        1   -1    0    0  501    0  0.00000000000E+00  0.00000000000E+00 -0.86892671248E+02  0.86892671394E+02  0.50400001928E-02 0. -1.
    10030    2    1    2    0    0  0.00000000000E+00  0.00000000000E+00  0.12895839981E+04  0.14633693407E+04  0.69168124109E+03 0.  0.
        3    1    3    3  502    0 -0.13130200553E+03 -0.33353662197E+02  0.13180042220E+04  0.13249482340E+04  0.10100000352E+00 0.  1.
       -3    1    3    3    0  502  0.13130200553E+03  0.33353662197E+02 -0.28420223966E+02  0.13842110666E+03  0.10100000352E+00 0. -1.
</event>
<event>
 5   0  0.3439015E-02  0.6883970E+03  0.7818609E-02  0.9737283E-01
       -1   -1    0    0    0  501  0.00000000000E+00  0.00000000000E+00  0.25341657179E+03  0.25341657184E+03  0.50400001928E-02 0.  1.
        1   -1    0    0  501    0  0.00000000000E+00  0.00000000000E+00 -0.46750146755E+03  0.46750146758E+03  0.50400001928E-02 0. -1.
    10030    2    1    2    0    0  0.00000000000E+00  0.00000000000E+00 -0.21408489576E+03  0.72091803942E+03  0.68839703440E+03 0.  0.
        1    1    3    3  502    0 -0.16396937449E+03 -0.11411331918E+03  0.18649326369E+03  0.27329021719E+03  0.50400001928E-02 0.  1.
       -1    1    3    3    0  502  0.16396937449E+03  0.11411331918E+03 -0.40057815945E+03  0.44762782223E+03  0.50400001928E-02 0. -1.
</event>
<event>
 5   0  0.6167756E-02  0.7273824E+03  0.7818609E-02  0.9671518E-01
        2   -1    0    0  501    0  0.00000000000E+00  0.00000000000E+00  0.16499877106E+04  0.16499877106E+04  0.25500000920E-02 0.  1.
       -2   -1    0    0    0  501  0.00000000000E+00  0.00000000000E+00 -0.80165014252E+02  0.80165014292E+02  0.25500000920E-02 0. -1.
    10030    2    1    2    0    0  0.00000000000E+00  0.00000000000E+00  0.15698226963E+04  0.17301527249E+04  0.72738239838E+03 0.  0.
        4    1    3    3  502    0 -0.10579185524E+03 -0.20704551603E+03  0.11971086611E+03  0.26151876932E+03  0.12699999809E+01 0. -1.
       -4    1    3    3    0  502  0.10579185524E+03  0.20704551603E+03  0.14501118302E+04  0.14686339555E+04  0.12699999809E+01 0.  1.
</event>
<event>
 5   0  0.3749730E-02  0.7448792E+03  0.7818609E-02  0.9643418E-01
       -1   -1    0    0    0  501  0.00000000000E+00  0.00000000000E+00  0.23225866910E+03  0.23225866916E+03  0.50400001928E-02 0. -1.
        1   -1    0    0  501    0  0.00000000000E+00  0.00000000000E+00 -0.59722752987E+03  0.59722752989E+03  0.50400001928E-02 0.  1.
    10030    2    1    2    0    0  0.00000000000E+00  0.00000000000E+00 -0.36496886077E+03  0.82948619905E+03  0.74487924194E+03 0.  0.
        4    1    3    3  502    0 -0.36110187379E+02 -0.36563916001E+03 -0.25034659675E+03  0.44460203820E+03  0.12699999809E+01 0.  1.
       -4    1    3    3    0  502  0.36110187379E+02  0.36563916001E+03 -0.11462226402E+03  0.38488416085E+03  0.12699999809E+01 0. -1.
</event>
<event>
 5   0  0.2439375E-02  0.7015643E+03  0.7818609E-02  0.9714561E-01
       -3   -1    0    0    0  501  0.00000000000E+00  0.00000000000E+00  0.10903810352E+04  0.10903810399E+04  0.10100000352E+00 0.  1.
        3   -1    0    0  501    0  0.00000000000E+00  0.00000000000E+00 -0.11284870303E+03  0.11284874823E+03  0.10100000352E+00 0. -1.
    10030    2    1    2    0    0  0.00000000000E+00  0.00000000000E+00  0.97753233221E+03  0.12032297881E+04  0.70156429681E+03 0.  0.
        3    1    3    3  502    0  0.25250167017E+03  0.17409050974E+03  0.78074848837E+03  0.83882823707E+03  0.10100000352E+00 0.  1.
       -3    1    3    3    0  502 -0.25250167017E+03 -0.17409050974E+03  0.19678384384E+03  0.36440155107E+03  0.10100000352E+00 0. -1.
</event>
<event>
 5   0  0.6131198E-02  0.7186251E+03  0.7818609E-02  0.9685900E-01
       -2   -1    0    0    0  501  0.00000000000E+00  0.00000000000E+00  0.12679973087E+03  0.12679973089E+03  0.25500000920E-02 0.  1.
        2   -1    0    0  501    0  0.00000000000E+00  0.00000000000E+00 -0.10181843838E+04  0.10181843838E+04  0.25500000920E-02 0. -1.
    10030    2    1    2    0    0  0.00000000000E+00  0.00000000000E+00 -0.89138465295E+03  0.11449841147E+04  0.71862509241E+03 0.  0.
        1    1    3    3  502    0 -0.29440802222E+03 -0.75409464864E+02 -0.14028221287E+03  0.33472641099E+03  0.50400001928E-02 0.  1.
       -1    1    3    3    0  502  0.29440802222E+03  0.75409464864E+02 -0.75110244008E+03  0.81025770373E+03  0.50400001928E-02 0. -1.
</event>
<event>
 5   0  0.3717372E-02  0.6935691E+03  0.7818609E-02  0.9728294E-01
       -1   -1    0    0    0  501  0.00000000000E+00  0.00000000000E+00  0.13924721743E+03  0.13924721752E+03  0.50400001928E-02 0.  1.
        1   -1    0    0  501    0  0.00000000000E+00  0.00000000000E+00 -0.86364042746E+03  0.86364042747E+03  0.50400001928E-02 0. -1.
    10030    2    1    2    0    0  0.00000000000E+00  0.00000000000E+00 -0.72439321002E+03  0.10028876450E+04  0.69356910669E+03 0.  0.
        3    1    3    3  502    0 -0.13893812415E+03  0.31209526191E+03 -0.44837829350E+03  0.56369349750E+03  0.10100000352E+00 0. -1.
       -3    1    3    3    0  502  0.13893812415E+03 -0.31209526191E+03 -0.27601491652E+03  0.43919414749E+03  0.10100000352E+00 0.  1.
</event>
<event>
 5   0  0.6248886E-02  0.4602282E+03  0.7818609E-02  0.1024715E+00
       -2   -1    0    0    0  501  0.00000000000E+00  0.00000000000E+00  0.12556531992E+03  0.12556531994E+03  0.25500000920E-02 0.  1.
        2   -1    0    0  501    0  0.00000000000E+00  0.00000000000E+00 -0.42171280765E+03  0.42171280765E+03  0.25500000920E-02 0. -1.
    10030    2    1    2    0    0  0.00000000000E+00  0.00000000000E+00 -0.29614748773E+03  0.54727812760E+03  0.46022821997E+03 0.  0.
        3    1    3    3  502    0 -0.19103517269E+03 -0.18325956188E+02  0.29159164672E+01  0.19193433941E+03  0.10100000352E+00 0.  1.
       -3    1    3    3    0  502  0.19103517269E+03  0.18325956188E+02 -0.29906340419E+03  0.35534378819E+03  0.10100000352E+00 0. -1.
</event>
<event>
 5   0  0.6131198E-02  0.7916798E+03  0.7818609E-02  0.9572139E-01
        2   -1    0    0  501    0  0.00000000000E+00  0.00000000000E+00  0.14584083763E+04  0.14584083764E+04  0.25500000920E-02 0.  1.
       -2   -1    0    0    0  501  0.00000000000E+00  0.00000000000E+00 -0.10743852524E+03  0.10743852527E+03  0.25500000920E-02 0. -1.
    10030    2    1    2    0    0  0.00000000000E+00  0.00000000000E+00  0.13509698511E+04  0.15658469016E+04  0.79167984735E+03 0.  0.
        1    1    3    3  502    0 -0.94107731097E+02  0.11784256613E+02 -0.84633565467E+02  0.12711402041E+03  0.50400001928E-02 0. -1.
       -1    1    3    3    0  502  0.94107731097E+02 -0.11784256613E+02  0.14356034166E+04  0.14387328812E+04  0.50400001928E-02 0.  1.
</event>
<event>
 5   0  0.3601475E-02  0.7016242E+03  0.7818609E-02  0.9714459E-01
        1   -1    0    0  501    0  0.00000000000E+00  0.00000000000E+00  0.25210179091E+03  0.25210179096E+03  0.50400001928E-02 0.  1.
       -1   -1    0    0    0  501  0.00000000000E+00  0.00000000000E+00 -0.48817237671E+03  0.48817237673E+03  0.50400001928E-02 0. -1.
    10030    2    1    2    0    0  0.00000000000E+00  0.00000000000E+00 -0.23607058580E+03  0.74027416769E+03  0.70162420275E+03 0.  0.
        5    1    3    3  502    0 -0.34297019232E+03  0.54810980004E+02 -0.16987692007E+03  0.38666917943E+03  0.46999998093E+01 0.  1.
       -5    1    3    3    0  502  0.34297019232E+03 -0.54810980004E+02 -0.66193665722E+02  0.35360498827E+03  0.46999998093E+01 0. -1.
</event>
<event>
 5   0  0.3755872E-02  0.6618458E+03  0.7818609E-02  0.9784802E-01
       -1   -1    0    0    0  501  0.00000000000E+00  0.00000000000E+00  0.22977934721E+03  0.22977934727E+03  0.50400001928E-02 0. -1.
        1   -1    0    0  501    0  0.00000000000E+00  0.00000000000E+00 -0.47658757450E+03  0.47658757452E+03  0.50400001928E-02 0.  1.
    10030    2    1    2    0    0  0.00000000000E+00  0.00000000000E+00 -0.24680822728E+03  0.70636692179E+03  0.66184584848E+03 0.  0.
        2    1    3    3  502    0 -0.30280588071E+03 -0.13017920244E+03 -0.15491935963E+03  0.36419504957E+03  0.25500000920E-02 0.  1.
       -2    1    3    3    0  502  0.30280588071E+03  0.13017920244E+03 -0.91888867659E+02  0.34217187223E+03  0.25500000920E-02 0. -1.
</event>
<event>
 5   0  0.5899787E-02  0.5905267E+03  0.7818609E-02  0.9925257E-01
        2   -1    0    0  501    0  0.00000000000E+00  0.00000000000E+00  0.31789448500E+03  0.31789448501E+03  0.25500000920E-02 0.  1.
       -2   -1    0    0    0  501  0.00000000000E+00  0.00000000000E+00 -0.27424335540E+03  0.27424335542E+03  0.25500000920E-02 0. -1.
    10030    2    1    2    0    0  0.00000000000E+00  0.00000000000E+00  0.43651129597E+02  0.59213784043E+03  0.59052671485E+03 0.  0.
        2    1    3    3  502    0  0.18165897595E+03  0.22788894887E+03 -0.25707285149E+02  0.29256490062E+03  0.25500000920E-02 0.  1.
       -2    1    3    3    0  502 -0.18165897595E+03 -0.22788894887E+03  0.69358414747E+02  0.29957293980E+03  0.25500000920E-02 0. -1.
</event>
<event>
 5   0  0.5899787E-02  0.6675238E+03  0.7818609E-02  0.9774442E-01
       -2   -1    0    0    0  501  0.00000000000E+00  0.00000000000E+00  0.24060132354E+03  0.24060132356E+03  0.25500000920E-02 0.  1.
        2   -1    0    0  501    0  0.00000000000E+00  0.00000000000E+00 -0.46299413104E+03  0.46299413104E+03  0.25500000920E-02 0. -1.
    10030    2    1    2    0    0  0.00000000000E+00  0.00000000000E+00 -0.22239280749E+03  0.70359545460E+03  0.66752378453E+03 0.  0.
        2    1    3    3  502    0 -0.19590900504E+02  0.28548110573E+03 -0.29227552228E+03  0.40903330676E+03  0.25500000920E-02 0. -1.
       -2    1    3    3    0  502  0.19590900504E+02 -0.28548110573E+03  0.69882714783E+02  0.29456214784E+03  0.25500000920E-02 0.  1.
</event>
<event>
 5   0  0.3439015E-02  0.4443696E+03  0.7818609E-02  0.1029414E+00
        1   -1    0    0  501    0  0.00000000000E+00  0.00000000000E+00  0.81069250963E+02  0.81069251120E+02  0.50400001928E-02 0.  1.
       -1   -1    0    0    0  501  0.00000000000E+00  0.00000000000E+00 -0.60893730521E+03  0.60893730523E+03  0.50400001928E-02 0. -1.
    10030    2    1    2    0    0  0.00000000000E+00  0.00000000000E+00 -0.52786805425E+03  0.69000655635E+03  0.44436962668E+03 0.  0.
        1    1    3    3  502    0 -0.25031088853E+01 -0.22156402205E+03 -0.28941138050E+03  0.36449393494E+03  0.50400001928E-02 0.  1.
       -1    1    3    3    0  502  0.25031088853E+01  0.22156402205E+03 -0.23845667375E+03  0.32551262142E+03  0.50400001928E-02 0. -1.
</event>
<event>
 5   0  0.3755872E-02  0.7023827E+03  0.7818609E-02  0.9713166E-01
       -1   -1    0    0    0  501  0.00000000000E+00  0.00000000000E+00  0.29557521871E+03  0.29557521876E+03  0.50400001928E-02 0. -1.
        1   -1    0    0  501    0  0.00000000000E+00  0.00000000000E+00 -0.41727238717E+03  0.41727238720E+03  0.50400001928E-02 0.  1.
    10030    2    1    2    0    0  0.00000000000E+00  0.00000000000E+00 -0.12169716846E+03  0.71284760596E+03  0.70238273649E+03 0.  0.
        2    1    3    3  502    0 -0.14351454468E+03 -0.11582612954E+03 -0.36417144957E+03  0.40820700816E+03  0.25500000920E-02 0.  1.
       -2    1    3    3    0  502  0.14351454468E+03  0.11582612954E+03  0.24247428112E+03  0.30464059780E+03  0.25500000920E-02 0. -1.
</event>
<event>
 5   0  0.6131198E-02  0.6837972E+03  0.7818609E-02  0.9745349E-01
        2   -1    0    0  501    0  0.00000000000E+00  0.00000000000E+00  0.20284491178E+03  0.20284491180E+03  0.25500000920E-02 0.  1.
       -2   -1    0    0    0  501  0.00000000000E+00  0.00000000000E+00 -0.57627598933E+03  0.57627598933E+03  0.25500000920E-02 0. -1.
    10030    2    1    2    0    0  0.00000000000E+00  0.00000000000E+00 -0.37343107755E+03  0.77912090113E+03  0.68379719866E+03 0.  0.
        1    1    3    3  502    0 -0.26569451171E+03  0.20104683664E+03 -0.99335488764E+02  0.34767936872E+03  0.50400001928E-02 0.  1.
       -1    1    3    3    0  502  0.26569451171E+03 -0.20104683664E+03 -0.27409558878E+03  0.43144153242E+03  0.50400001928E-02 0. -1.
</event>
<event>
 5   0  0.3749730E-02  0.6878629E+03  0.7818609E-02  0.9738216E-01
        1   -1    0    0  501    0  0.00000000000E+00  0.00000000000E+00  0.22284606264E+03  0.22284606269E+03  0.50400001928E-02 0. -1.
       -1   -1    0    0    0  501  0.00000000000E+00  0.00000000000E+00 -0.53080967766E+03  0.53080967768E+03  0.50400001928E-02 0.  1.
    10030    2    1    2    0    0  0.00000000000E+00  0.00000000000E+00 -0.30796361502E+03  0.75365574037E+03  0.68786291281E+03 0.  0.
        4    1    3    3  502    0  0.26203545096E+02 -0.18660481624E+03  0.16125132826E+03  0.24801529587E+03  0.12699999809E+01 0. -1.
       -4    1    3    3    0  502 -0.26203545096E+02  0.18660481624E+03 -0.46921494328E+03  0.50564044451E+03  0.12699999809E+01 0.  1.
</event>
<event>
 5   0  0.6131198E-02  0.7408198E+03  0.7818609E-02  0.9649864E-01
        2   -1    0    0  501    0  0.00000000000E+00  0.00000000000E+00  0.13556644808E+04  0.13556644808E+04  0.25500000920E-02 0.  1.
       -2   -1    0    0    0  501  0.00000000000E+00  0.00000000000E+00 -0.10120755904E+03  0.10120755907E+03  0.25500000920E-02 0. -1.
    10030    2    1    2    0    0  0.00000000000E+00  0.00000000000E+00  0.12544569218E+04  0.14568720399E+04  0.74081979727E+03 0.  0.
        1    1    3    3  502    0 -0.27139235283E+03  0.17215698861E+03  0.98937415176E+03  0.10402658555E+04  0.50400001928E-02 0.  1.
       -1    1    3    3    0  502  0.27139235283E+03 -0.17215698861E+03  0.26508277005E+03  0.41660618443E+03  0.50400001928E-02 0. -1.
</event>
<event>
 5   0  0.3439015E-02  0.6916918E+03  0.7818609E-02  0.9731547E-01
       -1   -1    0    0    0  501  0.00000000000E+00  0.00000000000E+00  0.44450235357E+03  0.44450235359E+03  0.50400001928E-02 0.  1.
        1   -1    0    0  501    0  0.00000000000E+00  0.00000000000E+00 -0.26908606186E+03  0.26908606190E+03  0.50400001928E-02 0. -1.
    10030    2    1    2    0    0  0.00000000000E+00  0.00000000000E+00  0.17541629171E+03  0.71358841550E+03  0.69169180372E+03 0.  0.
        1    1    3    3  502    0  0.31677918119E+03 -0.96027178002E+02 -0.15659105522E+02  0.33138418213E+03  0.50400001928E-02 0. -1.
       -1    1    3    3    0  502 -0.31677918119E+03  0.96027178002E+02  0.19107539723E+03  0.38220423337E+03  0.50400001928E-02 0.  1.
</event>
<event>
 5   0  0.6167756E-02  0.7102667E+03  0.7818609E-02  0.9699834E-01
       -2   -1    0    0    0  501  0.00000000000E+00  0.00000000000E+00  0.30277482458E+03  0.30277482459E+03  0.25500000920E-02 0. -1.
        2   -1    0    0  501    0  0.00000000000E+00  0.00000000000E+00 -0.41654620104E+03  0.41654620105E+03  0.25500000920E-02 0.  1.
    10030    2    1    2    0    0  0.00000000000E+00  0.00000000000E+00 -0.11377137646E+03  0.71932102565E+03  0.71026671880E+03 0.  0.
        4    1    3    3  502    0 -0.32270291785E+03  0.96448632651E+02  0.57148891204E+02  0.34162423889E+03  0.12699999809E+01 0.  1.
       -4    1    3    3    0  502  0.32270291785E+03 -0.96448632651E+02 -0.17092026766E+03  0.37769678676E+03  0.12699999809E+01 0. -1.
</event>
<event>
 5   0  0.3601475E-02  0.7175698E+03  0.7818609E-02  0.9687649E-01
        1   -1    0    0  501    0  0.00000000000E+00  0.00000000000E+00  0.53957643550E+03  0.53957643553E+03  0.50400001928E-02 0.  1.
       -1   -1    0    0    0  501  0.00000000000E+00  0.00000000000E+00 -0.23856970519E+03  0.23856970525E+03  0.50400001928E-02 0. -1.
    10030    2    1    2    0    0  0.00000000000E+00  0.00000000000E+00  0.30100673031E+03  0.77814614077E+03  0.71756976295E+03 0.  0.
        5    1    3    3  502    0 -0.11749179279E+03 -0.13955548199E+03 -0.18448279473E+03  0.25949189867E+03  0.46999998093E+01 0. -1.
       -5    1    3    3    0  502  0.11749179279E+03  0.13955548199E+03  0.48548952504E+03  0.51865424210E+03  0.46999998093E+01 0.  1.
</event>
<event>
 5   0  0.6248886E-02  0.6895211E+03  0.7818609E-02  0.9735322E-01
        2   -1    0    0  501    0  0.00000000000E+00  0.00000000000E+00  0.49168998632E+03  0.49168998633E+03  0.25500000920E-02 0.  1.
       -2   -1    0    0    0  501  0.00000000000E+00  0.00000000000E+00 -0.24173732257E+03  0.24173732258E+03  0.25500000920E-02 0. -1.
    10030    2    1    2    0    0  0.00000000000E+00  0.00000000000E+00  0.24995266375E+03  0.73342730891E+03  0.68952105359E+03 0.  0.
        3    1    3    3  502    0 -0.80214715360E+02  0.94976807495E+02 -0.21706605526E+03  0.25014531191E+03  0.10100000352E+00 0. -1.
       -3    1    3    3    0  502  0.80214715360E+02 -0.94976807495E+02  0.46701871901E+03  0.48328199700E+03  0.10100000352E+00 0.  1.
</event>
<event>
 5   0  0.5899787E-02  0.7009507E+03  0.7818609E-02  0.9715608E-01
       -2   -1    0    0    0  501  0.00000000000E+00  0.00000000000E+00  0.50151629708E+02  0.50151629773E+02  0.25500000920E-02 0.  1.
        2   -1    0    0  501    0  0.00000000000E+00  0.00000000000E+00 -0.24492317137E+04  0.24492317137E+04  0.25500000920E-02 0. -1.
    10030    2    1    2    0    0  0.00000000000E+00  0.00000000000E+00 -0.23990800840E+04  0.24993833435E+04  0.70095067461E+03 0.  0.
        2    1    3    3  502    0 -0.32428478003E+03 -0.13260344004E+03 -0.11659634465E+04  0.12174625454E+04  0.25500000920E-02 0. -1.
       -2    1    3    3    0  502  0.32428478003E+03  0.13260344004E+03 -0.12331166375E+04  0.12819207980E+04  0.25500000920E-02 0.  1.
</event>
<event>
 5   0  0.6131198E-02  0.6865088E+03  0.7818609E-02  0.9740586E-01
        2   -1    0    0  501    0  0.00000000000E+00  0.00000000000E+00  0.10220811191E+04  0.10220811191E+04  0.25500000920E-02 0.  1.
       -2   -1    0    0    0  501  0.00000000000E+00  0.00000000000E+00 -0.11527810144E+03  0.11527810147E+03  0.25500000920E-02 0. -1.
    10030    2    1    2    0    0  0.00000000000E+00  0.00000000000E+00  0.90680301770E+03  0.11373592206E+04  0.68650876455E+03 0.  0.
        1    1    3    3  502    0  0.17710801791E+03  0.27188261127E+03  0.63889725055E+03  0.71657316521E+03  0.50400001928E-02 0.  1.
       -1    1    3    3    0  502 -0.17710801791E+03 -0.27188261127E+03  0.26790576715E+03  0.42078605540E+03  0.50400001928E-02 0. -1.
</event>
<event>
 5   0  0.3755872E-02  0.7018955E+03  0.7818609E-02  0.9713996E-01
        1   -1    0    0  501    0  0.00000000000E+00  0.00000000000E+00  0.12000675741E+04  0.12000675741E+04  0.50400001928E-02 0. -1.
       -1   -1    0    0    0  501  0.00000000000E+00  0.00000000000E+00 -0.10263114760E+03  0.10263114773E+03  0.50400001928E-02 0.  1.
    10030    2    1    2    0    0  0.00000000000E+00  0.00000000000E+00  0.10974364265E+04  0.13026987218E+04  0.70189546918E+03 0.  0.
        2    1    3    3  502    0  0.13338251949E+03  0.19153975763E+03  0.10351315365E+04  0.10611200088E+04  0.25500000920E-02 0. -1.
       -2    1    3    3    0  502 -0.13338251949E+03 -0.19153975763E+03  0.62304889996E+02  0.24157871301E+03  0.25500000920E-02 0.  1.
</event>
<event>
 5   0  0.5899787E-02  0.7012946E+03  0.7818609E-02  0.9715021E-01
        2   -1    0    0  501    0  0.00000000000E+00  0.00000000000E+00  0.48063102649E+03  0.48063102649E+03  0.25500000920E-02 0.  1.
       -2   -1    0    0    0  501  0.00000000000E+00  0.00000000000E+00 -0.25581689140E+03  0.25581689142E+03  0.25500000920E-02 0. -1.
    10030    2    1    2    0    0  0.00000000000E+00  0.00000000000E+00  0.22481413509E+03  0.73644791791E+03  0.70129461745E+03 0.  0.
        2    1    3    3  502    0  0.16019021845E+03 -0.29480790351E+03  0.54130132429E+01  0.33556207589E+03  0.25500000920E-02 0. -1.
       -2    1    3    3    0  502 -0.16019021845E+03  0.29480790351E+03  0.21940112184E+03  0.40088584202E+03  0.25500000920E-02 0.  1.
</event>
<event>
 5   0  0.3717372E-02  0.7137635E+03  0.7818609E-02  0.9693980E-01
        1   -1    0    0  501    0  0.00000000000E+00  0.00000000000E+00  0.15837781103E+03  0.15837781111E+03  0.50400001928E-02 0. -1.
       -1   -1    0    0    0  501  0.00000000000E+00  0.00000000000E+00 -0.80418193423E+03  0.80418193425E+03  0.50400001928E-02 0.  1.
    10030    2    1    2    0    0  0.00000000000E+00  0.00000000000E+00 -0.64580412320E+03  0.96255974536E+03  0.71376347471E+03 0.  0.
        3    1    3    3  502    0  0.87962681546E+02 -0.33777460350E+03 -0.22256768228E+03  0.41396316202E+03  0.10100000352E+00 0. -1.
       -3    1    3    3    0  502 -0.87962681546E+02  0.33777460350E+03 -0.42323644093E+03  0.54859658333E+03  0.10100000352E+00 0.  1.
</event>
<event>
 5   0  0.3755872E-02  0.7110139E+03  0.7818609E-02  0.9698580E-01
       -1   -1    0    0    0  501  0.00000000000E+00  0.00000000000E+00  0.14381883591E+03  0.14381883600E+03  0.50400001928E-02 0.  1.
        1   -1    0    0  501    0  0.00000000000E+00  0.00000000000E+00 -0.87878059935E+03  0.87878059936E+03  0.50400001928E-02 0. -1.
    10030    2    1    2    0    0  0.00000000000E+00  0.00000000000E+00 -0.73496176343E+03  0.10225994354E+04  0.71101393200E+03 0.  0.
        2    1    3    3  502    0 -0.21971998362E+03  0.26778575088E+03 -0.25243060255E+03  0.42861088261E+03  0.25500000920E-02 0.  1.
       -2    1    3    3    0  502  0.21971998362E+03 -0.26778575088E+03 -0.48253116088E+03  0.59398855276E+03  0.25500000920E-02 0. -1.
</event>
<event>
 5   0  0.3755872E-02  0.6777190E+03  0.7818609E-02  0.9756113E-01
       -1   -1    0    0    0  501  0.00000000000E+00  0.00000000000E+00  0.32808028380E+03  0.32808028384E+03  0.50400001928E-02 0. -1.
        1   -1    0    0  501    0  0.00000000000E+00  0.00000000000E+00 -0.34999285130E+03  0.34999285134E+03  0.50400001928E-02 0.  1.
    10030    2    1    2    0    0  0.00000000000E+00  0.00000000000E+00 -0.21912567502E+02  0.67807313517E+03  0.67771898013E+03 0.  0.
        2    1    3    3  502    0  0.21693585982E+03 -0.74926853123E+02 -0.26038668747E+03  0.34709714435E+03  0.25500000920E-02 0.  1.
       -2    1    3    3    0  502 -0.21693585982E+03  0.74926853123E+02  0.23847411997E+03  0.33097599082E+03  0.25500000920E-02 0. -1.
</event>
<event>
 5   0  0.3601475E-02  0.7022737E+03  0.7818609E-02  0.9713352E-01
        1   -1    0    0  501    0  0.00000000000E+00  0.00000000000E+00  0.29853574020E+03  0.29853574024E+03  0.50400001928E-02 0. -1.
       -1   -1    0    0    0  501  0.00000000000E+00  0.00000000000E+00 -0.41300614882E+03  0.41300614885E+03  0.50400001928E-02 0.  1.
    10030    2    1    2    0    0  0.00000000000E+00  0.00000000000E+00 -0.11447040862E+03  0.71154188909E+03  0.70227372546E+03 0.  0.
        5    1    3    3  502    0  0.23526662592E+03  0.92211002169E+02  0.18974763509E+03  0.31603719593E+03  0.46999998093E+01 0. -1.
       -5    1    3    3    0  502 -0.23526662592E+03 -0.92211002169E+02 -0.30421804371E+03  0.39550469316E+03  0.46999998093E+01 0.  1.
</event>
<event>
 5   0  0.6131198E-02  0.6714032E+03  0.7818609E-02  0.9767426E-01
        2   -1    0    0  501    0  0.00000000000E+00  0.00000000000E+00  0.16618580191E+04  0.16618580191E+04  0.25500000920E-02 0. -1.
       -2   -1    0    0    0  501  0.00000000000E+00  0.00000000000E+00 -0.67813000782E+02  0.67813000830E+02  0.25500000920E-02 0.  1.
    10030    2    1    2    0    0  0.00000000000E+00  0.00000000000E+00  0.15940450183E+04  0.17296710199E+04  0.67140324453E+03 0.  0.
        1    1    3    3  502    0  0.90450474839E+02  0.19805575748E+03  0.13876253770E+03  0.25819065313E+03  0.50400001928E-02 0.  1.
       -1    1    3    3    0  502 -0.90450474839E+02 -0.19805575748E+03  0.14552824806E+04  0.14714803668E+04  0.50400001928E-02 0. -1.
</event>
<event>
 5   0  0.6167756E-02  0.6889131E+03  0.7818609E-02  0.9736382E-01
        2   -1    0    0  501    0  0.00000000000E+00  0.00000000000E+00  0.41123176329E+03  0.41123176330E+03  0.25500000920E-02 0. -1.
       -2   -1    0    0    0  501  0.00000000000E+00  0.00000000000E+00 -0.28852418695E+03  0.28852418696E+03  0.25500000920E-02 0.  1.
    10030    2    1    2    0    0  0.00000000000E+00  0.00000000000E+00  0.12270757634E+03  0.69975595025E+03  0.68891308641E+03 0.  0.
        4    1    3    3  502    0 -0.29676682832E+03 -0.15692256798E+03  0.13972682689E+03  0.36362128896E+03  0.12699999809E+01 0. -1.
       -4    1    3    3    0  502  0.29676682832E+03  0.15692256798E+03 -0.17019250545E+02  0.33613466129E+03  0.12699999809E+01 0.  1.
</event>
<event>
 5   0  0.6248886E-02  0.6945145E+03  0.7818609E-02  0.9726659E-01
       -2   -1    0    0    0  501  0.00000000000E+00  0.00000000000E+00  0.78746025862E+02  0.78746025903E+02  0.25500000920E-02 0.  1.
        2   -1    0    0  501    0  0.00000000000E+00  0.00000000000E+00 -0.15313483514E+04  0.15313483514E+04  0.25500000920E-02 0. -1.
    10030    2    1    2    0    0  0.00000000000E+00  0.00000000000E+00 -0.14526023255E+04  0.16100943773E+04  0.69451449781E+03 0.  0.
        3    1    3    3  502    0 -0.76292118333E+02  0.10454007712E+03  0.20747961780E+02  0.13107098520E+03  0.10100000352E+00 0.  1.
       -3    1    3    3    0  502  0.76292118333E+02 -0.10454007712E+03 -0.14733502873E+04  0.14790233921E+04  0.10100000352E+00 0. -1.
</event>
<event>
 5   0  0.3755872E-02  0.8082956E+03  0.7818609E-02  0.9548087E-01
        1   -1    0    0  501    0  0.00000000000E+00  0.00000000000E+00  0.13915409587E+04  0.13915409587E+04  0.50400001928E-02 0. -1.
       -1   -1    0    0    0  501  0.00000000000E+00  0.00000000000E+00 -0.11737739349E+03  0.11737739360E+03  0.50400001928E-02 0.  1.
    10030    2    1    2    0    0  0.00000000000E+00  0.00000000000E+00  0.12741635652E+04  0.15089183523E+04  0.80829561612E+03 0.  0.
        2    1    3    3  502    0  0.11436761260E+03 -0.35849771362E+03  0.91229813418E+03  0.98685786572E+03  0.25500000920E-02 0. -1.
       -2    1    3    3    0  502 -0.11436761260E+03  0.35849771362E+03  0.36186543102E+03  0.52206048659E+03  0.25500000920E-02 0.  1.
</event>
<event>
 5   0  0.2439375E-02  0.7006721E+03  0.7818609E-02  0.9716083E-01
       -4   -1    0    0    0  501  0.00000000000E+00  0.00000000000E+00  0.83389054373E+02  0.83398724745E+02  0.12699999809E+01 0. -1.
        4   -1    0    0  501    0  0.00000000000E+00  0.00000000000E+00 -0.14717447838E+04  0.14717453317E+04  0.12699999809E+01 0.  1.
    10030    2    1    2    0    0  0.00000000000E+00  0.00000000000E+00 -0.13883557294E+04  0.15551440565E+04  0.70067210949E+03 0.  0.
        4    1    3    3  502    0  0.78113658912E+01 -0.34286631600E+03 -0.53543433599E+03  0.63585365387E+03  0.12699999809E+01 0. -1.
       -4    1    3    3    0  502 -0.78113658912E+01  0.34286631600E+03 -0.85292139340E+03  0.91929040260E+03  0.12699999809E+01 0.  1.
</event>
<event>
 5   0  0.3601475E-02  0.6498806E+03  0.7818609E-02  0.9807003E-01
       -1   -1    0    0    0  501  0.00000000000E+00  0.00000000000E+00  0.29441325544E+03  0.29441325548E+03  0.50400001928E-02 0. -1.
        1   -1    0    0  501    0  0.00000000000E+00  0.00000000000E+00 -0.35863257448E+03  0.35863257451E+03  0.50400001928E-02 0.  1.
    10030    2    1    2    0    0  0.00000000000E+00  0.00000000000E+00 -0.64219319039E+02  0.65304582999E+03  0.64988055451E+03 0.  0.
        5    1    3    3  502    0 -0.18757085206E+03  0.12345113191E+03 -0.26807476318E+03  0.34972728685E+03  0.46999998093E+01 0.  1.
       -5    1    3    3    0  502  0.18757085206E+03 -0.12345113191E+03  0.20385544414E+03  0.30331854315E+03  0.46999998093E+01 0. -1.
</event>
<event>
 5   0  0.3601475E-02  0.7060353E+03  0.7818609E-02  0.9706966E-01
        1   -1    0    0  501    0  0.00000000000E+00  0.00000000000E+00  0.90849810869E+03  0.90849810871E+03  0.50400001928E-02 0.  1.
       -1   -1    0    0    0  501  0.00000000000E+00  0.00000000000E+00 -0.13717306984E+03  0.13717306993E+03  0.50400001928E-02 0. -1.
    10030    2    1    2    0    0  0.00000000000E+00  0.00000000000E+00  0.77132503885E+03  0.10456711786E+04  0.70603533784E+03 0.  0.
        5    1    3    3  502    0  0.16855989354E+03 -0.28078199693E+02  0.84310828581E+03  0.86026420047E+03  0.46999998093E+01 0.  1.
       -5    1    3    3    0  502 -0.16855989354E+03  0.28078199693E+02 -0.71783246965E+02  0.18540697817E+03  0.46999998093E+01 0. -1.
</event>
<event>
 5   0  0.3749730E-02  0.7047053E+03  0.7818609E-02  0.9709219E-01
       -1   -1    0    0    0  501  0.00000000000E+00  0.00000000000E+00  0.15461145900E+03  0.15461145908E+03  0.50400001928E-02 0. -1.
        1   -1    0    0  501    0  0.00000000000E+00  0.00000000000E+00 -0.80299607417E+03  0.80299607419E+03  0.50400001928E-02 0.  1.
    10030    2    1    2    0    0  0.00000000000E+00  0.00000000000E+00 -0.64838461517E+03  0.95760753327E+03  0.70470531330E+03 0.  0.
        4    1    3    3  502    0  0.84684075817E+02 -0.14854706796E+03  0.94450099656E+02  0.19534599643E+03  0.12699999809E+01 0. -1.
       -4    1    3    3    0  502 -0.84684075817E+02  0.14854706796E+03 -0.74283471483E+03  0.76226153684E+03  0.12699999809E+01 0.  1.
</event>
<event>
 5   0  0.3439015E-02  0.6652035E+03  0.7818609E-02  0.9778662E-01
        1   -1    0    0  501    0  0.00000000000E+00  0.00000000000E+00  0.12533127326E+03  0.12533127336E+03  0.50400001928E-02 0. -1.
       -1   -1    0    0    0  501  0.00000000000E+00  0.00000000000E+00 -0.88265214345E+03  0.88265214347E+03  0.50400001928E-02 0.  1.
    10030    2    1    2    0    0  0.00000000000E+00  0.00000000000E+00 -0.75732087019E+03  0.10079834168E+04  0.66520347878E+03 0.  0.
        1    1    3    3  502    0 -0.11672067545E+02  0.86776139702E+02 -0.86487508643E+03  0.86929583614E+03  0.50400001928E-02 0.  1.
       -1    1    3    3    0  502  0.11672067545E+02 -0.86776139702E+02  0.10755421623E+03  0.13868758069E+03  0.50400001928E-02 0. -1.
</event>
<event>
 5   0  0.6167756E-02  0.7563242E+03  0.7818609E-02  0.9625481E-01
       -2   -1    0    0    0  501  0.00000000000E+00  0.00000000000E+00  0.10761476470E+03  0.10761476473E+03  0.25500000920E-02 0.  1.
        2   -1    0    0  501    0  0.00000000000E+00  0.00000000000E+00 -0.13288749742E+04  0.13288749742E+04  0.25500000920E-02 0. -1.
    10030    2    1    2    0    0  0.00000000000E+00  0.00000000000E+00 -0.12212602095E+04  0.14364897390E+04  0.75632418365E+03 0.  0.
        4    1    3    3  502    0 -0.12605543341E+03 -0.33561728306E+03 -0.38211276730E+03  0.52396632793E+03  0.12699999809E+01 0. -1.
       -4    1    3    3    0  502  0.12605543341E+03  0.33561728306E+03 -0.83914744223E+03  0.91252341103E+03  0.12699999809E+01 0.  1.
</event>
<event>
 5   0  0.5987810E-02  0.4647615E+03  0.7818609E-02  0.1023409E+00
        2   -1    0    0  501    0  0.00000000000E+00  0.00000000000E+00  0.13249398241E+04  0.13249398241E+04  0.25500000920E-02 0. -1.
       -2   -1    0    0    0  501  0.00000000000E+00  0.00000000000E+00 -0.40757189037E+02  0.40757189117E+02  0.25500000920E-02 0.  1.
    10030    2    1    2    0    0  0.00000000000E+00  0.00000000000E+00  0.12841826351E+04  0.13656970132E+04  0.46476154286E+03 0.  0.
        5    1    3    3  502    0 -0.16352027914E+03  0.11083094738E+03  0.28272529014E+03  0.34493196470E+03  0.46999998093E+01 0.  1.
       -5    1    3    3    0  502  0.16352027914E+03 -0.11083094738E+03  0.10014573449E+04  0.10207650485E+04  0.46999998093E+01 0. -1.
</event>
<event>
 5   0  0.3601475E-02  0.6551440E+03  0.7818609E-02  0.9797174E-01
       -1   -1    0    0    0  501  0.00000000000E+00  0.00000000000E+00  0.23229424881E+03  0.23229424887E+03  0.50400001928E-02 0. -1.
        1   -1    0    0  501    0  0.00000000000E+00  0.00000000000E+00 -0.46192881141E+03  0.46192881143E+03  0.50400001928E-02 0.  1.
    10030    2    1    2    0    0  0.00000000000E+00  0.00000000000E+00 -0.22963456259E+03  0.69422306030E+03  0.65514397282E+03 0.  0.
        5    1    3    3  502    0  0.51160802322E+02 -0.25075408113E+03  0.10179303553E+03  0.27546133844E+03  0.46999998093E+01 0. -1.
       -5    1    3    3    0  502 -0.51160802322E+02  0.25075408113E+03 -0.33142759813E+03  0.41876172186E+03  0.46999998093E+01 0.  1.
</event>
<event>
 5   0  0.6131198E-02  0.7079295E+03  0.7818609E-02  0.9703767E-01
        2   -1    0    0  501    0  0.00000000000E+00  0.00000000000E+00  0.57207494713E+03  0.57207494713E+03  0.25500000920E-02 0. -1.
       -2   -1    0    0    0  501  0.00000000000E+00  0.00000000000E+00 -0.21901160764E+03  0.21901160766E+03  0.25500000920E-02 0.  1.
    10030    2    1    2    0    0  0.00000000000E+00  0.00000000000E+00  0.35306333949E+03  0.79108655479E+03  0.70792952720E+03 0.  0.
        1    1    3    3  502    0 -0.43343400297E+02  0.56147371734E+02 -0.21098853657E+03  0.22259231858E+03  0.50400001928E-02 0.  1.
       -1    1    3    3    0  502  0.43343400297E+02 -0.56147371734E+02  0.56405187605E+03  0.56849423621E+03  0.50400001928E-02 0. -1.
</event>
<event>
 5   0  0.5899787E-02  0.6932497E+03  0.7818609E-02  0.9728846E-01
        2   -1    0    0  501    0  0.00000000000E+00  0.00000000000E+00  0.49798866168E+03  0.49798866169E+03  0.25500000920E-02 0.  1.
       -2   -1    0    0    0  501  0.00000000000E+00  0.00000000000E+00 -0.24126814691E+03  0.24126814692E+03  0.25500000920E-02 0. -1.
    10030    2    1    2    0    0  0.00000000000E+00  0.00000000000E+00  0.25672051478E+03  0.73925680861E+03  0.69324974315E+03 0.  0.
        2    1    3    3  502    0  0.87063661183E+02 -0.32106538792E+03  0.23221854536E+03  0.40569510378E+03  0.25500000920E-02 0. -1.
       -2    1    3    3    0  502 -0.87063661183E+02  0.32106538792E+03  0.24501969418E+02  0.33356170483E+03  0.25500000920E-02 0.  1.
</event>
<event>
 5   0  0.5899787E-02  0.6954431E+03  0.7818609E-02  0.9725057E-01
        2   -1    0    0  501    0  0.00000000000E+00  0.00000000000E+00  0.41166884436E+03  0.41166884436E+03  0.25500000920E-02 0.  1.
       -2   -1    0    0    0  501  0.00000000000E+00  0.00000000000E+00 -0.29370763272E+03  0.29370763273E+03  0.25500000920E-02 0. -1.
    10030    2    1    2    0    0  0.00000000000E+00  0.00000000000E+00  0.11796121164E+03  0.70537647709E+03  0.69544311556E+03 0.  0.
        2    1    3    3  502    0 -0.51914689567E+02 -0.29830287720E+03 -0.11443084880E+03  0.32368836973E+03  0.25500000920E-02 0. -1.
       -2    1    3    3    0  502  0.51914689567E+02  0.29830287720E+03  0.23239206043E+03  0.38168810736E+03  0.25500000920E-02 0.  1.
</event>
<event>
 5   0  0.3749730E-02  0.7261182E+03  0.7818609E-02  0.9673580E-01
       -1   -1    0    0    0  501  0.00000000000E+00  0.00000000000E+00  0.18834821359E+04  0.18834821359E+04  0.50400001928E-02 0. -1.
        1   -1    0    0  501    0  0.00000000000E+00  0.00000000000E+00 -0.69983104145E+02  0.69983104326E+02  0.50400001928E-02 0.  1.
    10030    2    1    2    0    0  0.00000000000E+00  0.00000000000E+00  0.18134990317E+04  0.19534652402E+04  0.72611824562E+03 0.  0.
        4    1    3    3  502    0 -0.17349676178E+03 -0.83492528980E+02  0.78691304264E+02  0.20800495910E+03  0.12699999809E+01 0.  1.
       -4    1    3    3    0  502  0.17349676178E+03  0.83492528980E+02  0.17348077275E+04  0.17454602811E+04  0.12699999809E+01 0. -1.
</event>
<event>
 5   0  0.3439015E-02  0.7021810E+03  0.7818609E-02  0.9713510E-01
       -1   -1    0    0    0  501  0.00000000000E+00  0.00000000000E+00  0.24799430131E+03  0.24799430136E+03  0.50400001928E-02 0. -1.
        1   -1    0    0  501    0  0.00000000000E+00  0.00000000000E+00 -0.49704580235E+03  0.49704580238E+03  0.50400001928E-02 0.  1.
    10030    2    1    2    0    0  0.00000000000E+00  0.00000000000E+00 -0.24905150104E+03  0.74504010374E+03  0.70218096386E+03 0.  0.
        1    1    3    3  502    0  0.15952610144E+03 -0.27593889921E+03  0.31679943440E+02  0.32030371834E+03  0.50400001928E-02 0. -1.
       -1    1    3    3    0  502 -0.15952610144E+03  0.27593889921E+03 -0.28073144448E+03  0.42473638540E+03  0.50400001928E-02 0.  1.
</event>
<event>
 5   0  0.5987810E-02  0.6988527E+03  0.7818609E-02  0.9719196E-01
        2   -1    0    0  501    0  0.00000000000E+00  0.00000000000E+00  0.14893562365E+04  0.14893562365E+04  0.25500000920E-02 0.  1.
       -2   -1    0    0    0  501  0.00000000000E+00  0.00000000000E+00 -0.81980895843E+02  0.81980895883E+02  0.25500000920E-02 0. -1.
    10030    2    1    2    0    0  0.00000000000E+00  0.00000000000E+00  0.14073753407E+04  0.15713371324E+04  0.69885265552E+03 0.  0.
        5    1    3    3  502    0 -0.50800856427E+02  0.32624365527E+03  0.44672367098E+03  0.55551757653E+03  0.46999998093E+01 0. -1.
       -5    1    3    3    0  502  0.50800856427E+02 -0.32624365527E+03  0.96065166969E+03  0.10158195559E+04  0.46999998093E+01 0.  1.
</event>
<event>
 5   0  0.3601475E-02  0.7340163E+03  0.7818609E-02  0.9660765E-01
       -1   -1    0    0    0  501  0.00000000000E+00  0.00000000000E+00  0.38651430647E+03  0.38651430651E+03  0.50400001928E-02 0. -1.
        1   -1    0    0  501    0  0.00000000000E+00  0.00000000000E+00 -0.34848642135E+03  0.34848642139E+03  0.50400001928E-02 0.  1.
    10030    2    1    2    0    0  0.00000000000E+00  0.00000000000E+00  0.38027885124E+02  0.73500072789E+03  0.73401631450E+03 0.  0.
        5    1    3    3  502    0  0.23008493886E+01 -0.18114969923E+03  0.33858516846E+03  0.38403452154E+03  0.46999998093E+01 0. -1.
       -5    1    3    3    0  502 -0.23008493886E+01  0.18114969923E+03 -0.30055728334E+03  0.35096620635E+03  0.46999998093E+01 0.  1.
</event>
<event>
 5   0  0.5899787E-02  0.7078711E+03  0.7818609E-02  0.9703866E-01
       -2   -1    0    0    0  501  0.00000000000E+00  0.00000000000E+00  0.13073639083E+03  0.13073639085E+03  0.25500000920E-02 0.  1.
        2   -1    0    0  501    0  0.00000000000E+00  0.00000000000E+00 -0.95819042869E+03  0.95819042869E+03  0.25500000920E-02 0. -1.
    10030    2    1    2    0    0  0.00000000000E+00  0.00000000000E+00 -0.82745403786E+03  0.10889268195E+04  0.70787105715E+03 0.  0.
        2    1    3    3  502    0  0.32662056358E+03  0.11894974747E+03 -0.51623362152E+03  0.62235615766E+03  0.25500000920E-02 0. -1.
       -2    1    3    3    0  502 -0.32662056358E+03 -0.11894974747E+03 -0.31122041634E+03  0.46657066189E+03  0.25500000920E-02 0.  1.
</event>
<event>
 5   0  0.6167756E-02  0.6903125E+03  0.7818609E-02  0.9733944E-01
        2   -1    0    0  501    0  0.00000000000E+00  0.00000000000E+00  0.26928710646E+03  0.26928710648E+03  0.25500000920E-02 0.  1.
       -2   -1    0    0    0  501  0.00000000000E+00  0.00000000000E+00 -0.44240076542E+03  0.44240076543E+03  0.25500000920E-02 0. -1.
    10030    2    1    2    0    0  0.00000000000E+00  0.00000000000E+00 -0.17311365896E+03  0.71168787190E+03  0.69031245686E+03 0.  0.
        4    1    3    3  502    0 -0.13146806657E+03 -0.35431223451E+02 -0.41354010774E+03  0.43538058952E+03  0.12699999809E+01 0. -1.
       -4    1    3    3    0  502  0.13146806657E+03  0.35431223451E+02  0.24042644878E+03  0.27630728238E+03  0.12699999809E+01 0.  1.
</event>
<event>
 5   0  0.3749730E-02  0.7094595E+03  0.7818609E-02  0.9701191E-01
       -1   -1    0    0    0  501  0.00000000000E+00  0.00000000000E+00  0.56112106188E+03  0.56112106191E+03  0.50400001928E-02 0.  1.
        1   -1    0    0  501    0  0.00000000000E+00  0.00000000000E+00 -0.22425320906E+03  0.22425320912E+03  0.50400001928E-02 0. -1.
    10030    2    1    2    0    0  0.00000000000E+00  0.00000000000E+00  0.33686785282E+03  0.78537427103E+03  0.70945950930E+03 0.  0.
        4    1    3    3  502    0 -0.87206729114E+02  0.34208334732E+03  0.20687032748E+03  0.40917352726E+03  0.12699999809E+01 0.  1.
       -4    1    3    3    0  502  0.87206729114E+02 -0.34208334732E+03  0.12999752534E+03  0.37620074377E+03  0.12699999809E+01 0. -1.
</event>
<event>
 5   0  0.5987810E-02  0.7121329E+03  0.7818609E-02  0.9696705E-01
        2   -1    0    0  501    0  0.00000000000E+00  0.00000000000E+00  0.66501916352E+03  0.66501916352E+03  0.25500000920E-02 0. -1.
       -2   -1    0    0    0  501  0.00000000000E+00  0.00000000000E+00 -0.19064610986E+03  0.19064610988E+03  0.25500000920E-02 0.  1.
    10030    2    1    2    0    0  0.00000000000E+00  0.00000000000E+00  0.47437305365E+03  0.85566527340E+03  0.71213289917E+03 0.  0.
        5    1    3    3  502    0  0.39470942982E+02  0.43965695017E+02 -0.18467708229E+03  0.19395528454E+03  0.46999998093E+01 0.  1.
       -5    1    3    3    0  502 -0.39470942982E+02 -0.43965695017E+02  0.65905013594E+03  0.66170998886E+03  0.46999998093E+01 0. -1.
</event>
<event>
 5   0  0.6248886E-02  0.6911612E+03  0.7818609E-02  0.9732468E-01
        2   -1    0    0  501    0  0.00000000000E+00  0.00000000000E+00  0.42744802609E+03  0.42744802610E+03  0.25500000920E-02 0.  1.
       -2   -1    0    0    0  501  0.00000000000E+00  0.00000000000E+00 -0.27939293867E+03  0.27939293868E+03  0.25500000920E-02 0. -1.
    10030    2    1    2    0    0  0.00000000000E+00  0.00000000000E+00  0.14805508742E+03  0.70684096478E+03  0.69116122619E+03 0.  0.
        3    1    3    3  502    0  0.10161087597E+03 -0.21143975915E+03 -0.18548982089E+03  0.29906190951E+03  0.10100000352E+00 0. -1.
       -3    1    3    3    0  502 -0.10161087597E+03  0.21143975915E+03  0.33354490831E+03  0.40777905528E+03  0.10100000352E+00 0.  1.
</event>
<event>
 5   0  0.6167756E-02  0.6300212E+03  0.7818609E-02  0.9845007E-01
        2   -1    0    0  501    0  0.00000000000E+00  0.00000000000E+00  0.84647671667E+03  0.84647671668E+03  0.25500000920E-02 0. -1.
       -2   -1    0    0    0  501  0.00000000000E+00  0.00000000000E+00 -0.11722906849E+03  0.11722906852E+03  0.25500000920E-02 0.  1.
    10030    2    1    2    0    0  0.00000000000E+00  0.00000000000E+00  0.72924764818E+03  0.96370578519E+03  0.63002119650E+03 0.  0.
        4    1    3    3  502    0 -0.19069238121E+03 -0.94377923892E+02  0.71994607737E+03  0.75072947457E+03  0.12699999809E+01 0. -1.
       -4    1    3    3    0  502  0.19069238121E+03  0.94377923892E+02  0.93015708128E+01  0.21297631063E+03  0.12699999809E+01 0.  1.
</event>
<event>
 5   0  0.3755872E-02  0.6959835E+03  0.7818609E-02  0.9724126E-01
       -1   -1    0    0    0  501  0.00000000000E+00  0.00000000000E+00  0.19906035771E+03  0.19906035777E+03  0.50400001928E-02 0.  1.
        1   -1    0    0  501    0  0.00000000000E+00  0.00000000000E+00 -0.60834945535E+03  0.60834945537E+03  0.50400001928E-02 0. -1.
    10030    2    1    2    0    0  0.00000000000E+00  0.00000000000E+00 -0.40928909765E+03  0.80740981314E+03  0.69598350620E+03 0.  0.
        2    1    3    3  502    0 -0.14518166354E+03 -0.91625387502E+00  0.16224712926E+03  0.21772157888E+03  0.25500000920E-02 0.  1.
       -2    1    3    3    0  502  0.14518166354E+03  0.91625387502E+00 -0.57153622691E+03  0.58968823426E+03  0.25500000920E-02 0. -1.
</event>
<event>
 5   0  0.5987810E-02  0.7221476E+03  0.7818609E-02  0.9680089E-01
       -2   -1    0    0    0  501  0.00000000000E+00  0.00000000000E+00  0.19055018050E+03  0.19055018051E+03  0.25500000920E-02 0.  1.
        2   -1    0    0  501    0  0.00000000000E+00  0.00000000000E+00 -0.68419932831E+03  0.68419932831E+03  0.25500000920E-02 0. -1.
    10030    2    1    2    0    0  0.00000000000E+00  0.00000000000E+00 -0.49364914781E+03  0.87474950883E+03  0.72214764561E+03 0.  0.
        5    1    3    3  502    0  0.18232458939E+03  0.22386175112E+03 -0.50942025698E+03  0.58556590384E+03  0.46999998093E+01 0. -1.
       -5    1    3    3    0  502 -0.18232458939E+03 -0.22386175112E+03  0.15771109173E+02  0.28918360499E+03  0.46999998093E+01 0.  1.
</event>
<event>
 5   0  0.3717372E-02  0.7171927E+03  0.7818609E-02  0.9688274E-01
       -1   -1    0    0    0  501  0.00000000000E+00  0.00000000000E+00  0.56676327261E+03  0.56676327263E+03  0.50400001928E-02 0. -1.
        1   -1    0    0  501    0  0.00000000000E+00  0.00000000000E+00 -0.22688722908E+03  0.22688722914E+03  0.50400001928E-02 0.  1.
    10030    2    1    2    0    0  0.00000000000E+00  0.00000000000E+00  0.33987604353E+03  0.79365050177E+03  0.71719271747E+03 0.  0.
        3    1    3    3  502    0  0.17183675548E+03 -0.29838601858E+02 -0.17679063189E+03  0.24834079492E+03  0.10100000352E+00 0.  1.
       -3    1    3    3    0  502 -0.17183675548E+03  0.29838601858E+02  0.51666667542E+03  0.54530970685E+03  0.10100000352E+00 0. -1.
</event>
<event>
 5   0  0.6167756E-02  0.6938519E+03  0.7818609E-02  0.9727804E-01
        2   -1    0    0  501    0  0.00000000000E+00  0.00000000000E+00  0.33381075978E+03  0.33381075979E+03  0.25500000920E-02 0.  1.
       -2   -1    0    0    0  501  0.00000000000E+00  0.00000000000E+00 -0.36055642764E+03  0.36055642765E+03  0.25500000920E-02 0. -1.
    10030    2    1    2    0    0  0.00000000000E+00  0.00000000000E+00 -0.26745667866E+02  0.69436718744E+03  0.69385190080E+03 0.  0.
        4    1    3    3  502    0  0.10646182188E+03 -0.26890821155E+03  0.17836866427E+03  0.33979808571E+03  0.12699999809E+01 0.  1.
       -4    1    3    3    0  502 -0.10646182188E+03  0.26890821155E+03 -0.20511433213E+03  0.35456910173E+03  0.12699999809E+01 0. -1.
</event>
<event>
 5   0  0.3439015E-02  0.7041682E+03  0.7818609E-02  0.9710131E-01
        1   -1    0    0  501    0  0.00000000000E+00  0.00000000000E+00  0.38000387158E+03  0.38000387162E+03  0.50400001928E-02 0.  1.
       -1   -1    0    0    0  501  0.00000000000E+00  0.00000000000E+00 -0.32621562198E+03  0.32621562202E+03  0.50400001928E-02 0. -1.
    10030    2    1    2    0    0  0.00000000000E+00  0.00000000000E+00  0.53788249599E+02  0.70621949364E+03  0.70416815989E+03 0.  0.
        1    1    3    3  502    0 -0.23450547598E+03 -0.25321224726E+03 -0.42979048906E+02  0.34778795134E+03  0.50400001928E-02 0. -1.
       -1    1    3    3    0  502  0.23450547598E+03  0.25321224726E+03  0.96767298505E+02  0.35843154230E+03  0.50400001928E-02 0.  1.
</event>
<event>
 5   0  0.5987810E-02  0.6963279E+03  0.7818609E-02  0.9723533E-01
       -2   -1    0    0    0  501  0.00000000000E+00  0.00000000000E+00  0.57572806225E+02  0.57572806282E+02  0.25500000920E-02 0. -1.
        2   -1    0    0  501    0  0.00000000000E+00  0.00000000000E+00 -0.21054754307E+04  0.21054754307E+04  0.25500000920E-02 0.  1.
    10030    2    1    2    0    0  0.00000000000E+00  0.00000000000E+00 -0.20479026245E+04  0.21630482370E+04  0.69632787980E+03 0.  0.
        5    1    3    3  502    0  0.21429677566E+03 -0.22859044352E+03 -0.14952528487E+04  0.15277368459E+04  0.46999998093E+01 0. -1.
       -5    1    3    3    0  502 -0.21429677566E+03  0.22859044352E+03 -0.55264977584E+03  0.63531139110E+03  0.46999998093E+01 0.  1.
</event>
<event>
 5   0  0.3601475E-02  0.6882444E+03  0.7818609E-02  0.9737550E-01
       -1   -1    0    0    0  501  0.00000000000E+00  0.00000000000E+00  0.45178793872E+03  0.45178793875E+03  0.50400001928E-02 0. -1.
        1   -1    0    0  501    0  0.00000000000E+00  0.00000000000E+00 -0.26211431786E+03  0.26211431791E+03  0.50400001928E-02 0.  1.
    10030    2    1    2    0    0  0.00000000000E+00  0.00000000000E+00  0.18967362086E+03  0.71390225665E+03  0.68824439671E+03 0.  0.
        5    1    3    3  502    0  0.20275482965E+03  0.38568079885E+02  0.38042055237E+03  0.43282664474E+03  0.46999998093E+01 0. -1.
       -5    1    3    3    0  502 -0.20275482965E+03 -0.38568079885E+02 -0.19074693152E+03  0.28107561191E+03  0.46999998093E+01 0.  1.
</event>
<event>
 5   0  0.3601475E-02  0.6507376E+03  0.7818609E-02  0.9805396E-01
       -1   -1    0    0    0  501  0.00000000000E+00  0.00000000000E+00  0.17407012825E+03  0.17407012832E+03  0.50400001928E-02 0. -1.
        1   -1    0    0  501    0  0.00000000000E+00  0.00000000000E+00 -0.60817363256E+03  0.60817363258E+03  0.50400001928E-02 0.  1.
    10030    2    1    2    0    0  0.00000000000E+00  0.00000000000E+00 -0.43410350431E+03  0.78224376090E+03  0.65073761918E+03 0.  0.
        5    1    3    3  502    0  0.23895325808E+03  0.20470725297E+02  0.47202755564E+02  0.24447474363E+03  0.46999998093E+01 0. -1.
       -5    1    3    3    0  502 -0.23895325808E+03 -0.20470725297E+02 -0.48130625987E+03  0.53776901727E+03  0.46999998093E+01 0.  1.
</event>
<event>
 5   0  0.5987810E-02  0.7033172E+03  0.7818609E-02  0.9711576E-01
        2   -1    0    0  501    0  0.00000000000E+00  0.00000000000E+00  0.12900963812E+04  0.12900963812E+04  0.25500000920E-02 0. -1.
       -2   -1    0    0    0  501  0.00000000000E+00  0.00000000000E+00 -0.95856236693E+02  0.95856236726E+02  0.25500000920E-02 0.  1.
    10030    2    1    2    0    0  0.00000000000E+00  0.00000000000E+00  0.11942401445E+04  0.13859526180E+04  0.70331723739E+03 0.  0.
        5    1    3    3  502    0  0.28721445604E+03  0.10332197731E+03  0.25311669709E+03  0.39655734402E+03  0.46999998093E+01 0.  1.
       -5    1    3    3    0  502 -0.28721445604E+03 -0.10332197731E+03  0.94112344746E+03  0.98939527395E+03  0.46999998093E+01 0. -1.
</event>
<event>
 5   0  0.3749730E-02  0.6904725E+03  0.7818609E-02  0.9733666E-01
       -1   -1    0    0    0  501  0.00000000000E+00  0.00000000000E+00  0.41954893171E+03  0.41954893174E+03  0.50400001928E-02 0. -1.
        1   -1    0    0  501    0  0.00000000000E+00  0.00000000000E+00 -0.28408620716E+03  0.28408620720E+03  0.50400001928E-02 0.  1.
    10030    2    1    2    0    0  0.00000000000E+00  0.00000000000E+00  0.13546272455E+03  0.70363513894E+03  0.69047248968E+03 0.  0.
        4    1    3    3  502    0  0.10970807534E+03 -0.14054747399E+03  0.36899685956E+03  0.40981672673E+03  0.12699999809E+01 0. -1.
       -4    1    3    3    0  502 -0.10970807534E+03  0.14054747399E+03 -0.23353413501E+03  0.29381841221E+03  0.12699999809E+01 0.  1.
</event>
<event>
 5   0  0.3749730E-02  0.6795721E+03  0.7818609E-02  0.9752819E-01
       -1   -1    0    0    0  501  0.00000000000E+00  0.00000000000E+00  0.23515535581E+03  0.23515535586E+03  0.50400001928E-02 0.  1.
        1   -1    0    0  501    0  0.00000000000E+00  0.00000000000E+00 -0.49097141374E+03  0.49097141376E+03  0.50400001928E-02 0. -1.
    10030    2    1    2    0    0  0.00000000000E+00  0.00000000000E+00 -0.25581605793E+03  0.72612676963E+03  0.67957209336E+03 0.  0.
        4    1    3    3  502    0 -0.32909095628E+03  0.81725768080E+02 -0.10466990686E+03  0.35487654329E+03  0.12699999809E+01 0.  1.
       -4    1    3    3    0  502  0.32909095628E+03 -0.81725768080E+02 -0.15114615106E+03  0.37125022634E+03  0.12699999809E+01 0. -1.
</event>
<event>
 5   0  0.3601475E-02  0.7267789E+03  0.7818609E-02  0.9672502E-01
        1   -1    0    0  501    0  0.00000000000E+00  0.00000000000E+00  0.96950927178E+03  0.96950927180E+03  0.50400001928E-02 0. -1.
       -1   -1    0    0    0  501  0.00000000000E+00  0.00000000000E+00 -0.13620489532E+03  0.13620489541E+03  0.50400001928E-02 0.  1.
    10030    2    1    2    0    0  0.00000000000E+00  0.00000000000E+00  0.83330437646E+03  0.11057141672E+04  0.72677894558E+03 0.  0.
        5    1    3    3  502    0 -0.33522547721E+03 -0.32180783684E+02  0.62424301746E+03  0.70930470057E+03  0.46999998093E+01 0.  1.
       -5    1    3    3    0  502  0.33522547721E+03  0.32180783684E+02  0.20906135900E+03  0.39640946664E+03  0.46999998093E+01 0. -1.
</event>
<event>
 5   0  0.3755872E-02  0.6908502E+03  0.7818609E-02  0.9733009E-01
       -1   -1    0    0    0  501  0.00000000000E+00  0.00000000000E+00  0.83870670215E+02  0.83870670367E+02  0.50400001928E-02 0.  1.
        1   -1    0    0  501    0  0.00000000000E+00  0.00000000000E+00 -0.14226486325E+04  0.14226486325E+04  0.50400001928E-02 0. -1.
    10030    2    1    2    0    0  0.00000000000E+00  0.00000000000E+00 -0.13387779623E+04  0.15065193029E+04  0.69085018465E+03 0.  0.
        2    1    3    3  502    0  0.23676810759E+03  0.21434248145E+03 -0.38242798847E+03  0.49824993979E+03  0.25500000920E-02 0.  1.
       -2    1    3    3    0  502 -0.23676810759E+03 -0.21434248145E+03 -0.95634997381E+03  0.10082693631E+04  0.25500000920E-02 0. -1.
</event>
<event>
 5   0  0.3749730E-02  0.6826985E+03  0.7818609E-02  0.9747286E-01
       -1   -1    0    0    0  501  0.00000000000E+00  0.00000000000E+00  0.12493118612E+03  0.12493118622E+03  0.50400001928E-02 0. -1.
        1   -1    0    0  501    0  0.00000000000E+00  0.00000000000E+00 -0.93266797791E+03  0.93266797793E+03  0.50400001928E-02 0.  1.
    10030    2    1    2    0    0  0.00000000000E+00  0.00000000000E+00 -0.80773679179E+03  0.10575991641E+04  0.68269851852E+03 0.  0.
        4    1    3    3  502    0  0.17877846703E+03 -0.36781583416E+02 -0.85071847261E+03  0.87007939735E+03  0.12699999809E+01 0.  1.
       -4    1    3    3    0  502 -0.17877846703E+03  0.36781583416E+02  0.42981680819E+02  0.18751976680E+03  0.12699999809E+01 0. -1.
</event>
<event>
 5   0  0.3749730E-02  0.6771438E+03  0.7818609E-02  0.9757138E-01
       -1   -1    0    0    0  501  0.00000000000E+00  0.00000000000E+00  0.20300112684E+03  0.20300112691E+03  0.50400001928E-02 0. -1.
        1   -1    0    0  501    0  0.00000000000E+00  0.00000000000E+00 -0.56468124823E+03  0.56468124825E+03  0.50400001928E-02 0.  1.
    10030    2    1    2    0    0  0.00000000000E+00  0.00000000000E+00 -0.36168012139E+03  0.76768237516E+03  0.67714379486E+03 0.  0.
        4    1    3    3  502    0 -0.14984259880E+03 -0.21691383427E+03  0.59988947734E+02  0.27037881327E+03  0.12699999809E+01 0. -1.
       -4    1    3    3    0  502  0.14984259880E+03  0.21691383427E+03 -0.42166906912E+03  0.49730356189E+03  0.12699999809E+01 0.  1.
</event>
<event>
 5   0  0.3439015E-02  0.6699062E+03  0.7818609E-02  0.9770127E-01
        1   -1    0    0  501    0  0.00000000000E+00  0.00000000000E+00  0.24279844159E+03  0.24279844164E+03  0.50400001928E-02 0.  1.
       -1   -1    0    0    0  501  0.00000000000E+00  0.00000000000E+00 -0.46208529411E+03  0.46208529414E+03  0.50400001928E-02 0. -1.
    10030    2    1    2    0    0  0.00000000000E+00  0.00000000000E+00 -0.21928685252E+03  0.70488373578E+03  0.66990623021E+03 0.  0.
        1    1    3    3  502    0  0.17466988848E+03 -0.13803143307E+03  0.15368596473E+03  0.27052101996E+03  0.50400001928E-02 0.  1.
       -1    1    3    3    0  502 -0.17466988848E+03  0.13803143307E+03 -0.37297281726E+03  0.43436271582E+03  0.50400001928E-02 0. -1.
</event>
<event>
 5   0  0.5899787E-02  0.5619591E+03  0.7818609E-02  0.9987632E-01
       -2   -1    0    0    0  501  0.00000000000E+00  0.00000000000E+00  0.22538073655E+03  0.22538073656E+03  0.25500000920E-02 0. -1.
        2   -1    0    0  501    0  0.00000000000E+00  0.00000000000E+00 -0.35029395502E+03  0.35029395503E+03  0.25500000920E-02 0.  1.
    10030    2    1    2    0    0  0.00000000000E+00  0.00000000000E+00 -0.12491321847E+03  0.57567469160E+03  0.56195910740E+03 0.  0.
        2    1    3    3  502    0  0.14241162577E+03 -0.73749644573E+02  0.17388942752E+03  0.23655361810E+03  0.25500000920E-02 0. -1.
       -2    1    3    3    0  502 -0.14241162577E+03  0.73749644573E+02 -0.29880264599E+03  0.33912107349E+03  0.25500000920E-02 0.  1.
</event>
<event>
 5   0  0.3439015E-02  0.6963639E+03  0.7818609E-02  0.9723471E-01
       -1   -1    0    0    0  501  0.00000000000E+00  0.00000000000E+00  0.61305954120E+02  0.61305954327E+02  0.50400001928E-02 0.  1.
        1   -1    0    0  501    0  0.00000000000E+00  0.00000000000E+00 -0.19774696845E+04  0.19774696845E+04  0.50400001928E-02 0. -1.
    10030    2    1    2    0    0  0.00000000000E+00  0.00000000000E+00 -0.19161637304E+04  0.20387756389E+04  0.69636388755E+03 0.  0.
        1    1    3    3  502    0  0.16318938199E+03  0.18667668857E+03 -0.16737445073E+04  0.16920105307E+04  0.50400001928E-02 0. -1.
       -1    1    3    3    0  502 -0.16318938199E+03 -0.18667668857E+03 -0.24241922315E+03  0.34676510814E+03  0.50400001928E-02 0.  1.
</event>
<event>
 5   0  0.3749730E-02  0.7110574E+03  0.7818609E-02  0.9698507E-01
        1   -1    0    0  501    0  0.00000000000E+00  0.00000000000E+00  0.46210004452E+03  0.46210004455E+03  0.50400001928E-02 0.  1.
       -1   -1    0    0    0  501  0.00000000000E+00  0.00000000000E+00 -0.27353526584E+03  0.27353526589E+03  0.50400001928E-02 0. -1.
    10030    2    1    2    0    0  0.00000000000E+00  0.00000000000E+00  0.18856477868E+03  0.73563531044E+03  0.71105740570E+03 0.  0.
        4    1    3    3  502    0 -0.15403031310E+03  0.31991711120E+03  0.75581344354E+02  0.36302403213E+03  0.12699999809E+01 0.  1.
       -4    1    3    3    0  502  0.15403031310E+03 -0.31991711120E+03  0.11298343433E+03  0.37261127831E+03  0.12699999809E+01 0. -1.
</event>
<event>
 5   0  0.5987810E-02  0.7131180E+03  0.7818609E-02  0.9695058E-01
       -2   -1    0    0    0  501  0.00000000000E+00  0.00000000000E+00  0.92901851557E+02  0.92901851592E+02  0.25500000920E-02 0. -1.
        2   -1    0    0  501    0  0.00000000000E+00  0.00000000000E+00 -0.13684798991E+04  0.13684798991E+04  0.25500000920E-02 0.  1.
    10030    2    1    2    0    0  0.00000000000E+00  0.00000000000E+00 -0.12755780476E+04  0.14613817507E+04  0.71311798876E+03 0.  0.
        5    1    3    3  502    0  0.15256558396E+03  0.14503053802E+03 -0.48100066296E+02  0.21597643562E+03  0.46999998093E+01 0. -1.
       -5    1    3    3    0  502 -0.15256558396E+03 -0.14503053802E+03 -0.12274779813E+04  0.12454053151E+04  0.46999998093E+01 0.  1.
</event>
<event>
 5   0  0.5987810E-02  0.7321700E+03  0.7818609E-02  0.9663746E-01
       -2   -1    0    0    0  501  0.00000000000E+00  0.00000000000E+00  0.51434809568E+03  0.51434809569E+03  0.25500000920E-02 0. -1.
        2   -1    0    0  501    0  0.00000000000E+00  0.00000000000E+00 -0.26055938613E+03  0.26055938615E+03  0.25500000920E-02 0.  1.
    10030    2    1    2    0    0  0.00000000000E+00  0.00000000000E+00  0.25378870955E+03  0.77490748183E+03  0.73216999140E+03 0.  0.
        5    1    3    3  502    0  0.33360104482E+02 -0.36438751017E+03  0.13773839424E+03  0.39100525493E+03  0.46999998093E+01 0. -1.
       -5    1    3    3    0  502 -0.33360104482E+02  0.36438751017E+03  0.11605031531E+03  0.38390222690E+03  0.46999998093E+01 0.  1.
</event>
<event>
 5   0  0.3717372E-02  0.7042244E+03  0.7818609E-02  0.9710035E-01
       -1   -1    0    0    0  501  0.00000000000E+00  0.00000000000E+00  0.55780118107E+03  0.55780118109E+03  0.50400001928E-02 0. -1.
        1   -1    0    0  501    0  0.00000000000E+00  0.00000000000E+00 -0.22227098457E+03  0.22227098463E+03  0.50400001928E-02 0.  1.
    10030    2    1    2    0    0  0.00000000000E+00  0.00000000000E+00  0.33553019650E+03  0.78007216572E+03  0.70422444644E+03 0.  0.
        3    1    3    3  502    0  0.25492139532E+03  0.23613729694E+02  0.43554660293E+03  0.50521617110E+03  0.10100000352E+00 0. -1.
       -3    1    3    3    0  502 -0.25492139532E+03 -0.23613729694E+02 -0.10001640642E+03  0.27485599462E+03  0.10100000352E+00 0.  1.
</event>
<event>
 5   0  0.3749730E-02  0.7052239E+03  0.7818609E-02  0.9708340E-01
       -1   -1    0    0    0  501  0.00000000000E+00  0.00000000000E+00  0.73586920452E+03  0.73586920454E+03  0.50400001928E-02 0. -1.
        1   -1    0    0  501    0  0.00000000000E+00  0.00000000000E+00 -0.16896368269E+03  0.16896368276E+03  0.50400001928E-02 0.  1.
    10030    2    1    2    0    0  0.00000000000E+00  0.00000000000E+00  0.56690552183E+03  0.90483288730E+03  0.70522385329E+03 0.  0.
        4    1    3    3  502    0 -0.29801385430E+03  0.30838936508E+02  0.44895461190E+02  0.30295298759E+03  0.12699999809E+01 0.  1.
       -4    1    3    3    0  502  0.29801385430E+03 -0.30838936508E+02  0.52201006064E+03  0.60187989971E+03  0.12699999809E+01 0. -1.
</event>
<event>
 5   0  0.3755872E-02  0.6635440E+03  0.7818609E-02  0.9781691E-01
       -1   -1    0    0    0  501  0.00000000000E+00  0.00000000000E+00  0.97922685784E+03  0.97922685785E+03  0.50400001928E-02 0.  1.
        1   -1    0    0  501    0  0.00000000000E+00  0.00000000000E+00 -0.11240773627E+03  0.11240773638E+03  0.50400001928E-02 0. -1.
    10030    2    1    2    0    0  0.00000000000E+00  0.00000000000E+00  0.86681912157E+03  0.10916345942E+04  0.66354404362E+03 0.  0.
        2    1    3    3  502    0  0.75624701100E+02  0.22305232346E+03  0.81783205137E+03  0.85107032534E+03  0.25500000920E-02 0.  1.
       -2    1    3    3    0  502 -0.75624701100E+02 -0.22305232346E+03  0.48987070199E+02  0.24056426890E+03  0.25500000920E-02 0. -1.
</event>
<event>
 5   0  0.6167756E-02  0.6889326E+03  0.7818609E-02  0.9736348E-01
        2   -1    0    0  501    0  0.00000000000E+00  0.00000000000E+00  0.90862976064E+03  0.90862976065E+03  0.25500000920E-02 0. -1.
       -2   -1    0    0    0  501  0.00000000000E+00  0.00000000000E+00 -0.13058898695E+03  0.13058898698E+03  0.25500000920E-02 0.  1.
    10030    2    1    2    0    0  0.00000000000E+00  0.00000000000E+00  0.77804077369E+03  0.10392187476E+04  0.68893262362E+03 0.  0.
        4    1    3    3  502    0 -0.14325872709E+03 -0.28334916201E+03  0.59053010748E+03  0.67047537705E+03  0.12699999809E+01 0. -1.
       -4    1    3    3    0  502  0.14325872709E+03  0.28334916201E+03  0.18751066621E+03  0.36874337057E+03  0.12699999809E+01 0.  1.
</event>
<event>
 5   0  0.3601475E-02  0.7097728E+03  0.7818609E-02  0.9700664E-01
       -1   -1    0    0    0  501  0.00000000000E+00  0.00000000000E+00  0.82741755029E+03  0.82741755030E+03  0.50400001928E-02 0. -1.
        1   -1    0    0  501    0  0.00000000000E+00  0.00000000000E+00 -0.15221376983E+03  0.15221376991E+03  0.50400001928E-02 0.  1.
    10030    2    1    2    0    0  0.00000000000E+00  0.00000000000E+00  0.67520378046E+03  0.97963132021E+03  0.70977276532E+03 0.  0.
        5    1    3    3  502    0 -0.16387706603E+03 -0.26795160857E+03  0.10968635249E+03  0.33272652919E+03  0.46999998093E+01 0.  1.
       -5    1    3    3    0  502  0.16387706603E+03  0.26795160857E+03  0.56551742797E+03  0.64690479102E+03  0.46999998093E+01 0. -1.
</event>
<event>
 5   0  0.3717372E-02  0.6990720E+03  0.7818609E-02  0.9718821E-01
       -1   -1    0    0    0  501  0.00000000000E+00  0.00000000000E+00  0.26266808562E+03  0.26266808567E+03  0.50400001928E-02 0.  1.
        1   -1    0    0  501    0  0.00000000000E+00  0.00000000000E+00 -0.46513231762E+03  0.46513231765E+03  0.50400001928E-02 0. -1.
    10030    2    1    2    0    0  0.00000000000E+00  0.00000000000E+00 -0.20246423200E+03  0.72780040332E+03  0.69907200047E+03 0.  0.
        3    1    3    3  502    0  0.29813582488E+03 -0.15041433758E+03  0.62881684911E+01  0.33398951224E+03  0.10100000352E+00 0.  1.
       -3    1    3    3    0  502 -0.29813582488E+03  0.15041433758E+03 -0.20875240049E+03  0.39381089108E+03  0.10100000352E+00 0. -1.
</event>
<event>
 5   0  0.5899787E-02  0.7173569E+03  0.7818609E-02  0.9688001E-01
       -2   -1    0    0    0  501  0.00000000000E+00  0.00000000000E+00  0.20740807943E+03  0.20740807944E+03  0.25500000920E-02 0.  1.
        2   -1    0    0  501    0  0.00000000000E+00  0.00000000000E+00 -0.62027595834E+03  0.62027595834E+03  0.25500000920E-02 0. -1.
    10030    2    1    2    0    0  0.00000000000E+00  0.00000000000E+00 -0.41286787891E+03  0.82768403778E+03  0.71735694112E+03 0.  0.
        2    1    3    3  502    0 -0.13795438694E+03  0.11271365200E+03  0.15275551385E+03  0.23467003908E+03  0.25500000920E-02 0.  1.
       -2    1    3    3    0  502  0.13795438694E+03 -0.11271365200E+03 -0.56562339276E+03  0.59301399871E+03  0.25500000920E-02 0. -1.
</event>
<event>
 5   0  0.5987810E-02  0.6996832E+03  0.7818609E-02  0.9717774E-01
       -2   -1    0    0    0  501  0.00000000000E+00  0.00000000000E+00  0.18236755769E+03  0.18236755770E+03  0.25500000920E-02 0. -1.
        2   -1    0    0  501    0  0.00000000000E+00  0.00000000000E+00 -0.67111241923E+03  0.67111241924E+03  0.25500000920E-02 0.  1.
    10030    2    1    2    0    0  0.00000000000E+00  0.00000000000E+00 -0.48874486155E+03  0.85347997694E+03  0.69968316498E+03 0.  0.
        5    1    3    3  502    0  0.18128975304E+03 -0.23516903110E+03 -0.46994347259E+03  0.55591312736E+03  0.46999998093E+01 0.  1.
       -5    1    3    3    0  502 -0.18128975304E+03  0.23516903110E+03 -0.18801388961E+02  0.29756684958E+03  0.46999998093E+01 0. -1.
</event>
<event>
 5   0  0.6248886E-02  0.7236398E+03  0.7818609E-02  0.9677638E-01
        2   -1    0    0  501    0  0.00000000000E+00  0.00000000000E+00  0.40821122471E+03  0.40821122472E+03  0.25500000920E-02 0. -1.
       -2   -1    0    0    0  501  0.00000000000E+00  0.00000000000E+00 -0.32070074463E+03  0.32070074464E+03  0.25500000920E-02 0.  1.
    10030    2    1    2    0    0  0.00000000000E+00  0.00000000000E+00  0.87510480080E+02  0.72891196937E+03  0.72363981024E+03 0.  0.
        3    1    3    3  502    0 -0.34714733663E+03 -0.93125382415E+02  0.85651824032E+02  0.36948593389E+03  0.10100000352E+00 0.  1.
       -3    1    3    3    0  502  0.34714733663E+03  0.93125382415E+02  0.18586560478E+01  0.35942603548E+03  0.10100000352E+00 0. -1.
</event>
<event>
 5   0  0.2439375E-02  0.6925304E+03  0.7818609E-02  0.9730092E-01
       -4   -1    0    0    0  501  0.00000000000E+00  0.00000000000E+00  0.36351988688E+03  0.36352210532E+03  0.12699999809E+01 0. -1.
        4   -1    0    0  501    0  0.00000000000E+00  0.00000000000E+00 -0.32982505396E+03  0.32982749903E+03  0.12699999809E+01 0.  1.
    10030    2    1    2    0    0  0.00000000000E+00  0.00000000000E+00  0.33694832923E+02  0.69334960435E+03  0.69253038351E+03 0.  0.
        3    1    3    3  502    0  0.25361811287E+03 -0.22494780612E+03 -0.53776159790E+02  0.34324269579E+03  0.10100000352E+00 0.  1.
       -3    1    3    3    0  502 -0.25361811287E+03  0.22494780612E+03  0.87470992713E+02  0.35010690856E+03  0.10100000352E+00 0. -1.
</event>
<event>
 5   0  0.6248886E-02  0.7336294E+03  0.7818609E-02  0.9661389E-01
        2   -1    0    0  501    0  0.00000000000E+00  0.00000000000E+00  0.84215808937E+03  0.84215808937E+03  0.25500000920E-02 0.  1.
       -2   -1    0    0    0  501  0.00000000000E+00  0.00000000000E+00 -0.15977169153E+03  0.15977169155E+03  0.25500000920E-02 0. -1.
    10030    2    1    2    0    0  0.00000000000E+00  0.00000000000E+00  0.68238639784E+03  0.10019297809E+04  0.73362939549E+03 0.  0.
        3    1    3    3  502    0 -0.15973951559E+03 -0.32891781995E+03  0.38099551046E+03  0.52807313349E+03  0.10100000352E+00 0. -1.
       -3    1    3    3    0  502  0.15973951559E+03  0.32891781995E+03  0.30139088738E+03  0.47385664743E+03  0.10100000352E+00 0.  1.
</event>
<event>
 5   0  0.3601475E-02  0.6762066E+03  0.7818609E-02  0.9758810E-01
        1   -1    0    0  501    0  0.00000000000E+00  0.00000000000E+00  0.31419077116E+03  0.31419077120E+03  0.50400001928E-02 0. -1.
       -1   -1    0    0    0  501  0.00000000000E+00  0.00000000000E+00 -0.36383581778E+03  0.36383581782E+03  0.50400001928E-02 0.  1.
    10030    2    1    2    0    0  0.00000000000E+00  0.00000000000E+00 -0.49645046620E+02  0.67802658902E+03  0.67620664354E+03 0.  0.
        5    1    3    3  502    0  0.24002654035E+03  0.15919467553E+03  0.15267391193E+03  0.32601702129E+03  0.46999998093E+01 0. -1.
       -5    1    3    3    0  502 -0.24002654035E+03 -0.15919467553E+03 -0.20231895855E+03  0.35200956773E+03  0.46999998093E+01 0.  1.
</event>
<event>
 5   0  0.3717372E-02  0.6962507E+03  0.7818609E-02  0.9723666E-01
       -1   -1    0    0    0  501  0.00000000000E+00  0.00000000000E+00  0.15928390234E+03  0.15928390242E+03  0.50400001928E-02 0. -1.
        1   -1    0    0  501    0  0.00000000000E+00  0.00000000000E+00 -0.76085056672E+03  0.76085056674E+03  0.50400001928E-02 0.  1.
    10030    2    1    2    0    0  0.00000000000E+00  0.00000000000E+00 -0.60156666438E+03  0.92013446916E+03  0.69625066580E+03 0.  0.
        3    1    3    3  502    0 -0.33653883323E+03 -0.90829981554E+00 -0.41848367811E+03  0.53701751398E+03  0.10100000352E+00 0.  1.
       -3    1    3    3    0  502  0.33653883323E+03  0.90829981554E+00 -0.18308298627E+03  0.38311695517E+03  0.10100000352E+00 0. -1.
</event>
<event>
 5   0  0.2439375E-02  0.7101971E+03  0.7818609E-02  0.9699951E-01
        3   -1    0    0  501    0  0.00000000000E+00  0.00000000000E+00  0.14447354021E+03  0.14447357551E+03  0.10100000352E+00 0. -1.
       -3   -1    0    0    0  501  0.00000000000E+00  0.00000000000E+00 -0.87278917989E+03  0.87278918573E+03  0.10100000352E+00 0.  1.
    10030    2    1    2    0    0  0.00000000000E+00  0.00000000000E+00 -0.72831563968E+03  0.10172627612E+04  0.71019705323E+03 0.  0.
        4    1    3    3  502    0  0.10731502100E+03  0.18529619567E+03 -0.76990506279E+03  0.79912865828E+03  0.12699999809E+01 0. -1.
       -4    1    3    3    0  502 -0.10731502100E+03 -0.18529619567E+03  0.41589423115E+02  0.21813410297E+03  0.12699999809E+01 0.  1.
</event>
<event>
 5   0  0.3749730E-02  0.7133879E+03  0.7818609E-02  0.9694607E-01
       -1   -1    0    0    0  501  0.00000000000E+00  0.00000000000E+00  0.27491500056E+03  0.27491500061E+03  0.50400001928E-02 0.  1.
        1   -1    0    0  501    0  0.00000000000E+00  0.00000000000E+00 -0.46279968662E+03  0.46279968664E+03  0.50400001928E-02 0. -1.
    10030    2    1    2    0    0  0.00000000000E+00  0.00000000000E+00 -0.18788468606E+03  0.73771468725E+03  0.71338790608E+03 0.  0.
        4    1    3    3  502    0 -0.17600559831E+03  0.30848198003E+03 -0.59803550010E+02  0.36016271341E+03  0.12699999809E+01 0.  1.
       -4    1    3    3    0  502  0.17600559831E+03 -0.30848198003E+03 -0.12808113605E+03  0.37755197384E+03  0.12699999809E+01 0. -1.
</event>
<event>
 5   0  0.6167756E-02  0.7191540E+03  0.7818609E-02  0.9685026E-01
        2   -1    0    0  501    0  0.00000000000E+00  0.00000000000E+00  0.18834075550E+04  0.18834075550E+04  0.25500000920E-02 0. -1.
       -2   -1    0    0    0  501  0.00000000000E+00  0.00000000000E+00 -0.68649835150E+02  0.68649835197E+02  0.25500000920E-02 0.  1.
    10030    2    1    2    0    0  0.00000000000E+00  0.00000000000E+00  0.18147577198E+04  0.19520573902E+04  0.71915399802E+03 0.  0.
        4    1    3    3  502    0 -0.24048555059E+03 -0.21737872833E+03  0.13297000819E+04  0.13686455831E+04  0.12699999809E+01 0. -1.
       -4    1    3    3    0  502  0.24048555059E+03  0.21737872833E+03  0.48505763795E+03  0.58341180705E+03  0.12699999809E+01 0.  1.
</event>
<event>
 5   0  0.3749730E-02  0.7073029E+03  0.7818609E-02  0.9704824E-01
       -1   -1    0    0    0  501  0.00000000000E+00  0.00000000000E+00  0.18482874984E+03  0.18482874990E+03  0.50400001928E-02 0. -1.
        1   -1    0    0  501    0  0.00000000000E+00  0.00000000000E+00 -0.67667683101E+03  0.67667683103E+03  0.50400001928E-02 0.  1.
    10030    2    1    2    0    0  0.00000000000E+00  0.00000000000E+00 -0.49184808117E+03  0.86150558093E+03  0.70730285665E+03 0.  0.
        4    1    3    3  502    0  0.42976083437E+02  0.12611519084E+03  0.15308651493E+03  0.20295092772E+03  0.12699999809E+01 0. -1.
       -4    1    3    3    0  502 -0.42976083437E+02 -0.12611519084E+03 -0.64493459611E+03  0.65855465321E+03  0.12699999809E+01 0.  1.
</event>
<event>
 5   0  0.5987810E-02  0.6971581E+03  0.7818609E-02  0.9722105E-01
       -2   -1    0    0    0  501  0.00000000000E+00  0.00000000000E+00  0.95715559239E+02  0.95715559273E+02  0.25500000920E-02 0. -1.
        2   -1    0    0  501    0  0.00000000000E+00  0.00000000000E+00 -0.12694628716E+04  0.12694628717E+04  0.25500000920E-02 0.  1.
    10030    2    1    2    0    0  0.00000000000E+00  0.00000000000E+00 -0.11737473124E+04  0.13651784309E+04  0.69715808456E+03 0.  0.
        5    1    3    3  502    0  0.21191486183E+03  0.25126927261E+03 -0.81389965747E+03  0.87778066648E+03  0.46999998093E+01 0.  1.
       -5    1    3    3    0  502 -0.21191486183E+03 -0.25126927261E+03 -0.35984765494E+03  0.48739776444E+03  0.46999998093E+01 0. -1.
</event>
<event>
 5   0  0.3717372E-02  0.7080634E+03  0.7818609E-02  0.9703541E-01
        1   -1    0    0  501    0  0.00000000000E+00  0.00000000000E+00  0.63573192366E+03  0.63573192368E+03  0.50400001928E-02 0.  1.
       -1   -1    0    0    0  501  0.00000000000E+00  0.00000000000E+00 -0.19715613048E+03  0.19715613055E+03  0.50400001928E-02 0. -1.
    10030    2    1    2    0    0  0.00000000000E+00  0.00000000000E+00  0.43857579318E+03  0.83288805423E+03  0.70806340430E+03 0.  0.
        3    1    3    3  502    0  0.32490945146E+03  0.11557860405E+03  0.31349303243E+03  0.46604984384E+03  0.10100000352E+00 0.  1.
       -3    1    3    3    0  502 -0.32490945146E+03 -0.11557860405E+03  0.12508276075E+03  0.36683821038E+03  0.10100000352E+00 0. -1.
</event>
<event>
 5   0  0.5899787E-02  0.6969168E+03  0.7818609E-02  0.9722519E-01
        2   -1    0    0  501    0  0.00000000000E+00  0.00000000000E+00  0.67715821894E+03  0.67715821894E+03  0.25500000920E-02 0. -1.
       -2   -1    0    0    0  501  0.00000000000E+00  0.00000000000E+00 -0.17931297215E+03  0.17931297217E+03  0.25500000920E-02 0.  1.
    10030    2    1    2    0    0  0.00000000000E+00  0.00000000000E+00  0.49784524679E+03  0.85647119111E+03  0.69691678948E+03 0.  0.
        2    1    3    3  502    0  0.20586350105E+03  0.27101219092E+03  0.15699089742E+03  0.37479798635E+03  0.25500000920E-02 0.  1.
       -2    1    3    3    0  502 -0.20586350105E+03 -0.27101219092E+03  0.34085434937E+03  0.48167320476E+03  0.25500000920E-02 0. -1.
</event>
<event>
 5   0  0.6167756E-02  0.6918566E+03  0.7818609E-02  0.9731261E-01
        2   -1    0    0  501    0  0.00000000000E+00  0.00000000000E+00  0.21039494660E+03  0.21039494662E+03  0.25500000920E-02 0.  1.
       -2   -1    0    0    0  501  0.00000000000E+00  0.00000000000E+00 -0.56877032167E+03  0.56877032168E+03  0.25500000920E-02 0. -1.
    10030    2    1    2    0    0  0.00000000000E+00  0.00000000000E+00 -0.35837537507E+03  0.77916526830E+03  0.69185663679E+03 0.  0.
        4    1    3    3  502    0  0.32614976152E+03 -0.98999175350E+02 -0.11265364470E+03  0.35898044546E+03  0.12699999809E+01 0.  1.
       -4    1    3    3    0  502 -0.32614976152E+03  0.98999175350E+02 -0.24572173037E+03  0.42018482283E+03  0.12699999809E+01 0. -1.
</event>
<event>
 5   0  0.5899787E-02  0.6997025E+03  0.7818609E-02  0.9717741E-01
       -2   -1    0    0    0  501  0.00000000000E+00  0.00000000000E+00  0.94170661702E+02  0.94170661736E+02  0.25500000920E-02 0. -1.
        2   -1    0    0  501    0  0.00000000000E+00  0.00000000000E+00 -0.12997243748E+04  0.12997243748E+04  0.25500000920E-02 0.  1.
    10030    2    1    2    0    0  0.00000000000E+00  0.00000000000E+00 -0.12055537131E+04  0.13938950365E+04  0.69970252087E+03 0.  0.
        2    1    3    3  502    0  0.84922181874E+02 -0.33353303148E+03 -0.47773478329E+03  0.58880097082E+03  0.25500000920E-02 0.  1.
       -2    1    3    3    0  502 -0.84922181874E+02  0.33353303148E+03 -0.72781892977E+03  0.80509406569E+03  0.25500000920E-02 0. -1.
</event>
<event>
 5   0  0.3749730E-02  0.6672889E+03  0.7818609E-02  0.9774868E-01
       -1   -1    0    0    0  501  0.00000000000E+00  0.00000000000E+00  0.37574620010E+03  0.37574620013E+03  0.50400001928E-02 0.  1.
        1   -1    0    0  501    0  0.00000000000E+00  0.00000000000E+00 -0.29626013890E+03  0.29626013894E+03  0.50400001928E-02 0. -1.
    10030    2    1    2    0    0  0.00000000000E+00  0.00000000000E+00  0.79486061200E+02  0.67200633908E+03  0.66728890732E+03 0.  0.
        4    1    3    3  502    0  0.19178949456E+02 -0.32235609005E+03 -0.44729202373E+02  0.32601164909E+03  0.12699999809E+01 0.  1.
       -4    1    3    3    0  502 -0.19178949456E+02  0.32235609005E+03  0.12421526357E+03  0.34599468999E+03  0.12699999809E+01 0. -1.
</event>
<event>
 5   0  0.5987810E-02  0.7003329E+03  0.7818609E-02  0.9716663E-01
        2   -1    0    0  501    0  0.00000000000E+00  0.00000000000E+00  0.35252055353E+03  0.35252055354E+03  0.25500000920E-02 0.  1.
       -2   -1    0    0    0  501  0.00000000000E+00  0.00000000000E+00 -0.34782804058E+03  0.34782804059E+03  0.25500000920E-02 0. -1.
    10030    2    1    2    0    0  0.00000000000E+00  0.00000000000E+00  0.46925129560E+01  0.70034859413E+03  0.70033287344E+03 0.  0.
        5    1    3    3  502    0  0.17493322267E+03  0.28575827160E+03  0.10400984494E+03  0.35085546885E+03  0.46999998093E+01 0.  1.
       -5    1    3    3    0  502 -0.17493322267E+03 -0.28575827160E+03 -0.99317331987E+02  0.34949312527E+03  0.46999998093E+01 0. -1.
</event>
<event>
 5   0  0.3755872E-02  0.6779731E+03  0.7818609E-02  0.9755661E-01
        1   -1    0    0  501    0  0.00000000000E+00  0.00000000000E+00  0.18612742890E+03  0.18612742897E+03  0.50400001928E-02 0. -1.
       -1   -1    0    0    0  501  0.00000000000E+00  0.00000000000E+00 -0.61738288322E+03  0.61738288324E+03  0.50400001928E-02 0.  1.
    10030    2    1    2    0    0  0.00000000000E+00  0.00000000000E+00 -0.43125545432E+03  0.80351031220E+03  0.67797312258E+03 0.  0.
        2    1    3    3  502    0 -0.17561515307E+03  0.58640206603E+02  0.12091028797E+03  0.22113039945E+03  0.25500000920E-02 0. -1.
       -2    1    3    3    0  502  0.17561515307E+03 -0.58640206603E+02 -0.55216574229E+03  0.58237991275E+03  0.25500000920E-02 0.  1.
</event>
<event>
 5   0  0.3749730E-02  0.7025856E+03  0.7818609E-02  0.9712821E-01
       -1   -1    0    0    0  501  0.00000000000E+00  0.00000000000E+00  0.38197113312E+03  0.38197113315E+03  0.50400001928E-02 0.  1.
        1   -1    0    0  501    0  0.00000000000E+00  0.00000000000E+00 -0.32307845547E+03  0.32307845551E+03  0.50400001928E-02 0. -1.
    10030    2    1    2    0    0  0.00000000000E+00  0.00000000000E+00  0.58892677644E+02  0.70504958867E+03  0.70258563535E+03 0.  0.
        4    1    3    3  502    0  0.15108373402E+03  0.96601706812E+01  0.34755238041E+03  0.37909614033E+03  0.12699999809E+01 0.  1.
       -4    1    3    3    0  502 -0.15108373402E+03 -0.96601706812E+01 -0.28865970276E+03  0.32595344834E+03  0.12699999809E+01 0. -1.
</event>
<event>
 5   0  0.3601475E-02  0.6652683E+03  0.7818609E-02  0.9778544E-01
       -1   -1    0    0    0  501  0.00000000000E+00  0.00000000000E+00  0.11987880829E+03  0.11987880840E+03  0.50400001928E-02 0. -1.
        1   -1    0    0  501    0  0.00000000000E+00  0.00000000000E+00 -0.92297784068E+03  0.92297784069E+03  0.50400001928E-02 0.  1.
    10030    2    1    2    0    0  0.00000000000E+00  0.00000000000E+00 -0.80309903238E+03  0.10428566491E+04  0.66526831784E+03 0.  0.
        5    1    3    3  502    0 -0.17312747877E+03 -0.28057924544E+03 -0.47033644841E+03  0.57440081962E+03  0.46999998093E+01 0.  1.
       -5    1    3    3    0  502  0.17312747877E+03  0.28057924544E+03 -0.33276258397E+03  0.46845582947E+03  0.46999998093E+01 0. -1.
</event>
<event>
 5   0  0.3755872E-02  0.7027346E+03  0.7818609E-02  0.9712567E-01
       -1   -1    0    0    0  501  0.00000000000E+00  0.00000000000E+00  0.57189626441E+03  0.57189626443E+03  0.50400001928E-02 0. -1.
        1   -1    0    0  501    0  0.00000000000E+00  0.00000000000E+00 -0.21587651480E+03  0.21587651486E+03  0.50400001928E-02 0.  1.
    10030    2    1    2    0    0  0.00000000000E+00  0.00000000000E+00  0.35601974961E+03  0.78777277929E+03  0.70273457983E+03 0.  0.
        2    1    3    3  502    0 -0.30192828248E+03  0.15500335548E+03  0.27996787887E+03  0.43996447717E+03  0.25500000920E-02 0.  1.
       -2    1    3    3    0  502  0.30192828248E+03 -0.15500335548E+03  0.76051870742E+02  0.34780830212E+03  0.25500000920E-02 0. -1.
</event>
<event>
 5   0  0.6131198E-02  0.7094173E+03  0.7818609E-02  0.9701261E-01
        2   -1    0    0  501    0  0.00000000000E+00  0.00000000000E+00  0.75968044620E+03  0.75968044620E+03  0.25500000920E-02 0. -1.
       -2   -1    0    0    0  501  0.00000000000E+00  0.00000000000E+00 -0.16561995759E+03  0.16561995761E+03  0.25500000920E-02 0.  1.
    10030    2    1    2    0    0  0.00000000000E+00  0.00000000000E+00  0.59406048861E+03  0.92530040381E+03  0.70941734767E+03 0.  0.
        1    1    3    3  502    0 -0.43535989629E+02  0.58418106535E+02  0.74981607245E+03  0.75334733031E+03  0.50400001928E-02 0. -1.
       -1    1    3    3    0  502  0.43535989629E+02 -0.58418106535E+02 -0.15575558384E+03  0.17195307350E+03  0.50400001928E-02 0.  1.
</event>
<event>
 5   0  0.3749730E-02  0.6984767E+03  0.7818609E-02  0.9719841E-01
       -1   -1    0    0    0  501  0.00000000000E+00  0.00000000000E+00  0.42021835888E+03  0.42021835891E+03  0.50400001928E-02 0. -1.
        1   -1    0    0  501    0  0.00000000000E+00  0.00000000000E+00 -0.29024775320E+03  0.29024775324E+03  0.50400001928E-02 0.  1.
    10030    2    1    2    0    0  0.00000000000E+00  0.00000000000E+00  0.12997060568E+03  0.71046611215E+03  0.69847672701E+03 0.  0.
        4    1    3    3  502    0  0.25382783105E+02 -0.32790359421E+03 -0.54507863387E+02  0.33337332354E+03  0.12699999809E+01 0. -1.
       -4    1    3    3    0  502 -0.25382783105E+02  0.32790359421E+03  0.18447846907E+03  0.37709278862E+03  0.12699999809E+01 0.  1.
</event>
<event>
 5   0  0.6248886E-02  0.6919781E+03  0.7818609E-02  0.9731050E-01
        2   -1    0    0  501    0  0.00000000000E+00  0.00000000000E+00  0.35144189920E+03  0.35144189921E+03  0.25500000920E-02 0.  1.
       -2   -1    0    0    0  501  0.00000000000E+00  0.00000000000E+00 -0.34062077154E+03  0.34062077155E+03  0.25500000920E-02 0. -1.
    10030    2    1    2    0    0  0.00000000000E+00  0.00000000000E+00  0.10821127661E+02  0.69206267076E+03  0.69197806574E+03 0.  0.
        3    1    3    3  502    0 -0.20886328382E+02  0.30603108097E+02  0.34945205873E+03  0.35141078596E+03  0.10100000352E+00 0.  1.
       -3    1    3    3    0  502  0.20886328382E+02 -0.30603108097E+02 -0.33863093107E+03  0.34065188480E+03  0.10100000352E+00 0. -1.
</event>
<event>
 5   0  0.6131198E-02  0.6974168E+03  0.7818609E-02  0.9721660E-01
        2   -1    0    0  501    0  0.00000000000E+00  0.00000000000E+00  0.89692032113E+03  0.89692032113E+03  0.25500000920E-02 0. -1.
       -2   -1    0    0    0  501  0.00000000000E+00  0.00000000000E+00 -0.13557230868E+03  0.13557230870E+03  0.25500000920E-02 0.  1.
    10030    2    1    2    0    0  0.00000000000E+00  0.00000000000E+00  0.76134801245E+03  0.10324926298E+04  0.69741682988E+03 0.  0.
        1    1    3    3  502    0  0.15258954275E+03 -0.16174929504E+03 -0.16989907582E+02  0.22301358700E+03  0.50400001928E-02 0.  1.
       -1    1    3    3    0  502 -0.15258954275E+03  0.16174929504E+03  0.77833792004E+03  0.80947904284E+03  0.50400001928E-02 0. -1.
</event>
<event>
 5   0  0.6131198E-02  0.6968173E+03  0.7818609E-02  0.9722690E-01
       -2   -1    0    0    0  501  0.00000000000E+00  0.00000000000E+00  0.24346632512E+03  0.24346632513E+03  0.25500000920E-02 0.  1.
        2   -1    0    0  501    0  0.00000000000E+00  0.00000000000E+00 -0.49858476391E+03  0.49858476392E+03  0.25500000920E-02 0. -1.
    10030    2    1    2    0    0  0.00000000000E+00  0.00000000000E+00 -0.25511843879E+03  0.74205108905E+03  0.69681733686E+03 0.  0.
        1    1    3    3  502    0 -0.32627196589E+03 -0.12179974781E+03 -0.13820974741E+03  0.37468721435E+03  0.50400001928E-02 0. -1.
       -1    1    3    3    0  502  0.32627196589E+03  0.12179974781E+03 -0.11690869138E+03  0.36736387470E+03  0.50400001928E-02 0.  1.
</event>
<event>
 5   0  0.5987810E-02  0.6976254E+03  0.7818609E-02  0.9721302E-01
       -2   -1    0    0    0  501  0.00000000000E+00  0.00000000000E+00  0.14300719523E+03  0.14300719525E+03  0.25500000920E-02 0.  1.
        2   -1    0    0  501    0  0.00000000000E+00  0.00000000000E+00 -0.85079834411E+03  0.85079834411E+03  0.25500000920E-02 0. -1.
    10030    2    1    2    0    0  0.00000000000E+00  0.00000000000E+00 -0.70779114888E+03  0.99380553937E+03  0.69762535766E+03 0.  0.
        5    1    3    3  502    0  0.23014565204E+03  0.24930379540E+03 -0.46900093512E+03  0.57888113693E+03  0.46999998093E+01 0. -1.
       -5    1    3    3    0  502 -0.23014565204E+03 -0.24930379540E+03 -0.23879021376E+03  0.41492440244E+03  0.46999998093E+01 0.  1.
</event>
<event>
 5   0  0.3601475E-02  0.7051604E+03  0.7818609E-02  0.9708448E-01
        1   -1    0    0  501    0  0.00000000000E+00  0.00000000000E+00  0.62378437375E+03  0.62378437377E+03  0.50400001928E-02 0. -1.
       -1   -1    0    0    0  501  0.00000000000E+00  0.00000000000E+00 -0.19928808759E+03  0.19928808765E+03  0.50400001928E-02 0.  1.
    10030    2    1    2    0    0  0.00000000000E+00  0.00000000000E+00  0.42449628617E+03  0.82307246143E+03  0.70516039295E+03 0.  0.
        5    1    3    3  502    0  0.12398560523E+03 -0.15453937950E+03 -0.12812179920E+03  0.23599181246E+03  0.46999998093E+01 0.  1.
       -5    1    3    3    0  502 -0.12398560523E+03  0.15453937950E+03  0.55261808536E+03  0.58708064897E+03  0.46999998093E+01 0. -1.
</event>
<event>
 5   0  0.6248886E-02  0.6267100E+03  0.7818609E-02  0.9851490E-01
        2   -1    0    0  501    0  0.00000000000E+00  0.00000000000E+00  0.71473454552E+03  0.71473454552E+03  0.25500000920E-02 0.  1.
       -2   -1    0    0    0  501  0.00000000000E+00  0.00000000000E+00 -0.13738155629E+03  0.13738155632E+03  0.25500000920E-02 0. -1.
    10030    2    1    2    0    0  0.00000000000E+00  0.00000000000E+00  0.57735298923E+03  0.85211610184E+03  0.62670996230E+03 0.  0.
        3    1    3    3  502    0 -0.29586215024E+03  0.81474730146E+02  0.37487105372E+03  0.48445934888E+03  0.10100000352E+00 0. -1.
       -3    1    3    3    0  502  0.29586215024E+03 -0.81474730146E+02  0.20248193551E+03  0.36765675297E+03  0.10100000352E+00 0.  1.
</event>
<event>
 5   0  0.3755872E-02  0.6995621E+03  0.7818609E-02  0.9717981E-01
       -1   -1    0    0    0  501  0.00000000000E+00  0.00000000000E+00  0.90195995661E+02  0.90195995801E+02  0.50400001928E-02 0.  1.
        1   -1    0    0  501    0  0.00000000000E+00  0.00000000000E+00 -0.13564545172E+04  0.13564545172E+04  0.50400001928E-02 0. -1.
    10030    2    1    2    0    0  0.00000000000E+00  0.00000000000E+00 -0.12662585215E+04  0.14466505130E+04  0.69956205115E+03 0.  0.
        2    1    3    3  502    0  0.24703849091E+02 -0.26518916977E+03 -0.16424439971E+03  0.31290861088E+03  0.25500000920E-02 0.  1.
       -2    1    3    3    0  502 -0.24703849091E+02  0.26518916977E+03 -0.11020141218E+04  0.11337419021E+04  0.25500000920E-02 0. -1.
</event>
<event>
 5   0  0.3439015E-02  0.7036533E+03  0.7818609E-02  0.9711005E-01
       -1   -1    0    0    0  501  0.00000000000E+00  0.00000000000E+00  0.27575442363E+03  0.27575442367E+03  0.50400001928E-02 0. -1.
        1   -1    0    0  501    0  0.00000000000E+00  0.00000000000E+00 -0.44888493170E+03  0.44888493173E+03  0.50400001928E-02 0.  1.
    10030    2    1    2    0    0  0.00000000000E+00  0.00000000000E+00 -0.17313050807E+03  0.72463935540E+03  0.70365333977E+03 0.  0.
        1    1    3    3  502    0 -0.23489573182E+02  0.55787068792E+02 -0.44348230639E+03  0.44759413892E+03  0.50400001928E-02 0.  1.
       -1    1    3    3    0  502  0.23489573182E+02 -0.55787068792E+02  0.27035179832E+03  0.27704521648E+03  0.50400001928E-02 0. -1.
</event>
<event>
 5   0  0.3439015E-02  0.7190001E+03  0.7818609E-02  0.9685280E-01
       -1   -1    0    0    0  501  0.00000000000E+00  0.00000000000E+00  0.58234503516E+03  0.58234503518E+03  0.50400001928E-02 0.  1.
        1   -1    0    0  501    0  0.00000000000E+00  0.00000000000E+00 -0.22193079859E+03  0.22193079865E+03  0.50400001928E-02 0. -1.
    10030    2    1    2    0    0  0.00000000000E+00  0.00000000000E+00  0.36041423657E+03  0.80427583383E+03  0.71900013558E+03 0.  0.
        1    1    3    3  502    0  0.65510232184E+02  0.14349672967E+03 -0.18115087499E+03  0.24020520702E+03  0.50400001928E-02 0. -1.
       -1    1    3    3    0  502 -0.65510232184E+02 -0.14349672967E+03  0.54156511156E+03  0.56407062681E+03  0.50400001928E-02 0.  1.
</event>
<event>
 5   0  0.3717372E-02  0.6978046E+03  0.7818609E-02  0.9720994E-01
       -1   -1    0    0    0  501  0.00000000000E+00  0.00000000000E+00  0.86109611437E+03  0.86109611438E+03  0.50400001928E-02 0. -1.
        1   -1    0    0  501    0  0.00000000000E+00  0.00000000000E+00 -0.14136960732E+03  0.14136960741E+03  0.50400001928E-02 0.  1.
    10030    2    1    2    0    0  0.00000000000E+00  0.00000000000E+00  0.71972650705E+03  0.10024657218E+04  0.69780461335E+03 0.  0.
        3    1    3    3  502    0  0.20803381915E+03 -0.21792976953E+03  0.61264497946E+03  0.68271907503E+03  0.10100000352E+00 0. -1.
       -3    1    3    3    0  502 -0.20803381915E+03  0.21792976953E+03  0.10708152759E+03  0.31974664676E+03  0.10100000352E+00 0.  1.
</event>
<event>
 5   0  0.5899787E-02  0.7102050E+03  0.7818609E-02  0.9699938E-01
        2   -1    0    0  501    0  0.00000000000E+00  0.00000000000E+00  0.39168879676E+03  0.39168879677E+03  0.25500000920E-02 0. -1.
       -2   -1    0    0    0  501  0.00000000000E+00  0.00000000000E+00 -0.32193358768E+03  0.32193358769E+03  0.25500000920E-02 0.  1.
    10030    2    1    2    0    0  0.00000000000E+00  0.00000000000E+00  0.69755209078E+02  0.71362238446E+03  0.71020498338E+03 0.  0.
        2    1    3    3  502    0 -0.77924288623E+02 -0.34637994934E+03  0.41730652354E+02  0.35748106441E+03  0.25500000920E-02 0. -1.
       -2    1    3    3    0  502  0.77924288623E+02  0.34637994934E+03  0.28024556724E+02  0.35614132005E+03  0.25500000920E-02 0.  1.
</event>
<event>
 5   0  0.3601475E-02  0.7008882E+03  0.7818609E-02  0.9715715E-01
       -1   -1    0    0    0  501  0.00000000000E+00  0.00000000000E+00  0.39233667405E+03  0.39233667408E+03  0.50400001928E-02 0. -1.
        1   -1    0    0  501    0  0.00000000000E+00  0.00000000000E+00 -0.31302465158E+03  0.31302465162E+03  0.50400001928E-02 0.  1.
    10030    2    1    2    0    0  0.00000000000E+00  0.00000000000E+00  0.79312022466E+02  0.70536132570E+03  0.70088815291E+03 0.  0.
        5    1    3    3  502    0  0.20161122433E+03  0.59772398379E+02  0.32174680424E+03  0.38439942953E+03  0.46999998093E+01 0. -1.
       -5    1    3    3    0  502 -0.20161122433E+03 -0.59772398379E+02 -0.24243478178E+03  0.32096189618E+03  0.46999998093E+01 0.  1.
</event>
<event>
 5   0  0.5987810E-02  0.6864908E+03  0.7818609E-02  0.9740618E-01
        2   -1    0    0  501    0  0.00000000000E+00  0.00000000000E+00  0.10164544224E+04  0.10164544224E+04  0.25500000920E-02 0.  1.
       -2   -1    0    0    0  501  0.00000000000E+00  0.00000000000E+00 -0.11591016979E+03  0.11591016982E+03  0.25500000920E-02 0. -1.
    10030    2    1    2    0    0  0.00000000000E+00  0.00000000000E+00  0.90054425265E+03  0.11323645923E+04  0.68649080026E+03 0.  0.
        5    1    3    3  502    0 -0.16006236896E+03 -0.30357102135E+03  0.45764664255E+03  0.57204708407E+03  0.46999998093E+01 0.  1.
       -5    1    3    3    0  502  0.16006236896E+03  0.30357102135E+03  0.44289761010E+03  0.56031750820E+03  0.46999998093E+01 0. -1.
</event>
<event>
 5   0  0.2439375E-02  0.6842489E+03  0.7818609E-02  0.9744554E-01
       -4   -1    0    0    0  501  0.00000000000E+00  0.00000000000E+00  0.69617219276E+03  0.69617335117E+03  0.12699999809E+01 0.  1.
        4   -1    0    0  501    0  0.00000000000E+00  0.00000000000E+00 -0.16812875050E+03  0.16813354706E+03  0.12699999809E+01 0. -1.
    10030    2    1    2    0    0  0.00000000000E+00  0.00000000000E+00  0.52804344226E+03  0.86430689822E+03  0.68424888557E+03 0.  0.
        3    1    3    3  502    0  0.15153950563E+03 -0.20742432964E+03 -0.21404914036E+02  0.25777365039E+03  0.10100000352E+00 0. -1.
       -3    1    3    3    0  502 -0.15153950563E+03  0.20742432964E+03  0.54944835629E+03  0.60653324783E+03  0.10100000352E+00 0.  1.
</event>
<event>
 5   0  0.2439375E-02  0.6622666E+03  0.7818609E-02  0.9784030E-01
        4   -1    0    0  501    0  0.00000000000E+00  0.00000000000E+00  0.22594358677E+03  0.22594715600E+03  0.12699999809E+01 0.  1.
       -4   -1    0    0    0  501  0.00000000000E+00  0.00000000000E+00 -0.48528663640E+03  0.48528829820E+03  0.12699999809E+01 0. -1.
    10030    2    1    2    0    0  0.00000000000E+00  0.00000000000E+00 -0.25934304963E+03  0.71123545420E+03  0.66226660335E+03 0.  0.
        2    1    3    3  502    0 -0.24678090668E+03  0.14852628253E+03  0.45773775029E+02  0.29164380842E+03  0.25500000920E-02 0.  1.
       -2    1    3    3    0  502  0.24678090668E+03 -0.14852628253E+03 -0.30511682466E+03  0.41959164577E+03  0.25500000920E-02 0. -1.
</event>
<event>
 5   0  0.3439015E-02  0.6918103E+03  0.7818609E-02  0.9731341E-01
        1   -1    0    0  501    0  0.00000000000E+00  0.00000000000E+00  0.12178040473E+03  0.12178040484E+03  0.50400001928E-02 0.  1.
       -1   -1    0    0    0  501  0.00000000000E+00  0.00000000000E+00 -0.98250937167E+03  0.98250937169E+03  0.50400001928E-02 0. -1.
    10030    2    1    2    0    0  0.00000000000E+00  0.00000000000E+00 -0.86072896694E+03  0.11042897765E+04  0.69181034685E+03 0.  0.
        1    1    3    3  502    0  0.32124049585E+03  0.39485794213E+02 -0.23554697470E+03  0.40029609220E+03  0.50400001928E-02 0. -1.
       -1    1    3    3    0  502 -0.32124049585E+03 -0.39485794213E+02 -0.62518199224E+03  0.70399368432E+03  0.50400001928E-02 0.  1.
</event>
<event>
 5   0  0.3755872E-02  0.7027347E+03  0.7818609E-02  0.9712567E-01
       -1   -1    0    0    0  501  0.00000000000E+00  0.00000000000E+00  0.12976167076E+03  0.12976167085E+03  0.50400001928E-02 0.  1.
        1   -1    0    0  501    0  0.00000000000E+00  0.00000000000E+00 -0.95142889810E+03  0.95142889811E+03  0.50400001928E-02 0. -1.
    10030    2    1    2    0    0  0.00000000000E+00  0.00000000000E+00 -0.82166722734E+03  0.10811905690E+04  0.70273466823E+03 0.  0.
        2    1    3    3  502    0  0.55385114397E+02 -0.21087527015E+03 -0.83476724668E+03  0.86277010067E+03  0.25500000920E-02 0. -1.
       -2    1    3    3    0  502 -0.55385114397E+02  0.21087527015E+03  0.13100019343E+02  0.21842046830E+03  0.25500000920E-02 0.  1.
</event>
<event>
 5   0  0.6131198E-02  0.7293611E+03  0.7818609E-02  0.9668298E-01
       -2   -1    0    0    0  501  0.00000000000E+00  0.00000000000E+00  0.20319756861E+03  0.20319756863E+03  0.25500000920E-02 0.  1.
        2   -1    0    0  501    0  0.00000000000E+00  0.00000000000E+00 -0.65449559017E+03  0.65449559017E+03  0.25500000920E-02 0. -1.
    10030    2    1    2    0    0  0.00000000000E+00  0.00000000000E+00 -0.45129802156E+03  0.85769315880E+03  0.72936112482E+03 0.  0.
        1    1    3    3  502    0 -0.12695276968E+02  0.24490068382E+03 -0.54305653690E+03  0.59585897433E+03  0.50400001928E-02 0. -1.
       -1    1    3    3    0  502  0.12695276968E+02 -0.24490068382E+03  0.91758515345E+02  0.26183418447E+03  0.50400001928E-02 0.  1.
</event>
<event>
 5   0  0.6131198E-02  0.7168642E+03  0.7818609E-02  0.9688819E-01
       -2   -1    0    0    0  501  0.00000000000E+00  0.00000000000E+00  0.14351287723E+03  0.14351287726E+03  0.25500000920E-02 0.  1.
        2   -1    0    0  501    0  0.00000000000E+00  0.00000000000E+00 -0.89520588570E+03  0.89520588570E+03  0.25500000920E-02 0. -1.
    10030    2    1    2    0    0  0.00000000000E+00  0.00000000000E+00 -0.75169300846E+03  0.10387187630E+04  0.71686420579E+03 0.  0.
        1    1    3    3  502    0  0.28688099883E+03 -0.20779638500E+03 -0.45512450489E+03  0.57673075181E+03  0.50400001928E-02 0. -1.
       -1    1    3    3    0  502 -0.28688099883E+03  0.20779638500E+03 -0.29656850358E+03  0.46198801115E+03  0.50400001928E-02 0.  1.
</event>
<event>
 5   0  0.3601475E-02  0.6997859E+03  0.7818609E-02  0.9717598E-01
        1   -1    0    0  501    0  0.00000000000E+00  0.00000000000E+00  0.13103490319E+04  0.13103490319E+04  0.50400001928E-02 0.  1.
       -1   -1    0    0    0  501  0.00000000000E+00  0.00000000000E+00 -0.93429362913E+02  0.93429363049E+02  0.50400001928E-02 0. -1.
    10030    2    1    2    0    0  0.00000000000E+00  0.00000000000E+00  0.12169196690E+04  0.14037783949E+04  0.69978589681E+03 0.  0.
        5    1    3    3  502    0  0.13757520066E+03  0.97792188387E+02 -0.62860334160E+01  0.16897293322E+03  0.46999998093E+01 0. -1.
       -5    1    3    3    0  502 -0.13757520066E+03 -0.97792188387E+02  0.12232057024E+04  0.12348054617E+04  0.46999998093E+01 0.  1.
</event>
<event>
 5   0  0.3749730E-02  0.6876055E+03  0.7818609E-02  0.9738666E-01
        1   -1    0    0  501    0  0.00000000000E+00  0.00000000000E+00  0.19687931918E+03  0.19687931924E+03  0.50400001928E-02 0.  1.
       -1   -1    0    0    0  501  0.00000000000E+00  0.00000000000E+00 -0.60036949040E+03  0.60036949042E+03  0.50400001928E-02 0. -1.
    10030    2    1    2    0    0  0.00000000000E+00  0.00000000000E+00 -0.40349017122E+03  0.79724880966E+03  0.68760551643E+03 0.  0.
        4    1    3    3  502    0  0.20507634957E+03  0.22738631896E+03 -0.38299852642E+03  0.49035735065E+03  0.12699999809E+01 0. -1.
       -4    1    3    3    0  502 -0.20507634957E+03 -0.22738631896E+03 -0.20491644805E+02  0.30689145901E+03  0.12699999809E+01 0.  1.
</event>
<event>
 5   0  0.5987810E-02  0.7017821E+03  0.7818609E-02  0.9714189E-01
        2   -1    0    0  501    0  0.00000000000E+00  0.00000000000E+00  0.12532806734E+04  0.12532806734E+04  0.25500000920E-02 0.  1.
       -2   -1    0    0    0  501  0.00000000000E+00  0.00000000000E+00 -0.98241793223E+02  0.98241793256E+02  0.25500000920E-02 0. -1.
    10030    2    1    2    0    0  0.00000000000E+00  0.00000000000E+00  0.11550388802E+04  0.13515224667E+04  0.70178213370E+03 0.  0.
        5    1    3    3  502    0 -0.92668307297E+02  0.13720329390E+03  0.11732568890E+04  0.11848907024E+04  0.46999998093E+01 0.  1.
       -5    1    3    3    0  502  0.92668307297E+02 -0.13720329390E+03 -0.18218008778E+02  0.16663176431E+03  0.46999998093E+01 0. -1.
</event>
<event>
 5   0  0.3601475E-02  0.7004106E+03  0.7818609E-02  0.9716530E-01
       -1   -1    0    0    0  501  0.00000000000E+00  0.00000000000E+00  0.17938629849E+03  0.17938629856E+03  0.50400001928E-02 0. -1.
        1   -1    0    0  501    0  0.00000000000E+00  0.00000000000E+00 -0.68368513367E+03  0.68368513369E+03  0.50400001928E-02 0.  1.
    10030    2    1    2    0    0  0.00000000000E+00  0.00000000000E+00 -0.50429883518E+03  0.86307143224E+03  0.70041058101E+03 0.  0.
        5    1    3    3  502    0 -0.12724619890E+03 -0.12570398159E+03 -0.62310900990E+03  0.64829006960E+03  0.46999998093E+01 0.  1.
       -5    1    3    3    0  502  0.12724619890E+03  0.12570398159E+03  0.11881017472E+03  0.21478136264E+03  0.46999998093E+01 0. -1.
</event>
<event>
 5   0  0.3755872E-02  0.7008461E+03  0.7818609E-02  0.9715786E-01
        1   -1    0    0  501    0  0.00000000000E+00  0.00000000000E+00  0.31014248695E+03  0.31014248699E+03  0.50400001928E-02 0. -1.
       -1   -1    0    0    0  501  0.00000000000E+00  0.00000000000E+00 -0.39593513246E+03  0.39593513250E+03  0.50400001928E-02 0.  1.
    10030    2    1    2    0    0  0.00000000000E+00  0.00000000000E+00 -0.85792645512E+02  0.70607761949E+03  0.70084607919E+03 0.  0.
        2    1    3    3  502    0  0.77087404950E+02 -0.10014504817E+03  0.28638406029E+03  0.31302927765E+03  0.25500000920E-02 0. -1.
       -2    1    3    3    0  502 -0.77087404950E+02  0.10014504817E+03 -0.37217670580E+03  0.39304834184E+03  0.25500000920E-02 0.  1.
</event>
<event>
 5   0  0.5987810E-02  0.6534335E+03  0.7818609E-02  0.9800358E-01
       -2   -1    0    0    0  501  0.00000000000E+00  0.00000000000E+00  0.20363032873E+03  0.20363032874E+03  0.25500000920E-02 0.  1.
        2   -1    0    0  501    0  0.00000000000E+00  0.00000000000E+00 -0.52420405704E+03  0.52420405705E+03  0.25500000920E-02 0. -1.
    10030    2    1    2    0    0  0.00000000000E+00  0.00000000000E+00 -0.32057372831E+03  0.72783438579E+03  0.65343352979E+03 0.  0.
        5    1    3    3  502    0  0.17090822816E+03 -0.16648262274E+03 -0.40884440106E+03  0.47339404348E+03  0.46999998093E+01 0. -1.
       -5    1    3    3    0  502 -0.17090822816E+03  0.16648262274E+03  0.88270672747E+02  0.25444034231E+03  0.46999998093E+01 0.  1.
</event>
<event>
 5   0  0.6131198E-02  0.6513038E+03  0.7818609E-02  0.9804336E-01
        2   -1    0    0  501    0  0.00000000000E+00  0.00000000000E+00  0.62092305602E+03  0.62092305603E+03  0.25500000920E-02 0.  1.
       -2   -1    0    0    0  501  0.00000000000E+00  0.00000000000E+00 -0.17079273978E+03  0.17079273980E+03  0.25500000920E-02 0. -1.
    10030    2    1    2    0    0  0.00000000000E+00  0.00000000000E+00  0.45013031624E+03  0.79171579583E+03  0.65130376920E+03 0.  0.
        1    1    3    3  502    0 -0.22527473990E+03  0.15516508182E+03  0.43986385813E+03  0.51798178034E+03  0.50400001928E-02 0.  1.
       -1    1    3    3    0  502  0.22527473990E+03 -0.15516508182E+03  0.10266458111E+02  0.27373401549E+03  0.50400001928E-02 0. -1.
</event>
<event>
 5   0  0.3755872E-02  0.6802716E+03  0.7818609E-02  0.9751578E-01
       -1   -1    0    0    0  501  0.00000000000E+00  0.00000000000E+00  0.29035306221E+03  0.29035306225E+03  0.50400001928E-02 0.  1.
        1   -1    0    0  501    0  0.00000000000E+00  0.00000000000E+00 -0.39845404202E+03  0.39845404205E+03  0.50400001928E-02 0. -1.
    10030    2    1    2    0    0  0.00000000000E+00  0.00000000000E+00 -0.10810097981E+03  0.68880710431E+03  0.68027156718E+03 0.  0.
        2    1    3    3  502    0  0.19859968932E+02  0.22553345154E+03 -0.31107119470E+03  0.38474022964E+03  0.25500000920E-02 0. -1.
       -2    1    3    3    0  502 -0.19859968932E+02 -0.22553345154E+03  0.20297021488E+03  0.30406687466E+03  0.25500000920E-02 0.  1.
</event>
<event>
 5   0  0.3601475E-02  0.7107597E+03  0.7818609E-02  0.9699007E-01
       -1   -1    0    0    0  501  0.00000000000E+00  0.00000000000E+00  0.25832948742E+03  0.25832948747E+03  0.50400001928E-02 0. -1.
        1   -1    0    0  501    0  0.00000000000E+00  0.00000000000E+00 -0.48889058233E+03  0.48889058235E+03  0.50400001928E-02 0.  1.
    10030    2    1    2    0    0  0.00000000000E+00  0.00000000000E+00 -0.23056109491E+03  0.74722006982E+03  0.71075974439E+03 0.  0.
        5    1    3    3  502    0  0.29430171854E+03  0.13363220820E+03 -0.27050882383E+03  0.42150703715E+03  0.46999998093E+01 0.  1.
       -5    1    3    3    0  502 -0.29430171854E+03 -0.13363220820E+03  0.39947728916E+02  0.32571303266E+03  0.46999998093E+01 0. -1.
</event>
<event>
 5   0  0.3717372E-02  0.6931584E+03  0.7818609E-02  0.9729004E-01
       -1   -1    0    0    0  501  0.00000000000E+00  0.00000000000E+00  0.16556150276E+03  0.16556150283E+03  0.50400001928E-02 0. -1.
        1   -1    0    0  501    0  0.00000000000E+00  0.00000000000E+00 -0.72551376313E+03  0.72551376315E+03  0.50400001928E-02 0.  1.
    10030    2    1    2    0    0  0.00000000000E+00  0.00000000000E+00 -0.55995226037E+03  0.89107526598E+03  0.69315842038E+03 0.  0.
        3    1    3    3  502    0 -0.19905779835E+03 -0.18471280362E+02 -0.64392377571E+03  0.67424256348E+03  0.10100000352E+00 0.  1.
       -3    1    3    3    0  502  0.19905779835E+03  0.18471280362E+02  0.83971515337E+02  0.21683270250E+03  0.10100000352E+00 0. -1.
</event>
<event>
 5   0  0.3439015E-02  0.7033452E+03  0.7818609E-02  0.9711528E-01
        1   -1    0    0  501    0  0.00000000000E+00  0.00000000000E+00  0.96099576773E+03  0.96099576774E+03  0.50400001928E-02 0.  1.
       -1   -1    0    0    0  501  0.00000000000E+00  0.00000000000E+00 -0.12869321374E+03  0.12869321384E+03  0.50400001928E-02 0. -1.
    10030    2    1    2    0    0  0.00000000000E+00  0.00000000000E+00  0.83230255399E+03  0.10896889816E+04  0.70334524610E+03 0.  0.
        1    1    3    3  502    0 -0.15283056378E+03 -0.78271193189E+02 -0.59333447821E+02  0.18167008274E+03  0.50400001928E-02 0. -1.
       -1    1    3    3    0  502  0.15283056378E+03  0.78271193189E+02  0.89163600181E+03  0.90801889884E+03  0.50400001928E-02 0.  1.
</event>
<event>
 5   0  0.3601475E-02  0.6928481E+03  0.7818609E-02  0.9729542E-01
       -1   -1    0    0    0  501  0.00000000000E+00  0.00000000000E+00  0.29870101411E+03  0.29870101415E+03  0.50400001928E-02 0. -1.
        1   -1    0    0  501    0  0.00000000000E+00  0.00000000000E+00 -0.40177171066E+03  0.40177171069E+03  0.50400001928E-02 0.  1.
    10030    2    1    2    0    0  0.00000000000E+00  0.00000000000E+00 -0.10307069655E+03  0.70047272484E+03  0.69284808563E+03 0.  0.
        5    1    3    3  502    0  0.13176238836E+03 -0.16749189266E+03 -0.32762049587E+03  0.39086076857E+03  0.46999998093E+01 0.  1.
       -5    1    3    3    0  502 -0.13176238836E+03  0.16749189266E+03  0.22454979932E+03  0.30961195627E+03  0.46999998093E+01 0. -1.
</event>
<event>
 5   0  0.3749730E-02  0.6943472E+03  0.7818609E-02  0.9726948E-01
       -1   -1    0    0    0  501  0.00000000000E+00  0.00000000000E+00  0.16075102315E+03  0.16075102323E+03  0.50400001928E-02 0. -1.
        1   -1    0    0  501    0  0.00000000000E+00  0.00000000000E+00 -0.74979004892E+03  0.74979004893E+03  0.50400001928E-02 0.  1.
    10030    2    1    2    0    0  0.00000000000E+00  0.00000000000E+00 -0.58903902577E+03  0.91054107216E+03  0.69434722597E+03 0.  0.
        4    1    3    3  502    0  0.24763340531E+03  0.15352294999E+03 -0.54207306917E+03  0.61541565208E+03  0.12699999809E+01 0.  1.
       -4    1    3    3    0  502 -0.24763340531E+03 -0.15352294999E+03 -0.46965956593E+02  0.29512542008E+03  0.12699999809E+01 0. -1.
</event>
<event>
 5   0  0.3717372E-02  0.7195181E+03  0.7818609E-02  0.9684424E-01
        1   -1    0    0  501    0  0.00000000000E+00  0.00000000000E+00  0.98985893791E+03  0.98985893792E+03  0.50400001928E-02 0.  1.
       -1   -1    0    0    0  501  0.00000000000E+00  0.00000000000E+00 -0.13075255839E+03  0.13075255849E+03  0.50400001928E-02 0. -1.
    10030    2    1    2    0    0  0.00000000000E+00  0.00000000000E+00  0.85910637951E+03  0.11206114964E+04  0.71951814054E+03 0.  0.
        3    1    3    3  502    0  0.12924135464E+03 -0.32175527964E+03  0.57891221739E+03  0.67481045737E+03  0.10100000352E+00 0.  1.
       -3    1    3    3    0  502 -0.12924135464E+03  0.32175527964E+03  0.28019416212E+03  0.44580103904E+03  0.10100000352E+00 0. -1.
</event>
<event>
 5   0  0.6167756E-02  0.6988544E+03  0.7818609E-02  0.9719193E-01
       -2   -1    0    0    0  501  0.00000000000E+00  0.00000000000E+00  0.74665308360E+02  0.74665308404E+02  0.25500000920E-02 0.  1.
        2   -1    0    0  501    0  0.00000000000E+00  0.00000000000E+00 -0.16352892863E+04  0.16352892863E+04  0.25500000920E-02 0. -1.
    10030    2    1    2    0    0  0.00000000000E+00  0.00000000000E+00 -0.15606239779E+04  0.17099545947E+04  0.69885443078E+03 0.  0.
        4    1    3    3  502    0 -0.22270279101E+03 -0.22230374768E+03 -0.11520501755E+04  0.11942515268E+04  0.12699999809E+01 0.  1.
       -4    1    3    3    0  502  0.22270279101E+03  0.22230374768E+03 -0.40857380238E+03  0.51570306790E+03  0.12699999809E+01 0. -1.
</event>
<event>
 5   0  0.3717372E-02  0.7029413E+03  0.7818609E-02  0.9712215E-01
        1   -1    0    0  501    0  0.00000000000E+00  0.00000000000E+00  0.54560999893E+03  0.54560999896E+03  0.50400001928E-02 0. -1.
       -1   -1    0    0    0  501  0.00000000000E+00  0.00000000000E+00 -0.22641011197E+03  0.22641011203E+03  0.50400001928E-02 0.  1.
    10030    2    1    2    0    0  0.00000000000E+00  0.00000000000E+00  0.31919988696E+03  0.77202011098E+03  0.70294130902E+03 0.  0.
        3    1    3    3  502    0 -0.17663706449E+03  0.19027723735E+03  0.41978945160E+03  0.49358816181E+03  0.10100000352E+00 0. -1.
       -3    1    3    3    0  502  0.17663706449E+03 -0.19027723735E+03 -0.10058956463E+03  0.27843194917E+03  0.10100000352E+00 0.  1.
</event>
<event>
 5   0  0.6248886E-02  0.7063051E+03  0.7818609E-02  0.9706510E-01
       -2   -1    0    0    0  501  0.00000000000E+00  0.00000000000E+00  0.15394086959E+03  0.15394086961E+03  0.25500000920E-02 0. -1.
        2   -1    0    0  501    0  0.00000000000E+00  0.00000000000E+00 -0.81015983636E+03  0.81015983636E+03  0.25500000920E-02 0.  1.
    10030    2    1    2    0    0  0.00000000000E+00  0.00000000000E+00 -0.65621896677E+03  0.96410070597E+03  0.70630506080E+03 0.  0.
        3    1    3    3  502    0  0.23484679542E+03 -0.14629968943E+03 -0.28556467404E+02  0.27815840537E+03  0.10100000352E+00 0. -1.
       -3    1    3    3    0  502 -0.23484679542E+03  0.14629968943E+03 -0.62766249936E+03  0.68594230060E+03  0.10100000352E+00 0.  1.
</event>
<event>
 5   0  0.6248886E-02  0.7163752E+03  0.7818609E-02  0.9689631E-01
        2   -1    0    0  501    0  0.00000000000E+00  0.00000000000E+00  0.34423202609E+03  0.34423202610E+03  0.25500000920E-02 0.  1.
       -2   -1    0    0    0  501  0.00000000000E+00  0.00000000000E+00 -0.37270895188E+03  0.37270895189E+03  0.25500000920E-02 0. -1.
    10030    2    1    2    0    0  0.00000000000E+00  0.00000000000E+00 -0.28476925793E+02  0.71694097799E+03  0.71637520241E+03 0.  0.
        3    1    3    3  502    0  0.24557335291E+01  0.16114656333E+03  0.30589555891E+03  0.34575475219E+03  0.10100000352E+00 0.  1.
       -3    1    3    3    0  502 -0.24557335291E+01 -0.16114656333E+03 -0.33437248470E+03  0.37118622580E+03  0.10100000352E+00 0. -1.
</event>
<event>
 5   0  0.2439375E-02  0.7137163E+03  0.7818609E-02  0.9694059E-01
       -4   -1    0    0    0  501  0.00000000000E+00  0.00000000000E+00  0.15852270634E+03  0.15852779354E+03  0.12699999809E+01 0. -1.
        4   -1    0    0  501    0  0.00000000000E+00  0.00000000000E+00 -0.80332219787E+03  0.80332320176E+03  0.12699999809E+01 0.  1.
    10030    2    1    2    0    0  0.00000000000E+00  0.00000000000E+00 -0.64479949153E+03  0.96185099530E+03  0.71371629720E+03 0.  0.
        2    1    3    3  502    0 -0.15493395608E+03 -0.18511655921E+03  0.31795593687E+02  0.24348230126E+03  0.25500000920E-02 0. -1.
       -2    1    3    3    0  502  0.15493395608E+03  0.18511655921E+03 -0.67659508521E+03  0.71836869404E+03  0.25500000920E-02 0.  1.
</event>
<event>
 5   0  0.5987810E-02  0.7053254E+03  0.7818609E-02  0.9708168E-01
        2   -1    0    0  501    0  0.00000000000E+00  0.00000000000E+00  0.36124375182E+03  0.36124375182E+03  0.25500000920E-02 0. -1.
       -2   -1    0    0    0  501  0.00000000000E+00  0.00000000000E+00 -0.34428553256E+03  0.34428553257E+03  0.25500000920E-02 0.  1.
    10030    2    1    2    0    0  0.00000000000E+00  0.00000000000E+00  0.16958219253E+02  0.70552928440E+03  0.70532544966E+03 0.  0.
        5    1    3    3  502    0 -0.98445201353E+01 -0.35018469719E+03  0.48773138773E+02  0.35373315619E+03  0.46999998093E+01 0.  1.
       -5    1    3    3    0  502  0.98445201353E+01  0.35018469719E+03 -0.31814919520E+02  0.35179612821E+03  0.46999998093E+01 0. -1.
</event>
<event>
 5   0  0.3601475E-02  0.7259964E+03  0.7818609E-02  0.9673779E-01
        1   -1    0    0  501    0  0.00000000000E+00  0.00000000000E+00  0.14297225789E+04  0.14297225789E+04  0.50400001928E-02 0. -1.
       -1   -1    0    0    0  501  0.00000000000E+00  0.00000000000E+00 -0.92163115609E+02  0.92163115746E+02  0.50400001928E-02 0.  1.
    10030    2    1    2    0    0  0.00000000000E+00  0.00000000000E+00  0.13375594633E+04  0.15218856946E+04  0.72599638411E+03 0.  0.
        5    1    3    3  502    0  0.13811943019E+03  0.12361682405E+03  0.13229626330E+04  0.13358930775E+04  0.46999998093E+01 0. -1.
       -5    1    3    3    0  502 -0.13811943019E+03 -0.12361682405E+03  0.14596830289E+02  0.18599261716E+03  0.46999998093E+01 0.  1.
</event>
<event>
 5   0  0.3755872E-02  0.6902261E+03  0.7818609E-02  0.9734094E-01
       -1   -1    0    0    0  501  0.00000000000E+00  0.00000000000E+00  0.16656302532E+03  0.16656302540E+03  0.50400001928E-02 0.  1.
        1   -1    0    0  501    0  0.00000000000E+00  0.00000000000E+00 -0.71506266909E+03  0.71506266911E+03  0.50400001928E-02 0. -1.
    10030    2    1    2    0    0  0.00000000000E+00  0.00000000000E+00 -0.54849964377E+03  0.88162569451E+03  0.69022605427E+03 0.  0.
        2    1    3    3  502    0 -0.13247009899E+03 -0.31841756834E+03 -0.29065338376E+03  0.45101825291E+03  0.25500000920E-02 0.  1.
       -2    1    3    3    0  502  0.13247009899E+03  0.31841756834E+03 -0.25784626001E+03  0.43060744160E+03  0.25500000920E-02 0. -1.
</event>
<event>
 5   0  0.5987810E-02  0.7018293E+03  0.7818609E-02  0.9714109E-01
       -2   -1    0    0    0  501  0.00000000000E+00  0.00000000000E+00  0.60010749525E+02  0.60010749579E+02  0.25500000920E-02 0.  1.
        2   -1    0    0  501    0  0.00000000000E+00  0.00000000000E+00 -0.20519837759E+04  0.20519837759E+04  0.25500000920E-02 0. -1.
    10030    2    1    2    0    0  0.00000000000E+00  0.00000000000E+00 -0.19919730264E+04  0.21119945255E+04  0.70182927971E+03 0.  0.
        5    1    3    3  502    0  0.34402510634E+03 -0.67937512457E+02 -0.10328688189E+04  0.10907836020E+04  0.46999998093E+01 0. -1.
       -5    1    3    3    0  502 -0.34402510634E+03  0.67937512457E+02 -0.95910420746E+03  0.10212109234E+04  0.46999998093E+01 0.  1.
</event>
<event>
 5   0  0.6131198E-02  0.6997903E+03  0.7818609E-02  0.9717591E-01
       -2   -1    0    0    0  501  0.00000000000E+00  0.00000000000E+00  0.12280820948E+03  0.12280820950E+03  0.25500000920E-02 0. -1.
        2   -1    0    0  501    0  0.00000000000E+00  0.00000000000E+00 -0.99689284206E+03  0.99689284207E+03  0.25500000920E-02 0.  1.
    10030    2    1    2    0    0  0.00000000000E+00  0.00000000000E+00 -0.87408463259E+03  0.11197010516E+04  0.69979032572E+03 0.  0.
        1    1    3    3  502    0 -0.11655847215E+03  0.31329860052E+02 -0.96253022056E+03  0.97006796827E+03  0.50400001928E-02 0.  1.
       -1    1    3    3    0  502  0.11655847215E+03 -0.31329860052E+02  0.88445587969E+02  0.14963308330E+03  0.50400001928E-02 0. -1.
</event>
<event>
 5   0  0.3755872E-02  0.7017515E+03  0.7818609E-02  0.9714242E-01
       -1   -1    0    0    0  501  0.00000000000E+00  0.00000000000E+00  0.10108172288E+03  0.10108172301E+03  0.50400001928E-02 0.  1.
        1   -1    0    0  501    0  0.00000000000E+00  0.00000000000E+00 -0.12179629357E+04  0.12179629357E+04  0.50400001928E-02 0. -1.
    10030    2    1    2    0    0  0.00000000000E+00  0.00000000000E+00 -0.11168812128E+04  0.13190446587E+04  0.70175150027E+03 0.  0.
        2    1    3    3  502    0  0.50402975329E+02 -0.22532202547E+03 -0.61832070731E+02  0.23902652585E+03  0.25500000920E-02 0.  1.
       -2    1    3    3    0  502 -0.50402975329E+02  0.22532202547E+03 -0.10550491421E+04  0.10800181329E+04  0.25500000920E-02 0. -1.
</event>
<event>
 5   0  0.6131198E-02  0.7399118E+03  0.7818609E-02  0.9651311E-01
       -2   -1    0    0    0  501  0.00000000000E+00  0.00000000000E+00  0.15723353678E+03  0.15723353681E+03  0.25500000920E-02 0. -1.
        2   -1    0    0  501    0  0.00000000000E+00  0.00000000000E+00 -0.87047181951E+03  0.87047181951E+03  0.25500000920E-02 0.  1.
    10030    2    1    2    0    0  0.00000000000E+00  0.00000000000E+00 -0.71323828272E+03  0.10277053563E+04  0.73991178627E+03 0.  0.
        1    1    3    3  502    0 -0.26278675926E+03 -0.20807991058E+03 -0.57408394128E+03  0.66477552729E+03  0.50400001928E-02 0.  1.
       -1    1    3    3    0  502  0.26278675926E+03  0.20807991058E+03 -0.13915434144E+03  0.36292982902E+03  0.50400001928E-02 0. -1.
</event>
<event>
 5   0  0.3749730E-02  0.6885243E+03  0.7818609E-02  0.9737061E-01
        1   -1    0    0  501    0  0.00000000000E+00  0.00000000000E+00  0.83068711301E+03  0.83068711303E+03  0.50400001928E-02 0. -1.
       -1   -1    0    0    0  501  0.00000000000E+00  0.00000000000E+00 -0.14267276818E+03  0.14267276827E+03  0.50400001928E-02 0.  1.
    10030    2    1    2    0    0  0.00000000000E+00  0.00000000000E+00  0.68801434483E+03  0.97335988130E+03  0.68852430590E+03 0.  0.
        4    1    3    3  502    0 -0.12947923925E+03 -0.13029053290E+03 -0.67603214148E+02  0.19573529018E+03  0.12699999809E+01 0.  1.
       -4    1    3    3    0  502  0.12947923925E+03  0.13029053290E+03  0.75561755898E+03  0.77762459111E+03  0.12699999809E+01 0. -1.
</event>
<event>
 5   0  0.2439375E-02  0.7014968E+03  0.7818609E-02  0.9714676E-01
        3   -1    0    0  501    0  0.00000000000E+00  0.00000000000E+00  0.52889419868E+03  0.52889420833E+03  0.10100000352E+00 0. -1.
       -3   -1    0    0    0  501  0.00000000000E+00  0.00000000000E+00 -0.23260686242E+03  0.23260688434E+03  0.10100000352E+00 0.  1.
    10030    2    1    2    0    0  0.00000000000E+00  0.00000000000E+00  0.29628733627E+03  0.76150109267E+03  0.70149677726E+03 0.  0.
        4    1    3    3  502    0  0.21115661459E+03  0.22838721669E+03 -0.27817189137E+02  0.31228712036E+03  0.12699999809E+01 0.  1.
       -4    1    3    3    0  502 -0.21115661459E+03 -0.22838721669E+03  0.32410452540E+03  0.44921397231E+03  0.12699999809E+01 0. -1.
</event>
<event>
 5   0  0.6248886E-02  0.7175567E+03  0.7818609E-02  0.9687670E-01
        2   -1    0    0  501    0  0.00000000000E+00  0.00000000000E+00  0.39012109624E+03  0.39012109625E+03  0.25500000920E-02 0. -1.
       -2   -1    0    0    0  501  0.00000000000E+00  0.00000000000E+00 -0.32995373216E+03  0.32995373217E+03  0.25500000920E-02 0.  1.
    10030    2    1    2    0    0  0.00000000000E+00  0.00000000000E+00  0.60167364083E+02  0.72007482842E+03  0.71755672029E+03 0.  0.
        3    1    3    3  502    0  0.22736536859E+03  0.27620648846E+03  0.28431383308E+01  0.35776127339E+03  0.10100000352E+00 0. -1.
       -3    1    3    3    0  502 -0.22736536859E+03 -0.27620648846E+03  0.57324225753E+02  0.36231355503E+03  0.10100000352E+00 0.  1.
</event>
<event>
 5   0  0.3749730E-02  0.6932044E+03  0.7818609E-02  0.9728925E-01
        1   -1    0    0  501    0  0.00000000000E+00  0.00000000000E+00  0.18044922378E+03  0.18044922385E+03  0.50400001928E-02 0.  1.
       -1   -1    0    0    0  501  0.00000000000E+00  0.00000000000E+00 -0.66574457358E+03  0.66574457360E+03  0.50400001928E-02 0. -1.
    10030    2    1    2    0    0  0.00000000000E+00  0.00000000000E+00 -0.48529534980E+03  0.84619379745E+03  0.69320441885E+03 0.  0.
        4    1    3    3  502    0  0.68088741142E+02  0.31535704257E+03 -0.39727382619E+03  0.51177558251E+03  0.12699999809E+01 0. -1.
       -4    1    3    3    0  502 -0.68088741142E+02 -0.31535704257E+03 -0.88021523601E+02  0.33441821495E+03  0.12699999809E+01 0.  1.
</event>
<event>
 5   0  0.6248886E-02  0.6970857E+03  0.7818609E-02  0.9722229E-01
        2   -1    0    0  501    0  0.00000000000E+00  0.00000000000E+00  0.49224519953E+03  0.49224519954E+03  0.25500000920E-02 0.  1.
       -2   -1    0    0    0  501  0.00000000000E+00  0.00000000000E+00 -0.24679184871E+03  0.24679184873E+03  0.25500000920E-02 0. -1.
    10030    2    1    2    0    0  0.00000000000E+00  0.00000000000E+00  0.24545335082E+03  0.73903704826E+03  0.69708565562E+03 0.  0.
        3    1    3    3  502    0  0.16177119575E+02  0.13807158922E+03 -0.21612789088E+03  0.25697614357E+03  0.10100000352E+00 0. -1.
       -3    1    3    3    0  502 -0.16177119575E+02 -0.13807158922E+03  0.46158124170E+03  0.48206090469E+03  0.10100000352E+00 0.  1.
</event>
<event>
 5   0  0.6167756E-02  0.6748915E+03  0.7818609E-02  0.9761161E-01
        2   -1    0    0  501    0  0.00000000000E+00  0.00000000000E+00  0.84466754244E+03  0.84466754245E+03  0.25500000920E-02 0.  1.
       -2   -1    0    0    0  501  0.00000000000E+00  0.00000000000E+00 -0.13481001358E+03  0.13481001361E+03  0.25500000920E-02 0. -1.
    10030    2    1    2    0    0  0.00000000000E+00  0.00000000000E+00  0.70985752886E+03  0.97947755606E+03  0.67489152576E+03 0.  0.
        4    1    3    3  502    0 -0.28367853007E+03 -0.12018457661E+03  0.15514173569E+03  0.34494696974E+03  0.12699999809E+01 0. -1.
       -4    1    3    3    0  502  0.28367853007E+03  0.12018457661E+03  0.55471579317E+03  0.63453058632E+03  0.12699999809E+01 0.  1.
</event>
<event>
 5   0  0.5899787E-02  0.7169436E+03  0.7818609E-02  0.9688687E-01
        2   -1    0    0  501    0  0.00000000000E+00  0.00000000000E+00  0.95020653484E+03  0.95020653485E+03  0.25500000920E-02 0. -1.
       -2   -1    0    0    0  501  0.00000000000E+00  0.00000000000E+00 -0.13523589295E+03  0.13523589297E+03  0.25500000920E-02 0.  1.
    10030    2    1    2    0    0  0.00000000000E+00  0.00000000000E+00  0.81497064190E+03  0.10854424278E+04  0.71694359399E+03 0.  0.
        2    1    3    3  502    0 -0.10482152967E+02 -0.35825372781E+03  0.41780046647E+03  0.55046601967E+03  0.25500000920E-02 0.  1.
       -2    1    3    3    0  502  0.10482152967E+02  0.35825372781E+03  0.39717017543E+03  0.53497640815E+03  0.25500000920E-02 0. -1.
</event>
<event>
 5   0  0.5899787E-02  0.7003434E+03  0.7818609E-02  0.9716645E-01
        2   -1    0    0  501    0  0.00000000000E+00  0.00000000000E+00  0.75659504986E+03  0.75659504986E+03  0.25500000920E-02 0.  1.
       -2   -1    0    0    0  501  0.00000000000E+00  0.00000000000E+00 -0.16206849936E+03  0.16206849938E+03  0.25500000920E-02 0. -1.
    10030    2    1    2    0    0  0.00000000000E+00  0.00000000000E+00  0.59452655050E+03  0.91866354924E+03  0.70034341394E+03 0.  0.
        2    1    3    3  502    0  0.19648213763E+03  0.13466004428E+03 -0.39424791365E+02  0.24143916856E+03  0.25500000920E-02 0. -1.
       -2    1    3    3    0  502 -0.19648213763E+03 -0.13466004428E+03  0.63395134187E+03  0.67722438068E+03  0.25500000920E-02 0.  1.
</event>
<event>
 5   0  0.3755872E-02  0.7077731E+03  0.7818609E-02  0.9704031E-01
       -1   -1    0    0    0  501  0.00000000000E+00  0.00000000000E+00  0.36255782150E+03  0.36255782154E+03  0.50400001928E-02 0. -1.
        1   -1    0    0  501    0  0.00000000000E+00  0.00000000000E+00 -0.34542267230E+03  0.34542267234E+03  0.50400001928E-02 0.  1.
    10030    2    1    2    0    0  0.00000000000E+00  0.00000000000E+00  0.17135149202E+02  0.70798049387E+03  0.70777310373E+03 0.  0.
        2    1    3    3  502    0 -0.24366080685E+03 -0.16038688956E+03 -0.19184369264E+03  0.34913972211E+03  0.25500000920E-02 0.  1.
       -2    1    3    3    0  502  0.24366080685E+03  0.16038688956E+03  0.20897884185E+03  0.35884077177E+03  0.25500000920E-02 0. -1.
</event>
<event>
 5   0  0.5899787E-02  0.7041392E+03  0.7818609E-02  0.9710180E-01
       -2   -1    0    0    0  501  0.00000000000E+00  0.00000000000E+00  0.20262283721E+03  0.20262283723E+03  0.25500000920E-02 0. -1.
        2   -1    0    0  501    0  0.00000000000E+00  0.00000000000E+00 -0.61174256199E+03  0.61174256199E+03  0.25500000920E-02 0.  1.
    10030    2    1    2    0    0  0.00000000000E+00  0.00000000000E+00 -0.40911972477E+03  0.81436539922E+03  0.70413922931E+03 0.  0.
        2    1    3    3  502    0 -0.68622768395E+02  0.16378772512E+03  0.14703126333E+03  0.23055085262E+03  0.25500000920E-02 0. -1.
       -2    1    3    3    0  502  0.68622768395E+02 -0.16378772512E+03 -0.55615098810E+03  0.58381454660E+03  0.25500000920E-02 0.  1.
</event>
<event>
 5   0  0.5987810E-02  0.7080389E+03  0.7818609E-02  0.9703583E-01
       -2   -1    0    0    0  501  0.00000000000E+00  0.00000000000E+00  0.23605812398E+03  0.23605812399E+03  0.25500000920E-02 0. -1.
        2   -1    0    0  501    0  0.00000000000E+00  0.00000000000E+00 -0.53092753285E+03  0.53092753285E+03  0.25500000920E-02 0.  1.
    10030    2    1    2    0    0  0.00000000000E+00  0.00000000000E+00 -0.29486940887E+03  0.76698565684E+03  0.70803886159E+03 0.  0.
        5    1    3    3  502    0 -0.24227728736E+02  0.99721555365E+02 -0.51442641086E+03  0.52458363836E+03  0.46999998093E+01 0.  1.
       -5    1    3    3    0  502  0.24227728736E+02 -0.99721555365E+02  0.21955700199E+03  0.24240201848E+03  0.46999998093E+01 0. -1.
</event>
<event>
 5   0  0.5987810E-02  0.6273932E+03  0.7818609E-02  0.9850149E-01
        2   -1    0    0  501    0  0.00000000000E+00  0.00000000000E+00  0.14624166498E+03  0.14624166500E+03  0.25500000920E-02 0.  1.
       -2   -1    0    0    0  501  0.00000000000E+00  0.00000000000E+00 -0.67289689432E+03  0.67289689432E+03  0.25500000920E-02 0. -1.
    10030    2    1    2    0    0  0.00000000000E+00  0.00000000000E+00 -0.52665522933E+03  0.81913855932E+03  0.62739321704E+03 0.  0.
        5    1    3    3  502    0  0.13676932488E+03  0.13713713782E+03  0.58796230068E+02  0.20246364974E+03  0.46999998093E+01 0.  1.
       -5    1    3    3    0  502 -0.13676932488E+03 -0.13713713782E+03 -0.58545145940E+03  0.61667490958E+03  0.46999998093E+01 0. -1.
</event>
<event>
 5   0  0.6248886E-02  0.7054668E+03  0.7818609E-02  0.9707929E-01
        2   -1    0    0  501    0  0.00000000000E+00  0.00000000000E+00  0.21548606401E+03  0.21548606403E+03  0.25500000920E-02 0.  1.
       -2   -1    0    0    0  501  0.00000000000E+00  0.00000000000E+00 -0.57739622347E+03  0.57739622347E+03  0.25500000920E-02 0. -1.
    10030    2    1    2    0    0  0.00000000000E+00  0.00000000000E+00 -0.36191015946E+03  0.79288228750E+03  0.70546676627E+03 0.  0.
        3    1    3    3  502    0 -0.18380195496E+03 -0.29952661199E+03 -0.14683775402E+03  0.38086833177E+03  0.10100000352E+00 0.  1.
       -3    1    3    3    0  502  0.18380195496E+03  0.29952661199E+03 -0.21507240543E+03  0.41201395573E+03  0.10100000352E+00 0. -1.
</event>
<event>
 5   0  0.3717372E-02  0.9475230E+03  0.7818609E-02  0.9368050E-01
       -1   -1    0    0    0  501  0.00000000000E+00  0.00000000000E+00  0.36280001298E+03  0.36280001301E+03  0.50400001928E-02 0. -1.
        1   -1    0    0  501    0  0.00000000000E+00  0.00000000000E+00 -0.61866032796E+03  0.61866032799E+03  0.50400001928E-02 0.  1.
    10030    2    1    2    0    0  0.00000000000E+00  0.00000000000E+00 -0.25586031499E+03  0.98146034100E+03  0.94752303411E+03 0.  0.
        3    1    3    3  502    0  0.29273216670E+02  0.46943354839E+03 -0.69105359110E+02  0.47539492891E+03  0.10100000352E+00 0. -1.
       -3    1    3    3    0  502 -0.29273216670E+02 -0.46943354839E+03 -0.18675495588E+03  0.50606541209E+03  0.10100000352E+00 0.  1.
</event>
<event>
 5   0  0.2439375E-02  0.7003894E+03  0.7818609E-02  0.9716567E-01
        3   -1    0    0  501    0  0.00000000000E+00  0.00000000000E+00  0.35335179374E+03  0.35335180818E+03  0.10100000352E+00 0.  1.
       -3   -1    0    0    0  501  0.00000000000E+00  0.00000000000E+00 -0.34706575056E+03  0.34706576526E+03  0.10100000352E+00 0. -1.
    10030    2    1    2    0    0  0.00000000000E+00  0.00000000000E+00  0.62860431763E+01  0.70041757344E+03  0.70038936517E+03 0.  0.
        5    1    3    3  502    0 -0.62053716753E+02 -0.22970254918E+03  0.26005860557E+03  0.35251452906E+03  0.46999998093E+01 0.  1.
       -5    1    3    3    0  502  0.62053716753E+02  0.22970254918E+03 -0.25377256240E+03  0.34790304438E+03  0.46999998093E+01 0. -1.
</event>
<event>
 5   0  0.3439015E-02  0.6846790E+03  0.7818609E-02  0.9743798E-01
       -1   -1    0    0    0  501  0.00000000000E+00  0.00000000000E+00  0.33967472685E+03  0.33967472689E+03  0.50400001928E-02 0. -1.
        1   -1    0    0  501    0  0.00000000000E+00  0.00000000000E+00 -0.34502521715E+03  0.34502521719E+03  0.50400001928E-02 0.  1.
    10030    2    1    2    0    0  0.00000000000E+00  0.00000000000E+00 -0.53504902976E+01  0.68469994408E+03  0.68467903844E+03 0.  0.
        1    1    3    3  502    0 -0.79314971790E+02  0.33225230228E+03  0.19994572990E+02  0.34217282197E+03  0.50400001928E-02 0. -1.
       -1    1    3    3    0  502  0.79314971790E+02 -0.33225230228E+03 -0.25345063287E+02  0.34252712211E+03  0.50400001928E-02 0.  1.
</event>
<event>
 5   0  0.6248886E-02  0.7026725E+03  0.7818609E-02  0.9712673E-01
        2   -1    0    0  501    0  0.00000000000E+00  0.00000000000E+00  0.11828243848E+04  0.11828243849E+04  0.25500000920E-02 0. -1.
       -2   -1    0    0    0  501  0.00000000000E+00  0.00000000000E+00 -0.10435798787E+03  0.10435798790E+03  0.25500000920E-02 0.  1.
    10030    2    1    2    0    0  0.00000000000E+00  0.00000000000E+00  0.10784663970E+04  0.12871823727E+04  0.70267253490E+03 0.  0.
        3    1    3    3  502    0  0.10961046479E+02  0.23717186092E+03  0.10136280989E+04  0.10410631918E+04  0.10100000352E+00 0. -1.
       -3    1    3    3    0  502 -0.10961046479E+02 -0.23717186092E+03  0.64838298079E+02  0.24611918099E+03  0.10100000352E+00 0.  1.
</event>
<event>
 5   0  0.2439375E-02  0.6918257E+03  0.7818609E-02  0.9731314E-01
       -4   -1    0    0    0  501  0.00000000000E+00  0.00000000000E+00  0.56701213963E+03  0.56701356191E+03  0.12699999809E+01 0. -1.
        4   -1    0    0  501    0  0.00000000000E+00  0.00000000000E+00 -0.21102488883E+03  0.21102871038E+03  0.12699999809E+01 0.  1.
    10030    2    1    2    0    0  0.00000000000E+00  0.00000000000E+00  0.35598725081E+03  0.77804227229E+03  0.69182574015E+03 0.  0.
        1    1    3    3  502    0 -0.14669786286E+03 -0.29444613127E+03  0.57722564576E+02  0.33399203834E+03  0.50400001928E-02 0.  1.
       -1    1    3    3    0  502  0.14669786286E+03  0.29444613127E+03  0.29826468623E+03  0.44405023395E+03  0.50400001928E-02 0. -1.
</event>
<event>
 5   0  0.6167756E-02  0.7004958E+03  0.7818609E-02  0.9716385E-01
       -2   -1    0    0    0  501  0.00000000000E+00  0.00000000000E+00  0.12978106734E+03  0.12978106737E+03  0.25500000920E-02 0.  1.
        2   -1    0    0  501    0  0.00000000000E+00  0.00000000000E+00 -0.94523483468E+03  0.94523483468E+03  0.25500000920E-02 0. -1.
    10030    2    1    2    0    0  0.00000000000E+00  0.00000000000E+00 -0.81545376734E+03  0.10750159021E+04  0.70049578371E+03 0.  0.
        4    1    3    3  502    0 -0.17157823382E+03  0.21981465781E+03 -0.73296553992E+03  0.78421787134E+03  0.12699999809E+01 0. -1.
       -4    1    3    3    0  502  0.17157823382E+03 -0.21981465781E+03 -0.82488227414E+02  0.29079803072E+03  0.12699999809E+01 0.  1.
</event>
<event>
 5   0  0.2439375E-02  0.7035738E+03  0.7818609E-02  0.9711140E-01
       -3   -1    0    0    0  501  0.00000000000E+00  0.00000000000E+00  0.28376641031E+03  0.28376642828E+03  0.10100000352E+00 0. -1.
        3   -1    0    0  501    0  0.00000000000E+00  0.00000000000E+00 -0.43611229466E+03  0.43611230635E+03  0.10100000352E+00 0.  1.
    10030    2    1    2    0    0  0.00000000000E+00  0.00000000000E+00 -0.15234588434E+03  0.71987873464E+03  0.70357382278E+03 0.  0.
        2    1    3    3  502    0 -0.34537409863E+03  0.66853327421E+02 -0.74964199285E+02  0.35968356451E+03  0.25500000920E-02 0.  1.
       -2    1    3    3    0  502  0.34537409863E+03 -0.66853327421E+02 -0.77381685059E+02  0.36019517013E+03  0.25500000920E-02 0. -1.
</event>
<event>
 5   0  0.3749730E-02  0.6670086E+03  0.7818609E-02  0.9775377E-01
       -1   -1    0    0    0  501  0.00000000000E+00  0.00000000000E+00  0.10536114016E+03  0.10536114028E+03  0.50400001928E-02 0.  1.
        1   -1    0    0  501    0  0.00000000000E+00  0.00000000000E+00 -0.10556559904E+04  0.10556559904E+04  0.50400001928E-02 0. -1.
    10030    2    1    2    0    0  0.00000000000E+00  0.00000000000E+00 -0.95029485019E+03  0.11610171306E+04  0.66700860215E+03 0.  0.
        4    1    3    3  502    0  0.12958066075E+03 -0.26181997048E+03 -0.19511284864E+03  0.35129970280E+03  0.12699999809E+01 0.  1.
       -4    1    3    3    0  502 -0.12958066075E+03  0.26181997048E+03 -0.75518200156E+03  0.80971742785E+03  0.12699999809E+01 0. -1.
</event>
<event>
 5   0  0.6167756E-02  0.6935702E+03  0.7818609E-02  0.9728292E-01
        2   -1    0    0  501    0  0.00000000000E+00  0.00000000000E+00  0.94015034125E+03  0.94015034125E+03  0.25500000920E-02 0. -1.
       -2   -1    0    0    0  501  0.00000000000E+00  0.00000000000E+00 -0.12791561707E+03  0.12791561709E+03  0.25500000920E-02 0.  1.
    10030    2    1    2    0    0  0.00000000000E+00  0.00000000000E+00  0.81223472418E+03  0.10680659583E+04  0.69357021578E+03 0.  0.
        4    1    3    3  502    0  0.27581071532E+03 -0.20832662579E+03  0.36292270767E+03  0.50118463498E+03  0.12699999809E+01 0.  1.
       -4    1    3    3    0  502 -0.27581071532E+03  0.20832662579E+03  0.44931201651E+03  0.56688132337E+03  0.12699999809E+01 0. -1.
</event>
<event>
 5   0  0.6131198E-02  0.7071255E+03  0.7818609E-02  0.9705124E-01
        2   -1    0    0  501    0  0.00000000000E+00  0.00000000000E+00  0.11595613954E+04  0.11595613954E+04  0.25500000920E-02 0.  1.
       -2   -1    0    0    0  501  0.00000000000E+00  0.00000000000E+00 -0.10780509069E+03  0.10780509072E+03  0.25500000920E-02 0. -1.
    10030    2    1    2    0    0  0.00000000000E+00  0.00000000000E+00  0.10517563047E+04  0.12673664861E+04  0.70712550912E+03 0.  0.
        1    1    3    3  502    0  0.76330921052E+02  0.18615511105E+03  0.48008900719E+01  0.20125402717E+03  0.50400001928E-02 0. -1.
       -1    1    3    3    0  502 -0.76330921052E+02 -0.18615511105E+03  0.10469554146E+04  0.10661124589E+04  0.50400001928E-02 0.  1.
</event>
<event>
 5   0  0.5899787E-02  0.6978198E+03  0.7818609E-02  0.9720968E-01
        2   -1    0    0  501    0  0.00000000000E+00  0.00000000000E+00  0.31652653009E+03  0.31652653010E+03  0.25500000920E-02 0.  1.
       -2   -1    0    0    0  501  0.00000000000E+00  0.00000000000E+00 -0.38460639428E+03  0.38460639428E+03  0.25500000920E-02 0. -1.
    10030    2    1    2    0    0  0.00000000000E+00  0.00000000000E+00 -0.68079864184E+02  0.70113292438E+03  0.69781982614E+03 0.  0.
        2    1    3    3  502    0  0.24792372986E+03  0.17458454229E+03  0.13938369535E+03  0.33372706328E+03  0.25500000920E-02 0.  1.
       -2    1    3    3    0  502 -0.24792372986E+03 -0.17458454229E+03 -0.20746355953E+03  0.36740586110E+03  0.25500000920E-02 0. -1.
</event>
<event>
 5   0  0.3717372E-02  0.6989458E+03  0.7818609E-02  0.9719037E-01
       -1   -1    0    0    0  501  0.00000000000E+00  0.00000000000E+00  0.28954921438E+03  0.28954921443E+03  0.50400001928E-02 0.  1.
        1   -1    0    0  501    0  0.00000000000E+00  0.00000000000E+00 -0.42179813034E+03  0.42179813037E+03  0.50400001928E-02 0. -1.
    10030    2    1    2    0    0  0.00000000000E+00  0.00000000000E+00 -0.13224891595E+03  0.71134734480E+03  0.69894582707E+03 0.  0.
        3    1    3    3  502    0 -0.79566411298E+02  0.17783690819E+03  0.22915180903E+03  0.30077789398E+03  0.10100000352E+00 0.  1.
       -3    1    3    3    0  502  0.79566411298E+02 -0.17783690819E+03 -0.36140072499E+03  0.41056945082E+03  0.10100000352E+00 0. -1.
</event>
<event>
 5   0  0.3601475E-02  0.6599176E+03  0.7818609E-02  0.9788345E-01
       -1   -1    0    0    0  501  0.00000000000E+00  0.00000000000E+00  0.36030355871E+03  0.36030355874E+03  0.50400001928E-02 0.  1.
        1   -1    0    0  501    0  0.00000000000E+00  0.00000000000E+00 -0.30216971790E+03  0.30216971794E+03  0.50400001928E-02 0. -1.
    10030    2    1    2    0    0  0.00000000000E+00  0.00000000000E+00  0.58133840809E+02  0.66247327668E+03  0.65991764552E+03 0.  0.
        5    1    3    3  502    0  0.26262360063E+03  0.10241801475E+03  0.20116632660E+03  0.34633883165E+03  0.46999998093E+01 0.  1.
       -5    1    3    3    0  502 -0.26262360063E+03 -0.10241801475E+03 -0.14303248579E+03  0.31613444504E+03  0.46999998093E+01 0. -1.
</event>
<event>
 5   0  0.3749730E-02  0.6634363E+03  0.7818609E-02  0.9781889E-01
        1   -1    0    0  501    0  0.00000000000E+00  0.00000000000E+00  0.20780353942E+04  0.20780353942E+04  0.50400001928E-02 0. -1.
       -1   -1    0    0    0  501  0.00000000000E+00  0.00000000000E+00 -0.52952385455E+02  0.52952385695E+02  0.50400001928E-02 0.  1.
    10030    2    1    2    0    0  0.00000000000E+00  0.00000000000E+00  0.20250830087E+04  0.21309877799E+04  0.66343630122E+03 0.  0.
        4    1    3    3  502    0  0.72696536924E+01 -0.25302775686E+03  0.32393832882E+03  0.41111257265E+03  0.12699999809E+01 0.  1.
       -4    1    3    3    0  502 -0.72696536924E+01  0.25302775686E+03  0.17011446799E+04  0.17198752072E+04  0.12699999809E+01 0. -1.
</event>
<event>
 5   0  0.3755872E-02  0.7058416E+03  0.7818609E-02  0.9707294E-01
        1   -1    0    0  501    0  0.00000000000E+00  0.00000000000E+00  0.23429000608E+03  0.23429000613E+03  0.50400001928E-02 0.  1.
       -1   -1    0    0    0  501  0.00000000000E+00  0.00000000000E+00 -0.53161928609E+03  0.53161928611E+03  0.50400001928E-02 0. -1.
    10030    2    1    2    0    0  0.00000000000E+00  0.00000000000E+00 -0.29732928001E+03  0.76590929225E+03  0.70584158506E+03 0.  0.
        2    1    3    3  502    0 -0.53157469060E+02  0.98673761358E+02  0.21446473587E+03  0.24198626126E+03  0.25500000920E-02 0.  1.
       -2    1    3    3    0  502  0.53157469060E+02 -0.98673761358E+02 -0.51179401589E+03  0.52392303099E+03  0.25500000920E-02 0. -1.
</event>
<event>
 5   0  0.5899787E-02  0.7176709E+03  0.7818609E-02  0.9687481E-01
       -2   -1    0    0    0  501  0.00000000000E+00  0.00000000000E+00  0.82610498559E+03  0.82610498559E+03  0.25500000920E-02 0. -1.
        2   -1    0    0  501    0  0.00000000000E+00  0.00000000000E+00 -0.15586746955E+03  0.15586746957E+03  0.25500000920E-02 0.  1.
    10030    2    1    2    0    0  0.00000000000E+00  0.00000000000E+00  0.67023751604E+03  0.98197245516E+03  0.71767093768E+03 0.  0.
        2    1    3    3  502    0 -0.29277740579E+02 -0.82768700327E+02  0.81118282399E+03  0.81591998247E+03  0.25500000920E-02 0. -1.
       -2    1    3    3    0  502  0.29277740579E+02  0.82768700327E+02 -0.14094530795E+03  0.16605247269E+03  0.25500000920E-02 0.  1.
</event>
<event>
 5   0  0.5987810E-02  0.6951949E+03  0.7818609E-02  0.9725485E-01
       -2   -1    0    0    0  501  0.00000000000E+00  0.00000000000E+00  0.27486973866E+03  0.27486973867E+03  0.25500000920E-02 0.  1.
        2   -1    0    0  501    0  0.00000000000E+00  0.00000000000E+00 -0.43956820798E+03  0.43956820799E+03  0.25500000920E-02 0. -1.
    10030    2    1    2    0    0  0.00000000000E+00  0.00000000000E+00 -0.16469846932E+03  0.71443794666E+03  0.69519493225E+03 0.  0.
        5    1    3    3  502    0 -0.23849652062E+03  0.37941654447E+02  0.17453325688E+03  0.29800017994E+03  0.46999998093E+01 0.  1.
       -5    1    3    3    0  502  0.23849652062E+03 -0.37941654447E+02 -0.33923172620E+03  0.41643776672E+03  0.46999998093E+01 0. -1.
</event>
<event>
 5   0  0.3439015E-02  0.6933493E+03  0.7818609E-02  0.9728674E-01
       -1   -1    0    0    0  501  0.00000000000E+00  0.00000000000E+00  0.90695294438E+02  0.90695294578E+02  0.50400001928E-02 0. -1.
        1   -1    0    0  501    0  0.00000000000E+00  0.00000000000E+00 -0.13251330113E+04  0.13251330113E+04  0.50400001928E-02 0.  1.
    10030    2    1    2    0    0  0.00000000000E+00  0.00000000000E+00 -0.12344377168E+04  0.14158283058E+04  0.69334934551E+03 0.  0.
        1    1    3    3  502    0  0.26522814225E+03 -0.11542419398E+03 -0.22701473548E+03  0.36770151230E+03  0.50400001928E-02 0. -1.
       -1    1    3    3    0  502 -0.26522814225E+03  0.11542419398E+03 -0.10074229813E+04  0.10481267935E+04  0.50400001928E-02 0.  1.
</event>
<event>
 5   0  0.6131198E-02  0.7129007E+03  0.7818609E-02  0.9695421E-01
        2   -1    0    0  501    0  0.00000000000E+00  0.00000000000E+00  0.18187313509E+04  0.18187313509E+04  0.25500000920E-02 0.  1.
       -2   -1    0    0    0  501  0.00000000000E+00  0.00000000000E+00 -0.69860152805E+02  0.69860152851E+02  0.25500000920E-02 0. -1.
    10030    2    1    2    0    0  0.00000000000E+00  0.00000000000E+00  0.17488711981E+04  0.18885915037E+04  0.71290069470E+03 0.  0.
        1    1    3    3  502    0 -0.10944198218E+03  0.19395121494E+02  0.17716508182E+04  0.17751338935E+04  0.50400001928E-02 0.  1.
       -1    1    3    3    0  502  0.10944198218E+03 -0.19395121494E+02 -0.22779620127E+02  0.11345761023E+03  0.50400001928E-02 0. -1.
</event>
<event>
 5   0  0.3749730E-02  0.7104566E+03  0.7818609E-02  0.9699515E-01
       -1   -1    0    0    0  501  0.00000000000E+00  0.00000000000E+00  0.15615053627E+03  0.15615053635E+03  0.50400001928E-02 0. -1.
        1   -1    0    0  501    0  0.00000000000E+00  0.00000000000E+00 -0.80811223144E+03  0.80811223146E+03  0.50400001928E-02 0.  1.
    10030    2    1    2    0    0  0.00000000000E+00  0.00000000000E+00 -0.65196169517E+03  0.96426276781E+03  0.71045663725E+03 0.  0.
        4    1    3    3  502    0 -0.11661884619E+03 -0.27154788762E+03 -0.58471823514E+02  0.30126197504E+03  0.12699999809E+01 0. -1.
       -4    1    3    3    0  502  0.11661884619E+03  0.27154788762E+03 -0.59348987166E+03  0.66300079277E+03  0.12699999809E+01 0.  1.
</event>
<event>
 5   0  0.5987810E-02  0.7085258E+03  0.7818609E-02  0.9702762E-01
       -2   -1    0    0    0  501  0.00000000000E+00  0.00000000000E+00  0.18161661257E+04  0.18161661257E+04  0.25500000920E-02 0.  1.
        2   -1    0    0  501    0  0.00000000000E+00  0.00000000000E+00 -0.69102822638E+02  0.69102822685E+02  0.25500000920E-02 0. -1.
    10030    2    1    2    0    0  0.00000000000E+00  0.00000000000E+00  0.17470633031E+04  0.18852689484E+04  0.70852580959E+03 0.  0.
        5    1    3    3  502    0  0.15550841601E+03  0.31665164440E+03  0.78817801538E+03  0.86353795822E+03  0.46999998093E+01 0.  1.
       -5    1    3    3    0  502 -0.15550841601E+03 -0.31665164440E+03  0.95888528772E+03  0.10217309902E+04  0.46999998093E+01 0. -1.
</event>
<event>
 5   0  0.6167756E-02  0.6980704E+03  0.7818609E-02  0.9720538E-01
       -2   -1    0    0    0  501  0.00000000000E+00  0.00000000000E+00  0.13814560123E+03  0.13814560126E+03  0.25500000920E-02 0. -1.
        2   -1    0    0  501    0  0.00000000000E+00  0.00000000000E+00 -0.88186346879E+03  0.88186346879E+03  0.25500000920E-02 0.  1.
    10030    2    1    2    0    0  0.00000000000E+00  0.00000000000E+00 -0.74371786755E+03  0.10200090700E+04  0.69807036641E+03 0.  0.
        4    1    3    3  502    0 -0.29666634286E+02  0.33574256592E+03 -0.23937567978E+03  0.41340719482E+03  0.12699999809E+01 0. -1.
       -4    1    3    3    0  502  0.29666634286E+02 -0.33574256592E+03 -0.50434218778E+03  0.60660187523E+03  0.12699999809E+01 0.  1.
</event>
<event>
 5   0  0.5987810E-02  0.7113947E+03  0.7818609E-02  0.9697942E-01
        2   -1    0    0  501    0  0.00000000000E+00  0.00000000000E+00  0.22448994262E+04  0.22448994262E+04  0.25500000920E-02 0.  1.
       -2   -1    0    0    0  501  0.00000000000E+00  0.00000000000E+00 -0.56359140315E+02  0.56359140373E+02  0.25500000920E-02 0. -1.
    10030    2    1    2    0    0  0.00000000000E+00  0.00000000000E+00  0.21885402859E+04  0.23012585666E+04  0.71139469163E+03 0.  0.
        5    1    3    3  502    0  0.25738782390E+03 -0.16927497575E+02  0.18864033355E+04  0.19039628847E+04  0.46999998093E+01 0.  1.
       -5    1    3    3    0  502 -0.25738782390E+03  0.16927497575E+02  0.30213695038E+03  0.39729568189E+03  0.46999998093E+01 0. -1.
</event>
<event>
 5   0  0.5987810E-02  0.6968072E+03  0.7818609E-02  0.9722708E-01
        2   -1    0    0  501    0  0.00000000000E+00  0.00000000000E+00  0.41422621621E+03  0.41422621622E+03  0.25500000920E-02 0. -1.
       -2   -1    0    0    0  501  0.00000000000E+00  0.00000000000E+00 -0.29304051550E+03  0.29304051551E+03  0.25500000920E-02 0.  1.
    10030    2    1    2    0    0  0.00000000000E+00  0.00000000000E+00  0.12118570071E+03  0.70726673173E+03  0.69680718693E+03 0.  0.
        5    1    3    3  502    0 -0.24313631228E+03  0.24911472100E+03  0.46617978939E+02  0.35123885965E+03  0.46999998093E+01 0.  1.
       -5    1    3    3    0  502  0.24313631228E+03 -0.24911472100E+03  0.74567721775E+02  0.35602787208E+03  0.46999998093E+01 0. -1.
</event>
<event>
 5   0  0.2439375E-02  0.6752629E+03  0.7818609E-02  0.9760497E-01
       -4   -1    0    0    0  501  0.00000000000E+00  0.00000000000E+00  0.19499293328E+03  0.19499706903E+03  0.12699999809E+01 0. -1.
        4   -1    0    0  501    0  0.00000000000E+00  0.00000000000E+00 -0.58459991738E+03  0.58460129686E+03  0.12699999809E+01 0.  1.
    10030    2    1    2    0    0  0.00000000000E+00  0.00000000000E+00 -0.38960698409E+03  0.77959836589E+03  0.67526291920E+03 0.  0.
        2    1    3    3  502    0  0.17004003248E+03  0.28945594665E+03 -0.23637622073E+03  0.41057529812E+03  0.25500000920E-02 0. -1.
       -2    1    3    3    0  502 -0.17004003248E+03 -0.28945594665E+03 -0.15323076337E+03  0.36902306777E+03  0.25500000920E-02 0.  1.
</event>
<event>
 5   0  0.6131198E-02  0.7376847E+03  0.7818609E-02  0.9654872E-01
       -2   -1    0    0    0  501  0.00000000000E+00  0.00000000000E+00  0.13286028611E+03  0.13286028614E+03  0.25500000920E-02 0.  1.
        2   -1    0    0  501    0  0.00000000000E+00  0.00000000000E+00 -0.10239679188E+04  0.10239679188E+04  0.25500000920E-02 0. -1.
    10030    2    1    2    0    0  0.00000000000E+00  0.00000000000E+00 -0.89110763273E+03  0.11568282050E+04  0.73768467703E+03 0.  0.
        1    1    3    3  502    0 -0.33704196046E+03 -0.13087450178E+03 -0.55992678734E+03  0.66651588543E+03  0.50400001928E-02 0.  1.
       -1    1    3    3    0  502  0.33704196046E+03  0.13087450178E+03 -0.33118084539E+03  0.49031231955E+03  0.50400001928E-02 0. -1.
</event>
<event>
 5   0  0.3755872E-02  0.7071710E+03  0.7818609E-02  0.9705047E-01
       -1   -1    0    0    0  501  0.00000000000E+00  0.00000000000E+00  0.20664402829E+03  0.20664402835E+03  0.50400001928E-02 0. -1.
        1   -1    0    0  501    0  0.00000000000E+00  0.00000000000E+00 -0.60501486464E+03  0.60501486466E+03  0.50400001928E-02 0.  1.
    10030    2    1    2    0    0  0.00000000000E+00  0.00000000000E+00 -0.39837083635E+03  0.81165889301E+03  0.70717100856E+03 0.  0.
        2    1    3    3  502    0  0.18181505985E+03  0.17202084121E+03 -0.48583661986E+03  0.54652091177E+03  0.25500000920E-02 0.  1.
       -2    1    3    3    0  502 -0.18181505985E+03 -0.17202084121E+03  0.87465783512E+02  0.26513798123E+03  0.25500000920E-02 0. -1.
</event>
<event>
 5   0  0.6167756E-02  0.6931037E+03  0.7818609E-02  0.9729099E-01
        2   -1    0    0  501    0  0.00000000000E+00  0.00000000000E+00  0.11638487420E+04  0.11638487420E+04  0.25500000920E-02 0.  1.
       -2   -1    0    0    0  501  0.00000000000E+00  0.00000000000E+00 -0.10319055714E+03  0.10319055717E+03  0.25500000920E-02 0. -1.
    10030    2    1    2    0    0  0.00000000000E+00  0.00000000000E+00  0.10606581848E+04  0.12670392992E+04  0.69310374442E+03 0.  0.
        4    1    3    3  502    0  0.11560810212E+03  0.26036042692E+03  0.16957520902E+03  0.33152699679E+03  0.12699999809E+01 0. -1.
       -4    1    3    3    0  502 -0.11560810212E+03 -0.26036042692E+03  0.89108297582E+03  0.93551230237E+03  0.12699999809E+01 0.  1.
</event>
<event>
 5   0  0.3717372E-02  0.6935416E+03  0.7818609E-02  0.9728341E-01
       -1   -1    0    0    0  501  0.00000000000E+00  0.00000000000E+00  0.99475501375E+02  0.99475501503E+02  0.50400001928E-02 0. -1.
        1   -1    0    0  501    0  0.00000000000E+00  0.00000000000E+00 -0.12088403087E+04  0.12088403087E+04  0.50400001928E-02 0.  1.
    10030    2    1    2    0    0  0.00000000000E+00  0.00000000000E+00 -0.11093648073E+04  0.13083158102E+04  0.69354162350E+03 0.  0.
        3    1    3    3  502    0  0.31231968575E+03 -0.10048665331E+03 -0.34285726987E+03  0.47454427749E+03  0.10100000352E+00 0. -1.
       -3    1    3    3    0  502 -0.31231968575E+03  0.10048665331E+03 -0.76650753748E+03  0.83377153274E+03  0.10100000352E+00 0.  1.
</event>
<event>
 5   0  0.6248886E-02  0.7062117E+03  0.7818609E-02  0.9706668E-01
        2   -1    0    0  501    0  0.00000000000E+00  0.00000000000E+00  0.84874334421E+03  0.84874334422E+03  0.25500000920E-02 0. -1.
       -2   -1    0    0    0  501  0.00000000000E+00  0.00000000000E+00 -0.14690393700E+03  0.14690393702E+03  0.25500000920E-02 0.  1.
    10030    2    1    2    0    0  0.00000000000E+00  0.00000000000E+00  0.70183940722E+03  0.99564728124E+03  0.70621169284E+03 0.  0.
        3    1    3    3  502    0  0.56811380864E+02 -0.28774425146E+03  0.73716404242E+02  0.30242090817E+03  0.10100000352E+00 0.  1.
       -3    1    3    3    0  502 -0.56811380864E+02  0.28774425146E+03  0.62812300297E+03  0.69322637306E+03  0.10100000352E+00 0. -1.
</event>
<event>
 5   0  0.3749730E-02  0.6942145E+03  0.7818609E-02  0.9727178E-01
       -1   -1    0    0    0  501  0.00000000000E+00  0.00000000000E+00  0.86123486148E+02  0.86123486296E+02  0.50400001928E-02 0.  1.
        1   -1    0    0  501    0  0.00000000000E+00  0.00000000000E+00 -0.13989616331E+04  0.13989616331E+04  0.50400001928E-02 0. -1.
    10030    2    1    2    0    0  0.00000000000E+00  0.00000000000E+00 -0.13128381469E+04  0.14850851194E+04  0.69421452864E+03 0.  0.
        4    1    3    3  502    0 -0.25144542680E+03 -0.39508913964E+02 -0.15156022193E+03  0.29623954954E+03  0.12699999809E+01 0.  1.
       -4    1    3    3    0  502  0.25144542680E+03  0.39508913964E+02 -0.11612779250E+04  0.11888455698E+04  0.12699999809E+01 0. -1.
</event>
<event>
 5   0  0.6131198E-02  0.6904845E+03  0.7818609E-02  0.9733645E-01
        2   -1    0    0  501    0  0.00000000000E+00  0.00000000000E+00  0.21606261166E+03  0.21606261168E+03  0.25500000920E-02 0.  1.
       -2   -1    0    0    0  501  0.00000000000E+00  0.00000000000E+00 -0.55165581437E+03  0.55165581438E+03  0.25500000920E-02 0. -1.
    10030    2    1    2    0    0  0.00000000000E+00  0.00000000000E+00 -0.33559320271E+03  0.76771842605E+03  0.69048445601E+03 0.  0.
        1    1    3    3  502    0 -0.63664530393E+02 -0.96303985795E+02  0.19396575048E+03  0.22572182547E+03  0.50400001928E-02 0.  1.
       -1    1    3    3    0  502  0.63664530393E+02  0.96303985795E+02 -0.52955895319E+03  0.54199660058E+03  0.50400001928E-02 0. -1.
</event>
<event>
 5   0  0.3601475E-02  0.6634802E+03  0.7818609E-02  0.9781808E-01
       -1   -1    0    0    0  501  0.00000000000E+00  0.00000000000E+00  0.27743207078E+03  0.27743207083E+03  0.50400001928E-02 0. -1.
        1   -1    0    0  501    0  0.00000000000E+00  0.00000000000E+00 -0.39667902004E+03  0.39667902007E+03  0.50400001928E-02 0.  1.
    10030    2    1    2    0    0  0.00000000000E+00  0.00000000000E+00 -0.11924694926E+03  0.67411109090E+03  0.66348016396E+03 0.  0.
        5    1    3    3  502    0  0.15903727882E+03  0.86578051618E+02 -0.34199886602E+03  0.38700636872E+03  0.46999998093E+01 0.  1.
       -5    1    3    3    0  502 -0.15903727882E+03 -0.86578051618E+02  0.22275191676E+03  0.28710472217E+03  0.46999998093E+01 0. -1.
</event>
<event>
 5   0  0.3749730E-02  0.6376911E+03  0.7818609E-02  0.9830154E-01
       -1   -1    0    0    0  501  0.00000000000E+00  0.00000000000E+00  0.17886799651E+03  0.17886799658E+03  0.50400001928E-02 0. -1.
        1   -1    0    0  501    0  0.00000000000E+00  0.00000000000E+00 -0.56836593845E+03  0.56836593847E+03  0.50400001928E-02 0.  1.
    10030    2    1    2    0    0  0.00000000000E+00  0.00000000000E+00 -0.38949794193E+03  0.74723393505E+03  0.63769107484E+03 0.  0.
        4    1    3    3  502    0  0.18927098547E+03  0.23181312894E+03 -0.32364498641E+03  0.44080440426E+03  0.12699999809E+01 0.  1.
       -4    1    3    3    0  502 -0.18927098547E+03 -0.23181312894E+03 -0.65852955524E+02  0.30642953079E+03  0.12699999809E+01 0. -1.
</event>
<event>
 5   0  0.6248886E-02  0.6870725E+03  0.7818609E-02  0.9739599E-01
        2   -1    0    0  501    0  0.00000000000E+00  0.00000000000E+00  0.77767274978E+03  0.77767274979E+03  0.25500000920E-02 0. -1.
       -2   -1    0    0    0  501  0.00000000000E+00  0.00000000000E+00 -0.15175685652E+03  0.15175685654E+03  0.25500000920E-02 0.  1.
    10030    2    1    2    0    0  0.00000000000E+00  0.00000000000E+00  0.62591589326E+03  0.92942960633E+03  0.68707254906E+03 0.  0.
        3    1    3    3  502    0 -0.29531188818E+03  0.60331851703E+02  0.89989358767E+02  0.31455864083E+03  0.10100000352E+00 0.  1.
       -3    1    3    3    0  502  0.29531188818E+03 -0.60331851703E+02  0.53592653450E+03  0.61487096549E+03  0.10100000352E+00 0. -1.
</event>
<event>
 5   0  0.3601475E-02  0.7053751E+03  0.7818609E-02  0.9708084E-01
       -1   -1    0    0    0  501  0.00000000000E+00  0.00000000000E+00  0.67572568663E+03  0.67572568665E+03  0.50400001928E-02 0.  1.
        1   -1    0    0  501    0  0.00000000000E+00  0.00000000000E+00 -0.18408134823E+03  0.18408134830E+03  0.50400001928E-02 0. -1.
    10030    2    1    2    0    0  0.00000000000E+00  0.00000000000E+00  0.49164433839E+03  0.85980703495E+03  0.70537506468E+03 0.  0.
        5    1    3    3  502    0  0.18118514207E+03  0.26699819811E+03  0.41928113400E+03  0.52908870034E+03  0.46999998093E+01 0.  1.
       -5    1    3    3    0  502 -0.18118514207E+03 -0.26699819811E+03  0.72363204396E+02  0.33071833461E+03  0.46999998093E+01 0. -1.
</event>
<event>
 5   0  0.3717372E-02  0.7121167E+03  0.7818609E-02  0.9696732E-01
       -1   -1    0    0    0  501  0.00000000000E+00  0.00000000000E+00  0.10485531334E+03  0.10485531346E+03  0.50400001928E-02 0.  1.
        1   -1    0    0  501    0  0.00000000000E+00  0.00000000000E+00 -0.12090713434E+04  0.12090713434E+04  0.50400001928E-02 0. -1.
    10030    2    1    2    0    0  0.00000000000E+00  0.00000000000E+00 -0.11042160301E+04  0.13139266569E+04  0.71211671695E+03 0.  0.
        3    1    3    3  502    0 -0.13515054091E+03 -0.22454001056E+03 -0.99682560729E+03  0.10307013081E+04  0.10100000352E+00 0. -1.
       -3    1    3    3    0  502  0.13515054091E+03  0.22454001056E+03 -0.10739042276E+03  0.28322534872E+03  0.10100000352E+00 0.  1.
</event>
<event>
 5   0  0.3755872E-02  0.6814899E+03  0.7818609E-02  0.9749421E-01
       -1   -1    0    0    0  501  0.00000000000E+00  0.00000000000E+00  0.32708159216E+03  0.32708159220E+03  0.50400001928E-02 0. -1.
        1   -1    0    0  501    0  0.00000000000E+00  0.00000000000E+00 -0.35497902689E+03  0.35497902693E+03  0.50400001928E-02 0.  1.
    10030    2    1    2    0    0  0.00000000000E+00  0.00000000000E+00 -0.27897434736E+02  0.68206061913E+03  0.68148985414E+03 0.  0.
        2    1    3    3  502    0  0.24942391304E+03  0.20864727079E+03  0.87926186329E+02  0.33686345343E+03  0.25500000920E-02 0. -1.
       -2    1    3    3    0  502 -0.24942391304E+03 -0.20864727079E+03 -0.11582362106E+03  0.34519716570E+03  0.25500000920E-02 0.  1.
</event>
<event>
 5   0  0.5899787E-02  0.6875746E+03  0.7818609E-02  0.9738720E-01
       -2   -1    0    0    0  501  0.00000000000E+00  0.00000000000E+00  0.23630569103E+03  0.23630569104E+03  0.25500000920E-02 0.  1.
        2   -1    0    0  501    0  0.00000000000E+00  0.00000000000E+00 -0.50015600301E+03  0.50015600302E+03  0.25500000920E-02 0. -1.
    10030    2    1    2    0    0  0.00000000000E+00  0.00000000000E+00 -0.26385031199E+03  0.73646169406E+03  0.68757460663E+03 0.  0.
        2    1    3    3  502    0  0.16442543192E+03  0.27325003709E+02  0.19013141063E+03  0.25284843643E+03  0.25500000920E-02 0.  1.
       -2    1    3    3    0  502 -0.16442543192E+03 -0.27325003709E+02 -0.45398172261E+03  0.48361325764E+03  0.25500000920E-02 0. -1.
</event>
<event>
 5   0  0.3755872E-02  0.6542164E+03  0.7818609E-02  0.9798899E-01
       -1   -1    0    0    0  501  0.00000000000E+00  0.00000000000E+00  0.59265545737E+03  0.59265545739E+03  0.50400001928E-02 0.  1.
        1   -1    0    0  501    0  0.00000000000E+00  0.00000000000E+00 -0.18054297944E+03  0.18054297951E+03  0.50400001928E-02 0. -1.
    10030    2    1    2    0    0  0.00000000000E+00  0.00000000000E+00  0.41211247793E+03  0.77319843690E+03  0.65421642318E+03 0.  0.
        2    1    3    3  502    0 -0.29079616013E+02 -0.87837269260E+02 -0.16475476976E+03  0.18895804853E+03  0.25500000920E-02 0. -1.
       -2    1    3    3    0  502  0.29079616013E+02  0.87837269260E+02  0.57686724769E+03  0.58424038837E+03  0.25500000920E-02 0.  1.
</event>
<event>
 5   0  0.3755872E-02  0.7160214E+03  0.7818609E-02  0.9690219E-01
       -1   -1    0    0    0  501  0.00000000000E+00  0.00000000000E+00  0.12362663481E+04  0.12362663481E+04  0.50400001928E-02 0.  1.
        1   -1    0    0  501    0  0.00000000000E+00  0.00000000000E+00 -0.10367642501E+03  0.10367642514E+03  0.50400001928E-02 0. -1.
    10030    2    1    2    0    0  0.00000000000E+00  0.00000000000E+00  0.11325899231E+04  0.13399427733E+04  0.71602143942E+03 0.  0.
        2    1    3    3  502    0  0.25826790466E+03 -0.11415333980E+03  0.97816009552E+03  0.10181014036E+04  0.25500000920E-02 0.  1.
       -2    1    3    3    0  502 -0.25826790466E+03  0.11415333980E+03  0.15442982758E+03  0.32184136965E+03  0.25500000920E-02 0. -1.
</event>
<event>
 5   0  0.3717372E-02  0.6878248E+03  0.7818609E-02  0.9738283E-01
        1   -1    0    0  501    0  0.00000000000E+00  0.00000000000E+00  0.84907502316E+03  0.84907502317E+03  0.50400001928E-02 0. -1.
       -1   -1    0    0    0  501  0.00000000000E+00  0.00000000000E+00 -0.13929952448E+03  0.13929952457E+03  0.50400001928E-02 0.  1.
    10030    2    1    2    0    0  0.00000000000E+00  0.00000000000E+00  0.70977549867E+03  0.98837454774E+03  0.68782482371E+03 0.  0.
        3    1    3    3  502    0 -0.27779866821E+03  0.11804296516E+03  0.11803169417E+03  0.32409525253E+03  0.10100000352E+00 0.  1.
       -3    1    3    3    0  502  0.27779866821E+03 -0.11804296516E+03  0.59174380451E+03  0.66427929522E+03  0.10100000352E+00 0. -1.
</event>
<event>
 5   0  0.6131198E-02  0.7018853E+03  0.7818609E-02  0.9714013E-01
       -2   -1    0    0    0  501  0.00000000000E+00  0.00000000000E+00  0.25437337114E+03  0.25437337115E+03  0.25500000920E-02 0. -1.
        2   -1    0    0  501    0  0.00000000000E+00  0.00000000000E+00 -0.48417315597E+03  0.48417315597E+03  0.25500000920E-02 0.  1.
    10030    2    1    2    0    0  0.00000000000E+00  0.00000000000E+00 -0.22979978483E+03  0.73854652713E+03  0.70188534079E+03 0.  0.
        1    1    3    3  502    0 -0.23200859223E+03  0.15904684626E+03  0.10591070777E+03  0.30056773649E+03  0.50400001928E-02 0. -1.
       -1    1    3    3    0  502  0.23200859223E+03 -0.15904684626E+03 -0.33571049260E+03  0.43797879063E+03  0.50400001928E-02 0.  1.
</event>
<event>
 5   0  0.2439375E-02  0.6974674E+03  0.7818609E-02  0.9721573E-01
       -3   -1    0    0    0  501  0.00000000000E+00  0.00000000000E+00  0.18924943410E+03  0.18924946105E+03  0.10100000352E+00 0. -1.
        3   -1    0    0  501    0  0.00000000000E+00  0.00000000000E+00 -0.64261853768E+03  0.64261854562E+03  0.10100000352E+00 0.  1.
    10030    2    1    2    0    0  0.00000000000E+00  0.00000000000E+00 -0.45336910358E+03  0.83186800667E+03  0.69746744472E+03 0.  0.
        4    1    3    3  502    0  0.14349247524E+03  0.18107451826E+03  0.84871181843E+02  0.24613573902E+03  0.12699999809E+01 0. -1.
       -4    1    3    3    0  502 -0.14349247524E+03 -0.18107451826E+03 -0.53824028542E+03  0.58573226765E+03  0.12699999809E+01 0.  1.
</event>
<event>
 5   0  0.6167756E-02  0.6753591E+03  0.7818609E-02  0.9760325E-01
       -2   -1    0    0    0  501  0.00000000000E+00  0.00000000000E+00  0.33205212166E+03  0.33205212167E+03  0.25500000920E-02 0. -1.
        2   -1    0    0  501    0  0.00000000000E+00  0.00000000000E+00 -0.34340232643E+03  0.34340232644E+03  0.25500000920E-02 0.  1.
    10030    2    1    2    0    0  0.00000000000E+00  0.00000000000E+00 -0.11350204771E+02  0.67545444811E+03  0.67535907806E+03 0.  0.
        4    1    3    3  502    0  0.13846030017E+03  0.11128250984E+02 -0.31350219990E+03  0.34289989055E+03  0.12699999809E+01 0.  1.
       -4    1    3    3    0  502 -0.13846030017E+03 -0.11128250984E+02  0.30215199513E+03  0.33255455756E+03  0.12699999809E+01 0. -1.
</event>
<event>
 5   0  0.3439015E-02  0.6869768E+03  0.7818609E-02  0.9739766E-01
       -1   -1    0    0    0  501  0.00000000000E+00  0.00000000000E+00  0.16629515285E+03  0.16629515293E+03  0.50400001928E-02 0.  1.
        1   -1    0    0  501    0  0.00000000000E+00  0.00000000000E+00 -0.70948717274E+03  0.70948717276E+03  0.50400001928E-02 0. -1.
    10030    2    1    2    0    0  0.00000000000E+00  0.00000000000E+00 -0.54319201989E+03  0.87578232569E+03  0.68697679110E+03 0.  0.
        1    1    3    3  502    0  0.25683927154E+03  0.64171758761E+02  0.74149069487E+01  0.26483845434E+03  0.50400001928E-02 0.  1.
       -1    1    3    3    0  502 -0.25683927154E+03 -0.64171758761E+02 -0.55060692684E+03  0.61094387135E+03  0.50400001928E-02 0. -1.
</event>
<event>
 5   0  0.6131198E-02  0.7127790E+03  0.7818609E-02  0.9695625E-01
        2   -1    0    0  501    0  0.00000000000E+00  0.00000000000E+00  0.31819811016E+03  0.31819811017E+03  0.25500000920E-02 0. -1.
       -2   -1    0    0    0  501  0.00000000000E+00  0.00000000000E+00 -0.39916474793E+03  0.39916474794E+03  0.25500000920E-02 0.  1.
    10030    2    1    2    0    0  0.00000000000E+00  0.00000000000E+00 -0.80966637772E+02  0.71736285811E+03  0.71277897960E+03 0.  0.
        1    1    3    3  502    0  0.33368247264E+03  0.12094215745E+03 -0.72978268992E+02  0.36234903858E+03  0.50400001928E-02 0. -1.
       -1    1    3    3    0  502 -0.33368247264E+03 -0.12094215745E+03 -0.79883687803E+01  0.35501381953E+03  0.50400001928E-02 0.  1.
</event>
<event>
 5   0  0.2439375E-02  0.6239078E+03  0.7818609E-02  0.9857010E-01
       -3   -1    0    0    0  501  0.00000000000E+00  0.00000000000E+00  0.48589310136E+03  0.48589311186E+03  0.10100000352E+00 0.  1.
        3   -1    0    0  501    0  0.00000000000E+00  0.00000000000E+00 -0.20028114019E+03  0.20028116566E+03  0.10100000352E+00 0. -1.
    10030    2    1    2    0    0  0.00000000000E+00  0.00000000000E+00  0.28561196117E+03  0.68617427752E+03  0.62390780309E+03 0.  0.
        3    1    3    3  502    0  0.24799315342E+03  0.43590289790E+02  0.34534410469E+03  0.42739124740E+03  0.10100000352E+00 0.  1.
       -3    1    3    3    0  502 -0.24799315342E+03 -0.43590289790E+02 -0.59732143517E+02  0.25878303012E+03  0.10100000352E+00 0. -1.
</event>
<event>
 5   0  0.6167756E-02  0.7177549E+03  0.7818609E-02  0.9687342E-01
        2   -1    0    0  501    0  0.00000000000E+00  0.00000000000E+00  0.24290145672E+03  0.24290145673E+03  0.25500000920E-02 0. -1.
       -2   -1    0    0    0  501  0.00000000000E+00  0.00000000000E+00 -0.53022741799E+03  0.53022741800E+03  0.25500000920E-02 0.  1.
    10030    2    1    2    0    0  0.00000000000E+00  0.00000000000E+00 -0.28732596127E+03  0.77312887473E+03  0.71775486687E+03 0.  0.
        4    1    3    3  502    0  0.16369515646E+03  0.97061014892E+02 -0.47139685213E+03  0.50836360015E+03  0.12699999809E+01 0.  1.
       -4    1    3    3    0  502 -0.16369515646E+03 -0.97061014892E+02  0.18407089086E+03  0.26476527458E+03  0.12699999809E+01 0. -1.
</event>
<event>
 5   0  0.5987810E-02  0.6969991E+03  0.7818609E-02  0.9722378E-01
        2   -1    0    0  501    0  0.00000000000E+00  0.00000000000E+00  0.21020794780E+03  0.21020794782E+03  0.25500000920E-02 0.  1.
       -2   -1    0    0    0  501  0.00000000000E+00  0.00000000000E+00 -0.57777037187E+03  0.57777037187E+03  0.25500000920E-02 0. -1.
    10030    2    1    2    0    0  0.00000000000E+00  0.00000000000E+00 -0.36756242406E+03  0.78797831969E+03  0.69699906508E+03 0.  0.
        5    1    3    3  502    0  0.14572676351E+03 -0.30097964967E+03 -0.29457773319E+03  0.44567159434E+03  0.46999998093E+01 0. -1.
       -5    1    3    3    0  502 -0.14572676351E+03  0.30097964967E+03 -0.72984690877E+02  0.34230672535E+03  0.46999998093E+01 0.  1.
</event>
<event>
 5   0  0.6131198E-02  0.7038255E+03  0.7818609E-02  0.9710712E-01
       -2   -1    0    0    0  501  0.00000000000E+00  0.00000000000E+00  0.88130915108E+02  0.88130915145E+02  0.25500000920E-02 0.  1.
        2   -1    0    0  501    0  0.00000000000E+00  0.00000000000E+00 -0.14052114345E+04  0.14052114345E+04  0.25500000920E-02 0. -1.
    10030    2    1    2    0    0  0.00000000000E+00  0.00000000000E+00 -0.13170805194E+04  0.14933423496E+04  0.70382546038E+03 0.  0.
        1    1    3    3  502    0 -0.34292165104E+03  0.13764756937E+02 -0.49339983687E+03  0.60102256724E+03  0.50400001928E-02 0. -1.
       -1    1    3    3    0  502  0.34292165104E+03 -0.13764756937E+02 -0.82368068248E+03  0.89231978236E+03  0.50400001928E-02 0.  1.
</event>
<event>
 5   0  0.5987810E-02  0.6996677E+03  0.7818609E-02  0.9717801E-01
        2   -1    0    0  501    0  0.00000000000E+00  0.00000000000E+00  0.37077141414E+03  0.37077141415E+03  0.25500000920E-02 0.  1.
       -2   -1    0    0    0  501  0.00000000000E+00  0.00000000000E+00 -0.33007860750E+03  0.33007860751E+03  0.25500000920E-02 0. -1.
    10030    2    1    2    0    0  0.00000000000E+00  0.00000000000E+00  0.40692806637E+02  0.70085002166E+03  0.69966766993E+03 0.  0.
        5    1    3    3  502    0 -0.42456639401E+02 -0.99882251802E+02  0.35344796320E+03  0.36976557864E+03  0.46999998093E+01 0.  1.
       -5    1    3    3    0  502  0.42456639401E+02  0.99882251802E+02 -0.31275515657E+03  0.33108444302E+03  0.46999998093E+01 0. -1.
</event>
<event>
 5   0  0.6131198E-02  0.7666833E+03  0.7818609E-02  0.9609534E-01
       -2   -1    0    0    0  501  0.00000000000E+00  0.00000000000E+00  0.25760127829E+03  0.25760127830E+03  0.25500000920E-02 0. -1.
        2   -1    0    0  501    0  0.00000000000E+00  0.00000000000E+00 -0.57045843404E+03  0.57045843405E+03  0.25500000920E-02 0.  1.
    10030    2    1    2    0    0  0.00000000000E+00  0.00000000000E+00 -0.31285715575E+03  0.82805971236E+03  0.76668330314E+03 0.  0.
        1    1    3    3  502    0  0.23458157690E+03  0.29532421906E+03 -0.82337226689E+02  0.38603669451E+03  0.50400001928E-02 0. -1.
       -1    1    3    3    0  502 -0.23458157690E+03 -0.29532421906E+03 -0.23051992906E+03  0.44202301785E+03  0.50400001928E-02 0.  1.
</event>
<event>
 5   0  0.3749730E-02  0.6944066E+03  0.7818609E-02  0.9726846E-01
       -1   -1    0    0    0  501  0.00000000000E+00  0.00000000000E+00  0.69614009601E+03  0.69614009603E+03  0.50400001928E-02 0.  1.
        1   -1    0    0  501    0  0.00000000000E+00  0.00000000000E+00 -0.17316937928E+03  0.17316937936E+03  0.50400001928E-02 0. -1.
    10030    2    1    2    0    0  0.00000000000E+00  0.00000000000E+00  0.52297071672E+03  0.86930947539E+03  0.69440664847E+03 0.  0.
        4    1    3    3  502    0  0.25489688027E+03  0.22931332843E+03  0.19301446226E+03  0.39346310845E+03  0.12699999809E+01 0. -1.
       -4    1    3    3    0  502 -0.25489688027E+03 -0.22931332843E+03  0.32995625447E+03  0.47584636694E+03  0.12699999809E+01 0.  1.
</event>
<event>
 5   0  0.3717372E-02  0.6972118E+03  0.7818609E-02  0.9722012E-01
       -1   -1    0    0    0  501  0.00000000000E+00  0.00000000000E+00  0.40238094459E+03  0.40238094463E+03  0.50400001928E-02 0.  1.
        1   -1    0    0  501    0  0.00000000000E+00  0.00000000000E+00 -0.30201748101E+03  0.30201748105E+03  0.50400001928E-02 0. -1.
    10030    2    1    2    0    0  0.00000000000E+00  0.00000000000E+00  0.10036346358E+03  0.70439842568E+03  0.69721181665E+03 0.  0.
        3    1    3    3  502    0  0.26770310754E+01 -0.79082220234E+02  0.39318810224E+03  0.40107113832E+03  0.10100000352E+00 0.  1.
       -3    1    3    3    0  502 -0.26770310754E+01  0.79082220234E+02 -0.29282463865E+03  0.30332728736E+03  0.10100000352E+00 0. -1.
</event>
<event>
 5   0  0.6131198E-02  0.6493472E+03  0.7818609E-02  0.9808005E-01
       -2   -1    0    0    0  501  0.00000000000E+00  0.00000000000E+00  0.10948356257E+03  0.10948356260E+03  0.25500000920E-02 0.  1.
        2   -1    0    0  501    0  0.00000000000E+00  0.00000000000E+00 -0.96281978092E+03  0.96281978093E+03  0.25500000920E-02 0. -1.
    10030    2    1    2    0    0  0.00000000000E+00  0.00000000000E+00 -0.85333621835E+03  0.10723033435E+04  0.64934717909E+03 0.  0.
        1    1    3    3  502    0 -0.48452193941E+02  0.17495029490E+03 -0.87117963959E+03  0.88989279424E+03  0.50400001928E-02 0. -1.
       -1    1    3    3    0  502  0.48452193941E+02 -0.17495029490E+03  0.17843421235E+02  0.18241054929E+03  0.50400001928E-02 0.  1.
</event>
<event>
 5   0  0.3755872E-02  0.6687851E+03  0.7818609E-02  0.9772155E-01
       -1   -1    0    0    0  501  0.00000000000E+00  0.00000000000E+00  0.23213785479E+03  0.23213785485E+03  0.50400001928E-02 0.  1.
        1   -1    0    0  501    0  0.00000000000E+00  0.00000000000E+00 -0.48168951707E+03  0.48168951709E+03  0.50400001928E-02 0. -1.
    10030    2    1    2    0    0  0.00000000000E+00  0.00000000000E+00 -0.24955166228E+03  0.71382737194E+03  0.66878508116E+03 0.  0.
        2    1    3    3  502    0  0.32869681282E+03 -0.60828060278E+02 -0.13412495384E+03  0.36018210800E+03  0.25500000920E-02 0. -1.
       -2    1    3    3    0  502 -0.32869681282E+03  0.60828060278E+02 -0.11542670844E+03  0.35364526394E+03  0.25500000920E-02 0.  1.
</event>
<event>
 5   0  0.5899787E-02  0.7019180E+03  0.7818609E-02  0.9713958E-01
       -2   -1    0    0    0  501  0.00000000000E+00  0.00000000000E+00  0.71704993821E+03  0.71704993821E+03  0.25500000920E-02 0.  1.
        2   -1    0    0  501    0  0.00000000000E+00  0.00000000000E+00 -0.17177632873E+03  0.17177632875E+03  0.25500000920E-02 0. -1.
    10030    2    1    2    0    0  0.00000000000E+00  0.00000000000E+00  0.54527360947E+03  0.88882626696E+03  0.70191796077E+03 0.  0.
        2    1    3    3  502    0  0.24691779755E+02  0.16177211773E+03 -0.12050724358E+03  0.20322868357E+03  0.25500000920E-02 0. -1.
       -2    1    3    3    0  502 -0.24691779755E+02 -0.16177211773E+03  0.66578085305E+03  0.68559758340E+03  0.25500000920E-02 0.  1.
</event>
<event>
 5   0  0.3749730E-02  0.6949685E+03  0.7818609E-02  0.9725876E-01
        1   -1    0    0  501    0  0.00000000000E+00  0.00000000000E+00  0.15917570352E+03  0.15917570360E+03  0.50400001928E-02 0. -1.
       -1   -1    0    0    0  501  0.00000000000E+00  0.00000000000E+00 -0.75856613875E+03  0.75856613877E+03  0.50400001928E-02 0.  1.
    10030    2    1    2    0    0  0.00000000000E+00  0.00000000000E+00 -0.59939043523E+03  0.91774184237E+03  0.69496848518E+03 0.  0.
        4    1    3    3  502    0 -0.18274522015E+03  0.24183069294E+03 -0.75334345909E+02  0.31233759958E+03  0.12699999809E+01 0. -1.
       -4    1    3    3    0  502  0.18274522015E+03 -0.24183069294E+03 -0.52405608932E+03  0.60540424279E+03  0.12699999809E+01 0.  1.
</event>
<event>
 5   0  0.5987810E-02  0.7028643E+03  0.7818609E-02  0.9712346E-01
        2   -1    0    0  501    0  0.00000000000E+00  0.00000000000E+00  0.70030661902E+03  0.70030661903E+03  0.25500000920E-02 0.  1.
       -2   -1    0    0    0  501  0.00000000000E+00  0.00000000000E+00 -0.17635782553E+03  0.17635782555E+03  0.25500000920E-02 0. -1.
    10030    2    1    2    0    0  0.00000000000E+00  0.00000000000E+00  0.52394879349E+03  0.87666444457E+03  0.70286429001E+03 0.  0.
        5    1    3    3  502    0  0.22314659109E+03 -0.18240335393E+03  0.11222417468E+02  0.28846735914E+03  0.46999998093E+01 0. -1.
       -5    1    3    3    0  502 -0.22314659109E+03  0.18240335393E+03  0.51272637602E+03  0.58819708543E+03  0.46999998093E+01 0.  1.
</event>
<event>
 5   0  0.3749730E-02  0.6977612E+03  0.7818609E-02  0.9721069E-01
        1   -1    0    0  501    0  0.00000000000E+00  0.00000000000E+00  0.10324753086E+04  0.10324753086E+04  0.50400001928E-02 0. -1.
       -1   -1    0    0    0  501  0.00000000000E+00  0.00000000000E+00 -0.11788918672E+03  0.11788918683E+03  0.50400001928E-02 0.  1.
    10030    2    1    2    0    0  0.00000000000E+00  0.00000000000E+00  0.91458612189E+03  0.11503644955E+04  0.69776120418E+03 0.  0.
        4    1    3    3  502    0  0.17137662061E+03  0.74653846991E+02 -0.28353987000E+02  0.18907327797E+03  0.12699999809E+01 0.  1.
       -4    1    3    3    0  502 -0.17137662061E+03 -0.74653846991E+02  0.94294010889E+03  0.96129121748E+03  0.12699999809E+01 0. -1.
</event>
<event>
 5   0  0.6131198E-02  0.6679834E+03  0.7818609E-02  0.9773608E-01
       -2   -1    0    0    0  501  0.00000000000E+00  0.00000000000E+00  0.19820343442E+03  0.19820343444E+03  0.25500000920E-02 0. -1.
        2   -1    0    0  501    0  0.00000000000E+00  0.00000000000E+00 -0.56280785144E+03  0.56280785144E+03  0.25500000920E-02 0.  1.
    10030    2    1    2    0    0  0.00000000000E+00  0.00000000000E+00 -0.36460441702E+03  0.76101128588E+03  0.66798338028E+03 0.  0.
        1    1    3    3  502    0 -0.11825931668E+03 -0.30542822476E+03 -0.10778002853E+03  0.34480168363E+03  0.50400001928E-02 0.  1.
       -1    1    3    3    0  502  0.11825931668E+03  0.30542822476E+03 -0.25682438849E+03  0.41620960225E+03  0.50400001928E-02 0. -1.
</event>
<event>
 5   0  0.3755872E-02  0.7124886E+03  0.7818609E-02  0.9696110E-01
       -1   -1    0    0    0  501  0.00000000000E+00  0.00000000000E+00  0.27015261347E+03  0.27015261352E+03  0.50400001928E-02 0.  1.
        1   -1    0    0  501    0  0.00000000000E+00  0.00000000000E+00 -0.46977147362E+03  0.46977147365E+03  0.50400001928E-02 0. -1.
    10030    2    1    2    0    0  0.00000000000E+00  0.00000000000E+00 -0.19961886015E+03  0.73992408717E+03  0.71248857215E+03 0.  0.
        2    1    3    3  502    0  0.16419238204E+03  0.15924460672E+03 -0.38344155095E+03  0.44648113744E+03  0.25500000920E-02 0. -1.
       -2    1    3    3    0  502 -0.16419238204E+03 -0.15924460672E+03  0.18382269079E+03  0.29344294973E+03  0.25500000920E-02 0.  1.
</event>
<event>
 5   0  0.2439375E-02  0.6897754E+03  0.7818609E-02  0.9734879E-01
       -4   -1    0    0    0  501  0.00000000000E+00  0.00000000000E+00  0.16215327652E+03  0.16215824982E+03  0.12699999809E+01 0.  1.
        4   -1    0    0  501    0  0.00000000000E+00  0.00000000000E+00 -0.73353318728E+03  0.73353428668E+03  0.12699999809E+01 0. -1.
    10030    2    1    2    0    0  0.00000000000E+00  0.00000000000E+00 -0.57137991076E+03  0.89569253651E+03  0.68977541093E+03 0.  0.
        5    1    3    3  502    0 -0.14492721274E+03 -0.21826670381E+03  0.54849973667E+01  0.26210003086E+03  0.46999998093E+01 0.  1.
       -5    1    3    3    0  502  0.14492721274E+03  0.21826670381E+03 -0.57686490813E+03  0.63359250565E+03  0.46999998093E+01 0. -1.
</event>
<event>
 5   0  0.3717372E-02  0.7098996E+03  0.7818609E-02  0.9700451E-01
        1   -1    0    0  501    0  0.00000000000E+00  0.00000000000E+00  0.37849951533E+03  0.37849951536E+03  0.50400001928E-02 0.  1.
       -1   -1    0    0    0  501  0.00000000000E+00  0.00000000000E+00 -0.33286535592E+03  0.33286535596E+03  0.50400001928E-02 0. -1.
    10030    2    1    2    0    0  0.00000000000E+00  0.00000000000E+00  0.45634159409E+02  0.71136487131E+03  0.70989964335E+03 0.  0.
        3    1    3    3  502    0  0.17508045038E+03 -0.18440240700E+03 -0.22534696409E+03  0.33976267635E+03  0.10100000352E+00 0. -1.
       -3    1    3    3    0  502 -0.17508045038E+03  0.18440240700E+03  0.27098112350E+03  0.37160219497E+03  0.10100000352E+00 0.  1.
</event>
<event>
 5   0  0.3601475E-02  0.6932260E+03  0.7818609E-02  0.9728887E-01
       -1   -1    0    0    0  501  0.00000000000E+00  0.00000000000E+00  0.70258426001E+02  0.70258426182E+02  0.50400001928E-02 0. -1.
        1   -1    0    0  501    0  0.00000000000E+00  0.00000000000E+00 -0.17099810300E+04  0.17099810300E+04  0.50400001928E-02 0.  1.
    10030    2    1    2    0    0  0.00000000000E+00  0.00000000000E+00 -0.16397226040E+04  0.17802394562E+04  0.69322601170E+03 0.  0.
        5    1    3    3  502    0 -0.40900407943E+02  0.43493568713E+02  0.56871133112E+02  0.82589040852E+02  0.46999998093E+01 0. -1.
       -5    1    3    3    0  502  0.40900407943E+02 -0.43493568713E+02 -0.16965937371E+04  0.16976504153E+04  0.46999998093E+01 0.  1.
</event>
<event>
 5   0  0.3749730E-02  0.7092657E+03  0.7818609E-02  0.9701517E-01
        1   -1    0    0  501    0  0.00000000000E+00  0.00000000000E+00  0.10266527938E+04  0.10266527938E+04  0.50400001928E-02 0.  1.
       -1   -1    0    0    0  501  0.00000000000E+00  0.00000000000E+00 -0.12249949993E+03  0.12249950003E+03  0.50400001928E-02 0. -1.
    10030    2    1    2    0    0  0.00000000000E+00  0.00000000000E+00  0.90415329391E+03  0.11491522939E+04  0.70926568762E+03 0.  0.
        4    1    3    3  502    0  0.15992122753E+03 -0.23124329763E+03  0.10189380822E+03  0.29905220742E+03  0.12699999809E+01 0. -1.
       -4    1    3    3    0  502 -0.15992122753E+03  0.23124329763E+03  0.80225948569E+03  0.85010008645E+03  0.12699999809E+01 0.  1.
</event>
<event>
 5   0  0.6167756E-02  0.6848042E+03  0.7818609E-02  0.9743578E-01
       -2   -1    0    0    0  501  0.00000000000E+00  0.00000000000E+00  0.16630307541E+03  0.16630307543E+03  0.25500000920E-02 0.  1.
        2   -1    0    0  501    0  0.00000000000E+00  0.00000000000E+00 -0.70497304253E+03  0.70497304253E+03  0.25500000920E-02 0. -1.
    10030    2    1    2    0    0  0.00000000000E+00  0.00000000000E+00 -0.53866996712E+03  0.87127611796E+03  0.68480416197E+03 0.  0.
        4    1    3    3  502    0  0.25781525123E+03  0.86357266569E+02 -0.45520539544E+01  0.27193494691E+03  0.12699999809E+01 0.  1.
       -4    1    3    3    0  502 -0.25781525123E+03 -0.86357266569E+02 -0.53411791317E+03  0.59934117105E+03  0.12699999809E+01 0. -1.
</event>
<event>
 5   0  0.6131198E-02  0.6936562E+03  0.7818609E-02  0.9728143E-01
       -2   -1    0    0    0  501  0.00000000000E+00  0.00000000000E+00  0.74700976002E+03  0.74700976002E+03  0.25500000920E-02 0.  1.
        2   -1    0    0  501    0  0.00000000000E+00  0.00000000000E+00 -0.16102833447E+03  0.16102833449E+03  0.25500000920E-02 0. -1.
    10030    2    1    2    0    0  0.00000000000E+00  0.00000000000E+00  0.58598142555E+03  0.90803809451E+03  0.69365621889E+03 0.  0.
        1    1    3    3  502    0 -0.77726806281E+02  0.31744337640E+03  0.14101567847E+03  0.35594546666E+03  0.50400001928E-02 0. -1.
       -1    1    3    3    0  502  0.77726806281E+02 -0.31744337640E+03  0.44496574708E+03  0.55209262786E+03  0.50400001928E-02 0.  1.
</event>
<event>
 5   0  0.5987810E-02  0.6974351E+03  0.7818609E-02  0.9721629E-01
        2   -1    0    0  501    0  0.00000000000E+00  0.00000000000E+00  0.93957738642E+03  0.93957738642E+03  0.25500000920E-02 0. -1.
       -2   -1    0    0    0  501  0.00000000000E+00  0.00000000000E+00 -0.12942406498E+03  0.12942406501E+03  0.25500000920E-02 0.  1.
    10030    2    1    2    0    0  0.00000000000E+00  0.00000000000E+00  0.81015332144E+03  0.10690014514E+04  0.69743508582E+03 0.  0.
        5    1    3    3  502    0 -0.31457556689E+03  0.39281408238E+02  0.62762291915E+03  0.70315960845E+03  0.46999998093E+01 0. -1.
       -5    1    3    3    0  502  0.31457556689E+03 -0.39281408238E+02  0.18253040229E+03  0.36584184298E+03  0.46999998093E+01 0.  1.
</event>
<event>
 5   0  0.5899787E-02  0.7062894E+03  0.7818609E-02  0.9706537E-01
       -2   -1    0    0    0  501  0.00000000000E+00  0.00000000000E+00  0.10330719830E+03  0.10330719833E+03  0.25500000920E-02 0. -1.
        2   -1    0    0  501    0  0.00000000000E+00  0.00000000000E+00 -0.12071876631E+04  0.12071876631E+04  0.25500000920E-02 0.  1.
    10030    2    1    2    0    0  0.00000000000E+00  0.00000000000E+00 -0.11038804648E+04  0.13104948615E+04  0.70628938920E+03 0.  0.
        2    1    3    3  502    0  0.41196891422E+02  0.98337844945E+02 -0.11766111055E+04  0.11814318470E+04  0.25500000920E-02 0.  1.
       -2    1    3    3    0  502 -0.41196891422E+02 -0.98337844945E+02  0.72730640627E+02  0.12906301447E+03  0.25500000920E-02 0. -1.
</event>
<event>
 5   0  0.2439375E-02  0.7033650E+03  0.7818609E-02  0.9711495E-01
       -4   -1    0    0    0  501  0.00000000000E+00  0.00000000000E+00  0.12964971039E+03  0.12965593046E+03  0.12699999809E+01 0. -1.
        4   -1    0    0  501    0  0.00000000000E+00  0.00000000000E+00 -0.95392997335E+03  0.95393081874E+03  0.12699999809E+01 0.  1.
    10030    2    1    2    0    0  0.00000000000E+00  0.00000000000E+00 -0.82428026296E+03  0.10835867492E+04  0.70336497720E+03 0.  0.
        5    1    3    3  502    0  0.22279011418E+03  0.60751304306E+02 -0.82070445321E+03  0.85258667915E+03  0.46999998093E+01 0.  1.
       -5    1    3    3    0  502 -0.22279011418E+03 -0.60751304306E+02 -0.35758097474E+01  0.23100007005E+03  0.46999998093E+01 0. -1.
</event>
<event>
 5   0  0.3439015E-02  0.5855874E+03  0.7818609E-02  0.9935767E-01
        1   -1    0    0  501    0  0.00000000000E+00  0.00000000000E+00  0.42525795157E+03  0.42525795160E+03  0.50400001928E-02 0. -1.
       -1   -1    0    0    0  501  0.00000000000E+00  0.00000000000E+00 -0.20159095892E+03  0.20159095899E+03  0.50400001928E-02 0.  1.
    10030    2    1    2    0    0  0.00000000000E+00  0.00000000000E+00  0.22366699265E+03  0.62684891059E+03  0.58558742567E+03 0.  0.
        1    1    3    3  502    0  0.23696032015E+03  0.96263566402E+02  0.26439322018E+03  0.36785954174E+03  0.50400001928E-02 0. -1.
       -1    1    3    3    0  502 -0.23696032015E+03 -0.96263566402E+02 -0.40726227529E+02  0.25898936885E+03  0.50400001928E-02 0.  1.
</event>
<event>
 5   0  0.5987810E-02  0.8013242E+03  0.7818609E-02  0.9558102E-01
       -2   -1    0    0    0  501  0.00000000000E+00  0.00000000000E+00  0.25175450472E+03  0.25175450473E+03  0.25500000920E-02 0. -1.
        2   -1    0    0  501    0  0.00000000000E+00  0.00000000000E+00 -0.63764553111E+03  0.63764553111E+03  0.25500000920E-02 0.  1.
    10030    2    1    2    0    0  0.00000000000E+00  0.00000000000E+00 -0.38589102639E+03  0.88940003584E+03  0.80132424119E+03 0.  0.
        5    1    3    3  502    0  0.89840032014E+02 -0.38881255592E+03 -0.15352235582E+03  0.42759518090E+03  0.46999998093E+01 0. -1.
       -5    1    3    3    0  502 -0.89840032014E+02  0.38881255592E+03 -0.23236867057E+03  0.46180485495E+03  0.46999998093E+01 0.  1.
</event>
<event>
 5   0  0.6131198E-02  0.7019468E+03  0.7818609E-02  0.9713909E-01
       -2   -1    0    0    0  501  0.00000000000E+00  0.00000000000E+00  0.96730696064E+02  0.96730696098E+02  0.25500000920E-02 0.  1.
        2   -1    0    0  501    0  0.00000000000E+00  0.00000000000E+00 -0.12734565935E+04  0.12734565935E+04  0.25500000920E-02 0. -1.
    10030    2    1    2    0    0  0.00000000000E+00  0.00000000000E+00 -0.11767258974E+04  0.13701872896E+04  0.70194684335E+03 0.  0.
        1    1    3    3  502    0 -0.96141697290E+02  0.13277070173E+03  0.17415452791E+02  0.16484715107E+03  0.50400001928E-02 0.  1.
       -1    1    3    3    0  502  0.96141697290E+02 -0.13277070173E+03 -0.11941413502E+04  0.12053401385E+04  0.50400001928E-02 0. -1.
</event>
<event>
 5   0  0.3601475E-02  0.6901436E+03  0.7818609E-02  0.9734238E-01
        1   -1    0    0  501    0  0.00000000000E+00  0.00000000000E+00  0.54730917857E+03  0.54730917859E+03  0.50400001928E-02 0.  1.
       -1   -1    0    0    0  501  0.00000000000E+00  0.00000000000E+00 -0.21756357257E+03  0.21756357263E+03  0.50400001928E-02 0. -1.
    10030    2    1    2    0    0  0.00000000000E+00  0.00000000000E+00  0.32974560600E+03  0.76487275122E+03  0.69014357991E+03 0.  0.
        5    1    3    3  502    0 -0.33781563509E+03  0.34139629579E+02  0.23289932179E+03  0.41176340501E+03  0.46999998093E+01 0. -1.
       -5    1    3    3    0  502  0.33781563509E+03 -0.34139629579E+02  0.96846284210E+02  0.35310934621E+03  0.46999998093E+01 0.  1.
</event>
<event>
 5   0  0.3439015E-02  0.6932277E+03  0.7818609E-02  0.9728884E-01
       -1   -1    0    0    0  501  0.00000000000E+00  0.00000000000E+00  0.21568415625E+03  0.21568415631E+03  0.50400001928E-02 0. -1.
        1   -1    0    0  501    0  0.00000000000E+00  0.00000000000E+00 -0.55702360508E+03  0.55702360510E+03  0.50400001928E-02 0.  1.
    10030    2    1    2    0    0  0.00000000000E+00  0.00000000000E+00 -0.34133944883E+03  0.77270776141E+03  0.69322771526E+03 0.  0.
        1    1    3    3  502    0 -0.20345480173E+03 -0.98508505069E+02  0.12221747593E+03  0.25697255372E+03  0.50400001928E-02 0. -1.
       -1    1    3    3    0  502  0.20345480173E+03  0.98508505069E+02 -0.46355692477E+03  0.51573520768E+03  0.50400001928E-02 0.  1.
</event>
<event>
 5   0  0.5987810E-02  0.7212870E+03  0.7818609E-02  0.9681505E-01
       -2   -1    0    0    0  501  0.00000000000E+00  0.00000000000E+00  0.84093849035E+02  0.84093849074E+02  0.25500000920E-02 0.  1.
        2   -1    0    0  501    0  0.00000000000E+00  0.00000000000E+00 -0.15466498013E+04  0.15466498013E+04  0.25500000920E-02 0. -1.
    10030    2    1    2    0    0  0.00000000000E+00  0.00000000000E+00 -0.14625559523E+04  0.16307436504E+04  0.72128700234E+03 0.  0.
        5    1    3    3  502    0 -0.22358777892E+03 -0.12160158403E+03 -0.13088574998E+04  0.13333823476E+04  0.46999998093E+01 0. -1.
       -5    1    3    3    0  502  0.22358777892E+03  0.12160158403E+03 -0.15369845254E+03  0.29736130285E+03  0.46999998093E+01 0.  1.
</event>
<event>
 5   0  0.3717372E-02  0.7021484E+03  0.7818609E-02  0.9713565E-01
        1   -1    0    0  501    0  0.00000000000E+00  0.00000000000E+00  0.48055813138E+03  0.48055813140E+03  0.50400001928E-02 0.  1.
       -1   -1    0    0    0  501  0.00000000000E+00  0.00000000000E+00 -0.25647905429E+03  0.25647905434E+03  0.50400001928E-02 0. -1.
    10030    2    1    2    0    0  0.00000000000E+00  0.00000000000E+00  0.22407907709E+03  0.73703718574E+03  0.70214840338E+03 0.  0.
        3    1    3    3  502    0  0.28316803446E+03  0.14768100431E+03 -0.41010929560E+02  0.32198714465E+03  0.10100000352E+00 0. -1.
       -3    1    3    3    0  502 -0.28316803446E+03 -0.14768100431E+03  0.26509000665E+03  0.41505004108E+03  0.10100000352E+00 0.  1.
</event>
<event>
 5   0  0.5987810E-02  0.7011835E+03  0.7818609E-02  0.9715210E-01
        2   -1    0    0  501    0  0.00000000000E+00  0.00000000000E+00  0.83523260680E+03  0.83523260680E+03  0.25500000920E-02 0.  1.
       -2   -1    0    0    0  501  0.00000000000E+00  0.00000000000E+00 -0.14716207838E+03  0.14716207840E+03  0.25500000920E-02 0. -1.
    10030    2    1    2    0    0  0.00000000000E+00  0.00000000000E+00  0.68807052842E+03  0.98239468521E+03  0.70118347488E+03 0.  0.
        5    1    3    3  502    0  0.11688197305E+02 -0.18156727855E+03  0.76385838103E+03  0.78524200529E+03  0.46999998093E+01 0.  1.
       -5    1    3    3    0  502 -0.11688197305E+02  0.18156727855E+03 -0.75787852613E+02  0.19715267992E+03  0.46999998093E+01 0. -1.
</event>
<event>
 5   0  0.3755872E-02  0.7074970E+03  0.7818609E-02  0.9704496E-01
        1   -1    0    0  501    0  0.00000000000E+00  0.00000000000E+00  0.41254244350E+03  0.41254244353E+03  0.50400001928E-02 0.  1.
       -1   -1    0    0    0  501  0.00000000000E+00  0.00000000000E+00 -0.30333367705E+03  0.30333367709E+03  0.50400001928E-02 0. -1.
    10030    2    1    2    0    0  0.00000000000E+00  0.00000000000E+00  0.10920876644E+03  0.71587612062E+03  0.70749704269E+03 0.  0.
        2    1    3    3  502    0  0.33209070494E+03  0.96425975313E+02  0.13002446366E+03  0.36944358999E+03  0.25500000920E-02 0.  1.
       -2    1    3    3    0  502 -0.33209070494E+03 -0.96425975313E+02 -0.20815697217E+02  0.34643253064E+03  0.25500000920E-02 0. -1.
</event>
<event>
 5   0  0.6131198E-02  0.6878703E+03  0.7818609E-02  0.9738203E-01
        2   -1    0    0  501    0  0.00000000000E+00  0.00000000000E+00  0.68675394683E+03  0.68675394684E+03  0.25500000920E-02 0. -1.
       -2   -1    0    0    0  501  0.00000000000E+00  0.00000000000E+00 -0.17224710017E+03  0.17224710019E+03  0.25500000920E-02 0.  1.
    10030    2    1    2    0    0  0.00000000000E+00  0.00000000000E+00  0.51450684666E+03  0.85900104702E+03  0.68787026649E+03 0.  0.
        1    1    3    3  502    0  0.22568195838E+03  0.76278206216E+02  0.56704403172E+03  0.61505255468E+03  0.50400001928E-02 0. -1.
       -1    1    3    3    0  502 -0.22568195838E+03 -0.76278206216E+02 -0.52537185058E+02  0.24394849235E+03  0.50400001928E-02 0.  1.
</event>
<event>
 5   0  0.3755872E-02  0.6896070E+03  0.7818609E-02  0.9735172E-01
       -1   -1    0    0    0  501  0.00000000000E+00  0.00000000000E+00  0.15264532731E+03  0.15264532740E+03  0.50400001928E-02 0. -1.
        1   -1    0    0  501    0  0.00000000000E+00  0.00000000000E+00 -0.77886084235E+03  0.77886084237E+03  0.50400001928E-02 0.  1.
    10030    2    1    2    0    0  0.00000000000E+00  0.00000000000E+00 -0.62621551504E+03  0.93150616976E+03  0.68960704248E+03 0.  0.
        2    1    3    3  502    0 -0.33577448040E+03  0.77982884958E+02 -0.30233228718E+03  0.45850915357E+03  0.25500000920E-02 0.  1.
       -2    1    3    3    0  502  0.33577448040E+03 -0.77982884958E+02 -0.32388322785E+03  0.47299701619E+03  0.25500000920E-02 0. -1.
</event>
<event>
 5   0  0.2439375E-02  0.7178076E+03  0.7818609E-02  0.9687254E-01
        3   -1    0    0  501    0  0.00000000000E+00  0.00000000000E+00  0.20655607803E+04  0.20655607827E+04  0.10100000352E+00 0.  1.
       -3   -1    0    0    0  501  0.00000000000E+00  0.00000000000E+00 -0.62361689550E+02  0.62361771339E+02  0.10100000352E+00 0. -1.
    10030    2    1    2    0    0  0.00000000000E+00  0.00000000000E+00  0.20031990907E+04  0.21279225541E+04  0.71780763376E+03 0.  0.
        3    1    3    3  502    0  0.27025770431E+03 -0.18566315137E+03  0.14342697487E+04  0.14712714756E+04  0.10100000352E+00 0.  1.
       -3    1    3    3    0  502 -0.27025770431E+03  0.18566315137E+03  0.56892934195E+03  0.65665107847E+03  0.10100000352E+00 0. -1.
</event>
<event>
 5   0  0.6167756E-02  0.7023165E+03  0.7818609E-02  0.9713279E-01
        2   -1    0    0  501    0  0.00000000000E+00  0.00000000000E+00  0.16137201116E+04  0.16137201116E+04  0.25500000920E-02 0. -1.
       -2   -1    0    0    0  501  0.00000000000E+00  0.00000000000E+00 -0.76414807262E+02  0.76414807305E+02  0.25500000920E-02 0.  1.
    10030    2    1    2    0    0  0.00000000000E+00  0.00000000000E+00  0.15373053043E+04  0.16901349189E+04  0.70231648519E+03 0.  0.
        4    1    3    3  502    0 -0.22387284857E+03  0.21480674146E+03  0.11644457466E+04  0.12050711590E+04  0.12699999809E+01 0. -1.
       -4    1    3    3    0  502  0.22387284857E+03 -0.21480674146E+03  0.37285955771E+03  0.48506375991E+03  0.12699999809E+01 0.  1.
</event>
<event>
 5   0  0.3755872E-02  0.6942107E+03  0.7818609E-02  0.9727184E-01
        1   -1    0    0  501    0  0.00000000000E+00  0.00000000000E+00  0.84796305289E+02  0.84796305439E+02  0.50400001928E-02 0. -1.
       -1   -1    0    0    0  501  0.00000000000E+00  0.00000000000E+00 -0.14208416943E+04  0.14208416943E+04  0.50400001928E-02 0.  1.
    10030    2    1    2    0    0  0.00000000000E+00  0.00000000000E+00 -0.13360453890E+04  0.15056379998E+04  0.69421070634E+03 0.  0.
        2    1    3    3  502    0  0.14596728352E+03  0.29300461082E+03 -0.91837188235E+03  0.97496926316E+03  0.25500000920E-02 0.  1.
       -2    1    3    3    0  502 -0.14596728352E+03 -0.29300461082E+03 -0.41767350668E+03  0.53066873660E+03  0.25500000920E-02 0. -1.
</event>
<event>
 5   0  0.2439375E-02  0.6935176E+03  0.7818609E-02  0.9728383E-01
       -4   -1    0    0    0  501  0.00000000000E+00  0.00000000000E+00  0.28381726678E+03  0.28382010820E+03  0.12699999809E+01 0. -1.
        4   -1    0    0  501    0  0.00000000000E+00  0.00000000000E+00 -0.42365278866E+03  0.42365469222E+03  0.12699999809E+01 0.  1.
    10030    2    1    2    0    0  0.00000000000E+00  0.00000000000E+00 -0.13983552188E+03  0.70747480042E+03  0.69351757011E+03 0.  0.
        4    1    3    3  502    0  0.22505500085E+03  0.24899578039E+03 -0.15879983089E+03  0.37130533426E+03  0.12699999809E+01 0. -1.
       -4    1    3    3    0  502 -0.22505500085E+03 -0.24899578039E+03  0.18964309013E+02  0.33616946616E+03  0.12699999809E+01 0.  1.
</event>
<event>
 5   0  0.3717372E-02  0.6885611E+03  0.7818609E-02  0.9736997E-01
        1   -1    0    0  501    0  0.00000000000E+00  0.00000000000E+00  0.11449653608E+04  0.11449653608E+04  0.50400001928E-02 0. -1.
       -1   -1    0    0    0  501  0.00000000000E+00  0.00000000000E+00 -0.10352198180E+03  0.10352198192E+03  0.50400001928E-02 0.  1.
    10030    2    1    2    0    0  0.00000000000E+00  0.00000000000E+00  0.10414433790E+04  0.12484873428E+04  0.68856105997E+03 0.  0.
        3    1    3    3  502    0 -0.26623832607E+03 -0.16747118233E+02  0.91533701200E+03  0.95341762517E+03  0.10100000352E+00 0. -1.
       -3    1    3    3    0  502  0.26623832607E+03  0.16747118233E+02  0.12610636703E+03  0.29506971760E+03  0.10100000352E+00 0.  1.
</event>
<event>
 5   0  0.3755872E-02  0.7055167E+03  0.7818609E-02  0.9707844E-01
       -1   -1    0    0    0  501  0.00000000000E+00  0.00000000000E+00  0.88936303048E+03  0.88936303050E+03  0.50400001928E-02 0.  1.
        1   -1    0    0  501    0  0.00000000000E+00  0.00000000000E+00 -0.13991864041E+03  0.13991864050E+03  0.50400001928E-02 0. -1.
    10030    2    1    2    0    0  0.00000000000E+00  0.00000000000E+00  0.74944439008E+03  0.10292816710E+04  0.70551673575E+03 0.  0.
        2    1    3    3  502    0 -0.16071230916E+03  0.89165623713E+02 -0.64549890304E+02  0.19479641452E+03  0.25500000920E-02 0. -1.
       -2    1    3    3    0  502  0.16071230916E+03 -0.89165623713E+02  0.81399428038E+03  0.83448525647E+03  0.25500000920E-02 0.  1.
</event>
<event>
 5   0  0.3439015E-02  0.7172714E+03  0.7818609E-02  0.9688143E-01
        1   -1    0    0  501    0  0.00000000000E+00  0.00000000000E+00  0.98508469779E+02  0.98508469907E+02  0.50400001928E-02 0. -1.
       -1   -1    0    0    0  501  0.00000000000E+00  0.00000000000E+00 -0.13056699560E+04  0.13056699561E+04  0.50400001928E-02 0.  1.
    10030    2    1    2    0    0  0.00000000000E+00  0.00000000000E+00 -0.12071614863E+04  0.14041784260E+04  0.71727135591E+03 0.  0.
        1    1    3    3  502    0 -0.33716468683E+03 -0.12175988943E+03 -0.62448774235E+03  0.72006280080E+03  0.50400001928E-02 0. -1.
       -1    1    3    3    0  502  0.33716468683E+03  0.12175988943E+03 -0.58267374392E+03  0.68411562517E+03  0.50400001928E-02 0.  1.
</event>
<event>
 5   0  0.3717372E-02  0.6975453E+03  0.7818609E-02  0.9721439E-01
       -1   -1    0    0    0  501  0.00000000000E+00  0.00000000000E+00  0.61119792844E+02  0.61119793052E+02  0.50400001928E-02 0. -1.
        1   -1    0    0  501    0  0.00000000000E+00  0.00000000000E+00 -0.19902283728E+04  0.19902283728E+04  0.50400001928E-02 0.  1.
    10030    2    1    2    0    0  0.00000000000E+00  0.00000000000E+00 -0.19291085800E+04  0.20513481659E+04  0.69754525610E+03 0.  0.
        3    1    3    3  502    0  0.25185312026E+03  0.24048754280E+03 -0.90737209513E+03  0.97189936807E+03  0.10100000352E+00 0.  1.
       -3    1    3    3    0  502 -0.25185312026E+03 -0.24048754280E+03 -0.10217364848E+04  0.10794487978E+04  0.10100000352E+00 0. -1.
</event>
<event>
 5   0  0.3601475E-02  0.6120035E+03  0.7818609E-02  0.9880811E-01
       -1   -1    0    0    0  501  0.00000000000E+00  0.00000000000E+00  0.10884927087E+03  0.10884927098E+03  0.50400001928E-02 0. -1.
        1   -1    0    0  501    0  0.00000000000E+00  0.00000000000E+00 -0.86024538071E+03  0.86024538073E+03  0.50400001928E-02 0.  1.
    10030    2    1    2    0    0  0.00000000000E+00  0.00000000000E+00 -0.75139610985E+03  0.96909465171E+03  0.61200353764E+03 0.  0.
        5    1    3    3  502    0  0.28975754049E+02 -0.24966890139E+03 -0.65197240460E+03  0.69875908652E+03  0.46999998093E+01 0.  1.
       -5    1    3    3    0  502 -0.28975754049E+02  0.24966890139E+03 -0.99423705250E+02  0.27033556519E+03  0.46999998093E+01 0. -1.
</event>
<event>
 5   0  0.3601475E-02  0.7024478E+03  0.7818609E-02  0.9713055E-01
        1   -1    0    0  501    0  0.00000000000E+00  0.00000000000E+00  0.71505903768E+03  0.71505903769E+03  0.50400001928E-02 0.  1.
       -1   -1    0    0    0  501  0.00000000000E+00  0.00000000000E+00 -0.17251474202E+03  0.17251474209E+03  0.50400001928E-02 0. -1.
    10030    2    1    2    0    0  0.00000000000E+00  0.00000000000E+00  0.54254429566E+03  0.88757377978E+03  0.70244779294E+03 0.  0.
        5    1    3    3  502    0  0.11709923421E+03 -0.45673762177E-01 -0.14708100029E+03  0.18806154147E+03  0.46999998093E+01 0. -1.
       -5    1    3    3    0  502 -0.11709923421E+03  0.45673762177E-01  0.68962529595E+03  0.69951223831E+03  0.46999998093E+01 0.  1.
</event>
<event>
 5   0  0.6167756E-02  0.6674833E+03  0.7818609E-02  0.9774515E-01
       -2   -1    0    0    0  501  0.00000000000E+00  0.00000000000E+00  0.12728404111E+03  0.12728404113E+03  0.25500000920E-02 0. -1.
        2   -1    0    0  501    0  0.00000000000E+00  0.00000000000E+00 -0.87507812109E+03  0.87507812109E+03  0.25500000920E-02 0.  1.
    10030    2    1    2    0    0  0.00000000000E+00  0.00000000000E+00 -0.74779407998E+03  0.10023621622E+04  0.66748327186E+03 0.  0.
        4    1    3    3  502    0 -0.52869920290E+02 -0.23033268103E+03 -0.72778173343E+03  0.76519032719E+03  0.12699999809E+01 0.  1.
       -4    1    3    3    0  502  0.52869920290E+02  0.23033268103E+03 -0.20012346554E+02  0.23717183504E+03  0.12699999809E+01 0. -1.
</event>
<event>
 5   0  0.3749730E-02  0.7540265E+03  0.7818609E-02  0.9629055E-01
        1   -1    0    0  501    0  0.00000000000E+00  0.00000000000E+00  0.12604408737E+04  0.12604408738E+04  0.50400001928E-02 0. -1.
       -1   -1    0    0    0  501  0.00000000000E+00  0.00000000000E+00 -0.11276926402E+03  0.11276926413E+03  0.50400001928E-02 0.  1.
    10030    2    1    2    0    0  0.00000000000E+00  0.00000000000E+00  0.11476716097E+04  0.13732101379E+04  0.75402649756E+03 0.  0.
        4    1    3    3  502    0  0.86619967513E+02 -0.36061444000E+03  0.69724048996E+03  0.78974154434E+03  0.12699999809E+01 0. -1.
       -4    1    3    3    0  502 -0.86619967513E+02  0.36061444000E+03  0.45043111976E+03  0.58346859355E+03  0.12699999809E+01 0.  1.
</event>
<event>
 5   0  0.6248886E-02  0.5916299E+03  0.7818609E-02  0.9922925E-01
       -2   -1    0    0    0  501  0.00000000000E+00  0.00000000000E+00  0.32028825900E+03  0.32028825901E+03  0.25500000920E-02 0. -1.
        2   -1    0    0  501    0  0.00000000000E+00  0.00000000000E+00 -0.27321167296E+03  0.27321167297E+03  0.25500000920E-02 0.  1.
    10030    2    1    2    0    0  0.00000000000E+00  0.00000000000E+00  0.47076586039E+02  0.59349993197E+03  0.59162992174E+03 0.  0.
        3    1    3    3  502    0  0.19905123950E+03  0.18411485883E+03 -0.95101336751E+02  0.28733943628E+03  0.10100000352E+00 0.  1.
       -3    1    3    3    0  502 -0.19905123950E+03 -0.18411485883E+03  0.14217792279E+03  0.30616049569E+03  0.10100000352E+00 0. -1.
</event>
<event>
 5   0  0.2439375E-02  0.7129624E+03  0.7818609E-02  0.9695318E-01
       -3   -1    0    0    0  501  0.00000000000E+00  0.00000000000E+00  0.21432850167E+03  0.21432852547E+03  0.10100000352E+00 0.  1.
        3   -1    0    0  501    0  0.00000000000E+00  0.00000000000E+00 -0.59291621959E+03  0.59291622819E+03  0.10100000352E+00 0. -1.
    10030    2    1    2    0    0  0.00000000000E+00  0.00000000000E+00 -0.37858771792E+03  0.80724475366E+03  0.71296243390E+03 0.  0.
        5    1    3    3  502    0 -0.19370577713E+03 -0.21434457847E+02  0.14862893249E+03  0.24514080372E+03  0.46999998093E+01 0.  1.
       -5    1    3    3    0  502  0.19370577713E+03  0.21434457847E+02 -0.52721665041E+03  0.56210394994E+03  0.46999998093E+01 0. -1.
</event>
<event>
 5   0  0.6131198E-02  0.6919958E+03  0.7818609E-02  0.9731019E-01
        2   -1    0    0  501    0  0.00000000000E+00  0.00000000000E+00  0.29627548479E+04  0.29627548479E+04  0.25500000920E-02 0. -1.
       -2   -1    0    0    0  501  0.00000000000E+00  0.00000000000E+00 -0.40406501740E+02  0.40406501820E+02  0.25500000920E-02 0.  1.
    10030    2    1    2    0    0  0.00000000000E+00  0.00000000000E+00  0.29223483461E+04  0.30031613497E+04  0.69199583536E+03 0.  0.
        1    1    3    3  502    0 -0.51223877739E+02  0.15988765586E+03  0.14822209214E+03  0.22395923015E+03  0.50400001928E-02 0.  1.
       -1    1    3    3    0  502  0.51223877739E+02 -0.15988765586E+03  0.27741262540E+04  0.27792021195E+04  0.50400001928E-02 0. -1.
</event>
<event>
 5   0  0.3755872E-02  0.6521518E+03  0.7818609E-02  0.9802750E-01
        1   -1    0    0  501    0  0.00000000000E+00  0.00000000000E+00  0.76030506815E+03  0.76030506817E+03  0.50400001928E-02 0.  1.
       -1   -1    0    0    0  501  0.00000000000E+00  0.00000000000E+00 -0.13984585005E+03  0.13984585014E+03  0.50400001928E-02 0. -1.
    10030    2    1    2    0    0  0.00000000000E+00  0.00000000000E+00  0.62045921810E+03  0.90015091831E+03  0.65215184919E+03 0.  0.
        2    1    3    3  502    0  0.55528679551E+02 -0.27133675505E+03  0.54777558996E+03  0.61381199553E+03  0.25500000920E-02 0.  1.
       -2    1    3    3    0  502 -0.55528679551E+02  0.27133675505E+03  0.72683628141E+02  0.28633892278E+03  0.25500000920E-02 0. -1.
</event>
<event>
 5   0  0.6131198E-02  0.7152890E+03  0.7818609E-02  0.9691437E-01
       -2   -1    0    0    0  501  0.00000000000E+00  0.00000000000E+00  0.41828003413E+03  0.41828003414E+03  0.25500000920E-02 0.  1.
        2   -1    0    0  501    0  0.00000000000E+00  0.00000000000E+00 -0.30579893253E+03  0.30579893254E+03  0.25500000920E-02 0. -1.
    10030    2    1    2    0    0  0.00000000000E+00  0.00000000000E+00  0.11248110160E+03  0.72407896667E+03  0.71528899877E+03 0.  0.
        1    1    3    3  502    0 -0.37323827353E+02 -0.79548354104E+02  0.40718306823E+03  0.41655619046E+03  0.50400001928E-02 0.  1.
       -1    1    3    3    0  502  0.37323827353E+02  0.79548354104E+02 -0.29470196663E+03  0.30752277622E+03  0.50400001928E-02 0. -1.
</event>
<event>
 5   0  0.6248886E-02  0.7079981E+03  0.7818609E-02  0.9703651E-01
        2   -1    0    0  501    0  0.00000000000E+00  0.00000000000E+00  0.33862749438E+03  0.33862749439E+03  0.25500000920E-02 0.  1.
       -2   -1    0    0    0  501  0.00000000000E+00  0.00000000000E+00 -0.37006834322E+03  0.37006834323E+03  0.25500000920E-02 0. -1.
    10030    2    1    2    0    0  0.00000000000E+00  0.00000000000E+00 -0.31440848846E+02  0.70869583762E+03  0.70799806729E+03 0.  0.
        3    1    3    3  502    0  0.15529548047E+03  0.30224603544E+03 -0.11504499555E+03  0.35875439146E+03  0.10100000352E+00 0. -1.
       -3    1    3    3    0  502 -0.15529548047E+03 -0.30224603544E+03  0.83604146708E+02  0.34994144616E+03  0.10100000352E+00 0.  1.
</event>
<event>
 5   0  0.3755872E-02  0.7015390E+03  0.7818609E-02  0.9714604E-01
        1   -1    0    0  501    0  0.00000000000E+00  0.00000000000E+00  0.64016808891E+03  0.64016808893E+03  0.50400001928E-02 0. -1.
       -1   -1    0    0    0  501  0.00000000000E+00  0.00000000000E+00 -0.19219834758E+03  0.19219834765E+03  0.50400001928E-02 0.  1.
    10030    2    1    2    0    0  0.00000000000E+00  0.00000000000E+00  0.44796974132E+03  0.83236643658E+03  0.70153901930E+03 0.  0.
        2    1    3    3  502    0  0.24363411869E+03  0.19404854932E+03  0.41539870793E+03  0.51919987465E+03  0.25500000920E-02 0. -1.
       -2    1    3    3    0  502 -0.24363411869E+03 -0.19404854932E+03  0.32571033395E+02  0.31316656193E+03  0.25500000920E-02 0.  1.
</event>
<event>
 5   0  0.6131198E-02  0.6868388E+03  0.7818609E-02  0.9740008E-01
        2   -1    0    0  501    0  0.00000000000E+00  0.00000000000E+00  0.18795846444E+04  0.18795846444E+04  0.25500000920E-02 0. -1.
       -2   -1    0    0    0  501  0.00000000000E+00  0.00000000000E+00 -0.62746254052E+02  0.62746254104E+02  0.25500000920E-02 0.  1.
    10030    2    1    2    0    0  0.00000000000E+00  0.00000000000E+00  0.18168383903E+04  0.19423308985E+04  0.68683883309E+03 0.  0.
        1    1    3    3  502    0  0.31151096064E+03 -0.14352515254E+03  0.85957312050E+03  0.92547528196E+03  0.50400001928E-02 0.  1.
       -1    1    3    3    0  502 -0.31151096064E+03  0.14352515254E+03  0.95726526981E+03  0.10168556165E+04  0.50400001928E-02 0. -1.
</event>
<event>
 5   0  0.3749730E-02  0.7059033E+03  0.7818609E-02  0.9707190E-01
       -1   -1    0    0    0  501  0.00000000000E+00  0.00000000000E+00  0.21050217442E+03  0.21050217448E+03  0.50400001928E-02 0. -1.
        1   -1    0    0  501    0  0.00000000000E+00  0.00000000000E+00 -0.59179842351E+03  0.59179842353E+03  0.50400001928E-02 0.  1.
    10030    2    1    2    0    0  0.00000000000E+00  0.00000000000E+00 -0.38129624909E+03  0.80230059801E+03  0.70590326532E+03 0.  0.
        4    1    3    3  502    0  0.30530513647E+03 -0.58324252567E+02 -0.38069591187E+03  0.49147119448E+03  0.12699999809E+01 0.  1.
       -4    1    3    3    0  502 -0.30530513647E+03  0.58324252567E+02 -0.60033721553E+00  0.31082940352E+03  0.12699999809E+01 0. -1.
</event>
<event>
 5   0  0.2439375E-02  0.6984747E+03  0.7818609E-02  0.9719844E-01
        4   -1    0    0  501    0  0.00000000000E+00  0.00000000000E+00  0.74871876412E+02  0.74882646704E+02  0.12699999809E+01 0.  1.
       -4   -1    0    0    0  501  0.00000000000E+00  0.00000000000E+00 -0.16288776846E+04  0.16288781797E+04  0.12699999809E+01 0. -1.
    10030    2    1    2    0    0  0.00000000000E+00  0.00000000000E+00 -0.15540058082E+04  0.17037608264E+04  0.69847469654E+03 0.  0.
        1    1    3    3  502    0 -0.33516331189E+03 -0.93904357703E+02 -0.84660738523E+03  0.91536688752E+03  0.50400001928E-02 0.  1.
       -1    1    3    3    0  502  0.33516331189E+03  0.93904357703E+02 -0.70739842301E+03  0.78839393892E+03  0.50400001928E-02 0. -1.
</event>
<event>
 5   0  0.3749730E-02  0.6977123E+03  0.7818609E-02  0.9721152E-01
       -1   -1    0    0    0  501  0.00000000000E+00  0.00000000000E+00  0.25684464804E+03  0.25684464809E+03  0.50400001928E-02 0.  1.
        1   -1    0    0  501    0  0.00000000000E+00  0.00000000000E+00 -0.47382967615E+03  0.47382967618E+03  0.50400001928E-02 0. -1.
    10030    2    1    2    0    0  0.00000000000E+00  0.00000000000E+00 -0.21698502811E+03  0.73067432427E+03  0.69771230871E+03 0.  0.
        4    1    3    3  502    0  0.25345884182E+03 -0.83036906497E+02 -0.34397667094E+03  0.43526782030E+03  0.12699999809E+01 0. -1.
       -4    1    3    3    0  502 -0.25345884182E+03  0.83036906497E+02  0.12699164283E+03  0.29540650397E+03  0.12699999809E+01 0.  1.
</event>
<event>
 5   0  0.6131198E-02  0.7025002E+03  0.7818609E-02  0.9712966E-01
        2   -1    0    0  501    0  0.00000000000E+00  0.00000000000E+00  0.12506123675E+04  0.12506123675E+04  0.25500000920E-02 0.  1.
       -2   -1    0    0    0  501  0.00000000000E+00  0.00000000000E+00 -0.98652984729E+02  0.98652984762E+02  0.25500000920E-02 0. -1.
    10030    2    1    2    0    0  0.00000000000E+00  0.00000000000E+00  0.11519593828E+04  0.13492653523E+04  0.70250022866E+03 0.  0.
        1    1    3    3  502    0 -0.31845137221E+03 -0.10190559417E+03  0.36929099184E+03  0.49816850891E+03  0.50400001928E-02 0.  1.
       -1    1    3    3    0  502  0.31845137221E+03  0.10190559417E+03  0.78266839092E+03  0.85109684335E+03  0.50400001928E-02 0. -1.
</event>
<event>
 5   0  0.3439015E-02  0.6757822E+03  0.7818609E-02  0.9759568E-01
        1   -1    0    0  501    0  0.00000000000E+00  0.00000000000E+00  0.82663531148E+03  0.82663531149E+03  0.50400001928E-02 0.  1.
       -1   -1    0    0    0  501  0.00000000000E+00  0.00000000000E+00 -0.13811459009E+03  0.13811459018E+03  0.50400001928E-02 0. -1.
    10030    2    1    2    0    0  0.00000000000E+00  0.00000000000E+00  0.68852072139E+03  0.96474990168E+03  0.67578220531E+03 0.  0.
        1    1    3    3  502    0 -0.33640154407E+03 -0.16316183950E+02  0.30547308481E+03  0.45469332773E+03  0.50400001928E-02 0. -1.
       -1    1    3    3    0  502  0.33640154407E+03  0.16316183950E+02  0.38304763657E+03  0.51005657394E+03  0.50400001928E-02 0.  1.
</event>
<event>
 5   0  0.3755872E-02  0.7096614E+03  0.7818609E-02  0.9700851E-01
       -1   -1    0    0    0  501  0.00000000000E+00  0.00000000000E+00  0.25326441213E+03  0.25326441218E+03  0.50400001928E-02 0.  1.
        1   -1    0    0  501    0  0.00000000000E+00  0.00000000000E+00 -0.49712801406E+03  0.49712801409E+03  0.50400001928E-02 0. -1.
    10030    2    1    2    0    0  0.00000000000E+00  0.00000000000E+00 -0.24386360193E+03  0.75039242627E+03  0.70966142425E+03 0.  0.
        2    1    3    3  502    0 -0.16350079449E+03 -0.24158733345E+03  0.91672152085E+02  0.30577889554E+03  0.25500000920E-02 0.  1.
       -2    1    3    3    0  502  0.16350079449E+03  0.24158733345E+03 -0.33553575401E+03  0.44461353073E+03  0.25500000920E-02 0. -1.
</event>
<event>
 5   0  0.5899787E-02  0.6946144E+03  0.7818609E-02  0.9726487E-01
        2   -1    0    0  501    0  0.00000000000E+00  0.00000000000E+00  0.80345256224E+03  0.80345256225E+03  0.25500000920E-02 0. -1.
       -2   -1    0    0    0  501  0.00000000000E+00  0.00000000000E+00 -0.15012995904E+03  0.15012995906E+03  0.25500000920E-02 0.  1.
    10030    2    1    2    0    0  0.00000000000E+00  0.00000000000E+00  0.65332260320E+03  0.95358252131E+03  0.69461442620E+03 0.  0.
        2    1    3    3  502    0  0.41898737173E+02 -0.34063034027E+03  0.25353007144E+03  0.42668727427E+03  0.25500000920E-02 0. -1.
       -2    1    3    3    0  502 -0.41898737173E+02  0.34063034027E+03  0.39979253176E+03  0.52689524704E+03  0.25500000920E-02 0.  1.
</event>
<event>
 5   0  0.5899787E-02  0.6991931E+03  0.7818609E-02  0.9718613E-01
        2   -1    0    0  501    0  0.00000000000E+00  0.00000000000E+00  0.81823140479E+03  0.81823140479E+03  0.25500000920E-02 0. -1.
       -2   -1    0    0    0  501  0.00000000000E+00  0.00000000000E+00 -0.14936818087E+03  0.14936818090E+03  0.25500000920E-02 0.  1.
    10030    2    1    2    0    0  0.00000000000E+00  0.00000000000E+00  0.66886322391E+03  0.96759958569E+03  0.69919306770E+03 0.  0.
        2    1    3    3  502    0  0.18245772769E+03  0.21925819044E+03  0.61414242868E+03  0.67715278865E+03  0.25500000920E-02 0. -1.
       -2    1    3    3    0  502 -0.18245772769E+03 -0.21925819044E+03  0.54720795233E+02  0.29044679703E+03  0.25500000920E-02 0.  1.
</event>
<event>
 5   0  0.5987810E-02  0.6892496E+03  0.7818609E-02  0.9735796E-01
        2   -1    0    0  501    0  0.00000000000E+00  0.00000000000E+00  0.58635459607E+03  0.58635459607E+03  0.25500000920E-02 0.  1.
       -2   -1    0    0    0  501  0.00000000000E+00  0.00000000000E+00 -0.20255019715E+03  0.20255019716E+03  0.25500000920E-02 0. -1.
    10030    2    1    2    0    0  0.00000000000E+00  0.00000000000E+00  0.38380439892E+03  0.78890479323E+03  0.68924956014E+03 0.  0.
        5    1    3    3  502    0  0.14300624022E+03  0.46978786105E+02 -0.16289400343E+03  0.22184304685E+03  0.46999998093E+01 0. -1.
       -5    1    3    3    0  502 -0.14300624022E+03 -0.46978786105E+02  0.54669840235E+03  0.56706174638E+03  0.46999998093E+01 0.  1.
</event>
<event>
 5   0  0.6131198E-02  0.6978414E+03  0.7818609E-02  0.9720931E-01
       -2   -1    0    0    0  501  0.00000000000E+00  0.00000000000E+00  0.98160735732E+02  0.98160735765E+02  0.25500000920E-02 0.  1.
        2   -1    0    0  501    0  0.00000000000E+00  0.00000000000E+00 -0.12402685120E+04  0.12402685120E+04  0.25500000920E-02 0. -1.
    10030    2    1    2    0    0  0.00000000000E+00  0.00000000000E+00 -0.11421077762E+04  0.13384292477E+04  0.69784144235E+03 0.  0.
        1    1    3    3  502    0 -0.15913087541E+03 -0.16957545343E+03 -0.72137507050E+02  0.24347954712E+03  0.50400001928E-02 0.  1.
       -1    1    3    3    0  502  0.15913087541E+03  0.16957545343E+03 -0.10699702692E+04  0.10949497006E+04  0.50400001928E-02 0. -1.
</event>
<event>
 5   0  0.3439015E-02  0.6952060E+03  0.7818609E-02  0.9725466E-01
        1   -1    0    0  501    0  0.00000000000E+00  0.00000000000E+00  0.13719708080E+03  0.13719708089E+03  0.50400001928E-02 0. -1.
       -1   -1    0    0    0  501  0.00000000000E+00  0.00000000000E+00 -0.88068805775E+03  0.88068805776E+03  0.50400001928E-02 0.  1.
    10030    2    1    2    0    0  0.00000000000E+00  0.00000000000E+00 -0.74349097694E+03  0.10178851387E+04  0.69520595704E+03 0.  0.
        1    1    3    3  502    0 -0.19154892062E+03 -0.19361584667E+03 -0.68798048395E+03  0.73992920702E+03  0.50400001928E-02 0.  1.
       -1    1    3    3    0  502  0.19154892062E+03  0.19361584667E+03 -0.55510492992E+02  0.27795593164E+03  0.50400001928E-02 0. -1.
</event>
<event>
 5   0  0.6167756E-02  0.6852771E+03  0.7818609E-02  0.9742747E-01
       -2   -1    0    0    0  501  0.00000000000E+00  0.00000000000E+00  0.37845852542E+03  0.37845852543E+03  0.25500000920E-02 0.  1.
        2   -1    0    0  501    0  0.00000000000E+00  0.00000000000E+00 -0.31020878455E+03  0.31020878456E+03  0.25500000920E-02 0. -1.
    10030    2    1    2    0    0  0.00000000000E+00  0.00000000000E+00  0.68249740874E+02  0.68866730999E+03  0.68527705107E+03 0.  0.
        4    1    3    3  502    0  0.16099674544E+03  0.39228232694E+02 -0.26726004257E+03  0.31446518016E+03  0.12699999809E+01 0. -1.
       -4    1    3    3    0  502 -0.16099674544E+03 -0.39228232694E+02  0.33550978345E+03  0.37420212983E+03  0.12699999809E+01 0.  1.
</event>
<event>
 5   0  0.5987810E-02  0.6941738E+03  0.7818609E-02  0.9727248E-01
       -2   -1    0    0    0  501  0.00000000000E+00  0.00000000000E+00  0.10765233961E+04  0.10765233961E+04  0.25500000920E-02 0. -1.
        2   -1    0    0  501    0  0.00000000000E+00  0.00000000000E+00 -0.11190588495E+03  0.11190588498E+03  0.25500000920E-02 0.  1.
    10030    2    1    2    0    0  0.00000000000E+00  0.00000000000E+00  0.96461751112E+03  0.11884292811E+04  0.69417376305E+03 0.  0.
        5    1    3    3  502    0 -0.56865689274E+02  0.15040764435E+03  0.10088472961E+04  0.10215924447E+04  0.46999998093E+01 0. -1.
       -5    1    3    3    0  502  0.56865689274E+02 -0.15040764435E+03 -0.44229785006E+02  0.16683683639E+03  0.46999998093E+01 0.  1.
</event>
<event>
 5   0  0.6131198E-02  0.7579676E+03  0.7818609E-02  0.9622933E-01
        2   -1    0    0  501    0  0.00000000000E+00  0.00000000000E+00  0.88083908958E+03  0.88083908959E+03  0.25500000920E-02 0.  1.
       -2   -1    0    0    0  501  0.00000000000E+00  0.00000000000E+00 -0.16305898526E+03  0.16305898528E+03  0.25500000920E-02 0. -1.
    10030    2    1    2    0    0  0.00000000000E+00  0.00000000000E+00  0.71778010433E+03  0.10438980749E+04  0.75796761971E+03 0.  0.
        1    1    3    3  502    0 -0.23289073546E+03  0.14005903299E+03  0.72268324426E+03  0.77209176847E+03  0.50400001928E-02 0.  1.
       -1    1    3    3    0  502  0.23289073546E+03 -0.14005903299E+03 -0.49031399305E+01  0.27180630639E+03  0.50400001928E-02 0. -1.
</event>
<event>
 5   0  0.3439015E-02  0.6790968E+03  0.7818609E-02  0.9753663E-01
       -1   -1    0    0    0  501  0.00000000000E+00  0.00000000000E+00  0.27575838606E+03  0.27575838610E+03  0.50400001928E-02 0.  1.
        1   -1    0    0  501    0  0.00000000000E+00  0.00000000000E+00 -0.41809470640E+03  0.41809470643E+03  0.50400001928E-02 0. -1.
    10030    2    1    2    0    0  0.00000000000E+00  0.00000000000E+00 -0.14233632034E+03  0.69385309253E+03  0.67909681631E+03 0.  0.
        1    1    3    3  502    0 -0.25828052746E+03  0.17445424249E+03 -0.20881753481E+03  0.37516379950E+03  0.50400001928E-02 0. -1.
       -1    1    3    3    0  502  0.25828052746E+03 -0.17445424249E+03  0.66481214473E+02  0.31868929303E+03  0.50400001928E-02 0.  1.
</event>
<event>
 5   0  0.2439375E-02  0.7382859E+03  0.7818609E-02  0.9653909E-01
        4   -1    0    0  501    0  0.00000000000E+00  0.00000000000E+00  0.22343506699E+03  0.22343867629E+03  0.12699999809E+01 0.  1.
       -4   -1    0    0    0  501  0.00000000000E+00  0.00000000000E+00 -0.60986162601E+03  0.60986294836E+03  0.12699999809E+01 0. -1.
    10030    2    1    2    0    0  0.00000000000E+00  0.00000000000E+00 -0.38642655902E+03  0.83330162464E+03  0.73828592843E+03 0.  0.
        4    1    3    3  502    0 -0.35044604517E+03  0.81665626636E+02 -0.10025346074E+03  0.37354260056E+03  0.12699999809E+01 0. -1.
       -4    1    3    3    0  502  0.35044604517E+03 -0.81665626636E+02 -0.28617309828E+03  0.45975902408E+03  0.12699999809E+01 0.  1.
</event>
<event>
 5   0  0.3755872E-02  0.7108001E+03  0.7818609E-02  0.9698939E-01
       -1   -1    0    0    0  501  0.00000000000E+00  0.00000000000E+00  0.10106554973E+04  0.10106554973E+04  0.50400001928E-02 0. -1.
        1   -1    0    0  501    0  0.00000000000E+00  0.00000000000E+00 -0.12497748518E+03  0.12497748528E+03  0.50400001928E-02 0.  1.
    10030    2    1    2    0    0  0.00000000000E+00  0.00000000000E+00  0.88567801208E+03  0.11356329826E+04  0.71080006330E+03 0.  0.
        2    1    3    3  502    0  0.35332726867E+03  0.25517213808E+02  0.39714708149E+03  0.53218144587E+03  0.25500000920E-02 0. -1.
       -2    1    3    3    0  502 -0.35332726867E+03 -0.25517213808E+02  0.48853093059E+03  0.60345153669E+03  0.25500000920E-02 0.  1.
</event>
<event>
 5   0  0.5899787E-02  0.7163284E+03  0.7818609E-02  0.9689709E-01
        2   -1    0    0  501    0  0.00000000000E+00  0.00000000000E+00  0.70452041005E+03  0.70452041006E+03  0.25500000920E-02 0. -1.
       -2   -1    0    0    0  501  0.00000000000E+00  0.00000000000E+00 -0.18208358507E+03  0.18208358509E+03  0.25500000920E-02 0.  1.
    10030    2    1    2    0    0  0.00000000000E+00  0.00000000000E+00  0.52243682498E+03  0.88660399514E+03  0.71632842196E+03 0.  0.
        2    1    3    3  502    0  0.20806317058E+03  0.22524985521E+03  0.49029041789E+03  0.57828407734E+03  0.25500000920E-02 0. -1.
       -2    1    3    3    0  502 -0.20806317058E+03 -0.22524985521E+03  0.32146407096E+02  0.30831991781E+03  0.25500000920E-02 0.  1.
</event>
<event>
 5   0  0.6167756E-02  0.6980777E+03  0.7818609E-02  0.9720525E-01
        2   -1    0    0  501    0  0.00000000000E+00  0.00000000000E+00  0.89421315907E+03  0.89421315908E+03  0.25500000920E-02 0.  1.
       -2   -1    0    0    0  501  0.00000000000E+00  0.00000000000E+00 -0.13624056898E+03  0.13624056900E+03  0.25500000920E-02 0. -1.
    10030    2    1    2    0    0  0.00000000000E+00  0.00000000000E+00  0.75797259010E+03  0.10304537281E+04  0.69807767360E+03 0.  0.
        4    1    3    3  502    0  0.27780225214E+03 -0.77420322140E+01  0.67272880099E+02  0.28593930065E+03  0.12699999809E+01 0. -1.
       -4    1    3    3    0  502 -0.27780225214E+03  0.77420322140E+01  0.69069971000E+03  0.74451442743E+03  0.12699999809E+01 0.  1.
</event>
<event>
 5   0  0.5987810E-02  0.6698299E+03  0.7818609E-02  0.9770265E-01
       -2   -1    0    0    0  501  0.00000000000E+00  0.00000000000E+00  0.13746363573E+03  0.13746363576E+03  0.25500000920E-02 0. -1.
        2   -1    0    0  501    0  0.00000000000E+00  0.00000000000E+00 -0.81598319737E+03  0.81598319737E+03  0.25500000920E-02 0.  1.
    10030    2    1    2    0    0  0.00000000000E+00  0.00000000000E+00 -0.67851956164E+03  0.95344683313E+03  0.66982987996E+03 0.  0.
        5    1    3    3  502    0 -0.17350974105E+03  0.12665439191E+03 -0.70493919769E+03  0.73695883716E+03  0.46999998093E+01 0.  1.
       -5    1    3    3    0  502  0.17350974105E+03 -0.12665439191E+03  0.26419636055E+02  0.21648799597E+03  0.46999998093E+01 0. -1.
</event>
<event>
 5   0  0.3749730E-02  0.7006396E+03  0.7818609E-02  0.9716139E-01
        1   -1    0    0  501    0  0.00000000000E+00  0.00000000000E+00  0.10095242830E+03  0.10095242843E+03  0.50400001928E-02 0. -1.
       -1   -1    0    0    0  501  0.00000000000E+00  0.00000000000E+00 -0.12156613064E+04  0.12156613064E+04  0.50400001928E-02 0.  1.
    10030    2    1    2    0    0  0.00000000000E+00  0.00000000000E+00 -0.11147088781E+04  0.13166137348E+04  0.70063959626E+03 0.  0.
        4    1    3    3  502    0 -0.21416809559E+03 -0.22901435552E+01 -0.10782890125E+04  0.10993552771E+04  0.12699999809E+01 0.  1.
       -4    1    3    3    0  502  0.21416809559E+03  0.22901435552E+01 -0.36419865549E+02  0.21725845768E+03  0.12699999809E+01 0. -1.
</event>
<event>
 5   0  0.3749730E-02  0.7012994E+03  0.7818609E-02  0.9715013E-01
       -1   -1    0    0    0  501  0.00000000000E+00  0.00000000000E+00  0.19833362744E+03  0.19833362751E+03  0.50400001928E-02 0. -1.
        1   -1    0    0  501    0  0.00000000000E+00  0.00000000000E+00 -0.61994138666E+03  0.61994138668E+03  0.50400001928E-02 0.  1.
    10030    2    1    2    0    0  0.00000000000E+00  0.00000000000E+00 -0.42160775922E+03  0.81827501419E+03  0.70129943406E+03 0.  0.
        4    1    3    3  502    0 -0.12121225474E+03 -0.16589624075E+03 -0.54234637368E+03  0.57996135676E+03  0.12699999809E+01 0.  1.
       -4    1    3    3    0  502  0.12121225474E+03  0.16589624075E+03  0.12073861446E+03  0.23831365743E+03  0.12699999809E+01 0. -1.
</event>
<event>
 5   0  0.5899787E-02  0.5535407E+03  0.7818609E-02  0.1000678E+00
        2   -1    0    0  501    0  0.00000000000E+00  0.00000000000E+00  0.32768616920E+03  0.32768616921E+03  0.25500000920E-02 0.  1.
       -2   -1    0    0    0  501  0.00000000000E+00  0.00000000000E+00 -0.23376584370E+03  0.23376584371E+03  0.25500000920E-02 0. -1.
    10030    2    1    2    0    0  0.00000000000E+00  0.00000000000E+00  0.93920325501E+02  0.56145201292E+03  0.55354072593E+03 0.  0.
        2    1    3    3  502    0 -0.60358987863E+02  0.12406059534E+03 -0.19640146845E+03  0.24001619851E+03  0.25500000920E-02 0. -1.
       -2    1    3    3    0  502  0.60358987863E+02 -0.12406059534E+03  0.29032179395E+03  0.32143581441E+03  0.25500000920E-02 0.  1.
</event>
<event>
 5   0  0.6131198E-02  0.7044611E+03  0.7818609E-02  0.9709633E-01
       -2   -1    0    0    0  501  0.00000000000E+00  0.00000000000E+00  0.37290162322E+03  0.37290162323E+03  0.25500000920E-02 0.  1.
        2   -1    0    0  501    0  0.00000000000E+00  0.00000000000E+00 -0.33270534846E+03  0.33270534847E+03  0.25500000920E-02 0. -1.
    10030    2    1    2    0    0  0.00000000000E+00  0.00000000000E+00  0.40196274761E+02  0.70560697170E+03  0.70446111178E+03 0.  0.
        1    1    3    3  502    0 -0.23839023045E+03  0.25866455777E+03  0.19272659402E+01  0.35176834679E+03  0.50400001928E-02 0.  1.
       -1    1    3    3    0  502  0.23839023045E+03 -0.25866455777E+03  0.38269008821E+02  0.35383862492E+03  0.50400001928E-02 0. -1.
</event>
<event>
 5   0  0.6131198E-02  0.6927487E+03  0.7818609E-02  0.9729714E-01
       -2   -1    0    0    0  501  0.00000000000E+00  0.00000000000E+00  0.10680987638E+03  0.10680987641E+03  0.25500000920E-02 0.  1.
        2   -1    0    0  501    0  0.00000000000E+00  0.00000000000E+00 -0.11232593444E+04  0.11232593444E+04  0.25500000920E-02 0. -1.
    10030    2    1    2    0    0  0.00000000000E+00  0.00000000000E+00 -0.10164494680E+04  0.12300692208E+04  0.69274870406E+03 0.  0.
        1    1    3    3  502    0 -0.31498062460E+03  0.13179216875E+03 -0.40479153116E+03  0.52956411637E+03  0.50400001928E-02 0.  1.
       -1    1    3    3    0  502  0.31498062460E+03 -0.13179216875E+03 -0.61165793687E+03  0.70050510447E+03  0.50400001928E-02 0. -1.
</event>
<event>
 5   0  0.2439375E-02  0.5708947E+03  0.7818609E-02  0.9967701E-01
       -4   -1    0    0    0  501  0.00000000000E+00  0.00000000000E+00  0.59613609903E+03  0.59613745183E+03  0.12699999809E+01 0.  1.
        4   -1    0    0  501    0  0.00000000000E+00  0.00000000000E+00 -0.13667605851E+03  0.13668195883E+03  0.12699999809E+01 0. -1.
    10030    2    1    2    0    0  0.00000000000E+00  0.00000000000E+00  0.45946004052E+03  0.73281941066E+03  0.57089470115E+03 0.  0.
        5    1    3    3  502    0 -0.17249575442E+03  0.11941134956E+03 -0.18659624858E+02  0.21067540742E+03  0.46999998093E+01 0. -1.
       -5    1    3    3    0  502  0.17249575442E+03 -0.11941134956E+03  0.47811966538E+03  0.52214400323E+03  0.46999998093E+01 0.  1.
</event>
<event>
 5   0  0.5987810E-02  0.6843618E+03  0.7818609E-02  0.9744356E-01
        2   -1    0    0  501    0  0.00000000000E+00  0.00000000000E+00  0.26865737831E+03  0.26865737832E+03  0.25500000920E-02 0. -1.
       -2   -1    0    0    0  501  0.00000000000E+00  0.00000000000E+00 -0.43582560895E+03  0.43582560896E+03  0.25500000920E-02 0.  1.
    10030    2    1    2    0    0  0.00000000000E+00  0.00000000000E+00 -0.16716823064E+03  0.70448298728E+03  0.68436179177E+03 0.  0.
        5    1    3    3  502    0 -0.22641832380E+03  0.11754855273E+03 -0.31828482626E+03  0.40793411261E+03  0.46999998093E+01 0.  1.
       -5    1    3    3    0  502  0.22641832380E+03 -0.11754855273E+03  0.15111659562E+03  0.29654887468E+03  0.46999998093E+01 0. -1.
</event>
<event>
 5   0  0.3749730E-02  0.6145772E+03  0.7818609E-02  0.9875616E-01
        1   -1    0    0  501    0  0.00000000000E+00  0.00000000000E+00  0.97737196725E+03  0.97737196726E+03  0.50400001928E-02 0.  1.
       -1   -1    0    0    0  501  0.00000000000E+00  0.00000000000E+00 -0.96612446525E+02  0.96612446657E+02  0.50400001928E-02 0. -1.
    10030    2    1    2    0    0  0.00000000000E+00  0.00000000000E+00  0.88075952073E+03  0.10739844139E+04  0.61457724331E+03 0.  0.
        4    1    3    3  502    0 -0.55616327148E+02 -0.19470059362E+03  0.84429142963E+03  0.86823448909E+03  0.12699999809E+01 0.  1.
       -4    1    3    3    0  502  0.55616327148E+02  0.19470059362E+03  0.36468091096E+02  0.20574992483E+03  0.12699999809E+01 0. -1.
</event>
<event>
 5   0  0.3439015E-02  0.7034480E+03  0.7818609E-02  0.9711354E-01
       -1   -1    0    0    0  501  0.00000000000E+00  0.00000000000E+00  0.20591570070E+03  0.20591570076E+03  0.50400001928E-02 0. -1.
        1   -1    0    0  501    0  0.00000000000E+00  0.00000000000E+00 -0.60077873779E+03  0.60077873781E+03  0.50400001928E-02 0.  1.
    10030    2    1    2    0    0  0.00000000000E+00  0.00000000000E+00 -0.39486303709E+03  0.80669443857E+03  0.70344800743E+03 0.  0.
        1    1    3    3  502    0  0.27211049045E+03 -0.13053505746E+03 -0.40456994321E+03  0.50473791141E+03  0.50400001928E-02 0. -1.
       -1    1    3    3    0  502 -0.27211049045E+03  0.13053505746E+03  0.97069061218E+01  0.30195652716E+03  0.50400001928E-02 0.  1.
</event>
<event>
 5   0  0.3439015E-02  0.7054074E+03  0.7818609E-02  0.9708029E-01
       -1   -1    0    0    0  501  0.00000000000E+00  0.00000000000E+00  0.71918631912E+02  0.71918632088E+02  0.50400001928E-02 0. -1.
        1   -1    0    0  501    0  0.00000000000E+00  0.00000000000E+00 -0.17297313719E+04  0.17297313719E+04  0.50400001928E-02 0.  1.
    10030    2    1    2    0    0  0.00000000000E+00  0.00000000000E+00 -0.16578127400E+04  0.18016500040E+04  0.70540743974E+03 0.  0.
        1    1    3    3  502    0 -0.24487966073E+03 -0.17688030097E+03 -0.12939074682E+04  0.13287020830E+04  0.50400001928E-02 0.  1.
       -1    1    3    3    0  502  0.24487966073E+03  0.17688030097E+03 -0.36390527182E+03  0.47294792102E+03  0.50400001928E-02 0. -1.
</event>
<event>
 5   0  0.2439375E-02  0.6969690E+03  0.7818609E-02  0.9722430E-01
       -4   -1    0    0    0  501  0.00000000000E+00  0.00000000000E+00  0.17404377366E+03  0.17404840720E+03  0.12699999809E+01 0.  1.
        4   -1    0    0  501    0  0.00000000000E+00  0.00000000000E+00 -0.69774922284E+03  0.69775037862E+03  0.12699999809E+01 0. -1.
    10030    2    1    2    0    0  0.00000000000E+00  0.00000000000E+00 -0.52370544918E+03  0.87179878583E+03  0.69696895589E+03 0.  0.
        3    1    3    3  502    0 -0.11434717668E+03  0.25184469570E+03 -0.52702081516E+03  0.59519070673E+03  0.10100000352E+00 0. -1.
       -3    1    3    3    0  502  0.11434717668E+03 -0.25184469570E+03  0.33153659876E+01  0.27660807909E+03  0.10100000352E+00 0.  1.
</event>
<event>
 5   0  0.2439375E-02  0.7045599E+03  0.7818609E-02  0.9709466E-01
       -3   -1    0    0    0  501  0.00000000000E+00  0.00000000000E+00  0.57460524231E+03  0.57460525119E+03  0.10100000352E+00 0. -1.
        3   -1    0    0  501    0  0.00000000000E+00  0.00000000000E+00 -0.21597634527E+03  0.21597636888E+03  0.10100000352E+00 0.  1.
    10030    2    1    2    0    0  0.00000000000E+00  0.00000000000E+00  0.35862889704E+03  0.79058162007E+03  0.70455987127E+03 0.  0.
        4    1    3    3  502    0  0.46601180725E+02 -0.34846308707E+03  0.20443898405E+03  0.40668796908E+03  0.12699999809E+01 0.  1.
       -4    1    3    3    0  502 -0.46601180725E+02  0.34846308707E+03  0.15418991299E+03  0.38389365099E+03  0.12699999809E+01 0. -1.
</event>
<event>
 5   0  0.3439015E-02  0.6853975E+03  0.7818609E-02  0.9742536E-01
        1   -1    0    0  501    0  0.00000000000E+00  0.00000000000E+00  0.14347834768E+04  0.14347834768E+04  0.50400001928E-02 0. -1.
       -1   -1    0    0    0  501  0.00000000000E+00  0.00000000000E+00 -0.81853761136E+02  0.81853761291E+02  0.50400001928E-02 0.  1.
    10030    2    1    2    0    0  0.00000000000E+00  0.00000000000E+00  0.13529297157E+04  0.15166372381E+04  0.68539747334E+03 0.  0.
        1    1    3    3  502    0 -0.16026169893E+03  0.25855449577E+03  0.10256938208E+04  0.10698514166E+04  0.50400001928E-02 0. -1.
       -1    1    3    3    0  502  0.16026169893E+03 -0.25855449577E+03  0.32723589484E+03  0.44678582153E+03  0.50400001928E-02 0.  1.
</event>
<event>
 5   0  0.6248886E-02  0.7129203E+03  0.7818609E-02  0.9695388E-01
        2   -1    0    0  501    0  0.00000000000E+00  0.00000000000E+00  0.55681256655E+03  0.55681256655E+03  0.25500000920E-02 0. -1.
       -2   -1    0    0    0  501  0.00000000000E+00  0.00000000000E+00 -0.22819859273E+03  0.22819859274E+03  0.25500000920E-02 0.  1.
    10030    2    1    2    0    0  0.00000000000E+00  0.00000000000E+00  0.32861397382E+03  0.78501115930E+03  0.71292031562E+03 0.  0.
        3    1    3    3  502    0 -0.16175892703E+03 -0.31023755322E+03  0.89216189066E+02  0.36107177749E+03  0.10100000352E+00 0.  1.
       -3    1    3    3    0  502  0.16175892703E+03  0.31023755322E+03  0.23939778476E+03  0.42393938181E+03  0.10100000352E+00 0. -1.
</event>
<event>
 5   0  0.3439015E-02  0.7019681E+03  0.7818609E-02  0.9713872E-01
        1   -1    0    0  501    0  0.00000000000E+00  0.00000000000E+00  0.10130152691E+04  0.10130152691E+04  0.50400001928E-02 0. -1.
       -1   -1    0    0    0  501  0.00000000000E+00  0.00000000000E+00 -0.12160705246E+03  0.12160705257E+03  0.50400001928E-02 0.  1.
    10030    2    1    2    0    0  0.00000000000E+00  0.00000000000E+00  0.89140821664E+03  0.11346223217E+04  0.70196809340E+03 0.  0.
        1    1    3    3  502    0 -0.11392327583E+03 -0.56801800499E+02  0.97438678360E+03  0.98266706538E+03  0.50400001928E-02 0. -1.
       -1    1    3    3    0  502  0.11392327583E+03  0.56801800499E+02 -0.82978566960E+02  0.15195525629E+03  0.50400001928E-02 0.  1.
</event>
<event>
 5   0  0.6167756E-02  0.6977842E+03  0.7818609E-02  0.9721029E-01
       -2   -1    0    0    0  501  0.00000000000E+00  0.00000000000E+00  0.14398891962E+03  0.14398891965E+03  0.25500000920E-02 0.  1.
        2   -1    0    0  501    0  0.00000000000E+00  0.00000000000E+00 -0.84538247758E+03  0.84538247759E+03  0.25500000920E-02 0. -1.
    10030    2    1    2    0    0  0.00000000000E+00  0.00000000000E+00 -0.70139355796E+03  0.98937139723E+03  0.69778423493E+03 0.  0.
        4    1    3    3  502    0  0.31984491956E+03 -0.13073541933E+03 -0.41916086688E+03  0.54322184019E+03  0.12699999809E+01 0. -1.
       -4    1    3    3    0  502 -0.31984491956E+03  0.13073541933E+03 -0.28223269108E+03  0.44614955704E+03  0.12699999809E+01 0.  1.
</event>
<event>
 5   0  0.6248886E-02  0.7105184E+03  0.7818609E-02  0.9699412E-01
       -2   -1    0    0    0  501  0.00000000000E+00  0.00000000000E+00  0.17572447812E+03  0.17572447814E+03  0.25500000920E-02 0. -1.
        2   -1    0    0  501    0  0.00000000000E+00  0.00000000000E+00 -0.71822145620E+03  0.71822145620E+03  0.25500000920E-02 0.  1.
    10030    2    1    2    0    0  0.00000000000E+00  0.00000000000E+00 -0.54249697807E+03  0.89394593435E+03  0.71051837578E+03 0.  0.
        3    1    3    3  502    0 -0.42326672613E+02  0.58689942174E+02  0.16635442711E+03  0.18141075532E+03  0.10100000352E+00 0. -1.
       -3    1    3    3    0  502  0.42326672613E+02 -0.58689942174E+02 -0.70885140518E+03  0.71253517903E+03  0.10100000352E+00 0.  1.
</event>
<event>
 5   0  0.5899787E-02  0.7139391E+03  0.7818609E-02  0.9693687E-01
        2   -1    0    0  501    0  0.00000000000E+00  0.00000000000E+00  0.34430461622E+03  0.34430461623E+03  0.25500000920E-02 0. -1.
       -2   -1    0    0    0  501  0.00000000000E+00  0.00000000000E+00 -0.37010037976E+03  0.37010037977E+03  0.25500000920E-02 0.  1.
    10030    2    1    2    0    0  0.00000000000E+00  0.00000000000E+00 -0.25795763545E+02  0.71440499600E+03  0.71393912688E+03 0.  0.
        2    1    3    3  502    0  0.20680476855E+03  0.19577052712E+03 -0.22828925804E+03  0.36497985824E+03  0.25500000920E-02 0.  1.
       -2    1    3    3    0  502 -0.20680476855E+03 -0.19577052712E+03  0.20249349449E+03  0.34942513776E+03  0.25500000920E-02 0. -1.
</event>
<event>
 5   0  0.3601475E-02  0.7818574E+03  0.7818609E-02  0.9586655E-01
        1   -1    0    0  501    0  0.00000000000E+00  0.00000000000E+00  0.14333372398E+04  0.14333372398E+04  0.50400001928E-02 0.  1.
       -1   -1    0    0    0  501  0.00000000000E+00  0.00000000000E+00 -0.10662197785E+03  0.10662197797E+03  0.50400001928E-02 0. -1.
    10030    2    1    2    0    0  0.00000000000E+00  0.00000000000E+00  0.13267152619E+04  0.15399592178E+04  0.78185740779E+03 0.  0.
        5    1    3    3  502    0  0.23168875650E+03 -0.20786019579E+03  0.11291110012E+04  0.11712383548E+04  0.46999998093E+01 0.  1.
       -5    1    3    3    0  502 -0.23168875650E+03  0.20786019579E+03  0.19760426076E+03  0.36872086292E+03  0.46999998093E+01 0. -1.
</event>
<event>
 5   0  0.3439015E-02  0.6977660E+03  0.7818609E-02  0.9721060E-01
       -1   -1    0    0    0  501  0.00000000000E+00  0.00000000000E+00  0.11188820851E+03  0.11188820863E+03  0.50400001928E-02 0. -1.
        1   -1    0    0  501    0  0.00000000000E+00  0.00000000000E+00 -0.10878657374E+04  0.10878657374E+04  0.50400001928E-02 0.  1.
    10030    2    1    2    0    0  0.00000000000E+00  0.00000000000E+00 -0.97597752892E+03  0.11997539461E+04  0.69776600244E+03 0.  0.
        1    1    3    3  502    0 -0.27987735761E+03  0.20661524641E+03 -0.44255719552E+03  0.56291923638E+03  0.50400001928E-02 0. -1.
       -1    1    3    3    0  502  0.27987735761E+03 -0.20661524641E+03 -0.53342033340E+03  0.63683470969E+03  0.50400001928E-02 0.  1.
</event>
<event>
 5   0  0.6167756E-02  0.6950537E+03  0.7818609E-02  0.9725729E-01
        2   -1    0    0  501    0  0.00000000000E+00  0.00000000000E+00  0.33516205388E+03  0.33516205389E+03  0.25500000920E-02 0.  1.
       -2   -1    0    0    0  501  0.00000000000E+00  0.00000000000E+00 -0.36034775999E+03  0.36034776000E+03  0.25500000920E-02 0. -1.
    10030    2    1    2    0    0  0.00000000000E+00  0.00000000000E+00 -0.25185706111E+02  0.69550981389E+03  0.69505365363E+03 0.  0.
        4    1    3    3  502    0  0.31708506213E+03 -0.14220539105E+03 -0.97674231664E+01  0.34765259287E+03  0.12699999809E+01 0. -1.
       -4    1    3    3    0  502 -0.31708506213E+03  0.14220539105E+03 -0.15418282945E+02  0.34785722103E+03  0.12699999809E+01 0.  1.
</event>
<event>
 5   0  0.6167756E-02  0.7037990E+03  0.7818609E-02  0.9710757E-01
       -2   -1    0    0    0  501  0.00000000000E+00  0.00000000000E+00  0.15421878872E+03  0.15421878874E+03  0.25500000920E-02 0.  1.
        2   -1    0    0  501    0  0.00000000000E+00  0.00000000000E+00 -0.80297123280E+03  0.80297123280E+03  0.25500000920E-02 0. -1.
    10030    2    1    2    0    0  0.00000000000E+00  0.00000000000E+00 -0.64875244408E+03  0.95719002154E+03  0.70379897956E+03 0.  0.
        4    1    3    3  502    0 -0.32667744008E+03  0.61784741796E+02 -0.48120011073E+03  0.58488517133E+03  0.12699999809E+01 0.  1.
       -4    1    3    3    0  502  0.32667744008E+03 -0.61784741796E+02 -0.16755233335E+03  0.37230485021E+03  0.12699999809E+01 0. -1.
</event>
<event>
 5   0  0.5987810E-02  0.7027805E+03  0.7818609E-02  0.9712489E-01
       -2   -1    0    0    0  501  0.00000000000E+00  0.00000000000E+00  0.23044142220E+03  0.23044142221E+03  0.25500000920E-02 0.  1.
        2   -1    0    0  501    0  0.00000000000E+00  0.00000000000E+00 -0.53582000424E+03  0.53582000424E+03  0.25500000920E-02 0. -1.
    10030    2    1    2    0    0  0.00000000000E+00  0.00000000000E+00 -0.30537858204E+03  0.76626142645E+03  0.70278054562E+03 0.  0.
        5    1    3    3  502    0 -0.39871913558E+02  0.24490379606E+03 -0.42392778016E+03  0.49122753547E+03  0.46999998093E+01 0. -1.
       -5    1    3    3    0  502  0.39871913558E+02 -0.24490379606E+03  0.11854919812E+03  0.27503389098E+03  0.46999998093E+01 0.  1.
</event>
<event>
 5   0  0.6248886E-02  0.7753323E+03  0.7818609E-02  0.9596425E-01
       -2   -1    0    0    0  501  0.00000000000E+00  0.00000000000E+00  0.74102390500E+02  0.74102390544E+02  0.25500000920E-02 0. -1.
        2   -1    0    0  501    0  0.00000000000E+00  0.00000000000E+00 -0.20280730039E+04  0.20280730039E+04  0.25500000920E-02 0.  1.
    10030    2    1    2    0    0  0.00000000000E+00  0.00000000000E+00 -0.19539706134E+04  0.21021753944E+04  0.77533233582E+03 0.  0.
        3    1    3    3  502    0 -0.26708274045E+03  0.26283791218E+03 -0.70764733507E+03  0.80073823398E+03  0.10100000352E+00 0. -1.
       -3    1    3    3    0  502  0.26708274045E+03 -0.26283791218E+03 -0.12463232783E+04  0.13014371604E+04  0.10100000352E+00 0.  1.
</event>
<event>
 5   0  0.2439375E-02  0.7158309E+03  0.7818609E-02  0.9690536E-01
        3   -1    0    0  501    0  0.00000000000E+00  0.00000000000E+00  0.35021564065E+03  0.35021565522E+03  0.10100000352E+00 0.  1.
       -3   -1    0    0    0  501  0.00000000000E+00  0.00000000000E+00 -0.36578448471E+03  0.36578449865E+03  0.10100000352E+00 0. -1.
    10030    2    1    2    0    0  0.00000000000E+00  0.00000000000E+00 -0.15568844053E+02  0.71600015387E+03  0.71583086790E+03 0.  0.
        3    1    3    3  502    0  0.33200218412E+03 -0.22730829216E+02  0.12400905003E+03  0.35513433451E+03  0.10100000352E+00 0.  1.
       -3    1    3    3    0  502 -0.33200218412E+03  0.22730829216E+02 -0.13957789409E+03  0.36086581935E+03  0.10100000352E+00 0. -1.
</event>
<event>
 5   0  0.6167756E-02  0.6896486E+03  0.7818609E-02  0.9735100E-01
       -2   -1    0    0    0  501  0.00000000000E+00  0.00000000000E+00  0.33125488974E+03  0.33125488975E+03  0.25500000920E-02 0.  1.
        2   -1    0    0  501    0  0.00000000000E+00  0.00000000000E+00 -0.35894955537E+03  0.35894955538E+03  0.25500000920E-02 0. -1.
    10030    2    1    2    0    0  0.00000000000E+00  0.00000000000E+00 -0.27694665630E+02  0.69020444513E+03  0.68964859281E+03 0.  0.
        4    1    3    3  502    0  0.14155014183E+03 -0.14456793686E+03 -0.29329604379E+03  0.35631518803E+03  0.12699999809E+01 0. -1.
       -4    1    3    3    0  502 -0.14155014183E+03  0.14456793686E+03  0.26560137816E+03  0.33388925709E+03  0.12699999809E+01 0.  1.
</event>
<event>
 5   0  0.2439375E-02  0.7063959E+03  0.7818609E-02  0.9706356E-01
       -3   -1    0    0    0  501  0.00000000000E+00  0.00000000000E+00  0.39743277688E+03  0.39743278972E+03  0.10100000352E+00 0. -1.
        3   -1    0    0  501    0  0.00000000000E+00  0.00000000000E+00 -0.31388653667E+03  0.31388655292E+03  0.10100000352E+00 0.  1.
    10030    2    1    2    0    0  0.00000000000E+00  0.00000000000E+00  0.83546240207E+02  0.71131934264E+03  0.70639594631E+03 0.  0.
        4    1    3    3  502    0 -0.16422045063E+03 -0.27952373161E+03 -0.99365543305E+02  0.33908258144E+03  0.12699999809E+01 0.  1.
       -4    1    3    3    0  502  0.16422045063E+03  0.27952373161E+03  0.18291178351E+03  0.37223676120E+03  0.12699999809E+01 0. -1.
</event>
<event>
 5   0  0.3601475E-02  0.6946978E+03  0.7818609E-02  0.9726343E-01
       -1   -1    0    0    0  501  0.00000000000E+00  0.00000000000E+00  0.67053023184E+02  0.67053023374E+02  0.50400001928E-02 0.  1.
        1   -1    0    0  501    0  0.00000000000E+00  0.00000000000E+00 -0.17993412562E+04  0.17993412562E+04  0.50400001928E-02 0. -1.
    10030    2    1    2    0    0  0.00000000000E+00  0.00000000000E+00 -0.17322882330E+04  0.18663942796E+04  0.69469783691E+03 0.  0.
        5    1    3    3  502    0 -0.24690046134E+03 -0.73968442277E+02 -0.14916035254E+04  0.15137154076E+04  0.46999998093E+01 0. -1.
       -5    1    3    3    0  502  0.24690046134E+03  0.73968442277E+02 -0.24068470765E+03  0.35267887200E+03  0.46999998093E+01 0.  1.
</event>
<event>
 5   0  0.3755872E-02  0.7085626E+03  0.7818609E-02  0.9702700E-01
       -1   -1    0    0    0  501  0.00000000000E+00  0.00000000000E+00  0.18324900480E+03  0.18324900487E+03  0.50400001928E-02 0. -1.
        1   -1    0    0  501    0  0.00000000000E+00  0.00000000000E+00 -0.68494364551E+03  0.68494364553E+03  0.50400001928E-02 0.  1.
    10030    2    1    2    0    0  0.00000000000E+00  0.00000000000E+00 -0.50169464072E+03  0.86819265040E+03  0.70856260534E+03 0.  0.
        2    1    3    3  502    0  0.32882203714E+03 -0.97247504092E+02 -0.35998892409E+03  0.49716499739E+03  0.25500000920E-02 0.  1.
       -2    1    3    3    0  502 -0.32882203714E+03  0.97247504092E+02 -0.14170571663E+03  0.37102765300E+03  0.25500000920E-02 0. -1.
</event>
<event>
 5   0  0.2439375E-02  0.7123185E+03  0.7818609E-02  0.9696395E-01
        3   -1    0    0  501    0  0.00000000000E+00  0.00000000000E+00  0.27449018794E+03  0.27449020652E+03  0.10100000352E+00 0. -1.
       -3   -1    0    0    0  501  0.00000000000E+00  0.00000000000E+00 -0.46212732839E+03  0.46212733943E+03  0.10100000352E+00 0.  1.
    10030    2    1    2    0    0  0.00000000000E+00  0.00000000000E+00 -0.18763714045E+03  0.73661754594E+03  0.71231854708E+03 0.  0.
        4    1    3    3  502    0  0.15793145642E+03 -0.10768116056E+03  0.21694943505E+03  0.28914744947E+03  0.12699999809E+01 0. -1.
       -4    1    3    3    0  502 -0.15793145642E+03  0.10768116056E+03 -0.40458657550E+03  0.44747009648E+03  0.12699999809E+01 0.  1.
</event>
<event>
 5   0  0.6167756E-02  0.6986059E+03  0.7818609E-02  0.9719619E-01
       -2   -1    0    0    0  501  0.00000000000E+00  0.00000000000E+00  0.41927774838E+03  0.41927774839E+03  0.25500000920E-02 0.  1.
        2   -1    0    0  501    0  0.00000000000E+00  0.00000000000E+00 -0.29100654288E+03  0.29100654289E+03  0.25500000920E-02 0. -1.
    10030    2    1    2    0    0  0.00000000000E+00  0.00000000000E+00  0.12827120550E+03  0.71028429129E+03  0.69860594922E+03 0.  0.
        4    1    3    3  502    0 -0.13280935764E+03 -0.99712650202E+02  0.37656721096E+03  0.41156459439E+03  0.12699999809E+01 0.  1.
       -4    1    3    3    0  502  0.13280935764E+03  0.99712650202E+02 -0.24829600546E+03  0.29871969690E+03  0.12699999809E+01 0. -1.
</event>
<event>
 5   0  0.6248886E-02  0.7163993E+03  0.7818609E-02  0.9689591E-01
       -2   -1    0    0    0  501  0.00000000000E+00  0.00000000000E+00  0.16718852205E+03  0.16718852207E+03  0.25500000920E-02 0. -1.
        2   -1    0    0  501    0  0.00000000000E+00  0.00000000000E+00 -0.76743905744E+03  0.76743905745E+03  0.25500000920E-02 0.  1.
    10030    2    1    2    0    0  0.00000000000E+00  0.00000000000E+00 -0.60025053540E+03  0.93462757951E+03  0.71639933497E+03 0.  0.
        3    1    3    3  502    0 -0.17767044055E+03  0.30074437114E+03 -0.19663171454E+03  0.40084660854E+03  0.10100000352E+00 0. -1.
       -3    1    3    3    0  502  0.17767044055E+03 -0.30074437114E+03 -0.40361882086E+03  0.53378097097E+03  0.10100000352E+00 0.  1.
</event>
<event>
 5   0  0.3601475E-02  0.6934650E+03  0.7818609E-02  0.9728474E-01
        1   -1    0    0  501    0  0.00000000000E+00  0.00000000000E+00  0.69887833843E+03  0.69887833845E+03  0.50400001928E-02 0. -1.
       -1   -1    0    0    0  501  0.00000000000E+00  0.00000000000E+00 -0.17202340130E+03  0.17202340138E+03  0.50400001928E-02 0.  1.
    10030    2    1    2    0    0  0.00000000000E+00  0.00000000000E+00  0.52685493713E+03  0.87090173982E+03  0.69346500680E+03 0.  0.
        5    1    3    3  502    0  0.24436637781E+03 -0.23039156249E+03  0.15534865388E+03  0.37006822740E+03  0.46999998093E+01 0. -1.
       -5    1    3    3    0  502 -0.24436637781E+03  0.23039156249E+03  0.37150628325E+03  0.50083351242E+03  0.46999998093E+01 0.  1.
</event>
<event>
 5   0  0.5899787E-02  0.7017181E+03  0.7818609E-02  0.9714298E-01
       -2   -1    0    0    0  501  0.00000000000E+00  0.00000000000E+00  0.14228046892E+03  0.14228046895E+03  0.25500000920E-02 0.  1.
        2   -1    0    0  501    0  0.00000000000E+00  0.00000000000E+00 -0.86520722045E+03  0.86520722046E+03  0.25500000920E-02 0. -1.
    10030    2    1    2    0    0  0.00000000000E+00  0.00000000000E+00 -0.72292675153E+03  0.10074876894E+04  0.70171814586E+03 0.  0.
        2    1    3    3  502    0  0.29347681627E+03  0.17455897985E+03 -0.24568674902E+03  0.42066787111E+03  0.25500000920E-02 0.  1.
       -2    1    3    3    0  502 -0.29347681627E+03 -0.17455897985E+03 -0.47724000251E+03  0.58681981829E+03  0.25500000920E-02 0. -1.
</event>
<event>
 5   0  0.2439375E-02  0.6968547E+03  0.7818609E-02  0.9722626E-01
        3   -1    0    0  501    0  0.00000000000E+00  0.00000000000E+00  0.51115730829E+02  0.51115830613E+02  0.10100000352E+00 0. -1.
       -3   -1    0    0    0  501  0.00000000000E+00  0.00000000000E+00 -0.23750319894E+04  0.23750319915E+04  0.10100000352E+00 0.  1.
    10030    2    1    2    0    0  0.00000000000E+00  0.00000000000E+00 -0.23239162585E+04  0.24261478221E+04  0.69685470374E+03 0.  0.
        1    1    3    3  502    0 -0.57352864788E+02 -0.24414266715E+03 -0.20040850504E+04  0.20197157924E+04  0.50400001928E-02 0.  1.
       -1    1    3    3    0  502  0.57352864788E+02  0.24414266715E+03 -0.31983120816E+03  0.40643202970E+03  0.50400001928E-02 0. -1.
</event>
<event>
 5   0  0.6167756E-02  0.7239296E+03  0.7818609E-02  0.9677162E-01
        2   -1    0    0  501    0  0.00000000000E+00  0.00000000000E+00  0.39988189293E+03  0.39988189293E+03  0.25500000920E-02 0. -1.
       -2   -1    0    0    0  501  0.00000000000E+00  0.00000000000E+00 -0.32764302296E+03  0.32764302297E+03  0.25500000920E-02 0.  1.
    10030    2    1    2    0    0  0.00000000000E+00  0.00000000000E+00  0.72238869965E+02  0.72752491591E+03  0.72392958838E+03 0.  0.
        4    1    3    3  502    0 -0.27944685822E+01  0.35912682596E+03  0.81476867222E+02  0.36826617951E+03  0.12699999809E+01 0.  1.
       -4    1    3    3    0  502  0.27944685822E+01 -0.35912682596E+03 -0.92379972566E+01  0.35925873639E+03  0.12699999809E+01 0. -1.
</event>
<event>
 5   0  0.3439015E-02  0.7459339E+03  0.7818609E-02  0.9641751E-01
        1   -1    0    0  501    0  0.00000000000E+00  0.00000000000E+00  0.97788084465E+03  0.97788084467E+03  0.50400001928E-02 0.  1.
       -1   -1    0    0    0  501  0.00000000000E+00  0.00000000000E+00 -0.14225080654E+03  0.14225080663E+03  0.50400001928E-02 0. -1.
    10030    2    1    2    0    0  0.00000000000E+00  0.00000000000E+00  0.83563003812E+03  0.11201316513E+04  0.74593388154E+03 0.  0.
        1    1    3    3  502    0 -0.50747916442E+02  0.55572462888E+02  0.96636079283E+03  0.96928676438E+03  0.50400001928E-02 0.  1.
       -1    1    3    3    0  502  0.50747916442E+02 -0.55572462888E+02 -0.13073075471E+03  0.15084488691E+03  0.50400001928E-02 0. -1.
</event>
<event>
 5   0  0.5899787E-02  0.6982560E+03  0.7818609E-02  0.9720219E-01
        2   -1    0    0  501    0  0.00000000000E+00  0.00000000000E+00  0.17782523988E+04  0.17782523988E+04  0.25500000920E-02 0. -1.
       -2   -1    0    0    0  501  0.00000000000E+00  0.00000000000E+00 -0.68545027706E+02  0.68545027753E+02  0.25500000920E-02 0.  1.
    10030    2    1    2    0    0  0.00000000000E+00  0.00000000000E+00  0.17097073711E+04  0.18467974265E+04  0.69825599887E+03 0.  0.
        2    1    3    3  502    0  0.30814099202E+03  0.10276458008E+03  0.51636251091E+03  0.61003415688E+03  0.25500000920E-02 0.  1.
       -2    1    3    3    0  502 -0.30814099202E+03 -0.10276458008E+03  0.11933448602E+04  0.12367632697E+04  0.25500000920E-02 0. -1.
</event>
<event>
 5   0  0.3601475E-02  0.6993509E+03  0.7818609E-02  0.9718343E-01
        1   -1    0    0  501    0  0.00000000000E+00  0.00000000000E+00  0.82138177726E+03  0.82138177728E+03  0.50400001928E-02 0. -1.
       -1   -1    0    0    0  501  0.00000000000E+00  0.00000000000E+00 -0.14886245309E+03  0.14886245317E+03  0.50400001928E-02 0.  1.
    10030    2    1    2    0    0  0.00000000000E+00  0.00000000000E+00  0.67251932417E+03  0.97024423045E+03  0.69935085996E+03 0.  0.
        5    1    3    3  502    0 -0.62337765855E+02 -0.30973783494E+02  0.81162780440E+03  0.81462086592E+03  0.46999998093E+01 0. -1.
       -5    1    3    3    0  502  0.62337765855E+02  0.30973783494E+02 -0.13910848023E+03  0.15562336452E+03  0.46999998093E+01 0.  1.
</event>
<event>
 5   0  0.2439375E-02  0.6602858E+03  0.7818609E-02  0.9787668E-01
       -3   -1    0    0    0  501  0.00000000000E+00  0.00000000000E+00  0.14193579293E+03  0.14193582887E+03  0.10100000352E+00 0.  1.
        3   -1    0    0  501    0  0.00000000000E+00  0.00000000000E+00 -0.76791289969E+03  0.76791290633E+03  0.10100000352E+00 0. -1.
    10030    2    1    2    0    0  0.00000000000E+00  0.00000000000E+00 -0.62597710675E+03  0.90984873520E+03  0.66028583414E+03 0.  0.
        2    1    3    3  502    0 -0.11668082308E+03  0.84245842837E+02  0.96436766901E+02  0.17323921764E+03  0.25500000920E-02 0.  1.
       -2    1    3    3    0  502  0.11668082308E+03 -0.84245842837E+02 -0.72241387365E+03  0.73660951756E+03  0.25500000920E-02 0. -1.
</event>
<event>
 5   0  0.3439015E-02  0.7134098E+03  0.7818609E-02  0.9694571E-01
        1   -1    0    0  501    0  0.00000000000E+00  0.00000000000E+00  0.42041543847E+03  0.42041543850E+03  0.50400001928E-02 0.  1.
       -1   -1    0    0    0  501  0.00000000000E+00  0.00000000000E+00 -0.30264915818E+03  0.30264915822E+03  0.50400001928E-02 0. -1.
    10030    2    1    2    0    0  0.00000000000E+00  0.00000000000E+00  0.11776628029E+03  0.72306459672E+03  0.71340978004E+03 0.  0.
        1    1    3    3  502    0  0.62469283047E+02 -0.32448720746E+03 -0.77262795791E+02  0.33935806866E+03  0.50400001928E-02 0. -1.
       -1    1    3    3    0  502 -0.62469283047E+02  0.32448720746E+03  0.19502907608E+03  0.38370652805E+03  0.50400001928E-02 0.  1.
</event>
<event>
 5   0  0.5987810E-02  0.6977563E+03  0.7818609E-02  0.9721077E-01
        2   -1    0    0  501    0  0.00000000000E+00  0.00000000000E+00  0.61426432914E+03  0.61426432915E+03  0.25500000920E-02 0.  1.
       -2   -1    0    0    0  501  0.00000000000E+00  0.00000000000E+00 -0.19814917964E+03  0.19814917965E+03  0.25500000920E-02 0. -1.
    10030    2    1    2    0    0  0.00000000000E+00  0.00000000000E+00  0.41611514951E+03  0.81241350880E+03  0.69775632683E+03 0.  0.
        5    1    3    3  502    0  0.18416468488E+01  0.29211498257E+03  0.43007204342E+03  0.51992173183E+03  0.46999998093E+01 0.  1.
       -5    1    3    3    0  502 -0.18416468488E+01 -0.29211498257E+03 -0.13956893907E+02  0.29249177697E+03  0.46999998093E+01 0. -1.
</event>
<event>
 5   0  0.3601475E-02  0.7021380E+03  0.7818609E-02  0.9713583E-01
        1   -1    0    0  501    0  0.00000000000E+00  0.00000000000E+00  0.14910465244E+03  0.14910465252E+03  0.50400001928E-02 0. -1.
       -1   -1    0    0    0  501  0.00000000000E+00  0.00000000000E+00 -0.82659689658E+03  0.82659689659E+03  0.50400001928E-02 0.  1.
    10030    2    1    2    0    0  0.00000000000E+00  0.00000000000E+00 -0.67749224414E+03  0.97570154912E+03  0.70213800074E+03 0.  0.
        5    1    3    3  502    0  0.16879491278E+03  0.28004070648E+02  0.87191645095E+02  0.19209482952E+03  0.46999998093E+01 0. -1.
       -5    1    3    3    0  502 -0.16879491278E+03 -0.28004070648E+02 -0.76468388923E+03  0.78360671960E+03  0.46999998093E+01 0.  1.
</event>
<event>
 5   0  0.6248886E-02  0.7047056E+03  0.7818609E-02  0.9709219E-01
        2   -1    0    0  501    0  0.00000000000E+00  0.00000000000E+00  0.67707367699E+03  0.67707367699E+03  0.25500000920E-02 0. -1.
       -2   -1    0    0    0  501  0.00000000000E+00  0.00000000000E+00 -0.18336632028E+03  0.18336632030E+03  0.25500000920E-02 0.  1.
    10030    2    1    2    0    0  0.00000000000E+00  0.00000000000E+00  0.49370735671E+03  0.86043999730E+03  0.70470563704E+03 0.  0.
        3    1    3    3  502    0  0.20006225920E+03  0.16115972063E+03 -0.47593149809E+02  0.26127089624E+03  0.10100000352E+00 0.  1.
       -3    1    3    3    0  502 -0.20006225920E+03 -0.16115972063E+03  0.54130050652E+03  0.59916910106E+03  0.10100000352E+00 0. -1.
</event>
<event>
 5   0  0.3439015E-02  0.6736387E+03  0.7818609E-02  0.9763407E-01
       -1   -1    0    0    0  501  0.00000000000E+00  0.00000000000E+00  0.35920984633E+03  0.35920984636E+03  0.50400001928E-02 0.  1.
        1   -1    0    0  501    0  0.00000000000E+00  0.00000000000E+00 -0.31582454433E+03  0.31582454437E+03  0.50400001928E-02 0. -1.
    10030    2    1    2    0    0  0.00000000000E+00  0.00000000000E+00  0.43385301997E+02  0.67503439073E+03  0.67363873422E+03 0.  0.
        1    1    3    3  502    0 -0.34350932838E+01 -0.63686256298E+02 -0.30971834059E+03  0.31621699770E+03  0.50400001928E-02 0. -1.
       -1    1    3    3    0  502  0.34350932838E+01  0.63686256298E+02  0.35310364259E+03  0.35881739303E+03  0.50400001928E-02 0.  1.
</event>
<event>
 5   0  0.3717372E-02  0.7350171E+03  0.7818609E-02  0.9659154E-01
       -1   -1    0    0    0  501  0.00000000000E+00  0.00000000000E+00  0.10878101451E+03  0.10878101462E+03  0.50400001928E-02 0. -1.
        1   -1    0    0  501    0  0.00000000000E+00  0.00000000000E+00 -0.12416001823E+04  0.12416001824E+04  0.50400001928E-02 0.  1.
    10030    2    1    2    0    0  0.00000000000E+00  0.00000000000E+00 -0.11328191678E+04  0.13503811970E+04  0.73501708152E+03 0.  0.
        3    1    3    3  502    0 -0.17757091324E+03  0.31617497377E+03 -0.67609696802E+03  0.76720607638E+03  0.10100000352E+00 0.  1.
       -3    1    3    3    0  502  0.17757091324E+03 -0.31617497377E+03 -0.45672219982E+03  0.58317512059E+03  0.10100000352E+00 0. -1.
</event>
<event>
 5   0  0.6248886E-02  0.6983440E+03  0.7818609E-02  0.9720068E-01
       -2   -1    0    0    0  501  0.00000000000E+00  0.00000000000E+00  0.76900126672E+02  0.76900126715E+02  0.25500000920E-02 0.  1.
        2   -1    0    0  501    0  0.00000000000E+00  0.00000000000E+00 -0.15854472736E+04  0.15854472736E+04  0.25500000920E-02 0. -1.
    10030    2    1    2    0    0  0.00000000000E+00  0.00000000000E+00 -0.15085471469E+04  0.16623474003E+04  0.69834403043E+03 0.  0.
        3    1    3    3  502    0  0.39480945019E+02  0.29057945919E+03 -0.12054602910E+04  0.12406166574E+04  0.10100000352E+00 0. -1.
       -3    1    3    3    0  502 -0.39480945019E+02 -0.29057945919E+03 -0.30308685590E+03  0.42173074294E+03  0.10100000352E+00 0.  1.
</event>
<event>
 5   0  0.5987810E-02  0.6605891E+03  0.7818609E-02  0.9787110E-01
       -2   -1    0    0    0  501  0.00000000000E+00  0.00000000000E+00  0.55838308531E+02  0.55838308590E+02  0.25500000920E-02 0.  1.
        2   -1    0    0  501    0  0.00000000000E+00  0.00000000000E+00 -0.19537572646E+04  0.19537572646E+04  0.25500000920E-02 0. -1.
    10030    2    1    2    0    0  0.00000000000E+00  0.00000000000E+00 -0.18979189560E+04  0.20095955731E+04  0.66058913401E+03 0.  0.
        5    1    3    3  502    0  0.28223268326E+03  0.13044543145E+03 -0.12877315267E+04  0.13247437009E+04  0.46999998093E+01 0. -1.
       -5    1    3    3    0  502 -0.28223268326E+03 -0.13044543145E+03 -0.61018742930E+03  0.68485187228E+03  0.46999998093E+01 0.  1.
</event>
<event>
 5   0  0.5987810E-02  0.7443546E+03  0.7818609E-02  0.9644249E-01
       -2   -1    0    0    0  501  0.00000000000E+00  0.00000000000E+00  0.23096272097E+03  0.23096272098E+03  0.25500000920E-02 0.  1.
        2   -1    0    0  501    0  0.00000000000E+00  0.00000000000E+00 -0.59973288302E+03  0.59973288303E+03  0.25500000920E-02 0. -1.
    10030    2    1    2    0    0  0.00000000000E+00  0.00000000000E+00 -0.36877016206E+03  0.83069560401E+03  0.74435458895E+03 0.  0.
        5    1    3    3  502    0 -0.18060483589E+03 -0.29688914441E+03 -0.33299506179E+03  0.48132013462E+03  0.46999998093E+01 0. -1.
       -5    1    3    3    0  502  0.18060483589E+03  0.29688914441E+03 -0.35775100263E+02  0.34937546939E+03  0.46999998093E+01 0.  1.
</event>
<event>
 5   0  0.3749730E-02  0.6600964E+03  0.7818609E-02  0.9788016E-01
       -1   -1    0    0    0  501  0.00000000000E+00  0.00000000000E+00  0.20838791724E+03  0.20838791730E+03  0.50400001928E-02 0. -1.
        1   -1    0    0  501    0  0.00000000000E+00  0.00000000000E+00 -0.52273577165E+03  0.52273577167E+03  0.50400001928E-02 0.  1.
    10030    2    1    2    0    0  0.00000000000E+00  0.00000000000E+00 -0.31434785441E+03  0.73112368897E+03  0.66009641341E+03 0.  0.
        4    1    3    3  502    0  0.88100955240E+02  0.15411800695E+03 -0.46535008468E+03  0.49806269946E+03  0.12699999809E+01 0.  1.
       -4    1    3    3    0  502 -0.88100955240E+02 -0.15411800695E+03  0.15100223027E+03  0.23306098951E+03  0.12699999809E+01 0. -1.
</event>
<event>
 5   0  0.3601475E-02  0.6960954E+03  0.7818609E-02  0.9723933E-01
       -1   -1    0    0    0  501  0.00000000000E+00  0.00000000000E+00  0.22673812410E+03  0.22673812416E+03  0.50400001928E-02 0. -1.
        1   -1    0    0  501    0  0.00000000000E+00  0.00000000000E+00 -0.53426039581E+03  0.53426039584E+03  0.50400001928E-02 0.  1.
    10030    2    1    2    0    0  0.00000000000E+00  0.00000000000E+00 -0.30752227171E+03  0.76099852000E+03  0.69609539564E+03 0.  0.
        5    1    3    3  502    0 -0.21732640829E+03 -0.24341777056E+03 -0.21519307744E+02  0.32705985594E+03  0.46999998093E+01 0. -1.
       -5    1    3    3    0  502  0.21732640829E+03  0.24341777056E+03 -0.28600296397E+03  0.43393866405E+03  0.46999998093E+01 0.  1.
</event>
<event>
 5   0  0.3755872E-02  0.7322064E+03  0.7818609E-02  0.9663687E-01
        1   -1    0    0  501    0  0.00000000000E+00  0.00000000000E+00  0.28008840509E+03  0.28008840514E+03  0.50400001928E-02 0. -1.
       -1   -1    0    0    0  501  0.00000000000E+00  0.00000000000E+00 -0.47853302330E+03  0.47853302332E+03  0.50400001928E-02 0.  1.
    10030    2    1    2    0    0  0.00000000000E+00  0.00000000000E+00 -0.19844461821E+03  0.75862142846E+03  0.73220639524E+03 0.  0.
        2    1    3    3  502    0 -0.30908877437E+03  0.19135277446E+03 -0.54301557543E+02  0.36756008202E+03  0.25500000920E-02 0.  1.
       -2    1    3    3    0  502  0.30908877437E+03 -0.19135277446E+03 -0.14414306066E+03  0.39106134644E+03  0.25500000920E-02 0. -1.
</event>
<event>
 5   0  0.3439015E-02  0.6615070E+03  0.7818609E-02  0.9785423E-01
       -1   -1    0    0    0  501  0.00000000000E+00  0.00000000000E+00  0.11507857602E+03  0.11507857613E+03  0.50400001928E-02 0.  1.
        1   -1    0    0  501    0  0.00000000000E+00  0.00000000000E+00 -0.95063641398E+03  0.95063641399E+03  0.50400001928E-02 0. -1.
    10030    2    1    2    0    0  0.00000000000E+00  0.00000000000E+00 -0.83555783796E+03  0.10657149901E+04  0.66150702159E+03 0.  0.
        1    1    3    3  502    0  0.31756873556E+03 -0.81782184681E+01 -0.56614434341E+03  0.64918117862E+03  0.50400001928E-02 0. -1.
       -1    1    3    3    0  502 -0.31756873556E+03  0.81782184681E+01 -0.26941349454E+03  0.41653381151E+03  0.50400001928E-02 0.  1.
</event>
<event>
 5   0  0.2439375E-02  0.7056986E+03  0.7818609E-02  0.9707536E-01
       -3   -1    0    0    0  501  0.00000000000E+00  0.00000000000E+00  0.27774968593E+03  0.27774970429E+03  0.10100000352E+00 0. -1.
        3   -1    0    0  501    0  0.00000000000E+00  0.00000000000E+00 -0.44825474227E+03  0.44825475365E+03  0.10100000352E+00 0.  1.
    10030    2    1    2    0    0  0.00000000000E+00  0.00000000000E+00 -0.17050505635E+03  0.72600445794E+03  0.70569858914E+03 0.  0.
        4    1    3    3  502    0 -0.46421255707E+02  0.10772186705E+03  0.25710223362E+03  0.28259884121E+03  0.12699999809E+01 0. -1.
       -4    1    3    3    0  502  0.46421255707E+02 -0.10772186705E+03 -0.42760728996E+03  0.44340561673E+03  0.12699999809E+01 0.  1.
</event>
<event>
 5   0  0.3749730E-02  0.7003136E+03  0.7818609E-02  0.9716696E-01
       -1   -1    0    0    0  501  0.00000000000E+00  0.00000000000E+00  0.23186604151E+03  0.23186604156E+03  0.50400001928E-02 0. -1.
        1   -1    0    0  501    0  0.00000000000E+00  0.00000000000E+00 -0.52879577779E+03  0.52879577782E+03  0.50400001928E-02 0.  1.
    10030    2    1    2    0    0  0.00000000000E+00  0.00000000000E+00 -0.29692973629E+03  0.76066181938E+03  0.70031359773E+03 0.  0.
        4    1    3    3  502    0 -0.30185894529E+02 -0.22727609572E+03 -0.43592661549E+03  0.49254364163E+03  0.12699999809E+01 0.  1.
       -4    1    3    3    0  502  0.30185894529E+02  0.22727609572E+03  0.13899687921E+03  0.26811817775E+03  0.12699999809E+01 0. -1.
</event>
<event>
 5   0  0.6248886E-02  0.6998181E+03  0.7818609E-02  0.9717543E-01
       -2   -1    0    0    0  501  0.00000000000E+00  0.00000000000E+00  0.67674574463E+02  0.67674574511E+02  0.25500000920E-02 0. -1.
        2   -1    0    0  501    0  0.00000000000E+00  0.00000000000E+00 -0.18091925296E+04  0.18091925296E+04  0.25500000920E-02 0.  1.
    10030    2    1    2    0    0  0.00000000000E+00  0.00000000000E+00 -0.17415179551E+04  0.18768671041E+04  0.69981807524E+03 0.  0.
        3    1    3    3  502    0 -0.28546786676E+02 -0.47832404857E+02 -0.17972249972E+04  0.17980880287E+04  0.10100000352E+00 0.  1.
       -3    1    3    3    0  502  0.28546786676E+02  0.47832404857E+02  0.55707042107E+02  0.78779075427E+02  0.10100000352E+00 0. -1.
</event>
<event>
 5   0  0.5987810E-02  0.7295387E+03  0.7818609E-02  0.9668009E-01
       -2   -1    0    0    0  501  0.00000000000E+00  0.00000000000E+00  0.11286578284E+03  0.11286578287E+03  0.25500000920E-02 0.  1.
        2   -1    0    0  501    0  0.00000000000E+00  0.00000000000E+00 -0.11788928886E+04  0.11788928886E+04  0.25500000920E-02 0. -1.
    10030    2    1    2    0    0  0.00000000000E+00  0.00000000000E+00 -0.10660271057E+04  0.12917586715E+04  0.72953867280E+03 0.  0.
        5    1    3    3  502    0  0.20812461668E+02  0.22659090031E+03 -0.28275452571E+02  0.22934294382E+03  0.46999998093E+01 0.  1.
       -5    1    3    3    0  502 -0.20812461668E+02 -0.22659090031E+03 -0.10377516532E+04  0.10624157276E+04  0.46999998093E+01 0. -1.
</event>
<event>
 5   0  0.5987810E-02  0.6922939E+03  0.7818609E-02  0.9730502E-01
        2   -1    0    0  501    0  0.00000000000E+00  0.00000000000E+00  0.12567619361E+04  0.12567619361E+04  0.25500000920E-02 0.  1.
       -2   -1    0    0    0  501  0.00000000000E+00  0.00000000000E+00 -0.95338434168E+02  0.95338434202E+02  0.25500000920E-02 0. -1.
    10030    2    1    2    0    0  0.00000000000E+00  0.00000000000E+00  0.11614235019E+04  0.13521003703E+04  0.69229391196E+03 0.  0.
        5    1    3    3  502    0  0.30150524931E+03  0.14315869588E+03  0.75966904269E+03  0.82977043331E+03  0.46999998093E+01 0.  1.
       -5    1    3    3    0  502 -0.30150524931E+03 -0.14315869588E+03  0.40175445924E+03  0.52232993699E+03  0.46999998093E+01 0. -1.
</event>
<event>
 5   0  0.3439015E-02  0.6963657E+03  0.7818609E-02  0.9723468E-01
       -1   -1    0    0    0  501  0.00000000000E+00  0.00000000000E+00  0.59482216803E+02  0.59482217017E+02  0.50400001928E-02 0. -1.
        1   -1    0    0  501    0  0.00000000000E+00  0.00000000000E+00 -0.20381096528E+04  0.20381096528E+04  0.50400001928E-02 0.  1.
    10030    2    1    2    0    0  0.00000000000E+00  0.00000000000E+00 -0.19786274360E+04  0.20975918698E+04  0.69636565242E+03 0.  0.
        1    1    3    3  502    0  0.89355744843E+02 -0.23829194829E+03 -0.27355174969E+03  0.37362823975E+03  0.50400001928E-02 0.  1.
       -1    1    3    3    0  502 -0.89355744843E+02  0.23829194829E+03 -0.17050756863E+04  0.17239636301E+04  0.50400001928E-02 0. -1.
</event>
<event>
 5   0  0.6131198E-02  0.6960030E+03  0.7818609E-02  0.9724092E-01
       -2   -1    0    0    0  501  0.00000000000E+00  0.00000000000E+00  0.12061101698E+03  0.12061101701E+03  0.25500000920E-02 0.  1.
        2   -1    0    0  501    0  0.00000000000E+00  0.00000000000E+00 -0.10040959804E+04  0.10040959804E+04  0.25500000920E-02 0. -1.
    10030    2    1    2    0    0  0.00000000000E+00  0.00000000000E+00 -0.88348496346E+03  0.11247069975E+04  0.69600298093E+03 0.  0.
        1    1    3    3  502    0  0.30516478850E+03 -0.97504962344E+01 -0.17190077065E+03  0.35038620876E+03  0.50400001928E-02 0.  1.
       -1    1    3    3    0  502 -0.30516478850E+03  0.97504962344E+01 -0.71158419281E+03  0.77432078869E+03  0.50400001928E-02 0. -1.
</event>
<event>
 5   0  0.6131198E-02  0.6430519E+03  0.7818609E-02  0.9819905E-01
       -2   -1    0    0    0  501  0.00000000000E+00  0.00000000000E+00  0.26869841325E+03  0.26869841326E+03  0.25500000920E-02 0.  1.
        2   -1    0    0  501    0  0.00000000000E+00  0.00000000000E+00 -0.38473970822E+03  0.38473970822E+03  0.25500000920E-02 0. -1.
    10030    2    1    2    0    0  0.00000000000E+00  0.00000000000E+00 -0.11604129497E+03  0.65343812149E+03  0.64305193917E+03 0.  0.
        1    1    3    3  502    0 -0.83993663553E+02 -0.25184510403E+03  0.12628707848E+03  0.29398863610E+03  0.50400001928E-02 0.  1.
       -1    1    3    3    0  502  0.83993663553E+02  0.25184510403E+03 -0.24232837345E+03  0.35944948538E+03  0.50400001928E-02 0. -1.
</event>
<event>
 5   0  0.3439015E-02  0.6251055E+03  0.7818609E-02  0.9854647E-01
        1   -1    0    0  501    0  0.00000000000E+00  0.00000000000E+00  0.16320930497E+03  0.16320930505E+03  0.50400001928E-02 0.  1.
       -1   -1    0    0    0  501  0.00000000000E+00  0.00000000000E+00 -0.59855173763E+03  0.59855173765E+03  0.50400001928E-02 0. -1.
    10030    2    1    2    0    0  0.00000000000E+00  0.00000000000E+00 -0.43534243266E+03  0.76176104269E+03  0.62510547310E+03 0.  0.
        1    1    3    3  502    0 -0.86644687421E+02  0.65075888943E+01  0.14819573387E+03  0.17178948203E+03  0.50400001928E-02 0.  1.
       -1    1    3    3    0  502  0.86644687421E+02 -0.65075888943E+01 -0.58353816653E+03  0.58997156067E+03  0.50400001928E-02 0. -1.
</event>
<event>
 5   0  0.6167756E-02  0.6972287E+03  0.7818609E-02  0.9721983E-01
       -2   -1    0    0    0  501  0.00000000000E+00  0.00000000000E+00  0.22126986196E+03  0.22126986197E+03  0.25500000920E-02 0.  1.
        2   -1    0    0  501    0  0.00000000000E+00  0.00000000000E+00 -0.54924772644E+03  0.54924772645E+03  0.25500000920E-02 0. -1.
    10030    2    1    2    0    0  0.00000000000E+00  0.00000000000E+00 -0.32797786448E+03  0.77051758842E+03  0.69722871031E+03 0.  0.
        4    1    3    3  502    0 -0.18811859647E+03 -0.29163174854E+03 -0.20051915548E+03  0.40080821812E+03  0.12699999809E+01 0. -1.
       -4    1    3    3    0  502  0.18811859647E+03  0.29163174854E+03 -0.12745870900E+03  0.36970937031E+03  0.12699999809E+01 0.  1.
</event>
<event>
 5   0  0.3755872E-02  0.6962016E+03  0.7818609E-02  0.9723750E-01
        1   -1    0    0  501    0  0.00000000000E+00  0.00000000000E+00  0.10989140693E+04  0.10989140693E+04  0.50400001928E-02 0. -1.
       -1   -1    0    0    0  501  0.00000000000E+00  0.00000000000E+00 -0.11026718390E+03  0.11026718402E+03  0.50400001928E-02 0.  1.
    10030    2    1    2    0    0  0.00000000000E+00  0.00000000000E+00  0.98864688537E+03  0.12091812533E+04  0.69620157957E+03 0.  0.
        2    1    3    3  502    0 -0.26085230748E+03  0.15721892129E+03  0.78708274258E+03  0.84395554338E+03  0.25500000920E-02 0. -1.
       -2    1    3    3    0  502  0.26085230748E+03 -0.15721892129E+03  0.20156414280E+03  0.36522570993E+03  0.25500000920E-02 0.  1.
</event>
<event>
 5   0  0.5899787E-02  0.6938318E+03  0.7818609E-02  0.9727839E-01
       -2   -1    0    0    0  501  0.00000000000E+00  0.00000000000E+00  0.19979284813E+03  0.19979284814E+03  0.25500000920E-02 0. -1.
        2   -1    0    0  501    0  0.00000000000E+00  0.00000000000E+00 -0.60237712695E+03  0.60237712695E+03  0.25500000920E-02 0.  1.
    10030    2    1    2    0    0  0.00000000000E+00  0.00000000000E+00 -0.40258427882E+03  0.80216997509E+03  0.69383180050E+03 0.  0.
        2    1    3    3  502    0  0.14953201019E+03 -0.14671217553E+03  0.11841136911E+03  0.24063569324E+03  0.25500000920E-02 0. -1.
       -2    1    3    3    0  502 -0.14953201019E+03  0.14671217553E+03 -0.52099564793E+03  0.56153428185E+03  0.25500000920E-02 0.  1.
</event>
<event>
 5   0  0.3439015E-02  0.7041688E+03  0.7818609E-02  0.9710129E-01
       -1   -1    0    0    0  501  0.00000000000E+00  0.00000000000E+00  0.13272765733E+03  0.13272765742E+03  0.50400001928E-02 0.  1.
        1   -1    0    0  501    0  0.00000000000E+00  0.00000000000E+00 -0.93396843231E+03  0.93396843233E+03  0.50400001928E-02 0. -1.
    10030    2    1    2    0    0  0.00000000000E+00  0.00000000000E+00 -0.80124077499E+03  0.10666960898E+04  0.70416884935E+03 0.  0.
        1    1    3    3  502    0  0.26815919953E+03  0.19839647206E+03 -0.57128550423E+03  0.66154186851E+03  0.50400001928E-02 0.  1.
       -1    1    3    3    0  502 -0.26815919953E+03 -0.19839647206E+03 -0.22995527076E+03  0.40515422125E+03  0.50400001928E-02 0. -1.
</event>
<event>
 5   0  0.5899787E-02  0.7247083E+03  0.7818609E-02  0.9675886E-01
        2   -1    0    0  501    0  0.00000000000E+00  0.00000000000E+00  0.11538377514E+04  0.11538377514E+04  0.25500000920E-02 0.  1.
       -2   -1    0    0    0  501  0.00000000000E+00  0.00000000000E+00 -0.11379461968E+03  0.11379461971E+03  0.25500000920E-02 0. -1.
    10030    2    1    2    0    0  0.00000000000E+00  0.00000000000E+00  0.10400431317E+04  0.12676323711E+04  0.72470829473E+03 0.  0.
        2    1    3    3  502    0  0.23297814577E+03  0.24247811491E+03  0.28387769857E+03  0.44006931315E+03  0.25500000920E-02 0. -1.
       -2    1    3    3    0  502 -0.23297814577E+03 -0.24247811491E+03  0.75616543312E+03  0.82756305794E+03  0.25500000920E-02 0.  1.
</event>
<event>
 5   0  0.5987810E-02  0.7060069E+03  0.7818609E-02  0.9707014E-01
        2   -1    0    0  501    0  0.00000000000E+00  0.00000000000E+00  0.17619084726E+04  0.17619084726E+04  0.25500000920E-02 0.  1.
       -2   -1    0    0    0  501  0.00000000000E+00  0.00000000000E+00 -0.70725268738E+02  0.70725268784E+02  0.25500000920E-02 0. -1.
    10030    2    1    2    0    0  0.00000000000E+00  0.00000000000E+00  0.16911832039E+04  0.18326337414E+04  0.70600694122E+03 0.  0.
        5    1    3    3  502    0 -0.12198454890E+03 -0.24193398839E+03  0.25836673376E+03  0.37441653812E+03  0.46999998093E+01 0. -1.
       -5    1    3    3    0  502  0.12198454890E+03  0.24193398839E+03  0.14328164701E+04  0.14582172033E+04  0.46999998093E+01 0.  1.
</event>
<event>
 5   0  0.5987810E-02  0.6917318E+03  0.7818609E-02  0.9731477E-01
       -2   -1    0    0    0  501  0.00000000000E+00  0.00000000000E+00  0.24965329555E+03  0.24965329556E+03  0.25500000920E-02 0. -1.
        2   -1    0    0  501    0  0.00000000000E+00  0.00000000000E+00 -0.47915737040E+03  0.47915737040E+03  0.25500000920E-02 0.  1.
    10030    2    1    2    0    0  0.00000000000E+00  0.00000000000E+00 -0.22950407485E+03  0.72881066597E+03  0.69173178795E+03 0.  0.
        5    1    3    3  502    0  0.18938917838E+03  0.27646906080E+03 -0.20475788120E+03  0.39274837031E+03  0.46999998093E+01 0.  1.
       -5    1    3    3    0  502 -0.18938917838E+03 -0.27646906080E+03 -0.24746193648E+02  0.33606229566E+03  0.46999998093E+01 0. -1.
</event>
<event>
 5   0  0.5987810E-02  0.6925951E+03  0.7818609E-02  0.9729980E-01
        2   -1    0    0  501    0  0.00000000000E+00  0.00000000000E+00  0.38051191405E+03  0.38051191406E+03  0.25500000920E-02 0.  1.
       -2   -1    0    0    0  501  0.00000000000E+00  0.00000000000E+00 -0.31515961116E+03  0.31515961117E+03  0.25500000920E-02 0. -1.
    10030    2    1    2    0    0  0.00000000000E+00  0.00000000000E+00  0.65352302889E+02  0.69567152523E+03  0.69259508194E+03 0.  0.
        5    1    3    3  502    0 -0.11422979624E+03 -0.18398070866E+03  0.30406614923E+03  0.37333049784E+03  0.46999998093E+01 0.  1.
       -5    1    3    3    0  502  0.11422979624E+03  0.18398070866E+03 -0.23871384634E+03  0.32234102739E+03  0.46999998093E+01 0. -1.
</event>
<event>
 5   0  0.3439015E-02  0.6879984E+03  0.7818609E-02  0.9737979E-01
        1   -1    0    0  501    0  0.00000000000E+00  0.00000000000E+00  0.34855938950E+03  0.34855938953E+03  0.50400001928E-02 0. -1.
       -1   -1    0    0    0  501  0.00000000000E+00  0.00000000000E+00 -0.33949868778E+03  0.33949868781E+03  0.50400001928E-02 0.  1.
    10030    2    1    2    0    0  0.00000000000E+00  0.00000000000E+00  0.90607017205E+01  0.68805807735E+03  0.68799841677E+03 0.  0.
        1    1    3    3  502    0 -0.15784742733E+03  0.29375841238E+03  0.88951178021E+02  0.34514073543E+03  0.50400001928E-02 0. -1.
       -1    1    3    3    0  502  0.15784742733E+03 -0.29375841238E+03 -0.79890476301E+02  0.34291734191E+03  0.50400001928E-02 0.  1.
</event>
<event>
 5   0  0.2439375E-02  0.6841167E+03  0.7818609E-02  0.9744787E-01
       -3   -1    0    0    0  501  0.00000000000E+00  0.00000000000E+00  0.13571593369E+04  0.13571593407E+04  0.10100000352E+00 0. -1.
        3   -1    0    0  501    0  0.00000000000E+00  0.00000000000E+00 -0.86212322765E+02  0.86212381927E+02  0.10100000352E+00 0.  1.
    10030    2    1    2    0    0  0.00000000000E+00  0.00000000000E+00  0.12709470141E+04  0.14433717226E+04  0.68411666901E+03 0.  0.
        3    1    3    3  502    0  0.16790644008E+03  0.22392628059E+03  0.10503566573E+04  0.10870072077E+04  0.10100000352E+00 0. -1.
       -3    1    3    3    0  502 -0.16790644008E+03 -0.22392628059E+03  0.22059035679E+03  0.35636451488E+03  0.10100000352E+00 0.  1.
</event>
<event>
 5   0  0.3439015E-02  0.6801285E+03  0.7818609E-02  0.9751832E-01
        1   -1    0    0  501    0  0.00000000000E+00  0.00000000000E+00  0.36948346480E+03  0.36948346484E+03  0.50400001928E-02 0. -1.
       -1   -1    0    0    0  501  0.00000000000E+00  0.00000000000E+00 -0.31298743777E+03  0.31298743781E+03  0.50400001928E-02 0.  1.
    10030    2    1    2    0    0  0.00000000000E+00  0.00000000000E+00  0.56496027037E+02  0.68247090264E+03  0.68012846719E+03 0.  0.
        1    1    3    3  502    0  0.35876109425E+02 -0.32124432251E+03  0.13424645062E+03  0.35001017057E+03  0.50400001928E-02 0. -1.
       -1    1    3    3    0  502 -0.35876109425E+02  0.32124432251E+03 -0.77750423588E+02  0.33246073207E+03  0.50400001928E-02 0.  1.
</event>
<event>
 5   0  0.3717372E-02  0.6959076E+03  0.7818609E-02  0.9724256E-01
       -1   -1    0    0    0  501  0.00000000000E+00  0.00000000000E+00  0.44723862271E+03  0.44723862274E+03  0.50400001928E-02 0. -1.
        1   -1    0    0  501    0  0.00000000000E+00  0.00000000000E+00 -0.27070973866E+03  0.27070973871E+03  0.50400001928E-02 0.  1.
    10030    2    1    2    0    0  0.00000000000E+00  0.00000000000E+00  0.17652888405E+03  0.71794836144E+03  0.69590761082E+03 0.  0.
        3    1    3    3  502    0 -0.33629420803E+03  0.86489282821E+02  0.11127905475E+03  0.36463300539E+03  0.10100000352E+00 0.  1.
       -3    1    3    3    0  502  0.33629420803E+03 -0.86489282821E+02  0.65249829301E+02  0.35331535605E+03  0.10100000352E+00 0. -1.
</event>
<event>
 5   0  0.6131198E-02  0.7129048E+03  0.7818609E-02  0.9695414E-01
        2   -1    0    0  501    0  0.00000000000E+00  0.00000000000E+00  0.16030224186E+04  0.16030224186E+04  0.25500000920E-02 0. -1.
       -2   -1    0    0    0  501  0.00000000000E+00  0.00000000000E+00 -0.79261711295E+02  0.79261711336E+02  0.25500000920E-02 0.  1.
    10030    2    1    2    0    0  0.00000000000E+00  0.00000000000E+00  0.15237607073E+04  0.16822841299E+04  0.71290476272E+03 0.  0.
        1    1    3    3  502    0 -0.33919856472E+03  0.34314848265E+02  0.51636181385E+03  0.61875899828E+03  0.50400001928E-02 0.  1.
       -1    1    3    3    0  502  0.33919856472E+03 -0.34314848265E+02  0.10073988934E+04  0.10635251316E+04  0.50400001928E-02 0. -1.
</event>
<event>
 5   0  0.3717372E-02  0.7186437E+03  0.7818609E-02  0.9685870E-01
       -1   -1    0    0    0  501  0.00000000000E+00  0.00000000000E+00  0.10596083438E+03  0.10596083450E+03  0.50400001928E-02 0. -1.
        1   -1    0    0  501    0  0.00000000000E+00  0.00000000000E+00 -0.12184898977E+04  0.12184898977E+04  0.50400001928E-02 0.  1.
    10030    2    1    2    0    0  0.00000000000E+00  0.00000000000E+00 -0.11125290633E+04  0.13244507322E+04  0.71864374020E+03 0.  0.
        3    1    3    3  502    0 -0.14430218280E+03 -0.28740312929E+03 -0.85165173776E+03  0.91034848894E+03  0.10100000352E+00 0.  1.
       -3    1    3    3    0  502  0.14430218280E+03  0.28740312929E+03 -0.26087732557E+03  0.41410224327E+03  0.10100000352E+00 0. -1.
</event>
<event>
 5   0  0.6131198E-02  0.6973783E+03  0.7818609E-02  0.9721726E-01
       -2   -1    0    0    0  501  0.00000000000E+00  0.00000000000E+00  0.21579370990E+03  0.21579370991E+03  0.25500000920E-02 0. -1.
        2   -1    0    0  501    0  0.00000000000E+00  0.00000000000E+00 -0.56342763723E+03  0.56342763723E+03  0.25500000920E-02 0.  1.
    10030    2    1    2    0    0  0.00000000000E+00  0.00000000000E+00 -0.34763392733E+03  0.77922134715E+03  0.69737834812E+03 0.  0.
        1    1    3    3  502    0 -0.14206554519E+03  0.15834709474E+03 -0.48251475552E+03  0.52732998290E+03  0.50400001928E-02 0.  1.
       -1    1    3    3    0  502  0.14206554519E+03 -0.15834709474E+03  0.13488082819E+03  0.25189136425E+03  0.50400001928E-02 0. -1.
</event>
<event>
 5   0  0.6248886E-02  0.7034672E+03  0.7818609E-02  0.9711321E-01
       -2   -1    0    0    0  501  0.00000000000E+00  0.00000000000E+00  0.71961112083E+02  0.71961112128E+02  0.25500000920E-02 0. -1.
        2   -1    0    0  501    0  0.00000000000E+00  0.00000000000E+00 -0.17192135857E+04  0.17192135857E+04  0.25500000920E-02 0.  1.
    10030    2    1    2    0    0  0.00000000000E+00  0.00000000000E+00 -0.16472524736E+04  0.17911746978E+04  0.70346718922E+03 0.  0.
        3    1    3    3  502    0 -0.60492880975E+02  0.34118468050E+03 -0.97745893360E+03  0.10370594737E+04  0.10100000352E+00 0. -1.
       -3    1    3    3    0  502  0.60492880975E+02 -0.34118468050E+03 -0.66979354000E+03  0.75411522414E+03  0.10100000352E+00 0.  1.
</event>
<event>
 5   0  0.5899787E-02  0.6770469E+03  0.7818609E-02  0.9757311E-01
       -2   -1    0    0    0  501  0.00000000000E+00  0.00000000000E+00  0.90714687883E+02  0.90714687918E+02  0.25500000920E-02 0.  1.
        2   -1    0    0  501    0  0.00000000000E+00  0.00000000000E+00 -0.12632809204E+04  0.12632809204E+04  0.25500000920E-02 0. -1.
    10030    2    1    2    0    0  0.00000000000E+00  0.00000000000E+00 -0.11725662325E+04  0.13539956084E+04  0.67704692431E+03 0.  0.
        2    1    3    3  502    0  0.24006761020E+03  0.22238213981E+03 -0.41295370838E+03  0.52689376429E+03  0.25500000920E-02 0. -1.
       -2    1    3    3    0  502 -0.24006761020E+03 -0.22238213981E+03 -0.75961252417E+03  0.82710184407E+03  0.25500000920E-02 0.  1.
</event>
<event>
 5   0  0.3755872E-02  0.5316099E+03  0.7818609E-02  0.1005842E+00
       -1   -1    0    0    0  501  0.00000000000E+00  0.00000000000E+00  0.64522054301E+03  0.64522054303E+03  0.50400001928E-02 0. -1.
        1   -1    0    0  501    0  0.00000000000E+00  0.00000000000E+00 -0.10950097342E+03  0.10950097354E+03  0.50400001928E-02 0.  1.
    10030    2    1    2    0    0  0.00000000000E+00  0.00000000000E+00  0.53571956959E+03  0.75472151657E+03  0.53160992309E+03 0.  0.
        2    1    3    3  502    0  0.12278476851E+03 -0.19542609771E+03  0.45504809917E+03  0.51023154705E+03  0.25500000920E-02 0. -1.
       -2    1    3    3    0  502 -0.12278476851E+03  0.19542609771E+03  0.80671470424E+02  0.24448996951E+03  0.25500000920E-02 0.  1.
</event>
<event>
 5   0  0.5987810E-02  0.6909285E+03  0.7818609E-02  0.9732873E-01
        2   -1    0    0  501    0  0.00000000000E+00  0.00000000000E+00  0.13894300687E+04  0.13894300687E+04  0.25500000920E-02 0.  1.
       -2   -1    0    0    0  501  0.00000000000E+00  0.00000000000E+00 -0.85895318208E+02  0.85895318246E+02  0.25500000920E-02 0. -1.
    10030    2    1    2    0    0  0.00000000000E+00  0.00000000000E+00  0.13035347505E+04  0.14753253870E+04  0.69092847071E+03 0.  0.
        5    1    3    3  502    0 -0.20659541196E+03 -0.21092927326E+03  0.26889904945E+03  0.39937652830E+03  0.46999998093E+01 0. -1.
       -5    1    3    3    0  502  0.20659541196E+03  0.21092927326E+03  0.10346357011E+04  0.10759488587E+04  0.46999998093E+01 0.  1.
</event>
<event>
 5   0  0.3601475E-02  0.6960693E+03  0.7818609E-02  0.9723978E-01
        1   -1    0    0  501    0  0.00000000000E+00  0.00000000000E+00  0.13661554819E+03  0.13661554829E+03  0.50400001928E-02 0.  1.
       -1   -1    0    0    0  501  0.00000000000E+00  0.00000000000E+00 -0.88663488359E+03  0.88663488361E+03  0.50400001928E-02 0. -1.
    10030    2    1    2    0    0  0.00000000000E+00  0.00000000000E+00 -0.75001933540E+03  0.10232504319E+04  0.69606928024E+03 0.  0.
        5    1    3    3  502    0  0.23365405381E+03 -0.75889583142E+01  0.39480220685E+01  0.23385783294E+03  0.46999998093E+01 0.  1.
       -5    1    3    3    0  502 -0.23365405381E+03  0.75889583142E+01 -0.75396735747E+03  0.78939259895E+03  0.46999998093E+01 0. -1.
</event>
<event>
 5   0  0.5987810E-02  0.7115912E+03  0.7818609E-02  0.9697613E-01
       -2   -1    0    0    0  501  0.00000000000E+00  0.00000000000E+00  0.22577106287E+03  0.22577106288E+03  0.25500000920E-02 0. -1.
        2   -1    0    0  501    0  0.00000000000E+00  0.00000000000E+00 -0.56070292080E+03  0.56070292080E+03  0.25500000920E-02 0.  1.
    10030    2    1    2    0    0  0.00000000000E+00  0.00000000000E+00 -0.33493185793E+03  0.78647398369E+03  0.71159115900E+03 0.  0.
        5    1    3    3  502    0  0.19396631109E+03  0.14171955060E+03 -0.45749438932E+03  0.51675000447E+03  0.46999998093E+01 0.  1.
       -5    1    3    3    0  502 -0.19396631109E+03 -0.14171955060E+03  0.12256253140E+03  0.26972397921E+03  0.46999998093E+01 0. -1.
</event>
<event>
 5   0  0.6131198E-02  0.6894277E+03  0.7818609E-02  0.9735485E-01
       -2   -1    0    0    0  501  0.00000000000E+00  0.00000000000E+00  0.17210911209E+03  0.17210911211E+03  0.25500000920E-02 0. -1.
        2   -1    0    0  501    0  0.00000000000E+00  0.00000000000E+00 -0.69042030149E+03  0.69042030149E+03  0.25500000920E-02 0.  1.
    10030    2    1    2    0    0  0.00000000000E+00  0.00000000000E+00 -0.51831118940E+03  0.86252941361E+03  0.68942766138E+03 0.  0.
        1    1    3    3  502    0 -0.27128386984E+03 -0.11356869949E+02 -0.52485546093E+03  0.59092907479E+03  0.50400001928E-02 0.  1.
       -1    1    3    3    0  502  0.27128386984E+03  0.11356869949E+02  0.65442715352E+01  0.27160033882E+03  0.50400001928E-02 0. -1.
</event>
<event>
 5   0  0.6167756E-02  0.6766246E+03  0.7818609E-02  0.9758064E-01
       -2   -1    0    0    0  501  0.00000000000E+00  0.00000000000E+00  0.13451199503E+03  0.13451199506E+03  0.25500000920E-02 0. -1.
        2   -1    0    0  501    0  0.00000000000E+00  0.00000000000E+00 -0.85089218070E+03  0.85089218071E+03  0.25500000920E-02 0.  1.
    10030    2    1    2    0    0  0.00000000000E+00  0.00000000000E+00 -0.71638018567E+03  0.98540417576E+03  0.67662457774E+03 0.  0.
        4    1    3    3  502    0  0.31687978590E+02  0.15690617647E+03 -0.79224658289E+03  0.80825734591E+03  0.12699999809E+01 0.  1.
       -4    1    3    3    0  502 -0.31687978590E+02 -0.15690617647E+03  0.75866397227E+02  0.17714682986E+03  0.12699999809E+01 0. -1.
</event>
<event>
 5   0  0.3755872E-02  0.7133982E+03  0.7818609E-02  0.9694590E-01
        1   -1    0    0  501    0  0.00000000000E+00  0.00000000000E+00  0.12241641207E+04  0.12241641207E+04  0.50400001928E-02 0.  1.
       -1   -1    0    0    0  501  0.00000000000E+00  0.00000000000E+00 -0.10393562146E+03  0.10393562158E+03  0.50400001928E-02 0. -1.
    10030    2    1    2    0    0  0.00000000000E+00  0.00000000000E+00  0.11202284992E+04  0.13280997423E+04  0.71339823028E+03 0.  0.
        2    1    3    3  502    0  0.33777087300E+03  0.10656567108E+03  0.63885256036E+03  0.73046423511E+03  0.25500000920E-02 0.  1.
       -2    1    3    3    0  502 -0.33777087300E+03 -0.10656567108E+03  0.48137593889E+03  0.59763550719E+03  0.25500000920E-02 0. -1.
</event>
<event>
 5   0  0.3755872E-02  0.4731419E+03  0.7818609E-02  0.1021037E+00
        1   -1    0    0  501    0  0.00000000000E+00  0.00000000000E+00  0.13414127450E+04  0.13414127450E+04  0.50400001928E-02 0.  1.
       -1   -1    0    0    0  501  0.00000000000E+00  0.00000000000E+00 -0.41721542524E+02  0.41721542829E+02  0.50400001928E-02 0. -1.
    10030    2    1    2    0    0  0.00000000000E+00  0.00000000000E+00  0.12996912025E+04  0.13831342878E+04  0.47314187766E+03 0.  0.
        2    1    3    3  502    0 -0.29023787325E+02 -0.62436639956E+02 -0.11783111699E+02  0.69853818560E+02  0.25500000920E-02 0. -1.
       -2    1    3    3    0  502  0.29023787325E+02  0.62436639956E+02  0.13114743142E+04  0.13132804693E+04  0.25500000920E-02 0.  1.
</event>
<event>
 5   0  0.5987810E-02  0.7111694E+03  0.7818609E-02  0.9698319E-01
        2   -1    0    0  501    0  0.00000000000E+00  0.00000000000E+00  0.94827064793E+03  0.94827064793E+03  0.25500000920E-02 0. -1.
       -2   -1    0    0    0  501  0.00000000000E+00  0.00000000000E+00 -0.13333797196E+03  0.13333797198E+03  0.25500000920E-02 0.  1.
    10030    2    1    2    0    0  0.00000000000E+00  0.00000000000E+00  0.81493267597E+03  0.10816086199E+04  0.71116941744E+03 0.  0.
        5    1    3    3  502    0 -0.66214115953E+02 -0.17631166922E+03 -0.51197304224E+02  0.19522645265E+03  0.46999998093E+01 0.  1.
       -5    1    3    3    0  502  0.66214115953E+02  0.17631166922E+03  0.86612998020E+03  0.88638216727E+03  0.46999998093E+01 0. -1.
</event>
<event>
 5   0  0.6248886E-02  0.5953884E+03  0.7818609E-02  0.9915020E-01
        2   -1    0    0  501    0  0.00000000000E+00  0.00000000000E+00  0.39509600391E+03  0.39509600392E+03  0.25500000920E-02 0.  1.
       -2   -1    0    0    0  501  0.00000000000E+00  0.00000000000E+00 -0.22430457693E+03  0.22430457694E+03  0.25500000920E-02 0. -1.
    10030    2    1    2    0    0  0.00000000000E+00  0.00000000000E+00  0.17079142698E+03  0.61940058086E+03  0.59538841779E+03 0.  0.
        3    1    3    3  502    0 -0.92697456479E+02 -0.22176947988E+03 -0.97321676713E+02  0.25931841355E+03  0.10100000352E+00 0. -1.
       -3    1    3    3    0  502  0.92697456479E+02  0.22176947988E+03  0.26811310369E+03  0.36008216732E+03  0.10100000352E+00 0.  1.
</event>
<event>
 5   0  0.3755872E-02  0.7019029E+03  0.7818609E-02  0.9713983E-01
       -1   -1    0    0    0  501  0.00000000000E+00  0.00000000000E+00  0.31192737855E+03  0.31192737859E+03  0.50400001928E-02 0.  1.
        1   -1    0    0  501    0  0.00000000000E+00  0.00000000000E+00 -0.39485773117E+03  0.39485773120E+03  0.50400001928E-02 0. -1.
    10030    2    1    2    0    0  0.00000000000E+00  0.00000000000E+00 -0.82930352621E+02  0.70678510978E+03  0.70190294773E+03 0.  0.
        2    1    3    3  502    0 -0.20062080869E+03 -0.22743643506E+03 -0.21930304764E+03  0.37425909152E+03  0.25500000920E-02 0.  1.
       -2    1    3    3    0  502  0.20062080869E+03  0.22743643506E+03  0.13637269502E+03  0.33252601827E+03  0.25500000920E-02 0. -1.
</event>
<event>
 5   0  0.5899787E-02  0.7000173E+03  0.7818609E-02  0.9717203E-01
       -2   -1    0    0    0  501  0.00000000000E+00  0.00000000000E+00  0.30025375789E+03  0.30025375790E+03  0.25500000920E-02 0.  1.
        2   -1    0    0  501    0  0.00000000000E+00  0.00000000000E+00 -0.40800843631E+03  0.40800843632E+03  0.25500000920E-02 0. -1.
    10030    2    1    2    0    0  0.00000000000E+00  0.00000000000E+00 -0.10775467842E+03  0.70826219423E+03  0.70001733196E+03 0.  0.
        2    1    3    3  502    0 -0.19418423664E+03  0.16976508645E+03 -0.29326147622E+03  0.39055088757E+03  0.25500000920E-02 0. -1.
       -2    1    3    3    0  502  0.19418423664E+03 -0.16976508645E+03  0.18550679780E+03  0.31771130666E+03  0.25500000920E-02 0.  1.
</event>
<event>
 5   0  0.3755872E-02  0.6788262E+03  0.7818609E-02  0.9754143E-01
        1   -1    0    0  501    0  0.00000000000E+00  0.00000000000E+00  0.18675856788E+03  0.18675856795E+03  0.50400001928E-02 0. -1.
       -1   -1    0    0    0  501  0.00000000000E+00  0.00000000000E+00 -0.61684581571E+03  0.61684581573E+03  0.50400001928E-02 0.  1.
    10030    2    1    2    0    0  0.00000000000E+00  0.00000000000E+00 -0.43008724783E+03  0.80360438368E+03  0.67882616679E+03 0.  0.
        2    1    3    3  502    0 -0.30492484748E+03 -0.52291077396E+02 -0.49784952170E+02  0.31335612465E+03  0.25500000920E-02 0. -1.
       -2    1    3    3    0  502  0.30492484748E+03  0.52291077396E+02 -0.38030229566E+03  0.49024825903E+03  0.25500000920E-02 0.  1.
</event>
<event>
 5   0  0.2439375E-02  0.7415821E+03  0.7818609E-02  0.9648650E-01
       -3   -1    0    0    0  501  0.00000000000E+00  0.00000000000E+00  0.62174383337E+03  0.62174384158E+03  0.10100000352E+00 0.  1.
        3   -1    0    0  501    0  0.00000000000E+00  0.00000000000E+00 -0.22112963091E+03  0.22112965397E+03  0.10100000352E+00 0. -1.
    10030    2    1    2    0    0  0.00000000000E+00  0.00000000000E+00  0.40061420246E+03  0.84287349555E+03  0.74158208600E+03 0.  0.
        1    1    3    3  502    0  0.29263900317E+03 -0.20258442700E+03  0.31846834611E+03  0.47759828700E+03  0.50400001928E-02 0.  1.
       -1    1    3    3    0  502 -0.29263900317E+03  0.20258442700E+03  0.82145856352E+02  0.36527520855E+03  0.50400001928E-02 0. -1.
</event>
<event>
 5   0  0.3717372E-02  0.7057134E+03  0.7818609E-02  0.9707511E-01
        1   -1    0    0  501    0  0.00000000000E+00  0.00000000000E+00  0.38278398512E+03  0.38278398516E+03  0.50400001928E-02 0. -1.
       -1   -1    0    0    0  501  0.00000000000E+00  0.00000000000E+00 -0.32526926024E+03  0.32526926028E+03  0.50400001928E-02 0.  1.
    10030    2    1    2    0    0  0.00000000000E+00  0.00000000000E+00  0.57514724884E+02  0.70805324544E+03  0.70571343674E+03 0.  0.
        3    1    3    3  502    0 -0.12085761102E+03  0.10416401915E+02 -0.30369118659E+03  0.32702203379E+03  0.10100000352E+00 0.  1.
       -3    1    3    3    0  502  0.12085761102E+03 -0.10416401915E+02  0.36120591147E+03  0.38103121165E+03  0.10100000352E+00 0. -1.
</event>
<event>
 5   0  0.6131198E-02  0.6876868E+03  0.7818609E-02  0.9738524E-01
        2   -1    0    0  501    0  0.00000000000E+00  0.00000000000E+00  0.14376398334E+04  0.14376398334E+04  0.25500000920E-02 0.  1.
       -2   -1    0    0    0  501  0.00000000000E+00  0.00000000000E+00 -0.82237772623E+02  0.82237772662E+02  0.25500000920E-02 0. -1.
    10030    2    1    2    0    0  0.00000000000E+00  0.00000000000E+00  0.13554020608E+04  0.15198776061E+04  0.68768684084E+03 0.  0.
        1    1    3    3  502    0  0.21980027331E+03 -0.13428148553E+03  0.11811288640E+04  0.12088875345E+04  0.50400001928E-02 0.  1.
       -1    1    3    3    0  502 -0.21980027331E+03  0.13428148553E+03  0.17427319674E+03  0.31099007160E+03  0.50400001928E-02 0. -1.
</event>
<event>
 5   0  0.3755872E-02  0.7084777E+03  0.7818609E-02  0.9702843E-01
       -1   -1    0    0    0  501  0.00000000000E+00  0.00000000000E+00  0.22789630714E+03  0.22789630720E+03  0.50400001928E-02 0.  1.
        1   -1    0    0  501    0  0.00000000000E+00  0.00000000000E+00 -0.55062400165E+03  0.55062400168E+03  0.50400001928E-02 0. -1.
    10030    2    1    2    0    0  0.00000000000E+00  0.00000000000E+00 -0.32272769451E+03  0.77852030887E+03  0.70847773891E+03 0.  0.
        2    1    3    3  502    0 -0.14251491700E+03 -0.21257556306E+03  0.10777091323E+03  0.27769307035E+03  0.25500000920E-02 0.  1.
       -2    1    3    3    0  502  0.14251491700E+03  0.21257556306E+03 -0.43049860774E+03  0.50082723852E+03  0.25500000920E-02 0. -1.
</event>
<event>
 5   0  0.6131198E-02  0.6928620E+03  0.7818609E-02  0.9729518E-01
        2   -1    0    0  501    0  0.00000000000E+00  0.00000000000E+00  0.67664352834E+03  0.67664352835E+03  0.25500000920E-02 0.  1.
       -2   -1    0    0    0  501  0.00000000000E+00  0.00000000000E+00 -0.17736732172E+03  0.17736732174E+03  0.25500000920E-02 0. -1.
    10030    2    1    2    0    0  0.00000000000E+00  0.00000000000E+00  0.49927620662E+03  0.85401085008E+03  0.69286203645E+03 0.  0.
        1    1    3    3  502    0 -0.20808170230E+03 -0.67295181300E+01 -0.91659049443E+02  0.22747453180E+03  0.50400001928E-02 0. -1.
       -1    1    3    3    0  502  0.20808170230E+03  0.67295181300E+01  0.59093525607E+03  0.62653631829E+03  0.50400001928E-02 0.  1.
</event>
<event>
 5   0  0.2439375E-02  0.6974570E+03  0.7818609E-02  0.9721591E-01
       -3   -1    0    0    0  501  0.00000000000E+00  0.00000000000E+00  0.19311870212E+03  0.19311872853E+03  0.10100000352E+00 0. -1.
        3   -1    0    0  501    0  0.00000000000E+00  0.00000000000E+00 -0.62972444466E+03  0.62972445276E+03  0.10100000352E+00 0.  1.
    10030    2    1    2    0    0  0.00000000000E+00  0.00000000000E+00 -0.43660574254E+03  0.82284318130E+03  0.69745704282E+03 0.  0.
        3    1    3    3  502    0 -0.53398195861E+02  0.26859872737E+03  0.36416584621E+02  0.27626585295E+03  0.10100000352E+00 0. -1.
       -3    1    3    3    0  502  0.53398195861E+02 -0.26859872737E+03 -0.47302232716E+03  0.54657732835E+03  0.10100000352E+00 0.  1.
</event>
<event>
 5   0  0.6248886E-02  0.6978876E+03  0.7818609E-02  0.9720851E-01
        2   -1    0    0  501    0  0.00000000000E+00  0.00000000000E+00  0.13977233999E+04  0.13977233999E+04  0.25500000920E-02 0. -1.
       -2   -1    0    0    0  501  0.00000000000E+00  0.00000000000E+00 -0.87114362527E+02  0.87114362564E+02  0.25500000920E-02 0.  1.
    10030    2    1    2    0    0  0.00000000000E+00  0.00000000000E+00  0.13106090374E+04  0.14848377625E+04  0.69788762133E+03 0.  0.
        3    1    3    3  502    0 -0.27894523800E+03 -0.39530961722E+02  0.21726005138E+03  0.35577392100E+03  0.10100000352E+00 0.  1.
       -3    1    3    3    0  502  0.27894523800E+03  0.39530961722E+02  0.10933489860E+04  0.11290638415E+04  0.10100000352E+00 0. -1.
</event>
<event>
 5   0  0.3439015E-02  0.6067175E+03  0.7818609E-02  0.9891567E-01
       -1   -1    0    0    0  501  0.00000000000E+00  0.00000000000E+00  0.18656209252E+03  0.18656209259E+03  0.50400001928E-02 0.  1.
        1   -1    0    0  501    0  0.00000000000E+00  0.00000000000E+00 -0.49327565328E+03  0.49327565331E+03  0.50400001928E-02 0. -1.
    10030    2    1    2    0    0  0.00000000000E+00  0.00000000000E+00 -0.30671356076E+03  0.67983774590E+03  0.60671752273E+03 0.  0.
        1    1    3    3  502    0 -0.21735218917E+03  0.13695435469E+03 -0.33413233708E+03  0.42147703154E+03  0.50400001928E-02 0. -1.
       -1    1    3    3    0  502  0.21735218917E+03 -0.13695435469E+03  0.27418776317E+02  0.25836071436E+03  0.50400001928E-02 0.  1.
</event>
<event>
 5   0  0.3439015E-02  0.7008287E+03  0.7818609E-02  0.9715816E-01
        1   -1    0    0  501    0  0.00000000000E+00  0.00000000000E+00  0.56769740544E+03  0.56769740546E+03  0.50400001928E-02 0. -1.
       -1   -1    0    0    0  501  0.00000000000E+00  0.00000000000E+00 -0.21629516268E+03  0.21629516274E+03  0.50400001928E-02 0.  1.
    10030    2    1    2    0    0  0.00000000000E+00  0.00000000000E+00  0.35140224275E+03  0.78399256820E+03  0.70082866008E+03 0.  0.
        1    1    3    3  502    0 -0.65052781493E+02 -0.55809071902E+02  0.55579001901E+03  0.56236026010E+03  0.50400001928E-02 0. -1.
       -1    1    3    3    0  502  0.65052781493E+02  0.55809071902E+02 -0.20438777625E+03  0.22163230810E+03  0.50400001928E-02 0.  1.
</event>
<event>
 5   0  0.6131198E-02  0.6960161E+03  0.7818609E-02  0.9724070E-01
        2   -1    0    0  501    0  0.00000000000E+00  0.00000000000E+00  0.75882933874E+03  0.75882933875E+03  0.25500000920E-02 0.  1.
       -2   -1    0    0    0  501  0.00000000000E+00  0.00000000000E+00 -0.15960057844E+03  0.15960057846E+03  0.25500000920E-02 0. -1.
    10030    2    1    2    0    0  0.00000000000E+00  0.00000000000E+00  0.59922876030E+03  0.91842991721E+03  0.69601609583E+03 0.  0.
        1    1    3    3  502    0  0.29281851526E+03  0.57906457087E+02  0.53571389054E+03  0.61325786843E+03  0.50400001928E-02 0.  1.
       -1    1    3    3    0  502 -0.29281851526E+03 -0.57906457087E+02  0.63514869765E+02  0.30517204878E+03  0.50400001928E-02 0. -1.
</event>
<event>
 5   0  0.2439375E-02  0.7035830E+03  0.7818609E-02  0.9711124E-01
        4   -1    0    0  501    0  0.00000000000E+00  0.00000000000E+00  0.81087860174E+03  0.81087959628E+03  0.12699999809E+01 0.  1.
       -4   -1    0    0    0  501  0.00000000000E+00  0.00000000000E+00 -0.15261747190E+03  0.15262275593E+03  0.12699999809E+01 0. -1.
    10030    2    1    2    0    0  0.00000000000E+00  0.00000000000E+00  0.65826112984E+03  0.96350235222E+03  0.70358302116E+03 0.  0.
        5    1    3    3  502    0  0.10335733752E+03  0.18381370244E+03 -0.56417078078E+02  0.21834649785E+03  0.46999998093E+01 0. -1.
       -5    1    3    3    0  502 -0.10335733752E+03 -0.18381370244E+03  0.71467820792E+03  0.74515585437E+03  0.46999998093E+01 0.  1.
</event>
<event>
 5   0  0.3439015E-02  0.7157794E+03  0.7818609E-02  0.9690621E-01
        1   -1    0    0  501    0  0.00000000000E+00  0.00000000000E+00  0.12698655430E+03  0.12698655440E+03  0.50400001928E-02 0.  1.
       -1   -1    0    0    0  501  0.00000000000E+00  0.00000000000E+00 -0.10086503427E+04  0.10086503427E+04  0.50400001928E-02 0. -1.
    10030    2    1    2    0    0  0.00000000000E+00  0.00000000000E+00 -0.88166378837E+03  0.11356368971E+04  0.71577938382E+03 0.  0.
        1    1    3    3  502    0  0.27191911155E+02  0.69982824279E+02 -0.99601497230E+03  0.99884073845E+03  0.50400001928E-02 0. -1.
       -1    1    3    3    0  502 -0.27191911155E+02 -0.69982824279E+02  0.11435118393E+03  0.13679615863E+03  0.50400001928E-02 0.  1.
</event>
<event>
 5   0  0.6248886E-02  0.6930299E+03  0.7818609E-02  0.9729227E-01
        2   -1    0    0  501    0  0.00000000000E+00  0.00000000000E+00  0.44763414414E+03  0.44763414414E+03  0.25500000920E-02 0.  1.
       -2   -1    0    0    0  501  0.00000000000E+00  0.00000000000E+00 -0.26823826237E+03  0.26823826239E+03  0.25500000920E-02 0. -1.
    10030    2    1    2    0    0  0.00000000000E+00  0.00000000000E+00  0.17939588176E+03  0.71587240653E+03  0.69302988394E+03 0.  0.
        3    1    3    3  502    0  0.26634704874E+02  0.34505676133E+03  0.10756005594E+03  0.36241240580E+03  0.10100000352E+00 0.  1.
       -3    1    3    3    0  502 -0.26634704874E+02 -0.34505676133E+03  0.71835825823E+02  0.35346000073E+03  0.10100000352E+00 0. -1.
</event>
<event>
 5   0  0.3749730E-02  0.7051364E+03  0.7818609E-02  0.9708488E-01
        1   -1    0    0  501    0  0.00000000000E+00  0.00000000000E+00  0.93535338441E+03  0.93535338442E+03  0.50400001928E-02 0.  1.
       -1   -1    0    0    0  501  0.00000000000E+00  0.00000000000E+00 -0.13289560161E+03  0.13289560171E+03  0.50400001928E-02 0. -1.
    10030    2    1    2    0    0  0.00000000000E+00  0.00000000000E+00  0.80245778280E+03  0.10682489861E+04  0.70513644297E+03 0.  0.
        4    1    3    3  502    0  0.14696874258E+03 -0.53476062578E+02 -0.77465849145E+02  0.17453386848E+03  0.12699999809E+01 0. -1.
       -4    1    3    3    0  502 -0.14696874258E+03  0.53476062578E+02  0.87992363194E+03  0.89371511765E+03  0.12699999809E+01 0.  1.
</event>
<event>
 5   0  0.3749730E-02  0.7094665E+03  0.7818609E-02  0.9701179E-01
        1   -1    0    0  501    0  0.00000000000E+00  0.00000000000E+00  0.22023855555E+03  0.22023855561E+03  0.50400001928E-02 0.  1.
       -1   -1    0    0    0  501  0.00000000000E+00  0.00000000000E+00 -0.57136078156E+03  0.57136078158E+03  0.50400001928E-02 0. -1.
    10030    2    1    2    0    0  0.00000000000E+00  0.00000000000E+00 -0.35112222601E+03  0.79159933719E+03  0.70946648479E+03 0.  0.
        4    1    3    3  502    0  0.92757535370E+02  0.19882660009E+03  0.13545199257E+03  0.25784652890E+03  0.12699999809E+01 0.  1.
       -4    1    3    3    0  502 -0.92757535370E+02 -0.19882660009E+03 -0.48657421858E+03  0.53375280829E+03  0.12699999809E+01 0. -1.
</event>
<event>
 5   0  0.3749730E-02  0.7033141E+03  0.7818609E-02  0.9711581E-01
        1   -1    0    0  501    0  0.00000000000E+00  0.00000000000E+00  0.24430206414E+03  0.24430206420E+03  0.50400001928E-02 0.  1.
       -1   -1    0    0    0  501  0.00000000000E+00  0.00000000000E+00 -0.50618757801E+03  0.50618757804E+03  0.50400001928E-02 0. -1.
    10030    2    1    2    0    0  0.00000000000E+00  0.00000000000E+00 -0.26188551387E+03  0.75048964223E+03  0.70331406976E+03 0.  0.
        4    1    3    3  502    0 -0.24045031232E+03  0.10398764196E+03 -0.38126542802E+03  0.46259563539E+03  0.12699999809E+01 0. -1.
       -4    1    3    3    0  502  0.24045031232E+03 -0.10398764196E+03  0.11937991416E+03  0.28789400685E+03  0.12699999809E+01 0.  1.
</event>
<event>
 5   0  0.5899787E-02  0.6953808E+03  0.7818609E-02  0.9725164E-01
       -2   -1    0    0    0  501  0.00000000000E+00  0.00000000000E+00  0.44133813121E+03  0.44133813121E+03  0.25500000920E-02 0.  1.
        2   -1    0    0  501    0  0.00000000000E+00  0.00000000000E+00 -0.27391379098E+03  0.27391379100E+03  0.25500000920E-02 0. -1.
    10030    2    1    2    0    0  0.00000000000E+00  0.00000000000E+00  0.16742434022E+03  0.71525192221E+03  0.69538076083E+03 0.  0.
        2    1    3    3  502    0 -0.14165730279E+03 -0.10320706451E+02 -0.24271332488E+03  0.28121711629E+03  0.25500000920E-02 0. -1.
       -2    1    3    3    0  502  0.14165730279E+03  0.10320706451E+02  0.41013766510E+03  0.43403480592E+03  0.25500000920E-02 0.  1.
</event>
<event>
 5   0  0.6167756E-02  0.6995209E+03  0.7818609E-02  0.9718052E-01
        2   -1    0    0  501    0  0.00000000000E+00  0.00000000000E+00  0.20031342125E+04  0.20031342125E+04  0.25500000920E-02 0.  1.
       -2   -1    0    0    0  501  0.00000000000E+00  0.00000000000E+00 -0.61070483099E+02  0.61070483152E+02  0.25500000920E-02 0. -1.
    10030    2    1    2    0    0  0.00000000000E+00  0.00000000000E+00  0.19420637294E+04  0.20642046956E+04  0.69952090498E+03 0.  0.
        4    1    3    3  502    0  0.21078320262E+03  0.27330733831E+03  0.11380712001E+04  0.11892578060E+04  0.12699999809E+01 0. -1.
       -4    1    3    3    0  502 -0.21078320262E+03 -0.27330733831E+03  0.80399252925E+03  0.87494688963E+03  0.12699999809E+01 0.  1.
</event>
<event>
 5   0  0.6248886E-02  0.7037826E+03  0.7818609E-02  0.9710785E-01
       -2   -1    0    0    0  501  0.00000000000E+00  0.00000000000E+00  0.12730553190E+03  0.12730553193E+03  0.25500000920E-02 0. -1.
        2   -1    0    0  501    0  0.00000000000E+00  0.00000000000E+00 -0.97267945896E+03  0.97267945896E+03  0.25500000920E-02 0.  1.
    10030    2    1    2    0    0  0.00000000000E+00  0.00000000000E+00 -0.84537392706E+03  0.10999849909E+04  0.70378256843E+03 0.  0.
        3    1    3    3  502    0  0.23375468099E+03 -0.14220566427E+03 -0.76853526802E+03  0.81578806698E+03  0.10100000352E+00 0.  1.
       -3    1    3    3    0  502 -0.23375468099E+03  0.14220566427E+03 -0.76838659033E+02  0.28419692390E+03  0.10100000352E+00 0. -1.
</event>
<event>
 5   0  0.3717372E-02  0.7337892E+03  0.7818609E-02  0.9661131E-01
       -1   -1    0    0    0  501  0.00000000000E+00  0.00000000000E+00  0.14313234324E+03  0.14313234332E+03  0.50400001928E-02 0.  1.
        1   -1    0    0  501    0  0.00000000000E+00  0.00000000000E+00 -0.94046992273E+03  0.94046992274E+03  0.50400001928E-02 0. -1.
    10030    2    1    2    0    0  0.00000000000E+00  0.00000000000E+00 -0.79733757949E+03  0.10836022661E+04  0.73378924451E+03 0.  0.
        3    1    3    3  502    0  0.87632580024E+02  0.34229074594E+03 -0.54462706594E+03  0.64920033502E+03  0.10100000352E+00 0.  1.
       -3    1    3    3    0  502 -0.87632580024E+02 -0.34229074594E+03 -0.25271051355E+03  0.43440193104E+03  0.10100000352E+00 0. -1.
</event>
<event>
 5   0  0.5987810E-02  0.6939006E+03  0.7818609E-02  0.9727720E-01
       -2   -1    0    0    0  501  0.00000000000E+00  0.00000000000E+00  0.84692023663E+02  0.84692023701E+02  0.25500000920E-02 0. -1.
        2   -1    0    0  501    0  0.00000000000E+00  0.00000000000E+00 -0.14213203512E+04  0.14213203512E+04  0.25500000920E-02 0.  1.
    10030    2    1    2    0    0  0.00000000000E+00  0.00000000000E+00 -0.13366283276E+04  0.15060123749E+04  0.69390056017E+03 0.  0.
        5    1    3    3  502    0  0.30898726705E+03 -0.93536305600E+02 -0.94396013687E+03  0.99764973897E+03  0.46999998093E+01 0.  1.
       -5    1    3    3    0  502 -0.30898726705E+03  0.93536305600E+02 -0.39266819070E+03  0.50836263597E+03  0.46999998093E+01 0. -1.
</event>
<event>
 5   0  0.2439375E-02  0.6951911E+03  0.7818609E-02  0.9725491E-01
        3   -1    0    0  501    0  0.00000000000E+00  0.00000000000E+00  0.28475234061E+03  0.28475235852E+03  0.10100000352E+00 0.  1.
       -3   -1    0    0    0  501  0.00000000000E+00  0.00000000000E+00 -0.42430791102E+03  0.42430792304E+03  0.10100000352E+00 0. -1.
    10030    2    1    2    0    0  0.00000000000E+00  0.00000000000E+00 -0.13955557041E+03  0.70906028156E+03  0.69519114325E+03 0.  0.
        4    1    3    3  502    0 -0.33068891794E+03 -0.76271532830E+02 -0.14643408518E+03  0.36961745274E+03  0.12699999809E+01 0. -1.
       -4    1    3    3    0  502  0.33068891794E+03  0.76271532830E+02  0.68785147713E+01  0.33944282882E+03  0.12699999809E+01 0.  1.
</event>
<event>
 5   0  0.5899787E-02  0.7033264E+03  0.7818609E-02  0.9711560E-01
        2   -1    0    0  501    0  0.00000000000E+00  0.00000000000E+00  0.93849044891E+03  0.93849044892E+03  0.25500000920E-02 0. -1.
       -2   -1    0    0    0  501  0.00000000000E+00  0.00000000000E+00 -0.13177226879E+03  0.13177226882E+03  0.25500000920E-02 0.  1.
    10030    2    1    2    0    0  0.00000000000E+00  0.00000000000E+00  0.80671818012E+03  0.10702627177E+04  0.70332642694E+03 0.  0.
        2    1    3    3  502    0  0.31758080100E+03  0.14749831500E+03  0.45275505322E+03  0.57236391947E+03  0.25500000920E-02 0.  1.
       -2    1    3    3    0  502 -0.31758080100E+03 -0.14749831500E+03  0.35396312691E+03  0.49789879826E+03  0.25500000920E-02 0. -1.
</event>
<event>
 5   0  0.3717372E-02  0.7067464E+03  0.7818609E-02  0.9705764E-01
        1   -1    0    0  501    0  0.00000000000E+00  0.00000000000E+00  0.14954156188E+04  0.14954156188E+04  0.50400001928E-02 0. -1.
       -1   -1    0    0    0  501  0.00000000000E+00  0.00000000000E+00 -0.83503627796E+02  0.83503627948E+02  0.50400001928E-02 0.  1.
    10030    2    1    2    0    0  0.00000000000E+00  0.00000000000E+00  0.14119119910E+04  0.15789192467E+04  0.70674643078E+03 0.  0.
        3    1    3    3  502    0 -0.12054680167E+03  0.21954371541E+03  0.12628693945E+04  0.12874665402E+04  0.10100000352E+00 0. -1.
       -3    1    3    3    0  502  0.12054680167E+03 -0.21954371541E+03  0.14904259645E+03  0.29145270651E+03  0.10100000352E+00 0.  1.
</event>
<event>
 5   0  0.5987810E-02  0.6692978E+03  0.7818609E-02  0.9771227E-01
        2   -1    0    0  501    0  0.00000000000E+00  0.00000000000E+00  0.30492700624E+03  0.30492700626E+03  0.25500000920E-02 0.  1.
       -2   -1    0    0    0  501  0.00000000000E+00  0.00000000000E+00 -0.36726788959E+03  0.36726788960E+03  0.25500000920E-02 0. -1.
    10030    2    1    2    0    0  0.00000000000E+00  0.00000000000E+00 -0.62340883342E+02  0.67219489585E+03  0.66929783525E+03 0.  0.
        5    1    3    3  502    0  0.11308742610E+02  0.16708911418E+03 -0.32211584427E+03  0.36308038623E+03  0.46999998093E+01 0. -1.
       -5    1    3    3    0  502 -0.11308742610E+02 -0.16708911418E+03  0.25977496092E+03  0.30911450962E+03  0.46999998093E+01 0.  1.
</event>
<event>
 5   0  0.3601475E-02  0.6975224E+03  0.7818609E-02  0.9721479E-01
       -1   -1    0    0    0  501  0.00000000000E+00  0.00000000000E+00  0.40658904948E+03  0.40658904951E+03  0.50400001928E-02 0.  1.
        1   -1    0    0  501    0  0.00000000000E+00  0.00000000000E+00 -0.29915802360E+03  0.29915802364E+03  0.50400001928E-02 0. -1.
    10030    2    1    2    0    0  0.00000000000E+00  0.00000000000E+00  0.10743102588E+03  0.70574707315E+03  0.69752240533E+03 0.  0.
        5    1    3    3  502    0  0.14073532540E+03 -0.36874621978E+02  0.37438489849E+03  0.40168683296E+03  0.46999998093E+01 0.  1.
       -5    1    3    3    0  502 -0.14073532540E+03  0.36874621978E+02 -0.26695387261E+03  0.30406024019E+03  0.46999998093E+01 0. -1.
</event>
<event>
 5   0  0.5987810E-02  0.5934504E+03  0.7818609E-02  0.9919088E-01
       -2   -1    0    0    0  501  0.00000000000E+00  0.00000000000E+00  0.15904629059E+03  0.15904629061E+03  0.25500000920E-02 0. -1.
        2   -1    0    0  501    0  0.00000000000E+00  0.00000000000E+00 -0.55358627624E+03  0.55358627625E+03  0.25500000920E-02 0.  1.
    10030    2    1    2    0    0  0.00000000000E+00  0.00000000000E+00 -0.39453998565E+03  0.71263256686E+03  0.59345039815E+03 0.  0.
        5    1    3    3  502    0 -0.19343068863E+03 -0.18234727407E+03 -0.35547801678E+03  0.44390615008E+03  0.46999998093E+01 0.  1.
       -5    1    3    3    0  502  0.19343068863E+03  0.18234727407E+03 -0.39061968876E+02  0.26872641678E+03  0.46999998093E+01 0. -1.
</event>
<event>
 5   0  0.6131198E-02  0.6857091E+03  0.7818609E-02  0.9741989E-01
       -2   -1    0    0    0  501  0.00000000000E+00  0.00000000000E+00  0.22639769133E+03  0.22639769134E+03  0.25500000920E-02 0.  1.
        2   -1    0    0  501    0  0.00000000000E+00  0.00000000000E+00 -0.51921570816E+03  0.51921570817E+03  0.25500000920E-02 0. -1.
    10030    2    1    2    0    0  0.00000000000E+00  0.00000000000E+00 -0.29281801683E+03  0.74561339951E+03  0.68570908595E+03 0.  0.
        1    1    3    3  502    0 -0.63686899552E+02 -0.45075266905E+02  0.21661564420E+03  0.23023930637E+03  0.50400001928E-02 0.  1.
       -1    1    3    3    0  502  0.63686899552E+02  0.45075266905E+02 -0.50943366103E+03  0.51537409314E+03  0.50400001928E-02 0. -1.
</event>
<event>
 5   0  0.6167756E-02  0.5306410E+03  0.7818609E-02  0.1006077E+00
       -2   -1    0    0    0  501  0.00000000000E+00  0.00000000000E+00  0.99366597341E+03  0.99366597342E+03  0.25500000920E-02 0.  1.
        2   -1    0    0  501    0  0.00000000000E+00  0.00000000000E+00 -0.70843693380E+02  0.70843693426E+02  0.25500000920E-02 0. -1.
    10030    2    1    2    0    0  0.00000000000E+00  0.00000000000E+00  0.92282228003E+03  0.10645096668E+04  0.53064099943E+03 0.  0.
        4    1    3    3  502    0 -0.54043720173E+02 -0.23488155529E+03  0.68392617789E+03  0.72515287934E+03  0.12699999809E+01 0.  1.
       -4    1    3    3    0  502  0.54043720173E+02  0.23488155529E+03  0.23889610214E+03  0.33935678750E+03  0.12699999809E+01 0. -1.
</event>
<event>
 5   0  0.3717372E-02  0.6944947E+03  0.7818609E-02  0.9726694E-01
       -1   -1    0    0    0  501  0.00000000000E+00  0.00000000000E+00  0.46699849156E+03  0.46699849159E+03  0.50400001928E-02 0.  1.
        1   -1    0    0  501    0  0.00000000000E+00  0.00000000000E+00 -0.25820368678E+03  0.25820368683E+03  0.50400001928E-02 0. -1.
    10030    2    1    2    0    0  0.00000000000E+00  0.00000000000E+00  0.20879480478E+03  0.72520217842E+03  0.69449472934E+03 0.  0.
        3    1    3    3  502    0 -0.66817179198E+02  0.26957888006E+03  0.32204411890E+03  0.42526430926E+03  0.10100000352E+00 0.  1.
       -3    1    3    3    0  502  0.66817179198E+02 -0.26957888006E+03 -0.11324931412E+03  0.29993786916E+03  0.10100000352E+00 0. -1.
</event>
<event>
 5   0  0.3749730E-02  0.7167375E+03  0.7818609E-02  0.9689029E-01
       -1   -1    0    0    0  501  0.00000000000E+00  0.00000000000E+00  0.89631878780E+02  0.89631878921E+02  0.50400001928E-02 0.  1.
        1   -1    0    0  501    0  0.00000000000E+00  0.00000000000E+00 -0.14328403470E+04  0.14328403470E+04  0.50400001928E-02 0. -1.
    10030    2    1    2    0    0  0.00000000000E+00  0.00000000000E+00 -0.13432084682E+04  0.15224722259E+04  0.71673753190E+03 0.  0.
        4    1    3    3  502    0 -0.14784871617E+03  0.15438242317E+03 -0.60620531327E+02  0.22219279280E+03  0.12699999809E+01 0.  1.
       -4    1    3    3    0  502  0.14784871617E+03 -0.15438242317E+03 -0.12825879369E+04  0.13002794331E+04  0.12699999809E+01 0. -1.
</event>
<event>
 5   0  0.6131198E-02  0.6930944E+03  0.7818609E-02  0.9729115E-01
        2   -1    0    0  501    0  0.00000000000E+00  0.00000000000E+00  0.93948968969E+03  0.93948968969E+03  0.25500000920E-02 0.  1.
       -2   -1    0    0    0  501  0.00000000000E+00  0.00000000000E+00 -0.12783000425E+03  0.12783000428E+03  0.25500000920E-02 0. -1.
    10030    2    1    2    0    0  0.00000000000E+00  0.00000000000E+00  0.81165968544E+03  0.10673196940E+04  0.69309442659E+03 0.  0.
        1    1    3    3  502    0 -0.96020720037E+02 -0.17278595359E+03 -0.32497188012E+02  0.20032731139E+03  0.50400001928E-02 0. -1.
       -1    1    3    3    0  502  0.96020720037E+02  0.17278595359E+03  0.84415687345E+03  0.86699238258E+03  0.50400001928E-02 0.  1.
</event>
<event>
 5   0  0.3749730E-02  0.6960642E+03  0.7818609E-02  0.9723987E-01
       -1   -1    0    0    0  501  0.00000000000E+00  0.00000000000E+00  0.15690206590E+03  0.15690206598E+03  0.50400001928E-02 0. -1.
        1   -1    0    0  501    0  0.00000000000E+00  0.00000000000E+00 -0.77198684580E+03  0.77198684581E+03  0.50400001928E-02 0.  1.
    10030    2    1    2    0    0  0.00000000000E+00  0.00000000000E+00 -0.61508477990E+03  0.92888891179E+03  0.69606416657E+03 0.  0.
        4    1    3    3  502    0  0.12837426886E+03  0.20458854140E+03  0.26848042675E+02  0.24302027584E+03  0.12699999809E+01 0. -1.
       -4    1    3    3    0  502 -0.12837426886E+03 -0.20458854140E+03 -0.64193282257E+03  0.68586863595E+03  0.12699999809E+01 0.  1.
</event>
<event>
 5   0  0.6167756E-02  0.7064324E+03  0.7818609E-02  0.9706295E-01
       -2   -1    0    0    0  501  0.00000000000E+00  0.00000000000E+00  0.34917640354E+03  0.34917640355E+03  0.25500000920E-02 0.  1.
        2   -1    0    0  501    0  0.00000000000E+00  0.00000000000E+00 -0.35730270033E+03  0.35730270033E+03  0.25500000920E-02 0. -1.
    10030    2    1    2    0    0  0.00000000000E+00  0.00000000000E+00 -0.81262967855E+01  0.70647910388E+03  0.70643236585E+03 0.  0.
        4    1    3    3  502    0 -0.19908885015E+01 -0.79857489814E+02  0.34002193009E+03  0.34928170315E+03  0.12699999809E+01 0.  1.
       -4    1    3    3    0  502  0.19908885015E+01  0.79857489814E+02 -0.34814822687E+03  0.35719740073E+03  0.12699999809E+01 0. -1.
</event>
<event>
 5   0  0.5987810E-02  0.7149191E+03  0.7818609E-02  0.9692053E-01
       -2   -1    0    0    0  501  0.00000000000E+00  0.00000000000E+00  0.85237432448E+02  0.85237432486E+02  0.25500000920E-02 0.  1.
        2   -1    0    0  501    0  0.00000000000E+00  0.00000000000E+00 -0.14990753371E+04  0.14990753371E+04  0.25500000920E-02 0. -1.
    10030    2    1    2    0    0  0.00000000000E+00  0.00000000000E+00 -0.14138379047E+04  0.15843127696E+04  0.71491910820E+03 0.  0.
        5    1    3    3  502    0 -0.17105248273E+03 -0.25277805214E+03 -0.29470828529E+03  0.42430031689E+03  0.46999998093E+01 0.  1.
       -5    1    3    3    0  502  0.17105248273E+03  0.25277805214E+03 -0.11191296194E+04  0.11600124527E+04  0.46999998093E+01 0. -1.
</event>
<event>
 5   0  0.5987810E-02  0.7061339E+03  0.7818609E-02  0.9706800E-01
       -2   -1    0    0    0  501  0.00000000000E+00  0.00000000000E+00  0.85381538917E+02  0.85381538955E+02  0.25500000920E-02 0.  1.
        2   -1    0    0  501    0  0.00000000000E+00  0.00000000000E+00 -0.14599908415E+04  0.14599908415E+04  0.25500000920E-02 0. -1.
    10030    2    1    2    0    0  0.00000000000E+00  0.00000000000E+00 -0.13746093026E+04  0.15453723805E+04  0.70613388216E+03 0.  0.
        5    1    3    3  502    0 -0.23407065312E+03 -0.12843053889E+03 -0.18181047069E+03  0.32304893008E+03  0.46999998093E+01 0.  1.
       -5    1    3    3    0  502  0.23407065312E+03  0.12843053889E+03 -0.11927988319E+04  0.12223234504E+04  0.46999998093E+01 0. -1.
</event>
<event>
 5   0  0.3755872E-02  0.7001671E+03  0.7818609E-02  0.9716946E-01
       -1   -1    0    0    0  501  0.00000000000E+00  0.00000000000E+00  0.97768969615E+03  0.97768969616E+03  0.50400001928E-02 0. -1.
        1   -1    0    0  501    0  0.00000000000E+00  0.00000000000E+00 -0.12535522068E+03  0.12535522078E+03  0.50400001928E-02 0.  1.
    10030    2    1    2    0    0  0.00000000000E+00  0.00000000000E+00  0.85233447547E+03  0.11030449169E+04  0.70016714485E+03 0.  0.
        2    1    3    3  502    0 -0.42445768360E+02 -0.29569994210E+03  0.13860384739E+03  0.32931918487E+03  0.25500000920E-02 0.  1.
       -2    1    3    3    0  502  0.42445768360E+02  0.29569994210E+03  0.71373062808E+03  0.77372573207E+03  0.25500000920E-02 0. -1.
</event>
<event>
 5   0  0.3749730E-02  0.6960055E+03  0.7818609E-02  0.9724088E-01
        1   -1    0    0  501    0  0.00000000000E+00  0.00000000000E+00  0.51681265200E+03  0.51681265202E+03  0.50400001928E-02 0. -1.
       -1   -1    0    0    0  501  0.00000000000E+00  0.00000000000E+00 -0.23433231663E+03  0.23433231669E+03  0.50400001928E-02 0.  1.
    10030    2    1    2    0    0  0.00000000000E+00  0.00000000000E+00  0.28248033536E+03  0.75114496871E+03  0.69600547710E+03 0.  0.
        4    1    3    3  502    0 -0.12977982153E+03 -0.21845878842E+03  0.39785304190E+03  0.47207594745E+03  0.12699999809E+01 0. -1.
       -4    1    3    3    0  502  0.12977982153E+03  0.21845878842E+03 -0.11537270653E+03  0.27906902126E+03  0.12699999809E+01 0.  1.
</event>
<event>
 5   0  0.2439375E-02  0.6983265E+03  0.7818609E-02  0.9720098E-01
       -3   -1    0    0    0  501  0.00000000000E+00  0.00000000000E+00  0.91738018770E+02  0.91738074369E+02  0.10100000352E+00 0.  1.
        3   -1    0    0  501    0  0.00000000000E+00  0.00000000000E+00 -0.13289466802E+04  0.13289466841E+04  0.10100000352E+00 0. -1.
    10030    2    1    2    0    0  0.00000000000E+00  0.00000000000E+00 -0.12372086615E+04  0.14206847584E+04  0.69832650735E+03 0.  0.
        4    1    3    3  502    0 -0.16480155412E+03 -0.18598117844E+03 -0.11176157481E+04  0.11449083476E+04  0.12699999809E+01 0. -1.
       -4    1    3    3    0  502  0.16480155412E+03  0.18598117844E+03 -0.11959291334E+03  0.27577641088E+03  0.12699999809E+01 0.  1.
</event>
<event>
 5   0  0.3439015E-02  0.7220763E+03  0.7818609E-02  0.9680206E-01
        1   -1    0    0  501    0  0.00000000000E+00  0.00000000000E+00  0.52774446385E+03  0.52774446388E+03  0.50400001928E-02 0. -1.
       -1   -1    0    0    0  501  0.00000000000E+00  0.00000000000E+00 -0.24699177249E+03  0.24699177254E+03  0.50400001928E-02 0.  1.
    10030    2    1    2    0    0  0.00000000000E+00  0.00000000000E+00  0.28075269136E+03  0.77473623642E+03  0.72207628566E+03 0.  0.
        1    1    3    3  502    0  0.10873179653E+03 -0.19026958078E+03  0.44822162550E+03  0.49892659033E+03  0.50400001928E-02 0. -1.
       -1    1    3    3    0  502 -0.10873179653E+03  0.19026958078E+03 -0.16746893414E+03  0.27580964609E+03  0.50400001928E-02 0.  1.
</event>
<event>
 5   0  0.5987810E-02  0.7053125E+03  0.7818609E-02  0.9708190E-01
        2   -1    0    0  501    0  0.00000000000E+00  0.00000000000E+00  0.15214552767E+03  0.15214552769E+03  0.25500000920E-02 0.  1.
       -2   -1    0    0    0  501  0.00000000000E+00  0.00000000000E+00 -0.81741754593E+03  0.81741754593E+03  0.25500000920E-02 0. -1.
    10030    2    1    2    0    0  0.00000000000E+00  0.00000000000E+00 -0.66527201826E+03  0.96956307362E+03  0.70531248072E+03 0.  0.
        5    1    3    3  502    0  0.10323011427E+03 -0.74545077351E+02 -0.78466826334E+03  0.79494641237E+03  0.46999998093E+01 0. -1.
       -5    1    3    3    0  502 -0.10323011427E+03  0.74545077351E+02  0.11939624508E+03  0.17461666125E+03  0.46999998093E+01 0.  1.
</event>
<event>
 5   0  0.6167756E-02  0.6959334E+03  0.7818609E-02  0.9724212E-01
       -2   -1    0    0    0  501  0.00000000000E+00  0.00000000000E+00  0.53962097241E+02  0.53962097301E+02  0.25500000920E-02 0. -1.
        2   -1    0    0  501    0  0.00000000000E+00  0.00000000000E+00 -0.22438125930E+04  0.22438125930E+04  0.25500000920E-02 0.  1.
    10030    2    1    2    0    0  0.00000000000E+00  0.00000000000E+00 -0.21898504958E+04  0.22977746903E+04  0.69593342614E+03 0.  0.
        4    1    3    3  502    0  0.24885806990E+03 -0.13395540473E+03 -0.17651397395E+04  0.17876225280E+04  0.12699999809E+01 0.  1.
       -4    1    3    3    0  502 -0.24885806990E+03  0.13395540473E+03 -0.42471075623E+03  0.51015216237E+03  0.12699999809E+01 0. -1.
</event>
<event>
 5   0  0.6131198E-02  0.6890880E+03  0.7818609E-02  0.9736077E-01
        2   -1    0    0  501    0  0.00000000000E+00  0.00000000000E+00  0.41139128027E+03  0.41139128028E+03  0.25500000920E-02 0. -1.
       -2   -1    0    0    0  501  0.00000000000E+00  0.00000000000E+00 -0.28855882395E+03  0.28855882397E+03  0.25500000920E-02 0.  1.
    10030    2    1    2    0    0  0.00000000000E+00  0.00000000000E+00  0.12283245632E+03  0.69995010425E+03  0.68908804670E+03 0.  0.
        1    1    3    3  502    0  0.21738177845E+03  0.14036057663E+03  0.29249873739E+03  0.39052713155E+03  0.50400001928E-02 0. -1.
       -1    1    3    3    0  502 -0.21738177845E+03 -0.14036057663E+03 -0.16966628107E+03  0.30942297270E+03  0.50400001928E-02 0.  1.
</event>
<event>
 5   0  0.6131198E-02  0.7302184E+03  0.7818609E-02  0.9666906E-01
        2   -1    0    0  501    0  0.00000000000E+00  0.00000000000E+00  0.15080990710E+04  0.15080990710E+04  0.25500000920E-02 0.  1.
       -2   -1    0    0    0  501  0.00000000000E+00  0.00000000000E+00 -0.88392558757E+02  0.88392558794E+02  0.25500000920E-02 0. -1.
    10030    2    1    2    0    0  0.00000000000E+00  0.00000000000E+00  0.14197065122E+04  0.15964916298E+04  0.73021842150E+03 0.  0.
        1    1    3    3  502    0 -0.43826124622E+02  0.59532095224E+02 -0.71859382559E+02  0.10309495840E+03  0.50400001928E-02 0. -1.
       -1    1    3    3    0  502  0.43826124622E+02 -0.59532095224E+02  0.14915658948E+04  0.14933966714E+04  0.50400001928E-02 0.  1.
</event>
<event>
 5   0  0.3755872E-02  0.7084858E+03  0.7818609E-02  0.9702829E-01
       -1   -1    0    0    0  501  0.00000000000E+00  0.00000000000E+00  0.45237297727E+03  0.45237297730E+03  0.50400001928E-02 0. -1.
        1   -1    0    0  501    0  0.00000000000E+00  0.00000000000E+00 -0.27739948792E+03  0.27739948796E+03  0.50400001928E-02 0.  1.
    10030    2    1    2    0    0  0.00000000000E+00  0.00000000000E+00  0.17497348936E+03  0.72977246526E+03  0.70848580020E+03 0.  0.
        2    1    3    3  502    0  0.94978981821E+02  0.67088368992E+02  0.43215377783E+03  0.44752513219E+03  0.25500000920E-02 0. -1.
       -2    1    3    3    0  502 -0.94978981821E+02 -0.67088368992E+02 -0.25718028847E+03  0.28224733308E+03  0.25500000920E-02 0.  1.
</event>
<event>
 5   0  0.3601475E-02  0.6851465E+03  0.7818609E-02  0.9742976E-01
        1   -1    0    0  501    0  0.00000000000E+00  0.00000000000E+00  0.12191482585E+04  0.12191482586E+04  0.50400001928E-02 0.  1.
       -1   -1    0    0    0  501  0.00000000000E+00  0.00000000000E+00 -0.96260992415E+02  0.96260992547E+02  0.50400001928E-02 0. -1.
    10030    2    1    2    0    0  0.00000000000E+00  0.00000000000E+00  0.11228872661E+04  0.13154092511E+04  0.68514647007E+03 0.  0.
        5    1    3    3  502    0 -0.18983512692E+03 -0.32198247345E+02  0.17532855899E+02  0.19340008681E+03  0.46999998093E+01 0. -1.
       -5    1    3    3    0  502  0.18983512692E+03  0.32198247345E+02  0.11053544102E+04  0.11220091643E+04  0.46999998093E+01 0.  1.
</event>
<event>
 5   0  0.5987810E-02  0.7030652E+03  0.7818609E-02  0.9712005E-01
        2   -1    0    0  501    0  0.00000000000E+00  0.00000000000E+00  0.29554655570E+03  0.29554655571E+03  0.25500000920E-02 0.  1.
       -2   -1    0    0    0  501  0.00000000000E+00  0.00000000000E+00 -0.41812422368E+03  0.41812422369E+03  0.25500000920E-02 0. -1.
    10030    2    1    2    0    0  0.00000000000E+00  0.00000000000E+00 -0.12257766798E+03  0.71367077940E+03  0.70306521510E+03 0.  0.
        5    1    3    3  502    0  0.55200683536E+00 -0.86794486865E+02 -0.40704329505E+03  0.41622100104E+03  0.46999998093E+01 0. -1.
       -5    1    3    3    0  502 -0.55200683536E+00  0.86794486865E+02  0.28446562707E+03  0.29744977836E+03  0.46999998093E+01 0.  1.
</event>
<event>
 5   0  0.3749730E-02  0.6975908E+03  0.7818609E-02  0.9721361E-01
       -1   -1    0    0    0  501  0.00000000000E+00  0.00000000000E+00  0.53183783811E+02  0.53183784050E+02  0.50400001928E-02 0.  1.
        1   -1    0    0  501    0  0.00000000000E+00  0.00000000000E+00 -0.22875060518E+04  0.22875060518E+04  0.50400001928E-02 0. -1.
    10030    2    1    2    0    0  0.00000000000E+00  0.00000000000E+00 -0.22343222680E+04  0.23406898358E+04  0.69759079010E+03 0.  0.
        4    1    3    3  502    0  0.14388709224E+03 -0.20528795438E+03 -0.19308692151E+04  0.19470758019E+04  0.12699999809E+01 0. -1.
       -4    1    3    3    0  502 -0.14388709224E+03  0.20528795438E+03 -0.30345305282E+03  0.39361403391E+03  0.12699999809E+01 0.  1.
</event>
<event>
 5   0  0.5899787E-02  0.6406920E+03  0.7818609E-02  0.9824403E-01
        2   -1    0    0  501    0  0.00000000000E+00  0.00000000000E+00  0.57238472797E+03  0.57238472798E+03  0.25500000920E-02 0.  1.
       -2   -1    0    0    0  501  0.00000000000E+00  0.00000000000E+00 -0.17928774092E+03  0.17928774094E+03  0.25500000920E-02 0. -1.
    10030    2    1    2    0    0  0.00000000000E+00  0.00000000000E+00  0.39309698705E+03  0.75167246892E+03  0.64069201595E+03 0.  0.
        2    1    3    3  502    0 -0.18053599010E+03  0.22345705442E+02 -0.11281017789E+03  0.21405305538E+03  0.25500000920E-02 0. -1.
       -2    1    3    3    0  502  0.18053599010E+03 -0.22345705442E+02  0.50590716494E+03  0.53761941354E+03  0.25500000920E-02 0.  1.
</event>
<event>
 5   0  0.3439015E-02  0.7105191E+03  0.7818609E-02  0.9699410E-01
       -1   -1    0    0    0  501  0.00000000000E+00  0.00000000000E+00  0.74357949792E+03  0.74357949793E+03  0.50400001928E-02 0. -1.
        1   -1    0    0  501    0  0.00000000000E+00  0.00000000000E+00 -0.16973215581E+03  0.16973215588E+03  0.50400001928E-02 0.  1.
    10030    2    1    2    0    0  0.00000000000E+00  0.00000000000E+00  0.57384734211E+03  0.91331165382E+03  0.71051910949E+03 0.  0.
        1    1    3    3  502    0  0.27217429220E+03 -0.13036733629E+03  0.45981748270E+02  0.30526842107E+03  0.50400001928E-02 0.  1.
       -1    1    3    3    0  502 -0.27217429220E+03  0.13036733629E+03  0.52786559384E+03  0.60804323275E+03  0.50400001928E-02 0. -1.
</event>
<event>
 5   0  0.6248886E-02  0.7332845E+03  0.7818609E-02  0.9661946E-01
       -2   -1    0    0    0  501  0.00000000000E+00  0.00000000000E+00  0.15648361992E+03  0.15648361995E+03  0.25500000920E-02 0. -1.
        2   -1    0    0  501    0  0.00000000000E+00  0.00000000000E+00 -0.85904535786E+03  0.85904535787E+03  0.25500000920E-02 0.  1.
    10030    2    1    2    0    0  0.00000000000E+00  0.00000000000E+00 -0.70256173794E+03  0.10155289778E+04  0.73328446674E+03 0.  0.
        3    1    3    3  502    0  0.31112811668E+03  0.18644564089E+03 -0.42539377428E+03  0.55903716817E+03  0.10100000352E+00 0. -1.
       -3    1    3    3    0  502 -0.31112811668E+03 -0.18644564089E+03 -0.27716796366E+03  0.45649180965E+03  0.10100000352E+00 0.  1.
</event>
<event>
 5   0  0.5987810E-02  0.7089477E+03  0.7818609E-02  0.9702052E-01
        2   -1    0    0  501    0  0.00000000000E+00  0.00000000000E+00  0.36254746581E+03  0.36254746582E+03  0.25500000920E-02 0. -1.
       -2   -1    0    0    0  501  0.00000000000E+00  0.00000000000E+00 -0.34658000154E+03  0.34658000155E+03  0.25500000920E-02 0.  1.
    10030    2    1    2    0    0  0.00000000000E+00  0.00000000000E+00  0.15967464267E+02  0.70912746737E+03  0.70894767442E+03 0.  0.
        5    1    3    3  502    0  0.29657158011E+03 -0.11446028028E+03 -0.14881620100E+03  0.35103306050E+03  0.46999998093E+01 0.  1.
       -5    1    3    3    0  502 -0.29657158011E+03  0.11446028028E+03  0.16478366527E+03  0.35809440686E+03  0.46999998093E+01 0. -1.
</event>
<event>
 5   0  0.3439015E-02  0.7057728E+03  0.7818609E-02  0.9707410E-01
        1   -1    0    0  501    0  0.00000000000E+00  0.00000000000E+00  0.20334416869E+03  0.20334416875E+03  0.50400001928E-02 0. -1.
       -1   -1    0    0    0  501  0.00000000000E+00  0.00000000000E+00 -0.61240421278E+03  0.61240421280E+03  0.50400001928E-02 0.  1.
    10030    2    1    2    0    0  0.00000000000E+00  0.00000000000E+00 -0.40906004409E+03  0.81574838156E+03  0.70577284047E+03 0.  0.
        1    1    3    3  502    0 -0.69914178717E+01 -0.34755933436E+03 -0.27466908953E+03  0.44304568567E+03  0.50400001928E-02 0. -1.
       -1    1    3    3    0  502  0.69914178717E+01  0.34755933436E+03 -0.13439095456E+03  0.37270269588E+03  0.50400001928E-02 0.  1.
</event>
<event>
 5   0  0.3749730E-02  0.6790035E+03  0.7818609E-02  0.9753828E-01
       -1   -1    0    0    0  501  0.00000000000E+00  0.00000000000E+00  0.14923453206E+03  0.14923453214E+03  0.50400001928E-02 0. -1.
        1   -1    0    0  501    0  0.00000000000E+00  0.00000000000E+00 -0.77235104256E+03  0.77235104257E+03  0.50400001928E-02 0.  1.
    10030    2    1    2    0    0  0.00000000000E+00  0.00000000000E+00 -0.62311651050E+03  0.92158557471E+03  0.67900352419E+03 0.  0.
        4    1    3    3  502    0  0.16511384444E+03  0.57562225261E+02 -0.70652807965E+03  0.72784581584E+03  0.12699999809E+01 0.  1.
       -4    1    3    3    0  502 -0.16511384444E+03 -0.57562225261E+02  0.83411569149E+02  0.19373975888E+03  0.12699999809E+01 0. -1.
</event>
<event>
 5   0  0.3601475E-02  0.6873256E+03  0.7818609E-02  0.9739156E-01
       -1   -1    0    0    0  501  0.00000000000E+00  0.00000000000E+00  0.40261638257E+03  0.40261638260E+03  0.50400001928E-02 0.  1.
        1   -1    0    0  501    0  0.00000000000E+00  0.00000000000E+00 -0.29334153802E+03  0.29334153807E+03  0.50400001928E-02 0. -1.
    10030    2    1    2    0    0  0.00000000000E+00  0.00000000000E+00  0.10927484455E+03  0.69595792067E+03  0.68732556747E+03 0.  0.
        5    1    3    3  502    0 -0.63003039536E+02 -0.17310770549E+03  0.34836055059E+03  0.39409748019E+03  0.46999998093E+01 0.  1.
       -5    1    3    3    0  502  0.63003039536E+02  0.17310770549E+03 -0.23908570605E+03  0.30186044047E+03  0.46999998093E+01 0. -1.
</event>
<event>
 5   0  0.3601475E-02  0.7174442E+03  0.7818609E-02  0.9687857E-01
       -1   -1    0    0    0  501  0.00000000000E+00  0.00000000000E+00  0.25472506429E+03  0.25472506434E+03  0.50400001928E-02 0.  1.
        1   -1    0    0  501    0  0.00000000000E+00  0.00000000000E+00 -0.50517812080E+03  0.50517812083E+03  0.50400001928E-02 0. -1.
    10030    2    1    2    0    0  0.00000000000E+00  0.00000000000E+00 -0.25045305651E+03  0.75990318516E+03  0.71744415623E+03 0.  0.
        5    1    3    3  502    0 -0.10911141205E+03 -0.42945265676E+02 -0.48427144169E+03  0.49828758294E+03  0.46999998093E+01 0. -1.
       -5    1    3    3    0  502  0.10911141205E+03  0.42945265676E+02  0.23381838517E+03  0.26161560222E+03  0.46999998093E+01 0.  1.
</event>
<event>
 5   0  0.5987810E-02  0.6883557E+03  0.7818609E-02  0.9737355E-01
       -2   -1    0    0    0  501  0.00000000000E+00  0.00000000000E+00  0.20983892764E+03  0.20983892765E+03  0.25500000920E-02 0. -1.
        2   -1    0    0  501    0  0.00000000000E+00  0.00000000000E+00 -0.56452060225E+03  0.56452060225E+03  0.25500000920E-02 0.  1.
    10030    2    1    2    0    0  0.00000000000E+00  0.00000000000E+00 -0.35468167461E+03  0.77435952991E+03  0.68835571564E+03 0.  0.
        5    1    3    3  502    0 -0.19473479533E+02  0.49092283765E+01 -0.56382475841E+03  0.56420188330E+03  0.46999998093E+01 0.  1.
       -5    1    3    3    0  502  0.19473479533E+02 -0.49092283765E+01  0.20914308380E+03  0.21015764661E+03  0.46999998093E+01 0. -1.
</event>
<event>
 5   0  0.5987810E-02  0.6989286E+03  0.7818609E-02  0.9719066E-01
       -2   -1    0    0    0  501  0.00000000000E+00  0.00000000000E+00  0.79940828583E+02  0.79940828623E+02  0.25500000920E-02 0. -1.
        2   -1    0    0  501    0  0.00000000000E+00  0.00000000000E+00 -0.15276963106E+04  0.15276963106E+04  0.25500000920E-02 0.  1.
    10030    2    1    2    0    0  0.00000000000E+00  0.00000000000E+00 -0.14477554820E+04  0.16076371392E+04  0.69892863419E+03 0.  0.
        5    1    3    3  502    0 -0.23867767396E+03 -0.11758349788E+03 -0.20285400620E+03  0.33461133999E+03  0.46999998093E+01 0. -1.
       -5    1    3    3    0  502  0.23867767396E+03  0.11758349788E+03 -0.12449014758E+04  0.12730257992E+04  0.46999998093E+01 0.  1.
</event>
<event>
 5   0  0.6248886E-02  0.7449271E+03  0.7818609E-02  0.9643343E-01
        2   -1    0    0  501    0  0.00000000000E+00  0.00000000000E+00  0.85796274120E+03  0.85796274121E+03  0.25500000920E-02 0. -1.
       -2   -1    0    0    0  501  0.00000000000E+00  0.00000000000E+00 -0.16169594345E+03  0.16169594347E+03  0.25500000920E-02 0.  1.
    10030    2    1    2    0    0  0.00000000000E+00  0.00000000000E+00  0.69626679775E+03  0.10196586847E+04  0.74492709683E+03 0.  0.
        3    1    3    3  502    0 -0.31725337835E+03 -0.13064543947E+03  0.54654448710E+03  0.64531296555E+03  0.10100000352E+00 0. -1.
       -3    1    3    3    0  502  0.31725337835E+03  0.13064543947E+03  0.14972231065E+03  0.37434571913E+03  0.10100000352E+00 0.  1.
</event>
<event>
 5   0  0.5987810E-02  0.6879911E+03  0.7818609E-02  0.9737992E-01
        2   -1    0    0  501    0  0.00000000000E+00  0.00000000000E+00  0.12784908382E+04  0.12784908382E+04  0.25500000920E-02 0. -1.
       -2   -1    0    0    0  501  0.00000000000E+00  0.00000000000E+00 -0.92556739391E+02  0.92556739426E+02  0.25500000920E-02 0.  1.
    10030    2    1    2    0    0  0.00000000000E+00  0.00000000000E+00  0.11859340988E+04  0.13710475777E+04  0.68799111434E+03 0.  0.
        5    1    3    3  502    0  0.12532025199E+03 -0.20550178538E+03  0.10330414542E+03  0.26197325400E+03  0.46999998093E+01 0.  1.
       -5    1    3    3    0  502 -0.12532025199E+03  0.20550178538E+03  0.10826299534E+04  0.11090743237E+04  0.46999998093E+01 0. -1.
</event>
<event>
 5   0  0.3755872E-02  0.7234198E+03  0.7818609E-02  0.9677999E-01
        1   -1    0    0  501    0  0.00000000000E+00  0.00000000000E+00  0.17369913384E+04  0.17369913384E+04  0.50400001928E-02 0. -1.
       -1   -1    0    0    0  501  0.00000000000E+00  0.00000000000E+00 -0.75322231251E+02  0.75322231420E+02  0.50400001928E-02 0.  1.
    10030    2    1    2    0    0  0.00000000000E+00  0.00000000000E+00  0.16616691071E+04  0.18123135698E+04  0.72341983227E+03 0.  0.
        2    1    3    3  502    0  0.14020929157E+03 -0.28714364573E+03  0.12554198718E+04  0.12954494098E+04  0.25500000920E-02 0. -1.
       -2    1    3    3    0  502 -0.14020929157E+03  0.28714364573E+03  0.40624923531E+03  0.51686416003E+03  0.25500000920E-02 0.  1.
</event>
<event>
 5   0  0.6248886E-02  0.7003085E+03  0.7818609E-02  0.9716705E-01
       -2   -1    0    0    0  501  0.00000000000E+00  0.00000000000E+00  0.58975894782E+02  0.58975894837E+02  0.25500000920E-02 0.  1.
        2   -1    0    0  501    0  0.00000000000E+00  0.00000000000E+00 -0.20789511505E+04  0.20789511505E+04  0.25500000920E-02 0. -1.
    10030    2    1    2    0    0  0.00000000000E+00  0.00000000000E+00 -0.20199752557E+04  0.21379270453E+04  0.70030851592E+03 0.  0.
        3    1    3    3  502    0  0.21695369625E+03 -0.26807820954E+03 -0.82496558108E+03  0.89414934598E+03  0.10100000352E+00 0. -1.
       -3    1    3    3    0  502 -0.21695369625E+03  0.26807820954E+03 -0.11950096746E+04  0.12437776993E+04  0.10100000352E+00 0.  1.
</event>
<event>
 5   0  0.5899787E-02  0.7020200E+03  0.7818609E-02  0.9713784E-01
        2   -1    0    0  501    0  0.00000000000E+00  0.00000000000E+00  0.58204360645E+03  0.58204360646E+03  0.25500000920E-02 0. -1.
       -2   -1    0    0    0  501  0.00000000000E+00  0.00000000000E+00 -0.21168176787E+03  0.21168176789E+03  0.25500000920E-02 0.  1.
    10030    2    1    2    0    0  0.00000000000E+00  0.00000000000E+00  0.37036183859E+03  0.79372537435E+03  0.70201999858E+03 0.  0.
        2    1    3    3  502    0 -0.20599605422E+03 -0.20982230057E+03 -0.31559094212E+02  0.29572918119E+03  0.25500000920E-02 0.  1.
       -2    1    3    3    0  502  0.20599605422E+03  0.20982230057E+03  0.40192093280E+03  0.49799619316E+03  0.25500000920E-02 0. -1.
</event>
<event>
 5   0  0.6248886E-02  0.6915451E+03  0.7818609E-02  0.9731801E-01
        2   -1    0    0  501    0  0.00000000000E+00  0.00000000000E+00  0.30207837301E+03  0.30207837302E+03  0.25500000920E-02 0.  1.
       -2   -1    0    0    0  501  0.00000000000E+00  0.00000000000E+00 -0.39578683414E+03  0.39578683415E+03  0.25500000920E-02 0. -1.
    10030    2    1    2    0    0  0.00000000000E+00  0.00000000000E+00 -0.93708461131E+02  0.69786520717E+03  0.69154506122E+03 0.  0.
        3    1    3    3  502    0  0.25083442554E+02 -0.32666444742E+02 -0.39330268125E+03  0.39545326523E+03  0.10100000352E+00 0. -1.
       -3    1    3    3    0  502 -0.25083442554E+02  0.32666444742E+02  0.29959422012E+03  0.30241194194E+03  0.10100000352E+00 0.  1.
</event>
<event>
 5   0  0.2439375E-02  0.6384799E+03  0.7818609E-02  0.9828639E-01
        4   -1    0    0  501    0  0.00000000000E+00  0.00000000000E+00  0.55967359775E+03  0.55967503868E+03  0.12699999809E+01 0.  1.
       -4   -1    0    0    0  501  0.00000000000E+00  0.00000000000E+00 -0.18209177172E+03  0.18209620048E+03  0.12699999809E+01 0. -1.
    10030    2    1    2    0    0  0.00000000000E+00  0.00000000000E+00  0.37758182603E+03  0.74177123916E+03  0.63847986334E+03 0.  0.
        3    1    3    3  502    0  0.16205517061E+03 -0.18014115428E+03 -0.52683848681E+02  0.24796836875E+03  0.10100000352E+00 0. -1.
       -3    1    3    3    0  502 -0.16205517061E+03  0.18014115428E+03  0.43026567472E+03  0.49380287041E+03  0.10100000352E+00 0.  1.
</event>
<event>
 5   0  0.5899787E-02  0.6930182E+03  0.7818609E-02  0.9729247E-01
       -2   -1    0    0    0  501  0.00000000000E+00  0.00000000000E+00  0.10772158966E+03  0.10772158969E+03  0.25500000920E-02 0.  1.
        2   -1    0    0  501    0  0.00000000000E+00  0.00000000000E+00 -0.11146192521E+04  0.11146192521E+04  0.25500000920E-02 0. -1.
    10030    2    1    2    0    0  0.00000000000E+00  0.00000000000E+00 -0.10068976624E+04  0.12223408418E+04  0.69301820385E+03 0.  0.
        2    1    3    3  502    0  0.32993937059E+03  0.56069353847E+02 -0.66184490067E+03  0.74164845666E+03  0.25500000920E-02 0. -1.
       -2    1    3    3    0  502 -0.32993937059E+03 -0.56069353847E+02 -0.34505276176E+03  0.48069238512E+03  0.25500000920E-02 0.  1.
</event>
<event>
 5   0  0.3755872E-02  0.7108035E+03  0.7818609E-02  0.9698933E-01
       -1   -1    0    0    0  501  0.00000000000E+00  0.00000000000E+00  0.31381461091E+03  0.31381461095E+03  0.50400001928E-02 0.  1.
        1   -1    0    0  501    0  0.00000000000E+00  0.00000000000E+00 -0.40250001927E+03  0.40250001930E+03  0.50400001928E-02 0. -1.
    10030    2    1    2    0    0  0.00000000000E+00  0.00000000000E+00 -0.88685408352E+02  0.71631463025E+03  0.71080345234E+03 0.  0.
        2    1    3    3  502    0 -0.49843540851E+02  0.27468819818E+03 -0.26598524517E+03  0.38559841213E+03  0.25500000920E-02 0. -1.
       -2    1    3    3    0  502  0.49843540851E+02 -0.27468819818E+03  0.17729983682E+03  0.33071621812E+03  0.25500000920E-02 0.  1.
</event>
<event>
 5   0  0.3755872E-02  0.7029512E+03  0.7818609E-02  0.9712199E-01
       -1   -1    0    0    0  501  0.00000000000E+00  0.00000000000E+00  0.21080550478E+03  0.21080550484E+03  0.50400001928E-02 0. -1.
        1   -1    0    0  501    0  0.00000000000E+00  0.00000000000E+00 -0.58601456355E+03  0.58601456357E+03  0.50400001928E-02 0.  1.
    10030    2    1    2    0    0  0.00000000000E+00  0.00000000000E+00 -0.37520905877E+03  0.79682006841E+03  0.70295119577E+03 0.  0.
        2    1    3    3  502    0  0.10275783407E+03 -0.28018914295E+03  0.22848667456E+02  0.29931119241E+03  0.25500000920E-02 0. -1.
       -2    1    3    3    0  502 -0.10275783407E+03  0.28018914295E+03 -0.39805772623E+03  0.49750887601E+03  0.25500000920E-02 0.  1.
</event>
<event>
 5   0  0.6167756E-02  0.6864303E+03  0.7818609E-02  0.9740724E-01
       -2   -1    0    0    0  501  0.00000000000E+00  0.00000000000E+00  0.77468235431E+03  0.77468235431E+03  0.25500000920E-02 0. -1.
        2   -1    0    0  501    0  0.00000000000E+00  0.00000000000E+00 -0.15205796742E+03  0.15205796744E+03  0.25500000920E-02 0.  1.
    10030    2    1    2    0    0  0.00000000000E+00  0.00000000000E+00  0.62262438689E+03  0.92674032175E+03  0.68643025634E+03 0.  0.
        4    1    3    3  502    0 -0.11386105690E+03  0.15400247502E+03 -0.73199282496E+02  0.20503865599E+03  0.12699999809E+01 0.  1.
       -4    1    3    3    0  502  0.11386105690E+03 -0.15400247502E+03  0.69582366938E+03  0.72170166576E+03  0.12699999809E+01 0. -1.
</event>
<event>
 5   0  0.2439375E-02  0.6980553E+03  0.7818609E-02  0.9720564E-01
       -3   -1    0    0    0  501  0.00000000000E+00  0.00000000000E+00  0.10035325725E+03  0.10035330808E+03  0.10100000352E+00 0. -1.
        3   -1    0    0  501    0  0.00000000000E+00  0.00000000000E+00 -0.12139143770E+04  0.12139143812E+04  0.10100000352E+00 0.  1.
    10030    2    1    2    0    0  0.00000000000E+00  0.00000000000E+00 -0.11135611198E+04  0.13142676893E+04  0.69805529271E+03 0.  0.
        5    1    3    3  502    0 -0.81399689115E+01 -0.10928186770E+03 -0.11806220520E+04  0.11857062475E+04  0.46999998093E+01 0.  1.
       -5    1    3    3    0  502  0.81399689115E+01  0.10928186770E+03  0.67060932197E+02  0.12856144183E+03  0.46999998093E+01 0. -1.
</event>
<event>
 5   0  0.3717372E-02  0.7030751E+03  0.7818609E-02  0.9711988E-01
        1   -1    0    0  501    0  0.00000000000E+00  0.00000000000E+00  0.48815761097E+03  0.48815761099E+03  0.50400001928E-02 0. -1.
       -1   -1    0    0    0  501  0.00000000000E+00  0.00000000000E+00 -0.25315317761E+03  0.25315317766E+03  0.50400001928E-02 0.  1.
    10030    2    1    2    0    0  0.00000000000E+00  0.00000000000E+00  0.23500443336E+03  0.74131078865E+03  0.70307510387E+03 0.  0.
        3    1    3    3  502    0  0.13051912966E+03  0.17144025700E+03  0.41036970917E+03  0.46349791082E+03  0.10100000352E+00 0. -1.
       -3    1    3    3    0  502 -0.13051912966E+03 -0.17144025700E+03 -0.17536527581E+03  0.27781287784E+03  0.10100000352E+00 0.  1.
</event>
<event>
 5   0  0.2439375E-02  0.7173557E+03  0.7818609E-02  0.9688004E-01
       -4   -1    0    0    0  501  0.00000000000E+00  0.00000000000E+00  0.75423386132E+03  0.75423493055E+03  0.12699999809E+01 0.  1.
        4   -1    0    0  501    0  0.00000000000E+00  0.00000000000E+00 -0.17056661613E+03  0.17057134413E+03  0.12699999809E+01 0. -1.
    10030    2    1    2    0    0  0.00000000000E+00  0.00000000000E+00  0.58366724519E+03  0.92480627467E+03  0.71735569460E+03 0.  0.
        4    1    3    3  502    0  0.28033733305E+03  0.21367587630E+03  0.20630122975E+03  0.40842160902E+03  0.12699999809E+01 0. -1.
       -4    1    3    3    0  502 -0.28033733305E+03 -0.21367587630E+03  0.37736601544E+03  0.51638466565E+03  0.12699999809E+01 0.  1.
</event>
<event>
 5   0  0.6131198E-02  0.8121361E+03  0.7818609E-02  0.9542615E-01
       -2   -1    0    0    0  501  0.00000000000E+00  0.00000000000E+00  0.18016980665E+03  0.18016980667E+03  0.25500000920E-02 0. -1.
        2   -1    0    0  501    0  0.00000000000E+00  0.00000000000E+00 -0.91519916853E+03  0.91519916853E+03  0.25500000920E-02 0.  1.
    10030    2    1    2    0    0  0.00000000000E+00  0.00000000000E+00 -0.73502936188E+03  0.10953689752E+04  0.81213609020E+03 0.  0.
        1    1    3    3  502    0 -0.19116866075E+03 -0.11863883568E+03 -0.82344548020E+03  0.85362936282E+03  0.50400001928E-02 0.  1.
       -1    1    3    3    0  502  0.19116866075E+03  0.11863883568E+03  0.88416118324E+02  0.24173961238E+03  0.50400001928E-02 0. -1.
</event>
<event>
 5   0  0.6248886E-02  0.6738318E+03  0.7818609E-02  0.9763060E-01
        2   -1    0    0  501    0  0.00000000000E+00  0.00000000000E+00  0.22399650003E+04  0.22399650003E+04  0.25500000920E-02 0. -1.
       -2   -1    0    0    0  501  0.00000000000E+00  0.00000000000E+00 -0.50675938994E+02  0.50675939058E+02  0.25500000920E-02 0.  1.
    10030    2    1    2    0    0  0.00000000000E+00  0.00000000000E+00  0.21892890613E+04  0.22906409394E+04  0.67383181812E+03 0.  0.
        3    1    3    3  502    0  0.69619154891E+02  0.25819414657E+03  0.17913299858E+04  0.18111803257E+04  0.10100000352E+00 0. -1.
       -3    1    3    3    0  502 -0.69619154891E+02 -0.25819414657E+03  0.39795907549E+03  0.47946061362E+03  0.10100000352E+00 0.  1.
</event>
<event>
 5   0  0.5899787E-02  0.6988366E+03  0.7818609E-02  0.9719224E-01
        2   -1    0    0  501    0  0.00000000000E+00  0.00000000000E+00  0.12887756402E+04  0.12887756402E+04  0.25500000920E-02 0. -1.
       -2   -1    0    0    0  501  0.00000000000E+00  0.00000000000E+00 -0.94735760620E+02  0.94735760654E+02  0.25500000920E-02 0.  1.
    10030    2    1    2    0    0  0.00000000000E+00  0.00000000000E+00  0.11940398795E+04  0.13835114008E+04  0.69883657765E+03 0.  0.
        2    1    3    3  502    0 -0.22045687022E+02  0.23181032509E+03  0.11127822026E+04  0.11368844574E+04  0.25500000920E-02 0. -1.
       -2    1    3    3    0  502  0.22045687022E+02 -0.23181032509E+03  0.81257676948E+02  0.24662694339E+03  0.25500000920E-02 0.  1.
</event>
<event>
 5   0  0.3439015E-02  0.6908970E+03  0.7818609E-02  0.9732927E-01
        1   -1    0    0  501    0  0.00000000000E+00  0.00000000000E+00  0.85133000080E+03  0.85133000082E+03  0.50400001928E-02 0.  1.
       -1   -1    0    0    0  501  0.00000000000E+00  0.00000000000E+00 -0.14017437995E+03  0.14017438004E+03  0.50400001928E-02 0. -1.
    10030    2    1    2    0    0  0.00000000000E+00  0.00000000000E+00  0.71115562085E+03  0.99150438086E+03  0.69089696786E+03 0.  0.
        1    1    3    3  502    0  0.18400808741E+03  0.10642250426E+02 -0.63712391079E+02  0.19501667244E+03  0.50400001928E-02 0. -1.
       -1    1    3    3    0  502 -0.18400808741E+03 -0.10642250426E+02  0.77486801193E+03  0.79648770842E+03  0.50400001928E-02 0.  1.
</event>
<event>
 5   0  0.6167756E-02  0.6850489E+03  0.7818609E-02  0.9743148E-01
        2   -1    0    0  501    0  0.00000000000E+00  0.00000000000E+00  0.76621974197E+03  0.76621974197E+03  0.25500000920E-02 0. -1.
       -2   -1    0    0    0  501  0.00000000000E+00  0.00000000000E+00 -0.15311925236E+03  0.15311925238E+03  0.25500000920E-02 0.  1.
    10030    2    1    2    0    0  0.00000000000E+00  0.00000000000E+00  0.61310048961E+03  0.91933899436E+03  0.68504888599E+03 0.  0.
        4    1    3    3  502    0  0.17319877119E+03 -0.13256588585E+03 -0.47875911090E+02  0.22330527132E+03  0.12699999809E+01 0.  1.
       -4    1    3    3    0  502 -0.17319877119E+03  0.13256588585E+03  0.66097640070E+03  0.69603372304E+03  0.12699999809E+01 0. -1.
</event>
<event>
 5   0  0.3439015E-02  0.7003101E+03  0.7818609E-02  0.9716702E-01
        1   -1    0    0  501    0  0.00000000000E+00  0.00000000000E+00  0.14256580709E+04  0.14256580709E+04  0.50400001928E-02 0.  1.
       -1   -1    0    0    0  501  0.00000000000E+00  0.00000000000E+00 -0.86001389036E+02  0.86001389183E+02  0.50400001928E-02 0. -1.
    10030    2    1    2    0    0  0.00000000000E+00  0.00000000000E+00  0.13396566819E+04  0.15116594601E+04  0.70031014417E+03 0.  0.
        1    1    3    3  502    0 -0.33798416962E+03  0.13095578783E+02  0.47431761499E+03  0.58256501184E+03  0.50400001928E-02 0. -1.
       -1    1    3    3    0  502  0.33798416962E+03 -0.13095578783E+02  0.86533906688E+03  0.92909444826E+03  0.50400001928E-02 0.  1.
</event>
<event>
 5   0  0.6248886E-02  0.6883109E+03  0.7818609E-02  0.9737434E-01
        2   -1    0    0  501    0  0.00000000000E+00  0.00000000000E+00  0.46373033561E+03  0.46373033561E+03  0.25500000920E-02 0. -1.
       -2   -1    0    0    0  501  0.00000000000E+00  0.00000000000E+00 -0.25541343252E+03  0.25541343254E+03  0.25500000920E-02 0.  1.
    10030    2    1    2    0    0  0.00000000000E+00  0.00000000000E+00  0.20831690308E+03  0.71914376815E+03  0.68831085067E+03 0.  0.
        3    1    3    3  502    0 -0.13446330646E+03  0.46780492041E+02  0.43152152043E+03  0.45440029491E+03  0.10100000352E+00 0. -1.
       -3    1    3    3    0  502  0.13446330646E+03 -0.46780492041E+02 -0.22320461734E+03  0.26474347324E+03  0.10100000352E+00 0.  1.
</event>
<event>
 5   0  0.6248886E-02  0.7154062E+03  0.7818609E-02  0.9691242E-01
        2   -1    0    0  501    0  0.00000000000E+00  0.00000000000E+00  0.45007650399E+03  0.45007650400E+03  0.25500000920E-02 0. -1.
       -2   -1    0    0    0  501  0.00000000000E+00  0.00000000000E+00 -0.28428835460E+03  0.28428835461E+03  0.25500000920E-02 0.  1.
    10030    2    1    2    0    0  0.00000000000E+00  0.00000000000E+00  0.16578814939E+03  0.73436485861E+03  0.71540620285E+03 0.  0.
        3    1    3    3  502    0 -0.22351204138E+03  0.25771512750E+03  0.19334085403E+03  0.39211658422E+03  0.10100000352E+00 0. -1.
       -3    1    3    3    0  502  0.22351204138E+03 -0.25771512750E+03 -0.27552704634E+02  0.34224827438E+03  0.10100000352E+00 0.  1.
</event>
<event>
 5   0  0.3749730E-02  0.6869305E+03  0.7818609E-02  0.9739848E-01
        1   -1    0    0  501    0  0.00000000000E+00  0.00000000000E+00  0.19948628017E+04  0.19948628017E+04  0.50400001928E-02 0.  1.
       -1   -1    0    0    0  501  0.00000000000E+00  0.00000000000E+00 -0.59136082958E+02  0.59136083173E+02  0.50400001928E-02 0. -1.
    10030    2    1    2    0    0  0.00000000000E+00  0.00000000000E+00  0.19357267187E+04  0.20539988848E+04  0.68693048369E+03 0.  0.
        4    1    3    3  502    0  0.12224686551E+03  0.78611838273E+02  0.37354035606E+02  0.15007016399E+03  0.12699999809E+01 0. -1.
       -4    1    3    3    0  502 -0.12224686551E+03 -0.78611838273E+02  0.18983726831E+04  0.19039287208E+04  0.12699999809E+01 0.  1.
</event>
<event>
 5   0  0.3439015E-02  0.7052681E+03  0.7818609E-02  0.9708265E-01
        1   -1    0    0  501    0  0.00000000000E+00  0.00000000000E+00  0.40132691620E+03  0.40132691623E+03  0.50400001928E-02 0.  1.
       -1   -1    0    0    0  501  0.00000000000E+00  0.00000000000E+00 -0.30984908157E+03  0.30984908161E+03  0.50400001928E-02 0. -1.
    10030    2    1    2    0    0  0.00000000000E+00  0.00000000000E+00  0.91477834626E+02  0.71117599784E+03  0.70526810907E+03 0.  0.
        1    1    3    3  502    0  0.13095251419E+03 -0.97602859219E+02 -0.26941052959E+03  0.31505065082E+03  0.50400001928E-02 0. -1.
       -1    1    3    3    0  502 -0.13095251419E+03  0.97602859219E+02  0.36088836422E+03  0.39612534702E+03  0.50400001928E-02 0.  1.
</event>
<event>
 5   0  0.6131198E-02  0.7213544E+03  0.7818609E-02  0.9681395E-01
       -2   -1    0    0    0  501  0.00000000000E+00  0.00000000000E+00  0.13066342191E+03  0.13066342193E+03  0.25500000920E-02 0. -1.
        2   -1    0    0  501    0  0.00000000000E+00  0.00000000000E+00 -0.99559634777E+03  0.99559634777E+03  0.25500000920E-02 0.  1.
    10030    2    1    2    0    0  0.00000000000E+00  0.00000000000E+00 -0.86493292586E+03  0.11262597697E+04  0.72135435302E+03 0.  0.
        1    1    3    3  502    0  0.73367891309E+02  0.34895411925E+03 -0.34786404188E+03  0.49815782287E+03  0.50400001928E-02 0. -1.
       -1    1    3    3    0  502 -0.73367891309E+02 -0.34895411925E+03 -0.51706888398E+03  0.62810194684E+03  0.50400001928E-02 0.  1.
</event>
<event>
 5   0  0.3755872E-02  0.7038615E+03  0.7818609E-02  0.9710651E-01
        1   -1    0    0  501    0  0.00000000000E+00  0.00000000000E+00  0.13752267886E+03  0.13752267895E+03  0.50400001928E-02 0.  1.
       -1   -1    0    0    0  501  0.00000000000E+00  0.00000000000E+00 -0.90061698827E+03  0.90061698828E+03  0.50400001928E-02 0. -1.
    10030    2    1    2    0    0  0.00000000000E+00  0.00000000000E+00 -0.76309430941E+03  0.10381396672E+04  0.70386152305E+03 0.  0.
        2    1    3    3  502    0 -0.14492044849E+03  0.59365584250E+02 -0.84639059411E+03  0.86075736813E+03  0.25500000920E-02 0. -1.
       -2    1    3    3    0  502  0.14492044849E+03 -0.59365584250E+02  0.83296284701E+02  0.17738229911E+03  0.25500000920E-02 0.  1.
</event>
<event>
 5   0  0.5987810E-02  0.5371980E+03  0.7818609E-02  0.1004501E+00
       -2   -1    0    0    0  501  0.00000000000E+00  0.00000000000E+00  0.85048671953E+02  0.85048671991E+02  0.25500000920E-02 0. -1.
        2   -1    0    0  501    0  0.00000000000E+00  0.00000000000E+00 -0.84828408159E+03  0.84828408159E+03  0.25500000920E-02 0.  1.
    10030    2    1    2    0    0  0.00000000000E+00  0.00000000000E+00 -0.76323540963E+03  0.93333275358E+03  0.53719804392E+03 0.  0.
        5    1    3    3  502    0  0.13603301090E+03 -0.14390541970E+03 -0.66434293806E+02  0.20892428118E+03  0.46999998093E+01 0. -1.
       -5    1    3    3    0  502 -0.13603301090E+03  0.14390541970E+03 -0.69680111583E+03  0.72440847240E+03  0.46999998093E+01 0.  1.
</event>
<event>
 5   0  0.3755872E-02  0.7024536E+03  0.7818609E-02  0.9713045E-01
       -1   -1    0    0    0  501  0.00000000000E+00  0.00000000000E+00  0.12208895010E+03  0.12208895020E+03  0.50400001928E-02 0. -1.
        1   -1    0    0  501    0  0.00000000000E+00  0.00000000000E+00 -0.10104129287E+04  0.10104129287E+04  0.50400001928E-02 0.  1.
    10030    2    1    2    0    0  0.00000000000E+00  0.00000000000E+00 -0.88832397863E+03  0.11325018789E+04  0.70245356772E+03 0.  0.
        2    1    3    3  502    0 -0.33960701407E+03  0.69608633944E+02 -0.35321900602E+03  0.49491610617E+03  0.25500000920E-02 0.  1.
       -2    1    3    3    0  502  0.33960701407E+03 -0.69608633944E+02 -0.53510497261E+03  0.63758577277E+03  0.25500000920E-02 0. -1.
</event>
<event>
 5   0  0.3601475E-02  0.7010654E+03  0.7818609E-02  0.9715412E-01
        1   -1    0    0  501    0  0.00000000000E+00  0.00000000000E+00  0.45912525578E+03  0.45912525580E+03  0.50400001928E-02 0. -1.
       -1   -1    0    0    0  501  0.00000000000E+00  0.00000000000E+00 -0.26762450024E+03  0.26762450028E+03  0.50400001928E-02 0.  1.
    10030    2    1    2    0    0  0.00000000000E+00  0.00000000000E+00  0.19150075554E+03  0.72674975609E+03  0.70106538112E+03 0.  0.
        5    1    3    3  502    0  0.22733011633E+02  0.33403820595E+03  0.20324492523E+03  0.39170001594E+03  0.46999998093E+01 0. -1.
       -5    1    3    3    0  502 -0.22733011633E+02 -0.33403820595E+03 -0.11744169695E+02  0.33504974015E+03  0.46999998093E+01 0.  1.
</event>
<event>
 5   0  0.3439015E-02  0.6980546E+03  0.7818609E-02  0.9720565E-01
        1   -1    0    0  501    0  0.00000000000E+00  0.00000000000E+00  0.84378207221E+03  0.84378207222E+03  0.50400001928E-02 0.  1.
       -1   -1    0    0    0  501  0.00000000000E+00  0.00000000000E+00 -0.14437381922E+03  0.14437381930E+03  0.50400001928E-02 0. -1.
    10030    2    1    2    0    0  0.00000000000E+00  0.00000000000E+00  0.69940825299E+03  0.98815589153E+03  0.69805455489E+03 0.  0.
        1    1    3    3  502    0 -0.18271918731E+03 -0.13171064095E+03  0.72712705340E+03  0.76121465183E+03  0.50400001928E-02 0.  1.
       -1    1    3    3    0  502  0.18271918731E+03  0.13171064095E+03 -0.27718800410E+02  0.22694123969E+03  0.50400001928E-02 0. -1.
</event>
<event>
 5   0  0.5987810E-02  0.6945854E+03  0.7818609E-02  0.9726537E-01
       -2   -1    0    0    0  501  0.00000000000E+00  0.00000000000E+00  0.30305050019E+03  0.30305050020E+03  0.25500000920E-02 0.  1.
        2   -1    0    0  501    0  0.00000000000E+00  0.00000000000E+00 -0.39799378895E+03  0.39799378895E+03  0.25500000920E-02 0. -1.
    10030    2    1    2    0    0  0.00000000000E+00  0.00000000000E+00 -0.94943288756E+02  0.70104428915E+03  0.69458539236E+03 0.  0.
        5    1    3    3  502    0  0.39952717141E+02 -0.34157331285E+03 -0.96102460564E+02  0.35710827572E+03  0.46999998093E+01 0. -1.
       -5    1    3    3    0  502 -0.39952717141E+02  0.34157331285E+03  0.11591718080E+01  0.34393601344E+03  0.46999998093E+01 0.  1.
</event>
<event>
 5   0  0.3755872E-02  0.7082382E+03  0.7818609E-02  0.9703247E-01
       -1   -1    0    0    0  501  0.00000000000E+00  0.00000000000E+00  0.20494240099E+03  0.20494240106E+03  0.50400001928E-02 0. -1.
        1   -1    0    0  501    0  0.00000000000E+00  0.00000000000E+00 -0.61188093645E+03  0.61188093647E+03  0.50400001928E-02 0.  1.
    10030    2    1    2    0    0  0.00000000000E+00  0.00000000000E+00 -0.40693853546E+03  0.81682333753E+03  0.70823823188E+03 0.  0.
        2    1    3    3  502    0 -0.21629291728E+03 -0.11687655671E+03  0.90474144513E+02  0.26197008686E+03  0.25500000920E-02 0. -1.
       -2    1    3    3    0  502  0.21629291728E+03  0.11687655671E+03 -0.49741267997E+03  0.55485325067E+03  0.25500000920E-02 0.  1.
</event>
<event>
 5   0  0.3717372E-02  0.7015708E+03  0.7818609E-02  0.9714550E-01
        1   -1    0    0  501    0  0.00000000000E+00  0.00000000000E+00  0.10019963532E+04  0.10019963532E+04  0.50400001928E-02 0.  1.
       -1   -1    0    0    0  501  0.00000000000E+00  0.00000000000E+00 -0.12280522296E+03  0.12280522306E+03  0.50400001928E-02 0. -1.
    10030    2    1    2    0    0  0.00000000000E+00  0.00000000000E+00  0.87919113025E+03  0.11248015763E+04  0.70157076800E+03 0.  0.
        3    1    3    3  502    0 -0.76396350092E+02  0.24772518649E+03  0.60715928171E+02  0.26625289569E+03  0.10100000352E+00 0. -1.
       -3    1    3    3    0  502  0.76396350092E+02 -0.24772518649E+03  0.81847520208E+03  0.85854868059E+03  0.10100000352E+00 0.  1.
</event>
<event>
 5   0  0.6248886E-02  0.7064454E+03  0.7818609E-02  0.9706273E-01
       -2   -1    0    0    0  501  0.00000000000E+00  0.00000000000E+00  0.10372710647E+03  0.10372710650E+03  0.25500000920E-02 0. -1.
        2   -1    0    0  501    0  0.00000000000E+00  0.00000000000E+00 -0.12028319119E+04  0.12028319119E+04  0.25500000920E-02 0.  1.
    10030    2    1    2    0    0  0.00000000000E+00  0.00000000000E+00 -0.10991048054E+04  0.13065590184E+04  0.70644539438E+03 0.  0.
        3    1    3    3  502    0  0.16473646213E+03  0.26031338583E+03 -0.22993351122E+03  0.38440940491E+03  0.10100000352E+00 0. -1.
       -3    1    3    3    0  502 -0.16473646213E+03 -0.26031338583E+03 -0.86917129419E+03  0.92214961348E+03  0.10100000352E+00 0.  1.
</event>
<event>
 5   0  0.5987810E-02  0.7011281E+03  0.7818609E-02  0.9715305E-01
        2   -1    0    0  501    0  0.00000000000E+00  0.00000000000E+00  0.10934823881E+04  0.10934823881E+04  0.25500000920E-02 0. -1.
       -2   -1    0    0    0  501  0.00000000000E+00  0.00000000000E+00 -0.11238877898E+03  0.11238877900E+03  0.25500000920E-02 0.  1.
    10030    2    1    2    0    0  0.00000000000E+00  0.00000000000E+00  0.98109360909E+03  0.12058711671E+04  0.70112809228E+03 0.  0.
        5    1    3    3  502    0 -0.79160126801E+02 -0.62260393546E+02 -0.86916011777E+02  0.13311335538E+03  0.46999998093E+01 0.  1.
       -5    1    3    3    0  502  0.79160126801E+02  0.62260393546E+02  0.10680096209E+04  0.10727578117E+04  0.46999998093E+01 0. -1.
</event>
<event>
 5   0  0.6131198E-02  0.7058293E+03  0.7818609E-02  0.9707315E-01
        2   -1    0    0  501    0  0.00000000000E+00  0.00000000000E+00  0.13594714064E+04  0.13594714064E+04  0.25500000920E-02 0. -1.
       -2   -1    0    0    0  501  0.00000000000E+00  0.00000000000E+00 -0.91615577469E+02  0.91615577505E+02  0.25500000920E-02 0.  1.
    10030    2    1    2    0    0  0.00000000000E+00  0.00000000000E+00  0.12678558290E+04  0.14510869840E+04  0.70582932209E+03 0.  0.
        1    1    3    3  502    0  0.90796537425E+02 -0.29166798092E+03  0.99726629605E+03  0.10430025348E+04  0.50400001928E-02 0. -1.
       -1    1    3    3    0  502 -0.90796537425E+02  0.29166798092E+03  0.27058953293E+03  0.40808444917E+03  0.50400001928E-02 0.  1.
</event>
<event>
 5   0  0.3749730E-02  0.6894072E+03  0.7818609E-02  0.9735521E-01
       -1   -1    0    0    0  501  0.00000000000E+00  0.00000000000E+00  0.95979967316E+02  0.95979967448E+02  0.50400001928E-02 0.  1.
        1   -1    0    0  501    0  0.00000000000E+00  0.00000000000E+00 -0.12379725276E+04  0.12379725276E+04  0.50400001928E-02 0. -1.
    10030    2    1    2    0    0  0.00000000000E+00  0.00000000000E+00 -0.11419925602E+04  0.13339524950E+04  0.68940717382E+03 0.  0.
        4    1    3    3  502    0 -0.28028754988E+03 -0.13472023834E+03 -0.28329472628E+03  0.42067584679E+03  0.12699999809E+01 0. -1.
       -4    1    3    3    0  502  0.28028754988E+03  0.13472023834E+03 -0.85869783397E+03  0.91327664823E+03  0.12699999809E+01 0.  1.
</event>
<event>
 5   0  0.3717372E-02  0.7228973E+03  0.7818609E-02  0.9678857E-01
        1   -1    0    0  501    0  0.00000000000E+00  0.00000000000E+00  0.10652592158E+04  0.10652592158E+04  0.50400001928E-02 0.  1.
       -1   -1    0    0    0  501  0.00000000000E+00  0.00000000000E+00 -0.12264164063E+03  0.12264164073E+03  0.50400001928E-02 0. -1.
    10030    2    1    2    0    0  0.00000000000E+00  0.00000000000E+00  0.94261757519E+03  0.11879008566E+04  0.72289733154E+03 0.  0.
        3    1    3    3  502    0 -0.29182498458E+03 -0.16126245909E+02  0.12185925769E+03  0.31665685894E+03  0.10100000352E+00 0. -1.
       -3    1    3    3    0  502  0.29182498458E+03  0.16126245909E+02  0.82075831750E+03  0.87124399762E+03  0.10100000352E+00 0.  1.
</event>
<event>
 5   0  0.3439015E-02  0.7001275E+03  0.7818609E-02  0.9717014E-01
        1   -1    0    0  501    0  0.00000000000E+00  0.00000000000E+00  0.13998039049E+04  0.13998039049E+04  0.50400001928E-02 0.  1.
       -1   -1    0    0    0  501  0.00000000000E+00  0.00000000000E+00 -0.87544135183E+02  0.87544135328E+02  0.50400001928E-02 0. -1.
    10030    2    1    2    0    0  0.00000000000E+00  0.00000000000E+00  0.13122597697E+04  0.14873480402E+04  0.70012748094E+03 0.  0.
        1    1    3    3  502    0 -0.14229701619E+03 -0.55412499736E+02  0.13253167800E+04  0.13340852871E+04  0.50400001928E-02 0.  1.
       -1    1    3    3    0  502  0.14229701619E+03  0.55412499736E+02 -0.13057010296E+02  0.15326275310E+03  0.50400001928E-02 0. -1.
</event>
<event>
 5   0  0.5899787E-02  0.6839670E+03  0.7818609E-02  0.9745050E-01
        2   -1    0    0  501    0  0.00000000000E+00  0.00000000000E+00  0.10777839871E+04  0.10777839871E+04  0.25500000920E-02 0.  1.
       -2   -1    0    0    0  501  0.00000000000E+00  0.00000000000E+00 -0.10851221776E+03  0.10851221779E+03  0.25500000920E-02 0. -1.
    10030    2    1    2    0    0  0.00000000000E+00  0.00000000000E+00  0.96927176930E+03  0.11862962048E+04  0.68396704809E+03 0.  0.
        2    1    3    3  502    0  0.27884850528E+03 -0.16326585022E+03  0.67886550310E+03  0.75184479652E+03  0.25500000920E-02 0.  1.
       -2    1    3    3    0  502 -0.27884850528E+03  0.16326585022E+03  0.29040626620E+03  0.43445140833E+03  0.25500000920E-02 0. -1.
</event>
<event>
 5   0  0.3439015E-02  0.7007710E+03  0.7818609E-02  0.9715915E-01
        1   -1    0    0  501    0  0.00000000000E+00  0.00000000000E+00  0.53169278745E+03  0.53169278748E+03  0.50400001928E-02 0.  1.
       -1   -1    0    0    0  501  0.00000000000E+00  0.00000000000E+00 -0.23090404644E+03  0.23090404650E+03  0.50400001928E-02 0. -1.
    10030    2    1    2    0    0  0.00000000000E+00  0.00000000000E+00  0.30078874101E+03  0.76259683398E+03  0.70077104997E+03 0.  0.
        1    1    3    3  502    0 -0.21320197278E+03 -0.27563994670E+03  0.19019359578E+03  0.39699630391E+03  0.50400001928E-02 0. -1.
       -1    1    3    3    0  502  0.21320197278E+03  0.27563994670E+03  0.11059514523E+03  0.36560053007E+03  0.50400001928E-02 0.  1.
</event>
<event>
 5   0  0.2439375E-02  0.7008167E+03  0.7818609E-02  0.9715837E-01
        4   -1    0    0  501    0  0.00000000000E+00  0.00000000000E+00  0.51586203857E+03  0.51586360187E+03  0.12699999809E+01 0. -1.
       -4   -1    0    0    0  501  0.00000000000E+00  0.00000000000E+00 -0.23801739048E+03  0.23802077865E+03  0.12699999809E+01 0.  1.
    10030    2    1    2    0    0  0.00000000000E+00  0.00000000000E+00  0.27784464808E+03  0.75388438052E+03  0.70081667412E+03 0.  0.
        4    1    3    3  502    0 -0.12100130747E+03 -0.22133789851E+03 -0.12270751136E+03  0.28051832020E+03  0.12699999809E+01 0.  1.
       -4    1    3    3    0  502  0.12100130747E+03  0.22133789851E+03  0.40055215945E+03  0.47336606032E+03  0.12699999809E+01 0. -1.
</event>
<event>
 5   0  0.3749730E-02  0.7059064E+03  0.7818609E-02  0.9707184E-01
       -1   -1    0    0    0  501  0.00000000000E+00  0.00000000000E+00  0.74263765878E+02  0.74263766049E+02  0.50400001928E-02 0.  1.
        1   -1    0    0  501    0  0.00000000000E+00  0.00000000000E+00 -0.16774798767E+04  0.16774798767E+04  0.50400001928E-02 0. -1.
    10030    2    1    2    0    0  0.00000000000E+00  0.00000000000E+00 -0.16032161108E+04  0.17517436427E+04  0.70590643284E+03 0.  0.
        4    1    3    3  502    0  0.14731034125E+03 -0.32012558970E+03 -0.75237376864E+03  0.83081203076E+03  0.12699999809E+01 0.  1.
       -4    1    3    3    0  502 -0.14731034125E+03  0.32012558970E+03 -0.85084234215E+03  0.92093161196E+03  0.12699999809E+01 0. -1.
</event>
<event>
 5   0  0.6131198E-02  0.7457005E+03  0.7818609E-02  0.9642120E-01
       -2   -1    0    0    0  501  0.00000000000E+00  0.00000000000E+00  0.81882340794E+03  0.81882340794E+03  0.25500000920E-02 0.  1.
        2   -1    0    0  501    0  0.00000000000E+00  0.00000000000E+00 -0.16977691947E+03  0.16977691948E+03  0.25500000920E-02 0. -1.
    10030    2    1    2    0    0  0.00000000000E+00  0.00000000000E+00  0.64904648847E+03  0.98860032743E+03  0.74570051843E+03 0.  0.
        1    1    3    3  502    0  0.36051380374E+03  0.82128067956E+02  0.38813212997E+03  0.53606135150E+03  0.50400001928E-02 0.  1.
       -1    1    3    3    0  502 -0.36051380374E+03 -0.82128067956E+02  0.26091435850E+03  0.45253897592E+03  0.50400001928E-02 0. -1.
</event>
<event>
 5   0  0.6248886E-02  0.7087661E+03  0.7818609E-02  0.9702357E-01
        2   -1    0    0  501    0  0.00000000000E+00  0.00000000000E+00  0.98259634856E+03  0.98259634856E+03  0.25500000920E-02 0.  1.
       -2   -1    0    0    0  501  0.00000000000E+00  0.00000000000E+00 -0.12781172662E+03  0.12781172665E+03  0.25500000920E-02 0. -1.
    10030    2    1    2    0    0  0.00000000000E+00  0.00000000000E+00  0.85478462193E+03  0.11104080752E+04  0.70876607113E+03 0.  0.
        3    1    3    3  502    0 -0.21547687497E+03  0.82350717929E+01  0.86798608265E+03  0.89437014146E+03  0.10100000352E+00 0.  1.
       -3    1    3    3    0  502  0.21547687497E+03 -0.82350717929E+01 -0.13201460717E+02  0.21603793375E+03  0.10100000352E+00 0. -1.
</event>
<event>
 5   0  0.2439375E-02  0.6851063E+03  0.7818609E-02  0.9743047E-01
       -4   -1    0    0    0  501  0.00000000000E+00  0.00000000000E+00  0.50391185030E+03  0.50391345068E+03  0.12699999809E+01 0. -1.
        4   -1    0    0  501    0  0.00000000000E+00  0.00000000000E+00 -0.23285973327E+03  0.23286319649E+03  0.12699999809E+01 0.  1.
    10030    2    1    2    0    0  0.00000000000E+00  0.00000000000E+00  0.27105211703E+03  0.73677664717E+03  0.68510625283E+03 0.  0.
        5    1    3    3  502    0 -0.12204773344E+03 -0.16776248417E+03 -0.15757391584E+03  0.26056003009E+03  0.46999998093E+01 0.  1.
       -5    1    3    3    0  502  0.12204773344E+03  0.16776248417E+03  0.42862603286E+03  0.47621661708E+03  0.46999998093E+01 0. -1.
</event>
<event>
 5   0  0.3601475E-02  0.7151425E+03  0.7818609E-02  0.9691681E-01
       -1   -1    0    0    0  501  0.00000000000E+00  0.00000000000E+00  0.22218947780E+03  0.22218947786E+03  0.50400001928E-02 0.  1.
        1   -1    0    0  501    0  0.00000000000E+00  0.00000000000E+00 -0.57544211955E+03  0.57544211958E+03  0.50400001928E-02 0. -1.
    10030    2    1    2    0    0  0.00000000000E+00  0.00000000000E+00 -0.35325264175E+03  0.79763159744E+03  0.71514245876E+03 0.  0.
        5    1    3    3  502    0  0.22070708002E+03 -0.12881595876E+03 -0.45552968304E+03  0.52233566653E+03  0.46999998093E+01 0. -1.
       -5    1    3    3    0  502 -0.22070708002E+03  0.12881595876E+03  0.10227704129E+03  0.27529593091E+03  0.46999998093E+01 0.  1.
</event>
<event>
 5   0  0.3601475E-02  0.6995238E+03  0.7818609E-02  0.9718047E-01
       -1   -1    0    0    0  501  0.00000000000E+00  0.00000000000E+00  0.10593580274E+03  0.10593580286E+03  0.50400001928E-02 0.  1.
        1   -1    0    0  501    0  0.00000000000E+00  0.00000000000E+00 -0.11547879138E+04  0.11547879139E+04  0.50400001928E-02 0. -1.
    10030    2    1    2    0    0  0.00000000000E+00  0.00000000000E+00 -0.10488521111E+04  0.12607237167E+04  0.69952379440E+03 0.  0.
        5    1    3    3  502    0  0.11931276120E+03  0.16310354505E+03 -0.10388536630E+04  0.10583370562E+04  0.46999998093E+01 0. -1.
       -5    1    3    3    0  502 -0.11931276120E+03 -0.16310354505E+03 -0.99984481036E+01  0.20238666052E+03  0.46999998093E+01 0.  1.
</event>
<event>
 5   0  0.5987810E-02  0.6968942E+03  0.7818609E-02  0.9722558E-01
        2   -1    0    0  501    0  0.00000000000E+00  0.00000000000E+00  0.65539102403E+03  0.65539102404E+03  0.25500000920E-02 0. -1.
       -2   -1    0    0    0  501  0.00000000000E+00  0.00000000000E+00 -0.18525641167E+03  0.18525641169E+03  0.25500000920E-02 0.  1.
    10030    2    1    2    0    0  0.00000000000E+00  0.00000000000E+00  0.47013461236E+03  0.84064743572E+03  0.69689422257E+03 0.  0.
        5    1    3    3  502    0 -0.10882991601E+03  0.33088314072E+03  0.22529006629E+03  0.41485576699E+03  0.46999998093E+01 0. -1.
       -5    1    3    3    0  502  0.10882991601E+03 -0.33088314072E+03  0.24484454607E+03  0.42579166874E+03  0.46999998093E+01 0.  1.
</event>
<event>
 5   0  0.6131198E-02  0.5512817E+03  0.7818609E-02  0.1001198E+00
       -2   -1    0    0    0  501  0.00000000000E+00  0.00000000000E+00  0.65477728525E+02  0.65477728574E+02  0.25500000920E-02 0.  1.
        2   -1    0    0  501    0  0.00000000000E+00  0.00000000000E+00 -0.11603619657E+04  0.11603619657E+04  0.25500000920E-02 0. -1.
    10030    2    1    2    0    0  0.00000000000E+00  0.00000000000E+00 -0.10948842372E+04  0.12258396943E+04  0.55128165510E+03 0.  0.
        1    1    3    3  502    0 -0.26183298829E+03  0.47176803849E+02 -0.70772318511E+03  0.75607821774E+03  0.50400001928E-02 0.  1.
       -1    1    3    3    0  502  0.26183298829E+03 -0.47176803849E+02 -0.38716105208E+03  0.46976147655E+03  0.50400001928E-02 0. -1.
</event>
<event>
 5   0  0.3601475E-02  0.6895712E+03  0.7818609E-02  0.9735235E-01
        1   -1    0    0  501    0  0.00000000000E+00  0.00000000000E+00  0.15370694078E+04  0.15370694078E+04  0.50400001928E-02 0.  1.
       -1   -1    0    0    0  501  0.00000000000E+00  0.00000000000E+00 -0.77340109706E+02  0.77340109870E+02  0.50400001928E-02 0. -1.
    10030    2    1    2    0    0  0.00000000000E+00  0.00000000000E+00  0.14597292981E+04  0.16144095176E+04  0.68957121970E+03 0.  0.
        5    1    3    3  502    0 -0.27543409145E+03 -0.20505603100E+03  0.65796674015E+03  0.74219555086E+03  0.46999998093E+01 0. -1.
       -5    1    3    3    0  502  0.27543409145E+03  0.20505603100E+03  0.80176255790E+03  0.87221396677E+03  0.46999998093E+01 0.  1.
</event>
<event>
 5   0  0.3755872E-02  0.7034335E+03  0.7818609E-02  0.9711378E-01
        1   -1    0    0  501    0  0.00000000000E+00  0.00000000000E+00  0.70308530384E+03  0.70308530385E+03  0.50400001928E-02 0.  1.
       -1   -1    0    0    0  501  0.00000000000E+00  0.00000000000E+00 -0.17594547508E+03  0.17594547515E+03  0.50400001928E-02 0. -1.
    10030    2    1    2    0    0  0.00000000000E+00  0.00000000000E+00  0.52713982876E+03  0.87903077900E+03  0.70343351595E+03 0.  0.
        2    1    3    3  502    0 -0.24846330175E+02  0.17499712774E+03 -0.11641453231E+03  0.21164517046E+03  0.25500000920E-02 0. -1.
       -2    1    3    3    0  502  0.24846330175E+02 -0.17499712774E+03  0.64355436107E+03  0.66738560855E+03  0.25500000920E-02 0.  1.
</event>
<event>
 5   0  0.6167756E-02  0.7100544E+03  0.7818609E-02  0.9700191E-01
        2   -1    0    0  501    0  0.00000000000E+00  0.00000000000E+00  0.11177416116E+04  0.11177416116E+04  0.25500000920E-02 0.  1.
       -2   -1    0    0    0  501  0.00000000000E+00  0.00000000000E+00 -0.11276695270E+03  0.11276695273E+03  0.25500000920E-02 0. -1.
    10030    2    1    2    0    0  0.00000000000E+00  0.00000000000E+00  0.10049746589E+04  0.12305085643E+04  0.71005440767E+03 0.  0.
        4    1    3    3  502    0  0.19652621638E+03  0.47528869485E+02  0.10082115871E+04  0.10282868104E+04  0.12699999809E+01 0.  1.
       -4    1    3    3    0  502 -0.19652621638E+03 -0.47528869485E+02 -0.32369282061E+01  0.20222175393E+03  0.12699999809E+01 0. -1.
</event>
<event>
 5   0  0.6131198E-02  0.7077887E+03  0.7818609E-02  0.9704004E-01
       -2   -1    0    0    0  501  0.00000000000E+00  0.00000000000E+00  0.63564495378E+02  0.63564495430E+02  0.25500000920E-02 0. -1.
        2   -1    0    0  501    0  0.00000000000E+00  0.00000000000E+00 -0.19703012973E+04  0.19703012973E+04  0.25500000920E-02 0.  1.
    10030    2    1    2    0    0  0.00000000000E+00  0.00000000000E+00 -0.19067368019E+04  0.20338657927E+04  0.70778869095E+03 0.  0.
        1    1    3    3  502    0 -0.15651752374E+03  0.31538023938E+01 -0.41345610793E+02  0.16191708145E+03  0.50400001928E-02 0. -1.
       -1    1    3    3    0  502  0.15651752374E+03 -0.31538023938E+01 -0.18653911911E+04  0.18719487113E+04  0.50400001928E-02 0.  1.
</event>
<event>
 5   0  0.5987810E-02  0.7149093E+03  0.7818609E-02  0.9692070E-01
       -2   -1    0    0    0  501  0.00000000000E+00  0.00000000000E+00  0.12509312900E+03  0.12509312903E+03  0.25500000920E-02 0. -1.
        2   -1    0    0  501    0  0.00000000000E+00  0.00000000000E+00 -0.10214294791E+04  0.10214294791E+04  0.25500000920E-02 0.  1.
    10030    2    1    2    0    0  0.00000000000E+00  0.00000000000E+00 -0.89633635012E+03  0.11465226081E+04  0.71490925190E+03 0.  0.
        5    1    3    3  502    0 -0.96473574840E+02 -0.31937034570E+03 -0.65384106419E+03  0.73405367350E+03  0.46999998093E+01 0.  1.
       -5    1    3    3    0  502  0.96473574840E+02  0.31937034570E+03 -0.24249528593E+03  0.41246893465E+03  0.46999998093E+01 0. -1.
</event>
<event>
 5   0  0.5987810E-02  0.7145516E+03  0.7818609E-02  0.9692666E-01
       -2   -1    0    0    0  501  0.00000000000E+00  0.00000000000E+00  0.10151880305E+03  0.10151880308E+03  0.25500000920E-02 0.  1.
        2   -1    0    0  501    0  0.00000000000E+00  0.00000000000E+00 -0.12573632412E+04  0.12573632412E+04  0.25500000920E-02 0. -1.
    10030    2    1    2    0    0  0.00000000000E+00  0.00000000000E+00 -0.11558444382E+04  0.13588820443E+04  0.71455163921E+03 0.  0.
        5    1    3    3  502    0 -0.11418327287E+02  0.15781907143E+03  0.31184844306E+02  0.16134380068E+03  0.46999998093E+01 0.  1.
       -5    1    3    3    0  502  0.11418327287E+02 -0.15781907143E+03 -0.11870292825E+04  0.11975382436E+04  0.46999998093E+01 0. -1.
</event>
<event>
 5   0  0.5987810E-02  0.6975195E+03  0.7818609E-02  0.9721484E-01
       -2   -1    0    0    0  501  0.00000000000E+00  0.00000000000E+00  0.12089097500E+03  0.12089097502E+03  0.25500000920E-02 0. -1.
        2   -1    0    0  501    0  0.00000000000E+00  0.00000000000E+00 -0.10061408513E+04  0.10061408513E+04  0.25500000920E-02 0.  1.
    10030    2    1    2    0    0  0.00000000000E+00  0.00000000000E+00 -0.88524987632E+03  0.11270318263E+04  0.69751945784E+03 0.  0.
        5    1    3    3  502    0  0.23972242549E+03  0.17483371269E+02 -0.85087103105E+03  0.88418103974E+03  0.46999998093E+01 0.  1.
       -5    1    3    3    0  502 -0.23972242549E+03 -0.17483371269E+02 -0.34378845262E+02  0.24285078660E+03  0.46999998093E+01 0. -1.
</event>
<event>
 5   0  0.3601475E-02  0.6958122E+03  0.7818609E-02  0.9724421E-01
       -1   -1    0    0    0  501  0.00000000000E+00  0.00000000000E+00  0.30877380365E+03  0.30877380369E+03  0.50400001928E-02 0. -1.
        1   -1    0    0  501    0  0.00000000000E+00  0.00000000000E+00 -0.39199778566E+03  0.39199778569E+03  0.50400001928E-02 0.  1.
    10030    2    1    2    0    0  0.00000000000E+00  0.00000000000E+00 -0.83223982005E+02  0.70077158938E+03  0.69581217962E+03 0.  0.
        5    1    3    3  502    0 -0.40885582990E+02  0.12484072010E+03  0.28280146359E+03  0.31185829170E+03  0.46999998093E+01 0. -1.
       -5    1    3    3    0  502  0.40885582990E+02 -0.12484072010E+03 -0.36602544560E+03  0.38891329768E+03  0.46999998093E+01 0.  1.
</event>
<event>
 5   0  0.6131198E-02  0.7865647E+03  0.7818609E-02  0.9579670E-01
       -2   -1    0    0    0  501  0.00000000000E+00  0.00000000000E+00  0.39790041189E+03  0.39790041190E+03  0.25500000920E-02 0. -1.
        2   -1    0    0  501    0  0.00000000000E+00  0.00000000000E+00 -0.38871787389E+03  0.38871787390E+03  0.25500000920E-02 0.  1.
    10030    2    1    2    0    0  0.00000000000E+00  0.00000000000E+00  0.91825380032E+01  0.78661828580E+03  0.78656468809E+03 0.  0.
        1    1    3    3  502    0  0.20789368355E+03 -0.23417945374E+03  0.24253856843E+03  0.39608680540E+03  0.50400001928E-02 0. -1.
       -1    1    3    3    0  502 -0.20789368355E+03  0.23417945374E+03 -0.23335603042E+03  0.39053148039E+03  0.50400001928E-02 0.  1.
</event>
<event>
 5   0  0.2439375E-02  0.6801766E+03  0.7818609E-02  0.9751747E-01
        4   -1    0    0  501    0  0.00000000000E+00  0.00000000000E+00  0.31018528629E+03  0.31018788618E+03  0.12699999809E+01 0. -1.
       -4   -1    0    0    0  501  0.00000000000E+00  0.00000000000E+00 -0.37286883811E+03  0.37287100093E+03  0.12699999809E+01 0.  1.
    10030    2    1    2    0    0  0.00000000000E+00  0.00000000000E+00 -0.62683551816E+02  0.68305888711E+03  0.68017660618E+03 0.  0.
        5    1    3    3  502    0  0.27472137765E+03 -0.18869007311E+03 -0.99171944319E+02  0.34775414241E+03  0.46999998093E+01 0. -1.
       -5    1    3    3    0  502 -0.27472137765E+03  0.18869007311E+03  0.36488392503E+02  0.33530474469E+03  0.46999998093E+01 0.  1.
</event>
<event>
 5   0  0.3755872E-02  0.6635251E+03  0.7818609E-02  0.9781726E-01
        1   -1    0    0  501    0  0.00000000000E+00  0.00000000000E+00  0.16945458150E+04  0.16945458150E+04  0.50400001928E-02 0.  1.
       -1   -1    0    0    0  501  0.00000000000E+00  0.00000000000E+00 -0.64953324376E+02  0.64953324572E+02  0.50400001928E-02 0. -1.
    10030    2    1    2    0    0  0.00000000000E+00  0.00000000000E+00  0.16295924906E+04  0.17594991395E+04  0.66352508368E+03 0.  0.
        2    1    3    3  502    0  0.10517379642E+03 -0.29435685065E+03  0.11095922839E+04  0.11527803431E+04  0.25500000920E-02 0.  1.
       -2    1    3    3    0  502 -0.10517379642E+03  0.29435685065E+03  0.52000020669E+03  0.60671879643E+03  0.25500000920E-02 0. -1.
</event>
<event>
 5   0  0.3439015E-02  0.7023939E+03  0.7818609E-02  0.9713147E-01
        1   -1    0    0  501    0  0.00000000000E+00  0.00000000000E+00  0.15819651453E+03  0.15819651461E+03  0.50400001928E-02 0.  1.
       -1   -1    0    0    0  501  0.00000000000E+00  0.00000000000E+00 -0.77965877945E+03  0.77965877947E+03  0.50400001928E-02 0. -1.
    10030    2    1    2    0    0  0.00000000000E+00  0.00000000000E+00 -0.62146226492E+03  0.93785529408E+03  0.70239391079E+03 0.  0.
        1    1    3    3  502    0  0.52013706210E+02  0.19652483998E+03 -0.69310960620E+03  0.72230766617E+03  0.50400001928E-02 0. -1.
       -1    1    3    3    0  502 -0.52013706210E+02 -0.19652483998E+03  0.71647341283E+02  0.21554762792E+03  0.50400001928E-02 0.  1.
</event>
<event>
 5   0  0.6131198E-02  0.7767372E+03  0.7818609E-02  0.9594313E-01
        2   -1    0    0  501    0  0.00000000000E+00  0.00000000000E+00  0.60373519338E+03  0.60373519339E+03  0.25500000920E-02 0. -1.
       -2   -1    0    0    0  501  0.00000000000E+00  0.00000000000E+00 -0.24982837812E+03  0.24982837813E+03  0.25500000920E-02 0.  1.
    10030    2    1    2    0    0  0.00000000000E+00  0.00000000000E+00  0.35390681527E+03  0.85356357151E+03  0.77673723789E+03 0.  0.
        1    1    3    3  502    0  0.19694856280E+03  0.43382119416E+02 -0.18777753102E+03  0.27555606663E+03  0.50400001928E-02 0.  1.
       -1    1    3    3    0  502 -0.19694856280E+03 -0.43382119416E+02  0.54168434629E+03  0.57800750489E+03  0.50400001928E-02 0. -1.
</event>
<event>
 5   0  0.3749730E-02  0.7255896E+03  0.7818609E-02  0.9674444E-01
       -1   -1    0    0    0  501  0.00000000000E+00  0.00000000000E+00  0.83715355584E+02  0.83715355736E+02  0.50400001928E-02 0.  1.
        1   -1    0    0  501    0  0.00000000000E+00  0.00000000000E+00 -0.15722331970E+04  0.15722331970E+04  0.50400001928E-02 0. -1.
    10030    2    1    2    0    0  0.00000000000E+00  0.00000000000E+00 -0.14885178414E+04  0.16559485527E+04  0.72558958449E+03 0.  0.
        4    1    3    3  502    0  0.13244479568E+03  0.56824171310E+02  0.15576287590E+02  0.14496497502E+03  0.12699999809E+01 0.  1.
       -4    1    3    3    0  502 -0.13244479568E+03 -0.56824171310E+02 -0.15040941290E+04  0.15109835777E+04  0.12699999809E+01 0. -1.
</event>
<event>
 5   0  0.3749730E-02  0.6944083E+03  0.7818609E-02  0.9726843E-01
       -1   -1    0    0    0  501  0.00000000000E+00  0.00000000000E+00  0.47068281694E+02  0.47068281963E+02  0.50400001928E-02 0.  1.
        1   -1    0    0  501    0  0.00000000000E+00  0.00000000000E+00 -0.25611877325E+04  0.25611877325E+04  0.50400001928E-02 0. -1.
    10030    2    1    2    0    0  0.00000000000E+00  0.00000000000E+00 -0.25141194508E+04  0.26082560145E+04  0.69440825462E+03 0.  0.
        4    1    3    3  502    0 -0.24313842710E+03  0.46697893479E+02 -0.21713565998E+04  0.21854262936E+04  0.12699999809E+01 0. -1.
       -4    1    3    3    0  502  0.24313842710E+03 -0.46697893479E+02 -0.34276285098E+03  0.42282972092E+03  0.12699999809E+01 0.  1.
</event>
<event>
 5   0  0.3717372E-02  0.6976076E+03  0.7818609E-02  0.9721332E-01
       -1   -1    0    0    0  501  0.00000000000E+00  0.00000000000E+00  0.54843012771E+03  0.54843012774E+03  0.50400001928E-02 0.  1.
        1   -1    0    0  501    0  0.00000000000E+00  0.00000000000E+00 -0.22184063478E+03  0.22184063484E+03  0.50400001928E-02 0. -1.
    10030    2    1    2    0    0  0.00000000000E+00  0.00000000000E+00  0.32658949293E+03  0.77027076258E+03  0.69760759083E+03 0.  0.
        3    1    3    3  502    0  0.20317590932E+03 -0.24280811330E+03  0.32492456642E+03  0.45366531064E+03  0.10100000352E+00 0.  1.
       -3    1    3    3    0  502 -0.20317590932E+03  0.24280811330E+03  0.16649265087E+01  0.31660545194E+03  0.10100000352E+00 0. -1.
</event>
<event>
 5   0  0.5899787E-02  0.6485697E+03  0.7818609E-02  0.9809467E-01
       -2   -1    0    0    0  501  0.00000000000E+00  0.00000000000E+00  0.14460880856E+03  0.14460880859E+03  0.25500000920E-02 0.  1.
        2   -1    0    0  501    0  0.00000000000E+00  0.00000000000E+00 -0.72720788611E+03  0.72720788612E+03  0.25500000920E-02 0. -1.
    10030    2    1    2    0    0  0.00000000000E+00  0.00000000000E+00 -0.58259907755E+03  0.87181669470E+03  0.64856970636E+03 0.  0.
        2    1    3    3  502    0 -0.11455592048E+03  0.21794101930E+03 -0.76119678252E+01  0.24633166437E+03  0.25500000920E-02 0.  1.
       -2    1    3    3    0  502  0.11455592048E+03 -0.21794101930E+03 -0.57498710972E+03  0.62548503033E+03  0.25500000920E-02 0. -1.
</event>
<event>
 5   0  0.6167756E-02  0.6911824E+03  0.7818609E-02  0.9732431E-01
       -2   -1    0    0    0  501  0.00000000000E+00  0.00000000000E+00  0.72769434031E+02  0.72769434076E+02  0.25500000920E-02 0. -1.
        2   -1    0    0  501    0  0.00000000000E+00  0.00000000000E+00 -0.16412560849E+04  0.16412560850E+04  0.25500000920E-02 0.  1.
    10030    2    1    2    0    0  0.00000000000E+00  0.00000000000E+00 -0.15684866509E+04  0.17140255190E+04  0.69118239689E+03 0.  0.
        4    1    3    3  502    0  0.72250427069E+02  0.19165214506E+03 -0.93968224457E+02  0.22534930447E+03  0.12699999809E+01 0. -1.
       -4    1    3    3    0  502 -0.72250427069E+02 -0.19165214506E+03 -0.14745184265E+04  0.14886762146E+04  0.12699999809E+01 0.  1.
</event>
<event>
 5   0  0.5987810E-02  0.6900102E+03  0.7818609E-02  0.9734470E-01
       -2   -1    0    0    0  501  0.00000000000E+00  0.00000000000E+00  0.94991245326E+02  0.94991245360E+02  0.25500000920E-02 0. -1.
        2   -1    0    0  501    0  0.00000000000E+00  0.00000000000E+00 -0.12530471832E+04  0.12530471832E+04  0.25500000920E-02 0.  1.
    10030    2    1    2    0    0  0.00000000000E+00  0.00000000000E+00 -0.11580559379E+04  0.13480384286E+04  0.69001018082E+03 0.  0.
        5    1    3    3  502    0  0.20102352249E+03 -0.22109818410E+02 -0.11250272758E+04  0.11430694475E+04  0.46999998093E+01 0.  1.
       -5    1    3    3    0  502 -0.20102352249E+03  0.22109818410E+02 -0.33028662106E+02  0.20496898103E+03  0.46999998093E+01 0. -1.
</event>
<event>
 5   0  0.6248886E-02  0.7044101E+03  0.7818609E-02  0.9709720E-01
       -2   -1    0    0    0  501  0.00000000000E+00  0.00000000000E+00  0.98266504424E+02  0.98266504458E+02  0.25500000920E-02 0. -1.
        2   -1    0    0  501    0  0.00000000000E+00  0.00000000000E+00 -0.12623670865E+04  0.12623670865E+04  0.25500000920E-02 0.  1.
    10030    2    1    2    0    0  0.00000000000E+00  0.00000000000E+00 -0.11641005820E+04  0.13606335909E+04  0.70441011041E+03 0.  0.
        3    1    3    3  502    0 -0.23808729792E+03  0.24706191972E+03 -0.42845236865E+03  0.54890490616E+03  0.10100000352E+00 0. -1.
       -3    1    3    3    0  502  0.23808729792E+03 -0.24706191972E+03 -0.73564821338E+03  0.81172868476E+03  0.10100000352E+00 0.  1.
</event>
<event>
 5   0  0.5987810E-02  0.7232454E+03  0.7818609E-02  0.9678285E-01
       -2   -1    0    0    0  501  0.00000000000E+00  0.00000000000E+00  0.36811159287E+03  0.36811159288E+03  0.25500000920E-02 0. -1.
        2   -1    0    0  501    0  0.00000000000E+00  0.00000000000E+00 -0.35524823777E+03  0.35524823778E+03  0.25500000920E-02 0.  1.
    10030    2    1    2    0    0  0.00000000000E+00  0.00000000000E+00  0.12863355106E+02  0.72335983066E+03  0.72324544845E+03 0.  0.
        5    1    3    3  502    0  0.27779987580E+02 -0.15724765030E+03 -0.31804273906E+03  0.35590985530E+03  0.46999998093E+01 0.  1.
       -5    1    3    3    0  502 -0.27779987580E+02  0.15724765030E+03  0.33090609416E+03  0.36744997536E+03  0.46999998093E+01 0. -1.
</event>
<event>
 5   0  0.5899787E-02  0.7079614E+03  0.7818609E-02  0.9703713E-01
        2   -1    0    0  501    0  0.00000000000E+00  0.00000000000E+00  0.85718229775E+03  0.85718229775E+03  0.25500000920E-02 0.  1.
       -2   -1    0    0    0  501  0.00000000000E+00  0.00000000000E+00 -0.14617932502E+03  0.14617932505E+03  0.25500000920E-02 0. -1.
    10030    2    1    2    0    0  0.00000000000E+00  0.00000000000E+00  0.71100297273E+03  0.10033616228E+04  0.70796138234E+03 0.  0.
        2    1    3    3  502    0 -0.28877495031E+03 -0.19578225130E+03  0.44030814192E+03  0.56177657632E+03  0.25500000920E-02 0.  1.
       -2    1    3    3    0  502  0.28877495031E+03  0.19578225130E+03  0.27069483080E+03  0.44158504648E+03  0.25500000920E-02 0. -1.
</event>
<event>
 5   0  0.3439015E-02  0.6875629E+03  0.7818609E-02  0.9738741E-01
        1   -1    0    0  501    0  0.00000000000E+00  0.00000000000E+00  0.63444480182E+03  0.63444480184E+03  0.50400001928E-02 0.  1.
       -1   -1    0    0    0  501  0.00000000000E+00  0.00000000000E+00 -0.18628203863E+03  0.18628203870E+03  0.50400001928E-02 0. -1.
    10030    2    1    2    0    0  0.00000000000E+00  0.00000000000E+00  0.44816276319E+03  0.82072684054E+03  0.68756285856E+03 0.  0.
        1    1    3    3  502    0  0.10858756909E+03  0.21741882697E+03 -0.66164566669E+02  0.25187289729E+03  0.50400001928E-02 0. -1.
       -1    1    3    3    0  502 -0.10858756909E+03 -0.21741882697E+03  0.51432732986E+03  0.56885394325E+03  0.50400001928E-02 0.  1.
</event>
<event>
 5   0  0.3749730E-02  0.7132186E+03  0.7818609E-02  0.9694890E-01
        1   -1    0    0  501    0  0.00000000000E+00  0.00000000000E+00  0.39414935517E+03  0.39414935520E+03  0.50400001928E-02 0. -1.
       -1   -1    0    0    0  501  0.00000000000E+00  0.00000000000E+00 -0.32264469489E+03  0.32264469493E+03  0.50400001928E-02 0.  1.
    10030    2    1    2    0    0  0.00000000000E+00  0.00000000000E+00  0.71504660278E+02  0.71679405013E+03  0.71321861576E+03 0.  0.
        4    1    3    3  502    0 -0.23690563735E+03  0.12226342787E+03 -0.20228085563E+03  0.33465173577E+03  0.12699999809E+01 0.  1.
       -4    1    3    3    0  502  0.23690563735E+03 -0.12226342787E+03  0.27378551591E+03  0.38214231436E+03  0.12699999809E+01 0. -1.
</event>
<event>
 5   0  0.6167756E-02  0.7094823E+03  0.7818609E-02  0.9701152E-01
       -2   -1    0    0    0  501  0.00000000000E+00  0.00000000000E+00  0.73426654221E+02  0.73426654265E+02  0.25500000920E-02 0.  1.
        2   -1    0    0  501    0  0.00000000000E+00  0.00000000000E+00 -0.17138364983E+04  0.17138364983E+04  0.25500000920E-02 0. -1.
    10030    2    1    2    0    0  0.00000000000E+00  0.00000000000E+00 -0.16404098440E+04  0.17872631525E+04  0.70948229009E+03 0.  0.
        4    1    3    3  502    0  0.56193770063E+02 -0.18511617180E+03 -0.71160988859E+02  0.20613402458E+03  0.12699999809E+01 0.  1.
       -4    1    3    3    0  502 -0.56193770063E+02  0.18511617180E+03 -0.15692488552E+04  0.15811291279E+04  0.12699999809E+01 0. -1.
</event>
<event>
 5   0  0.6167756E-02  0.6866482E+03  0.7818609E-02  0.9740342E-01
       -2   -1    0    0    0  501  0.00000000000E+00  0.00000000000E+00  0.30333466348E+03  0.30333466349E+03  0.25500000920E-02 0.  1.
        2   -1    0    0  501    0  0.00000000000E+00  0.00000000000E+00 -0.38858547544E+03  0.38858547545E+03  0.25500000920E-02 0. -1.
    10030    2    1    2    0    0  0.00000000000E+00  0.00000000000E+00 -0.85250811966E+02  0.69192013894E+03  0.68664821978E+03 0.  0.
        4    1    3    3  502    0 -0.33002823130E+02  0.30855614833E+03 -0.19063316361E+03  0.36419596232E+03  0.12699999809E+01 0. -1.
       -4    1    3    3    0  502  0.33002823130E+02 -0.30855614833E+03  0.10538235164E+03  0.32772417662E+03  0.12699999809E+01 0.  1.
</event>
<event>
 5   0  0.3755872E-02  0.7829069E+03  0.7818609E-02  0.9585094E-01
       -1   -1    0    0    0  501  0.00000000000E+00  0.00000000000E+00  0.81139853444E+02  0.81139853600E+02  0.50400001928E-02 0. -1.
        1   -1    0    0  501    0  0.00000000000E+00  0.00000000000E+00 -0.18885393961E+04  0.18885393962E+04  0.50400001928E-02 0.  1.
    10030    2    1    2    0    0  0.00000000000E+00  0.00000000000E+00 -0.18073995427E+04  0.19696792498E+04  0.78290691653E+03 0.  0.
        2    1    3    3  502    0 -0.20988543118E+02 -0.38391739354E+02 -0.18823680358E+04  0.18828764874E+04  0.25500000920E-02 0.  1.
       -2    1    3    3    0  502  0.20988543118E+02  0.38391739354E+02  0.74968493084E+02  0.86802762367E+02  0.25500000920E-02 0. -1.
</event>
<event>
 5   0  0.2439375E-02  0.7007650E+03  0.7818609E-02  0.9715925E-01
        4   -1    0    0  501    0  0.00000000000E+00  0.00000000000E+00  0.58214346138E+03  0.58214484669E+03  0.12699999809E+01 0.  1.
       -4   -1    0    0    0  501  0.00000000000E+00  0.00000000000E+00 -0.21088587904E+03  0.21088970312E+03  0.12699999809E+01 0. -1.
    10030    2    1    2    0    0  0.00000000000E+00  0.00000000000E+00  0.37125758234E+03  0.79303454981E+03  0.70076501393E+03 0.  0.
        1    1    3    3  502    0  0.15883328844E+03  0.27844465546E+03  0.25552672683E+02  0.32157795132E+03  0.50400001928E-02 0. -1.
       -1    1    3    3    0  502 -0.15883328844E+03 -0.27844465546E+03  0.34570490966E+03  0.47145659849E+03  0.50400001928E-02 0.  1.
</event>
<event>
 5   0  0.5899787E-02  0.7092903E+03  0.7818609E-02  0.9701475E-01
        2   -1    0    0  501    0  0.00000000000E+00  0.00000000000E+00  0.30862931973E+04  0.30862931973E+04  0.25500000920E-02 0. -1.
       -2   -1    0    0    0  501  0.00000000000E+00  0.00000000000E+00 -0.40752176767E+02  0.40752176847E+02  0.25500000920E-02 0.  1.
    10030    2    1    2    0    0  0.00000000000E+00  0.00000000000E+00  0.30455410205E+04  0.31270453742E+04  0.70929025387E+03 0.  0.
        2    1    3    3  502    0  0.10194636186E+02 -0.33465186396E+03  0.20383687373E+04  0.20656821900E+04  0.25500000920E-02 0.  1.
       -2    1    3    3    0  502 -0.10194636186E+02  0.33465186396E+03  0.10071722832E+04  0.10613631842E+04  0.25500000920E-02 0. -1.
</event>
<event>
 5   0  0.6248886E-02  0.6913404E+03  0.7818609E-02  0.9732157E-01
       -2   -1    0    0    0  501  0.00000000000E+00  0.00000000000E+00  0.10439849310E+03  0.10439849313E+03  0.25500000920E-02 0. -1.
        2   -1    0    0  501    0  0.00000000000E+00  0.00000000000E+00 -0.11445364245E+04  0.11445364245E+04  0.25500000920E-02 0.  1.
    10030    2    1    2    0    0  0.00000000000E+00  0.00000000000E+00 -0.10401379314E+04  0.12489349176E+04  0.69134037357E+03 0.  0.
        3    1    3    3  502    0 -0.20988577147E+03 -0.23974266880E+03 -0.27797030262E+03  0.42284285928E+03  0.10100000352E+00 0. -1.
       -3    1    3    3    0  502  0.20988577147E+03  0.23974266880E+03 -0.76216762873E+03  0.82609205831E+03  0.10100000352E+00 0.  1.
</event>
<event>
 5   0  0.2439375E-02  0.6880572E+03  0.7818609E-02  0.9737877E-01
       -3   -1    0    0    0  501  0.00000000000E+00  0.00000000000E+00  0.13190443715E+03  0.13190447582E+03  0.10100000352E+00 0. -1.
        3   -1    0    0  501    0  0.00000000000E+00  0.00000000000E+00 -0.89728344289E+03  0.89728344857E+03  0.10100000352E+00 0.  1.
    10030    2    1    2    0    0  0.00000000000E+00  0.00000000000E+00 -0.76537900573E+03  0.10291879244E+04  0.68805723694E+03 0.  0.
        3    1    3    3  502    0  0.15278787599E+03  0.29708328448E+03 -0.25977004130E+03  0.42318210917E+03  0.10100000352E+00 0.  1.
       -3    1    3    3    0  502 -0.15278787599E+03 -0.29708328448E+03 -0.50560896443E+03  0.60600581522E+03  0.10100000352E+00 0. -1.
</event>
<event>
 5   0  0.2439375E-02  0.7242770E+03  0.7818609E-02  0.9676593E-01
       -3   -1    0    0    0  501  0.00000000000E+00  0.00000000000E+00  0.87433653088E+03  0.87433653671E+03  0.10100000352E+00 0.  1.
        3   -1    0    0  501    0  0.00000000000E+00  0.00000000000E+00 -0.14999291483E+03  0.14999294883E+03  0.10100000352E+00 0. -1.
    10030    2    1    2    0    0  0.00000000000E+00  0.00000000000E+00  0.72434361605E+03  0.10243294855E+04  0.72427703321E+03 0.  0.
        4    1    3    3  502    0 -0.30316895487E+02  0.11636154043E+03 -0.12093128095E+03  0.17054357172E+03  0.12699999809E+01 0. -1.
       -4    1    3    3    0  502  0.30316895487E+02 -0.11636154043E+03  0.84527489700E+03  0.85378591382E+03  0.12699999809E+01 0.  1.
</event>
<event>
 5   0  0.5899787E-02  0.7051095E+03  0.7818609E-02  0.9708534E-01
       -2   -1    0    0    0  501  0.00000000000E+00  0.00000000000E+00  0.11501392476E+03  0.11501392479E+03  0.25500000920E-02 0. -1.
        2   -1    0    0  501    0  0.00000000000E+00  0.00000000000E+00 -0.10806939086E+04  0.10806939086E+04  0.25500000920E-02 0.  1.
    10030    2    1    2    0    0  0.00000000000E+00  0.00000000000E+00 -0.96567998380E+03  0.11957078333E+04  0.70510948910E+03 0.  0.
        2    1    3    3  502    0 -0.14885469835E+02 -0.22180197447E+03 -0.18813065959E+02  0.22309555027E+03  0.25500000920E-02 0. -1.
       -2    1    3    3    0  502  0.14885469835E+02  0.22180197447E+03 -0.94686691784E+03  0.97261228308E+03  0.25500000920E-02 0.  1.
</event>
<event>
 5   0  0.6131198E-02  0.6977776E+03  0.7818609E-02  0.9721040E-01
       -2   -1    0    0    0  501  0.00000000000E+00  0.00000000000E+00  0.72198749130E+02  0.72198749175E+02  0.25500000920E-02 0. -1.
        2   -1    0    0  501    0  0.00000000000E+00  0.00000000000E+00 -0.16859486514E+04  0.16859486514E+04  0.25500000920E-02 0.  1.
    10030    2    1    2    0    0  0.00000000000E+00  0.00000000000E+00 -0.16137499023E+04  0.17581474006E+04  0.69777756848E+03 0.  0.
        1    1    3    3  502    0 -0.10879395812E+02 -0.25948819503E+03 -0.13938529013E+04  0.14178428668E+04  0.50400001928E-02 0.  1.
       -1    1    3    3    0  502  0.10879395812E+02  0.25948819503E+03 -0.21989700099E+03  0.34030453374E+03  0.50400001928E-02 0. -1.
</event>
<event>
 5   0  0.3717372E-02  0.7071236E+03  0.7818609E-02  0.9705127E-01
       -1   -1    0    0    0  501  0.00000000000E+00  0.00000000000E+00  0.15941711431E+03  0.15941711439E+03  0.50400001928E-02 0. -1.
        1   -1    0    0  501    0  0.00000000000E+00  0.00000000000E+00 -0.78414381516E+03  0.78414381518E+03  0.50400001928E-02 0.  1.
    10030    2    1    2    0    0  0.00000000000E+00  0.00000000000E+00 -0.62472670085E+03  0.94356092957E+03  0.70712359391E+03 0.  0.
        3    1    3    3  502    0 -0.14016063700E+03  0.19060045399E+03  0.38227919635E+02  0.23965583921E+03  0.10100000352E+00 0. -1.
       -3    1    3    3    0  502  0.14016063700E+03 -0.19060045399E+03 -0.66295462048E+03  0.70390509037E+03  0.10100000352E+00 0.  1.
</event>
<event>
 5   0  0.5987810E-02  0.5577944E+03  0.7818609E-02  0.9997058E-01
       -2   -1    0    0    0  501  0.00000000000E+00  0.00000000000E+00  0.23339238100E+03  0.23339238101E+03  0.25500000920E-02 0.  1.
        2   -1    0    0  501    0  0.00000000000E+00  0.00000000000E+00 -0.33327410737E+03  0.33327410738E+03  0.25500000920E-02 0. -1.
    10030    2    1    2    0    0  0.00000000000E+00  0.00000000000E+00 -0.99881726370E+02  0.56666648839E+03  0.55779436158E+03 0.  0.
        5    1    3    3  502    0 -0.20667284684E+02 -0.20459468640E+03  0.14140417911E+03  0.24960639860E+03  0.46999998093E+01 0.  1.
       -5    1    3    3    0  502  0.20667284684E+02  0.20459468640E+03 -0.24128590548E+03  0.31706008979E+03  0.46999998093E+01 0. -1.
</event>
<event>
 5   0  0.6167756E-02  0.6842486E+03  0.7818609E-02  0.9744555E-01
        2   -1    0    0  501    0  0.00000000000E+00  0.00000000000E+00  0.15081847840E+04  0.15081847840E+04  0.25500000920E-02 0.  1.
       -2   -1    0    0    0  501  0.00000000000E+00  0.00000000000E+00 -0.77609214907E+02  0.77609214949E+02  0.25500000920E-02 0. -1.
    10030    2    1    2    0    0  0.00000000000E+00  0.00000000000E+00  0.14305755691E+04  0.15857939989E+04  0.68424860118E+03 0.  0.
        4    1    3    3  502    0  0.16441540967E+03  0.29645085202E+03  0.82229552713E+03  0.88943076259E+03  0.12699999809E+01 0.  1.
       -4    1    3    3    0  502 -0.16441540967E+03 -0.29645085202E+03  0.60828004193E+03  0.69636323633E+03  0.12699999809E+01 0. -1.
</event>
<event>
 5   0  0.5899787E-02  0.7528825E+03  0.7818609E-02  0.9630839E-01
        2   -1    0    0  501    0  0.00000000000E+00  0.00000000000E+00  0.83692615289E+03  0.83692615290E+03  0.25500000920E-02 0. -1.
       -2   -1    0    0    0  501  0.00000000000E+00  0.00000000000E+00 -0.16931961640E+03  0.16931961642E+03  0.25500000920E-02 0.  1.
    10030    2    1    2    0    0  0.00000000000E+00  0.00000000000E+00  0.66760653649E+03  0.10062457693E+04  0.75288250125E+03 0.  0.
        2    1    3    3  502    0  0.21257609670E+03  0.63775149613E+02  0.74018611516E+03  0.77274274611E+03  0.25500000920E-02 0. -1.
       -2    1    3    3    0  502 -0.21257609670E+03 -0.63775149613E+02 -0.72579578662E+02  0.23350302320E+03  0.25500000920E-02 0.  1.
</event>
<event>
 5   0  0.3717372E-02  0.7033234E+03  0.7818609E-02  0.9711566E-01
        1   -1    0    0  501    0  0.00000000000E+00  0.00000000000E+00  0.33612241986E+03  0.33612241989E+03  0.50400001928E-02 0. -1.
       -1   -1    0    0    0  501  0.00000000000E+00  0.00000000000E+00 -0.36791939771E+03  0.36791939774E+03  0.50400001928E-02 0.  1.
    10030    2    1    2    0    0  0.00000000000E+00  0.00000000000E+00 -0.31796977852E+02  0.70404181763E+03  0.70332342004E+03 0.  0.
        3    1    3    3  502    0  0.91907074996E+02  0.32421480209E+03 -0.11651881992E+03  0.35656527302E+03  0.10100000352E+00 0.  1.
       -3    1    3    3    0  502 -0.91907074996E+02 -0.32421480209E+03  0.84721842063E+02  0.34747654461E+03  0.10100000352E+00 0. -1.
</event>
<event>
 5   0  0.3601475E-02  0.6952631E+03  0.7818609E-02  0.9725367E-01
        1   -1    0    0  501    0  0.00000000000E+00  0.00000000000E+00  0.83120616771E+02  0.83120616923E+02  0.50400001928E-02 0. -1.
       -1   -1    0    0    0  501  0.00000000000E+00  0.00000000000E+00 -0.14538833434E+04  0.14538833434E+04  0.50400001928E-02 0.  1.
    10030    2    1    2    0    0  0.00000000000E+00  0.00000000000E+00 -0.13707627267E+04  0.15370039604E+04  0.69526305912E+03 0.  0.
        5    1    3    3  502    0  0.17753534899E+03  0.14946503755E+03 -0.11330206815E+03  0.25829836669E+03  0.46999998093E+01 0. -1.
       -5    1    3    3    0  502 -0.17753534899E+03 -0.14946503755E+03 -0.12574606585E+04  0.12787055937E+04  0.46999998093E+01 0.  1.
</event>
<event>
 5   0  0.6131198E-02  0.6738061E+03  0.7818609E-02  0.9763106E-01
        2   -1    0    0  501    0  0.00000000000E+00  0.00000000000E+00  0.59693828675E+03  0.59693828676E+03  0.25500000920E-02 0.  1.
       -2   -1    0    0    0  501  0.00000000000E+00  0.00000000000E+00 -0.19014305232E+03  0.19014305234E+03  0.25500000920E-02 0. -1.
    10030    2    1    2    0    0  0.00000000000E+00  0.00000000000E+00  0.40679523443E+03  0.78708133910E+03  0.67380610831E+03 0.  0.
        1    1    3    3  502    0 -0.10429100345E+03 -0.29224733024E+03  0.35667673458E+03  0.47276147099E+03  0.50400001928E-02 0. -1.
       -1    1    3    3    0  502  0.10429100345E+03  0.29224733024E+03  0.50118499849E+02  0.31431986811E+03  0.50400001928E-02 0.  1.
</event>
<event>
 5   0  0.5987810E-02  0.7077363E+03  0.7818609E-02  0.9704093E-01
        2   -1    0    0  501    0  0.00000000000E+00  0.00000000000E+00  0.79871618332E+03  0.79871618332E+03  0.25500000920E-02 0.  1.
       -2   -1    0    0    0  501  0.00000000000E+00  0.00000000000E+00 -0.15677991041E+03  0.15677991043E+03  0.25500000920E-02 0. -1.
    10030    2    1    2    0    0  0.00000000000E+00  0.00000000000E+00  0.64193627291E+03  0.95549609375E+03  0.70773625504E+03 0.  0.
        5    1    3    3  502    0 -0.53015861705E+01 -0.29468097674E+03  0.56630822090E+02  0.30015683380E+03  0.46999998093E+01 0. -1.
       -5    1    3    3    0  502  0.53015861705E+01  0.29468097674E+03  0.58530545082E+03  0.65533925995E+03  0.46999998093E+01 0.  1.
</event>
<event>
 5   0  0.5987810E-02  0.7061865E+03  0.7818609E-02  0.9706711E-01
        2   -1    0    0  501    0  0.00000000000E+00  0.00000000000E+00  0.13875075605E+04  0.13875075605E+04  0.25500000920E-02 0. -1.
       -2   -1    0    0    0  501  0.00000000000E+00  0.00000000000E+00 -0.89855242519E+02  0.89855242555E+02  0.25500000920E-02 0.  1.
    10030    2    1    2    0    0  0.00000000000E+00  0.00000000000E+00  0.12976523180E+04  0.14773628031E+04  0.70618645802E+03 0.  0.
        5    1    3    3  502    0 -0.85366600324E+02 -0.34086477251E+03  0.72058272900E+03  0.80170930450E+03  0.46999998093E+01 0.  1.
       -5    1    3    3    0  502  0.85366600324E+02  0.34086477251E+03  0.57706958898E+03  0.67565349856E+03  0.46999998093E+01 0. -1.
</event>
<event>
 5   0  0.3749730E-02  0.7019464E+03  0.7818609E-02  0.9713909E-01
        1   -1    0    0  501    0  0.00000000000E+00  0.00000000000E+00  0.13858071974E+03  0.13858071984E+03  0.50400001928E-02 0.  1.
       -1   -1    0    0    0  501  0.00000000000E+00  0.00000000000E+00 -0.88888398214E+03  0.88888398216E+03  0.50400001928E-02 0. -1.
    10030    2    1    2    0    0  0.00000000000E+00  0.00000000000E+00 -0.75030326240E+03  0.10274647020E+04  0.70194638561E+03 0.  0.
        4    1    3    3  502    0  0.23495099321E+03  0.28359980388E+02  0.42197629138E+01  0.23669743767E+03  0.12699999809E+01 0.  1.
       -4    1    3    3    0  502 -0.23495099321E+03 -0.28359980388E+02 -0.75452302531E+03  0.79076726432E+03  0.12699999809E+01 0. -1.
</event>
<event>
 5   0  0.3749730E-02  0.7002883E+03  0.7818609E-02  0.9716739E-01
       -1   -1    0    0    0  501  0.00000000000E+00  0.00000000000E+00  0.37913673172E+03  0.37913673175E+03  0.50400001928E-02 0.  1.
        1   -1    0    0  501    0  0.00000000000E+00  0.00000000000E+00 -0.32336860810E+03  0.32336860814E+03  0.50400001928E-02 0. -1.
    10030    2    1    2    0    0  0.00000000000E+00  0.00000000000E+00  0.55768123618E+02  0.70250533989E+03  0.70028827562E+03 0.  0.
        4    1    3    3  502    0  0.20733811643E+03  0.77463992732E+02  0.30005379355E+03  0.37285876229E+03  0.12699999809E+01 0.  1.
       -4    1    3    3    0  502 -0.20733811643E+03 -0.77463992732E+02 -0.24428566993E+03  0.32964657760E+03  0.12699999809E+01 0. -1.
</event>
<event>
 5   0  0.3755872E-02  0.7020507E+03  0.7818609E-02  0.9713732E-01
       -1   -1    0    0    0  501  0.00000000000E+00  0.00000000000E+00  0.10168762193E+03  0.10168762205E+03  0.50400001928E-02 0. -1.
        1   -1    0    0  501    0  0.00000000000E+00  0.00000000000E+00 -0.12117384183E+04  0.12117384183E+04  0.50400001928E-02 0.  1.
    10030    2    1    2    0    0  0.00000000000E+00  0.00000000000E+00 -0.11100507963E+04  0.13134260403E+04  0.70205070541E+03 0.  0.
        2    1    3    3  502    0  0.74556196057E+02 -0.23576687703E+03 -0.10211398180E+04  0.10506527374E+04  0.25500000920E-02 0.  1.
       -2    1    3    3    0  502 -0.74556196057E+02  0.23576687703E+03 -0.88910978381E+02  0.26277330298E+03  0.25500000920E-02 0. -1.
</event>
<event>
 5   0  0.6131198E-02  0.6971293E+03  0.7818609E-02  0.9722154E-01
       -2   -1    0    0    0  501  0.00000000000E+00  0.00000000000E+00  0.15004351806E+03  0.15004351808E+03  0.25500000920E-02 0. -1.
        2   -1    0    0  501    0  0.00000000000E+00  0.00000000000E+00 -0.80974709525E+03  0.80974709526E+03  0.25500000920E-02 0.  1.
    10030    2    1    2    0    0  0.00000000000E+00  0.00000000000E+00 -0.65970357719E+03  0.95979061334E+03  0.69712926469E+03 0.  0.
        1    1    3    3  502    0 -0.18699142155E+03  0.21852842131E+03 -0.58739381674E+02  0.29354859502E+03  0.50400001928E-02 0. -1.
       -1    1    3    3    0  502  0.18699142155E+03 -0.21852842131E+03 -0.60096419552E+03  0.66624201832E+03  0.50400001928E-02 0.  1.
</event>
<event>
 5   0  0.5987810E-02  0.6760612E+03  0.7818609E-02  0.9759070E-01
        2   -1    0    0  501    0  0.00000000000E+00  0.00000000000E+00  0.12375399884E+04  0.12375399884E+04  0.25500000920E-02 0.  1.
       -2   -1    0    0    0  501  0.00000000000E+00  0.00000000000E+00 -0.92332110600E+02  0.92332110636E+02  0.25500000920E-02 0. -1.
    10030    2    1    2    0    0  0.00000000000E+00  0.00000000000E+00  0.11452078778E+04  0.13298720990E+04  0.67606117801E+03 0.  0.
        5    1    3    3  502    0  0.20034347685E+03  0.23889092986E+03  0.31585403313E+03  0.44383808459E+03  0.46999998093E+01 0.  1.
       -5    1    3    3    0  502 -0.20034347685E+03 -0.23889092986E+03  0.82935384463E+03  0.88603401441E+03  0.46999998093E+01 0. -1.
</event>
<event>
 5   0  0.6248886E-02  0.7172670E+03  0.7818609E-02  0.9688151E-01
       -2   -1    0    0    0  501  0.00000000000E+00  0.00000000000E+00  0.57576066447E+03  0.57576066448E+03  0.25500000920E-02 0.  1.
        2   -1    0    0  501    0  0.00000000000E+00  0.00000000000E+00 -0.22338796634E+03  0.22338796636E+03  0.25500000920E-02 0. -1.
    10030    2    1    2    0    0  0.00000000000E+00  0.00000000000E+00  0.35237269813E+03  0.79914863084E+03  0.71726704635E+03 0.  0.
        3    1    3    3  502    0  0.46089001976E+02  0.33332084214E+03  0.37963355106E+02  0.33862694287E+03  0.10100000352E+00 0. -1.
       -3    1    3    3    0  502 -0.46089001976E+02 -0.33332084214E+03  0.31440934302E+03  0.46052168797E+03  0.10100000352E+00 0.  1.
</event>
<event>
 5   0  0.3749730E-02  0.6973275E+03  0.7818609E-02  0.9721813E-01
       -1   -1    0    0    0  501  0.00000000000E+00  0.00000000000E+00  0.15855472474E+03  0.15855472482E+03  0.50400001928E-02 0.  1.
        1   -1    0    0  501    0  0.00000000000E+00  0.00000000000E+00 -0.76671589329E+03  0.76671589330E+03  0.50400001928E-02 0. -1.
    10030    2    1    2    0    0  0.00000000000E+00  0.00000000000E+00 -0.60816116855E+03  0.92527061812E+03  0.69732754846E+03 0.  0.
        4    1    3    3  502    0  0.28838186617E+03 -0.11519941038E+03 -0.51442285036E+03  0.60088891383E+03  0.12699999809E+01 0. -1.
       -4    1    3    3    0  502 -0.28838186617E+03  0.11519941038E+03 -0.93738318187E+02  0.32438170430E+03  0.12699999809E+01 0.  1.
</event>
<event>
 5   0  0.6131198E-02  0.7078026E+03  0.7818609E-02  0.9703981E-01
       -2   -1    0    0    0  501  0.00000000000E+00  0.00000000000E+00  0.29184272673E+03  0.29184272674E+03  0.25500000920E-02 0. -1.
        2   -1    0    0  501    0  0.00000000000E+00  0.00000000000E+00 -0.42915619571E+03  0.42915619572E+03  0.25500000920E-02 0.  1.
    10030    2    1    2    0    0  0.00000000000E+00  0.00000000000E+00 -0.13731346898E+03  0.72099892246E+03  0.70780255539E+03 0.  0.
        1    1    3    3  502    0 -0.97245347776E+01 -0.10612828152E+03 -0.41242209467E+03  0.42596920418E+03  0.50400001928E-02 0.  1.
       -1    1    3    3    0  502  0.97245347776E+01  0.10612828152E+03  0.27510862568E+03  0.29502971828E+03  0.50400001928E-02 0. -1.
</event>
<event>
 5   0  0.3749730E-02  0.7159420E+03  0.7818609E-02  0.9690351E-01
        1   -1    0    0  501    0  0.00000000000E+00  0.00000000000E+00  0.35818983632E+03  0.35818983636E+03  0.50400001928E-02 0.  1.
       -1   -1    0    0    0  501  0.00000000000E+00  0.00000000000E+00 -0.35775234165E+03  0.35775234168E+03  0.50400001928E-02 0. -1.
    10030    2    1    2    0    0  0.00000000000E+00  0.00000000000E+00  0.43749467416E+00  0.71594217804E+03  0.71594204437E+03 0.  0.
        4    1    3    3  502    0  0.12630275515E+03 -0.32280879728E+03  0.89570508622E+02  0.35802568968E+03  0.12699999809E+01 0.  1.
       -4    1    3    3    0  502 -0.12630275515E+03  0.32280879728E+03 -0.89133013947E+02  0.35791648835E+03  0.12699999809E+01 0. -1.
</event>
<event>
 5   0  0.6248886E-02  0.5635903E+03  0.7818609E-02  0.9983963E-01
        2   -1    0    0  501    0  0.00000000000E+00  0.00000000000E+00  0.89601722315E+03  0.89601722316E+03  0.25500000920E-02 0.  1.
       -2   -1    0    0    0  501  0.00000000000E+00  0.00000000000E+00 -0.88623870816E+02  0.88623870853E+02  0.25500000920E-02 0. -1.
    10030    2    1    2    0    0  0.00000000000E+00  0.00000000000E+00  0.80739335234E+03  0.98464109401E+03  0.56359032871E+03 0.  0.
        3    1    3    3  502    0 -0.26900567258E+03 -0.36935068962E+02  0.27202320796E+03  0.38434995390E+03  0.10100000352E+00 0. -1.
       -3    1    3    3    0  502  0.26900567258E+03  0.36935068962E+02  0.53537014438E+03  0.60029114011E+03  0.10100000352E+00 0.  1.
</event>
<event>
 5   0  0.6167756E-02  0.7030272E+03  0.7818609E-02  0.9712069E-01
       -2   -1    0    0    0  501  0.00000000000E+00  0.00000000000E+00  0.65166756108E+02  0.65166756158E+02  0.25500000920E-02 0.  1.
        2   -1    0    0  501    0  0.00000000000E+00  0.00000000000E+00 -0.18960864737E+04  0.18960864737E+04  0.25500000920E-02 0. -1.
    10030    2    1    2    0    0  0.00000000000E+00  0.00000000000E+00 -0.18309197176E+04  0.19612532299E+04  0.70302718252E+03 0.  0.
        4    1    3    3  502    0 -0.31414039799E+03  0.10530071237E+03 -0.58788659504E+03  0.67482197001E+03  0.12699999809E+01 0.  1.
       -4    1    3    3    0  502  0.31414039799E+03 -0.10530071237E+03 -0.12430331225E+04  0.12864312598E+04  0.12699999809E+01 0. -1.
</event>
<event>
 5   0  0.3439015E-02  0.7034523E+03  0.7818609E-02  0.9711346E-01
        1   -1    0    0  501    0  0.00000000000E+00  0.00000000000E+00  0.91362944195E+03  0.91362944197E+03  0.50400001928E-02 0.  1.
       -1   -1    0    0    0  501  0.00000000000E+00  0.00000000000E+00 -0.13540640162E+03  0.13540640172E+03  0.50400001928E-02 0. -1.
    10030    2    1    2    0    0  0.00000000000E+00  0.00000000000E+00  0.77822304033E+03  0.10490358437E+04  0.70345227332E+03 0.  0.
        1    1    3    3  502    0 -0.15545694741E+03  0.28825075406E+03  0.58041228835E+03  0.66643363076E+03  0.50400001928E-02 0.  1.
       -1    1    3    3    0  502  0.15545694741E+03 -0.28825075406E+03  0.19781075198E+03  0.38260221293E+03  0.50400001928E-02 0. -1.
</event>
<event>
 5   0  0.6131198E-02  0.6919396E+03  0.7818609E-02  0.9731117E-01
       -2   -1    0    0    0  501  0.00000000000E+00  0.00000000000E+00  0.77782815406E+02  0.77782815448E+02  0.25500000920E-02 0. -1.
        2   -1    0    0  501    0  0.00000000000E+00  0.00000000000E+00 -0.15388374892E+04  0.15388374892E+04  0.25500000920E-02 0.  1.
    10030    2    1    2    0    0  0.00000000000E+00  0.00000000000E+00 -0.14610546738E+04  0.16166203047E+04  0.69193962858E+03 0.  0.
        1    1    3    3  502    0  0.33612676329E+03 -0.85113559234E+01 -0.54012517569E+03  0.63623018603E+03  0.50400001928E-02 0. -1.
       -1    1    3    3    0  502 -0.33612676329E+03  0.85113559234E+01 -0.92092949815E+03  0.98039011867E+03  0.50400001928E-02 0.  1.
</event>
<event>
 5   0  0.3717372E-02  0.6823598E+03  0.7818609E-02  0.9747884E-01
        1   -1    0    0  501    0  0.00000000000E+00  0.00000000000E+00  0.11304459086E+04  0.11304459086E+04  0.50400001928E-02 0. -1.
       -1   -1    0    0    0  501  0.00000000000E+00  0.00000000000E+00 -0.10297150442E+03  0.10297150455E+03  0.50400001928E-02 0.  1.
    10030    2    1    2    0    0  0.00000000000E+00  0.00000000000E+00  0.10274744042E+04  0.12334174132E+04  0.68235977596E+03 0.  0.
        3    1    3    3  502    0  0.20590503901E+03 -0.23294964770E+03  0.76770832377E+03  0.82827441349E+03  0.10100000352E+00 0. -1.
       -3    1    3    3    0  502 -0.20590503901E+03  0.23294964770E+03  0.25976608043E+03  0.40514299969E+03  0.10100000352E+00 0.  1.
</event>
<event>
 5   0  0.3601475E-02  0.7082905E+03  0.7818609E-02  0.9703158E-01
        1   -1    0    0  501    0  0.00000000000E+00  0.00000000000E+00  0.30940841046E+03  0.30940841050E+03  0.50400001928E-02 0. -1.
       -1   -1    0    0    0  501  0.00000000000E+00  0.00000000000E+00 -0.40535052693E+03  0.40535052696E+03  0.50400001928E-02 0.  1.
    10030    2    1    2    0    0  0.00000000000E+00  0.00000000000E+00 -0.95942116478E+02  0.71475893746E+03  0.70829051170E+03 0.  0.
        5    1    3    3  502    0 -0.20201926180E+03 -0.16447157047E+03  0.19408212844E+03  0.32488866125E+03  0.46999998093E+01 0. -1.
       -5    1    3    3    0  502  0.20201926180E+03  0.16447157047E+03 -0.29002424492E+03  0.38987027621E+03  0.46999998093E+01 0.  1.
</event>
<event>
 5   0  0.3749730E-02  0.6992186E+03  0.7818609E-02  0.9718569E-01
        1   -1    0    0  501    0  0.00000000000E+00  0.00000000000E+00  0.23493608312E+03  0.23493608317E+03  0.50400001928E-02 0. -1.
       -1   -1    0    0    0  501  0.00000000000E+00  0.00000000000E+00 -0.52025498343E+03  0.52025498346E+03  0.50400001928E-02 0.  1.
    10030    2    1    2    0    0  0.00000000000E+00  0.00000000000E+00 -0.28531890032E+03  0.75519106663E+03  0.69921861548E+03 0.  0.
        4    1    3    3  502    0 -0.16748309672E+03 -0.63785948893E+02 -0.46686487979E+03  0.50008365684E+03  0.12699999809E+01 0.  1.
       -4    1    3    3    0  502  0.16748309672E+03  0.63785948893E+02  0.18154597947E+03  0.25510740978E+03  0.12699999809E+01 0. -1.
</event>
<event>
 5   0  0.3717372E-02  0.8067850E+03  0.7818609E-02  0.9550248E-01
        1   -1    0    0  501    0  0.00000000000E+00  0.00000000000E+00  0.10405496394E+03  0.10405496407E+03  0.50400001928E-02 0.  1.
       -1   -1    0    0    0  501  0.00000000000E+00  0.00000000000E+00 -0.15638416988E+04  0.15638416988E+04  0.50400001928E-02 0. -1.
    10030    2    1    2    0    0  0.00000000000E+00  0.00000000000E+00 -0.14597867348E+04  0.16678966628E+04  0.80678495695E+03 0.  0.
        3    1    3    3  502    0 -0.30903213616E+03 -0.23611410109E+03 -0.95134709443E+03  0.10277704190E+04  0.10100000352E+00 0. -1.
       -3    1    3    3    0  502  0.30903213616E+03  0.23611410109E+03 -0.50843964039E+03  0.64012624382E+03  0.10100000352E+00 0.  1.
</event>
<event>
 5   0  0.3717372E-02  0.6941770E+03  0.7818609E-02  0.9727242E-01
       -1   -1    0    0    0  501  0.00000000000E+00  0.00000000000E+00  0.44822747094E+03  0.44822747097E+03  0.50400001928E-02 0.  1.
        1   -1    0    0  501    0  0.00000000000E+00  0.00000000000E+00 -0.26877073634E+03  0.26877073638E+03  0.50400001928E-02 0. -1.
    10030    2    1    2    0    0  0.00000000000E+00  0.00000000000E+00  0.17945673460E+03  0.71699820735E+03  0.69417700174E+03 0.  0.
        3    1    3    3  502    0  0.33325722577E+03 -0.20070956258E+02  0.18775467426E+03  0.38303400596E+03  0.10100000352E+00 0. -1.
       -3    1    3    3    0  502 -0.33325722577E+03  0.20070956258E+02 -0.82979396565E+01  0.33396420140E+03  0.10100000352E+00 0.  1.
</event>
<event>
 5   0  0.3749730E-02  0.6966171E+03  0.7818609E-02  0.9723035E-01
       -1   -1    0    0    0  501  0.00000000000E+00  0.00000000000E+00  0.31792046172E+03  0.31792046176E+03  0.50400001928E-02 0.  1.
        1   -1    0    0  501    0  0.00000000000E+00  0.00000000000E+00 -0.38160125340E+03  0.38160125343E+03  0.50400001928E-02 0. -1.
    10030    2    1    2    0    0  0.00000000000E+00  0.00000000000E+00 -0.63680791679E+02  0.69952171519E+03  0.69661710200E+03 0.  0.
        4    1    3    3  502    0 -0.13558988822E+03 -0.55672005207E+02  0.28544103833E+03  0.32087721828E+03  0.12699999809E+01 0.  1.
       -4    1    3    3    0  502  0.13558988822E+03  0.55672005207E+02 -0.34912183001E+03  0.37864449691E+03  0.12699999809E+01 0. -1.
</event>
<event>
 5   0  0.3717372E-02  0.7054303E+03  0.7818609E-02  0.9707990E-01
        1   -1    0    0  501    0  0.00000000000E+00  0.00000000000E+00  0.10398978734E+04  0.10398978735E+04  0.50400001928E-02 0.  1.
       -1   -1    0    0    0  501  0.00000000000E+00  0.00000000000E+00 -0.11963479898E+03  0.11963479909E+03  0.50400001928E-02 0. -1.
    10030    2    1    2    0    0  0.00000000000E+00  0.00000000000E+00  0.92026307446E+03  0.11595326726E+04  0.70543028890E+03 0.  0.
        3    1    3    3  502    0 -0.27637394823E+03  0.17749549949E+03  0.67140443281E+03  0.74744306418E+03  0.10100000352E+00 0. -1.
       -3    1    3    3    0  502  0.27637394823E+03 -0.17749549949E+03  0.24885864166E+03  0.41208960837E+03  0.10100000352E+00 0.  1.
</event>
<event>
 5   0  0.3439015E-02  0.6992017E+03  0.7818609E-02  0.9718598E-01
       -1   -1    0    0    0  501  0.00000000000E+00  0.00000000000E+00  0.37218480037E+03  0.37218480040E+03  0.50400001928E-02 0.  1.
        1   -1    0    0  501    0  0.00000000000E+00  0.00000000000E+00 -0.32838732483E+03  0.32838732487E+03  0.50400001928E-02 0. -1.
    10030    2    1    2    0    0  0.00000000000E+00  0.00000000000E+00  0.43797475537E+02  0.70057212527E+03  0.69920174760E+03 0.  0.
        1    1    3    3  502    0 -0.24532605258E+02 -0.32853534625E+03  0.13910427474E+03  0.35761336906E+03  0.50400001928E-02 0.  1.
       -1    1    3    3    0  502  0.24532605258E+02  0.32853534625E+03 -0.95306799207E+02  0.34295875620E+03  0.50400001928E-02 0. -1.
</event>
<event>
 5   0  0.3717372E-02  0.7124727E+03  0.7818609E-02  0.9696137E-01
       -1   -1    0    0    0  501  0.00000000000E+00  0.00000000000E+00  0.81955316240E+02  0.81955316395E+02  0.50400001928E-02 0.  1.
        1   -1    0    0  501    0  0.00000000000E+00  0.00000000000E+00 -0.15484575968E+04  0.15484575968E+04  0.50400001928E-02 0. -1.
    10030    2    1    2    0    0  0.00000000000E+00  0.00000000000E+00 -0.14665022806E+04  0.16304129132E+04  0.71247268625E+03 0.  0.
        3    1    3    3  502    0  0.46732554425E+02  0.35799797916E+02 -0.15372495141E+04  0.15383762986E+04  0.10100000352E+00 0. -1.
       -3    1    3    3    0  502 -0.46732554425E+02 -0.35799797916E+02  0.70747233559E+02  0.92036614623E+02  0.10100000352E+00 0.  1.
</event>
<event>
 5   0  0.6248886E-02  0.7079164E+03  0.7818609E-02  0.9703789E-01
       -2   -1    0    0    0  501  0.00000000000E+00  0.00000000000E+00  0.15173360656E+04  0.15173360656E+04  0.25500000920E-02 0. -1.
        2   -1    0    0  501    0  0.00000000000E+00  0.00000000000E+00 -0.82569978999E+02  0.82569979038E+02  0.25500000920E-02 0.  1.
    10030    2    1    2    0    0  0.00000000000E+00  0.00000000000E+00  0.14347660866E+04  0.15999060446E+04  0.70791639930E+03 0.  0.
        3    1    3    3  502    0  0.25152398656E+03  0.24831470341E+03  0.67438979186E+03  0.76139747131E+03  0.10100000352E+00 0.  1.
       -3    1    3    3    0  502 -0.25152398656E+03 -0.24831470341E+03  0.76037629470E+03  0.83850857330E+03  0.10100000352E+00 0. -1.
</event>
<event>
 5   0  0.5899787E-02  0.7027539E+03  0.7818609E-02  0.9712534E-01
        2   -1    0    0  501    0  0.00000000000E+00  0.00000000000E+00  0.48605027418E+03  0.48605027419E+03  0.25500000920E-02 0.  1.
       -2   -1    0    0    0  501  0.00000000000E+00  0.00000000000E+00 -0.25401849164E+03  0.25401849165E+03  0.25500000920E-02 0. -1.
    10030    2    1    2    0    0  0.00000000000E+00  0.00000000000E+00  0.23203178254E+03  0.74006876584E+03  0.70275389011E+03 0.  0.
        2    1    3    3  502    0 -0.42703588841E+02 -0.44703103189E+02 -0.24824613957E+03  0.25582828177E+03  0.25500000920E-02 0. -1.
       -2    1    3    3    0  502  0.42703588841E+02  0.44703103189E+02  0.48027792211E+03  0.48424048407E+03  0.25500000920E-02 0.  1.
</event>
<event>
 5   0  0.3601475E-02  0.7032736E+03  0.7818609E-02  0.9711650E-01
       -1   -1    0    0    0  501  0.00000000000E+00  0.00000000000E+00  0.48928092628E+03  0.48928092630E+03  0.50400001928E-02 0.  1.
        1   -1    0    0  501    0  0.00000000000E+00  0.00000000000E+00 -0.25271463977E+03  0.25271463982E+03  0.50400001928E-02 0. -1.
    10030    2    1    2    0    0  0.00000000000E+00  0.00000000000E+00  0.23656628651E+03  0.74199556613E+03  0.70327363966E+03 0.  0.
        5    1    3    3  502    0  0.31253721908E+03 -0.56415043393E+02  0.27746849328E+03  0.42174995578E+03  0.46999998093E+01 0.  1.
       -5    1    3    3    0  502 -0.31253721908E+03  0.56415043393E+02 -0.40902206778E+02  0.32024561035E+03  0.46999998093E+01 0. -1.
</event>
<event>
 5   0  0.6248886E-02  0.6958129E+03  0.7818609E-02  0.9724420E-01
        2   -1    0    0  501    0  0.00000000000E+00  0.00000000000E+00  0.10817370351E+04  0.10817370352E+04  0.25500000920E-02 0.  1.
       -2   -1    0    0    0  501  0.00000000000E+00  0.00000000000E+00 -0.11189309765E+03  0.11189309768E+03  0.25500000920E-02 0. -1.
    10030    2    1    2    0    0  0.00000000000E+00  0.00000000000E+00  0.96984393750E+03  0.11936301328E+04  0.69581292809E+03 0.  0.
        3    1    3    3  502    0 -0.33445380732E+02  0.24493139540E+03  0.64973995245E+02  0.25560049335E+03  0.10100000352E+00 0. -1.
       -3    1    3    3    0  502  0.33445380732E+02 -0.24493139540E+03  0.90486994225E+03  0.93802963948E+03  0.10100000352E+00 0.  1.
</event>
<event>
 5   0  0.6131198E-02  0.6862700E+03  0.7818609E-02  0.9741005E-01
        2   -1    0    0  501    0  0.00000000000E+00  0.00000000000E+00  0.20979045971E+04  0.20979045971E+04  0.25500000920E-02 0.  1.
       -2   -1    0    0    0  501  0.00000000000E+00  0.00000000000E+00 -0.56123446675E+02  0.56123446733E+02  0.25500000920E-02 0. -1.
    10030    2    1    2    0    0  0.00000000000E+00  0.00000000000E+00  0.20417811505E+04  0.21540280439E+04  0.68627002514E+03 0.  0.
        1    1    3    3  502    0 -0.23569237985E+03 -0.11074970040E+03  0.31957026595E+03  0.41223967417E+03  0.50400001928E-02 0. -1.
       -1    1    3    3    0  502  0.23569237985E+03  0.11074970040E+03  0.17222108845E+04  0.17417883697E+04  0.50400001928E-02 0.  1.
</event>
<event>
 5   0  0.6167756E-02  0.6859086E+03  0.7818609E-02  0.9741638E-01
       -2   -1    0    0    0  501  0.00000000000E+00  0.00000000000E+00  0.22141206421E+03  0.22141206423E+03  0.25500000920E-02 0.  1.
        2   -1    0    0  501    0  0.00000000000E+00  0.00000000000E+00 -0.53121611565E+03  0.53121611566E+03  0.25500000920E-02 0. -1.
    10030    2    1    2    0    0  0.00000000000E+00  0.00000000000E+00 -0.30980405144E+03  0.75262817989E+03  0.68590861408E+03 0.  0.
        4    1    3    3  502    0 -0.17378504056E+03  0.10148710417E+03  0.14980616720E+03  0.25088717238E+03  0.12699999809E+01 0. -1.
       -4    1    3    3    0  502  0.17378504056E+03 -0.10148710417E+03 -0.45961021864E+03  0.50174100750E+03  0.12699999809E+01 0.  1.
</event>
<event>
 5   0  0.5899787E-02  0.6945422E+03  0.7818609E-02  0.9726611E-01
        2   -1    0    0  501    0  0.00000000000E+00  0.00000000000E+00  0.11505013465E+04  0.11505013465E+04  0.25500000920E-02 0.  1.
       -2   -1    0    0    0  501  0.00000000000E+00  0.00000000000E+00 -0.10482145776E+03  0.10482145779E+03  0.25500000920E-02 0. -1.
    10030    2    1    2    0    0  0.00000000000E+00  0.00000000000E+00  0.10456798888E+04  0.12553228043E+04  0.69454223288E+03 0.  0.
        2    1    3    3  502    0 -0.28605877767E+03  0.15988784559E+03  0.31515692958E+03  0.45466211379E+03  0.25500000920E-02 0.  1.
       -2    1    3    3    0  502  0.28605877767E+03 -0.15988784559E+03  0.73052295918E+03  0.80066069051E+03  0.25500000920E-02 0. -1.
</event>
<event>
 5   0  0.3601475E-02  0.6819971E+03  0.7818609E-02  0.9748525E-01
        1   -1    0    0  501    0  0.00000000000E+00  0.00000000000E+00  0.46157694695E+03  0.46157694698E+03  0.50400001928E-02 0.  1.
       -1   -1    0    0    0  501  0.00000000000E+00  0.00000000000E+00 -0.25191900149E+03  0.25191900154E+03  0.50400001928E-02 0. -1.
    10030    2    1    2    0    0  0.00000000000E+00  0.00000000000E+00  0.20965794546E+03  0.71349594851E+03  0.68199707804E+03 0.  0.
        5    1    3    3  502    0 -0.25390607152E+03 -0.69360168202E+02  0.33158555332E+03  0.42337949320E+03  0.46999998093E+01 0.  1.
       -5    1    3    3    0  502  0.25390607152E+03  0.69360168202E+02 -0.12192760786E+03  0.29011645532E+03  0.46999998093E+01 0. -1.
</event>
<event>
 5   0  0.5899787E-02  0.7047858E+03  0.7818609E-02  0.9709083E-01
        2   -1    0    0  501    0  0.00000000000E+00  0.00000000000E+00  0.30652789884E+04  0.30652789884E+04  0.25500000920E-02 0. -1.
       -2   -1    0    0    0  501  0.00000000000E+00  0.00000000000E+00 -0.40512062018E+02  0.40512062098E+02  0.25500000920E-02 0.  1.
    10030    2    1    2    0    0  0.00000000000E+00  0.00000000000E+00  0.30247669264E+04  0.31057910505E+04  0.70478584721E+03 0.  0.
        2    1    3    3  502    0 -0.89423003449E+00 -0.30907914157E+03  0.76648827343E+03  0.82645930857E+03  0.25500000920E-02 0.  1.
       -2    1    3    3    0  502  0.89423003449E+00  0.30907914157E+03  0.22582786530E+04  0.22793317420E+04  0.25500000920E-02 0. -1.
</event>
<event>
 5   0  0.3601475E-02  0.7500157E+03  0.7818609E-02  0.9635326E-01
        1   -1    0    0  501    0  0.00000000000E+00  0.00000000000E+00  0.87405330941E+03  0.87405330943E+03  0.50400001928E-02 0. -1.
       -1   -1    0    0    0  501  0.00000000000E+00  0.00000000000E+00 -0.16089509352E+03  0.16089509360E+03  0.50400001928E-02 0.  1.
    10030    2    1    2    0    0  0.00000000000E+00  0.00000000000E+00  0.71315821589E+03  0.10349484030E+04  0.75001570386E+03 0.  0.
        5    1    3    3  502    0  0.22086166600E+03 -0.23643161101E+03  0.61813891512E+03  0.69770881503E+03  0.46999998093E+01 0.  1.
       -5    1    3    3    0  502 -0.22086166600E+03  0.23643161101E+03  0.95019300774E+02  0.33723958800E+03  0.46999998093E+01 0. -1.
</event>
<event>
 5   0  0.3755872E-02  0.6964603E+03  0.7818609E-02  0.9723305E-01
       -1   -1    0    0    0  501  0.00000000000E+00  0.00000000000E+00  0.18414273385E+03  0.18414273392E+03  0.50400001928E-02 0.  1.
        1   -1    0    0  501    0  0.00000000000E+00  0.00000000000E+00 -0.65853395697E+03  0.65853395699E+03  0.50400001928E-02 0. -1.
    10030    2    1    2    0    0  0.00000000000E+00  0.00000000000E+00 -0.47439122312E+03  0.84267669090E+03  0.69646031676E+03 0.  0.
        2    1    3    3  502    0  0.14007662300E+03 -0.24142195688E+03  0.14746250942E+02  0.27950576648E+03  0.25500000920E-02 0.  1.
       -2    1    3    3    0  502 -0.14007662300E+03  0.24142195688E+03 -0.48913747406E+03  0.56317092442E+03  0.25500000920E-02 0. -1.
</event>
<event>
 5   0  0.3755872E-02  0.6784235E+03  0.7818609E-02  0.9754859E-01
        1   -1    0    0  501    0  0.00000000000E+00  0.00000000000E+00  0.80994979605E+03  0.80994979606E+03  0.50400001928E-02 0. -1.
       -1   -1    0    0    0  501  0.00000000000E+00  0.00000000000E+00 -0.14206389873E+03  0.14206389882E+03  0.50400001928E-02 0.  1.
    10030    2    1    2    0    0  0.00000000000E+00  0.00000000000E+00  0.66788589732E+03  0.95201369488E+03  0.67842354278E+03 0.  0.
        2    1    3    3  502    0  0.79489888178E+02 -0.32930002255E+03  0.35854944509E+03  0.49326955283E+03  0.25500000920E-02 0.  1.
       -2    1    3    3    0  502 -0.79489888178E+02  0.32930002255E+03  0.30933645223E+03  0.45874414204E+03  0.25500000920E-02 0. -1.
</event>
<event>
 5   0  0.3755872E-02  0.7114279E+03  0.7818609E-02  0.9697886E-01
       -1   -1    0    0    0  501  0.00000000000E+00  0.00000000000E+00  0.22618486925E+03  0.22618486930E+03  0.50400001928E-02 0.  1.
        1   -1    0    0  501    0  0.00000000000E+00  0.00000000000E+00 -0.55942040654E+03  0.55942040657E+03  0.50400001928E-02 0. -1.
    10030    2    1    2    0    0  0.00000000000E+00  0.00000000000E+00 -0.33323553730E+03  0.78560527587E+03  0.71142794867E+03 0.  0.
        2    1    3    3  502    0 -0.41191172971E+01  0.26932523568E+03 -0.42317686789E+03  0.50162905740E+03  0.25500000920E-02 0. -1.
       -2    1    3    3    0  502  0.41191172971E+01 -0.26932523568E+03  0.89941330598E+02  0.28397621847E+03  0.25500000920E-02 0.  1.
</event>
<event>
 5   0  0.6131198E-02  0.6983109E+03  0.7818609E-02  0.9720125E-01
       -2   -1    0    0    0  501  0.00000000000E+00  0.00000000000E+00  0.11032888969E+03  0.11032888972E+03  0.25500000920E-02 0.  1.
        2   -1    0    0  501    0  0.00000000000E+00  0.00000000000E+00 -0.11049646010E+04  0.11049646010E+04  0.25500000920E-02 0. -1.
    10030    2    1    2    0    0  0.00000000000E+00  0.00000000000E+00 -0.99463571133E+03  0.12152934907E+04  0.69831086944E+03 0.  0.
        1    1    3    3  502    0  0.17552865932E+03 -0.17337584754E+03 -0.92728939863E+03  0.95954943780E+03  0.50400001928E-02 0. -1.
       -1    1    3    3    0  502 -0.17552865932E+03  0.17337584754E+03 -0.67346312698E+02  0.25574405294E+03  0.50400001928E-02 0.  1.
</event>
<event>
 5   0  0.6167756E-02  0.6968437E+03  0.7818609E-02  0.9722645E-01
        2   -1    0    0  501    0  0.00000000000E+00  0.00000000000E+00  0.10540212689E+04  0.10540212689E+04  0.25500000920E-02 0. -1.
       -2   -1    0    0    0  501  0.00000000000E+00  0.00000000000E+00 -0.11517585103E+03  0.11517585106E+03  0.25500000920E-02 0.  1.
    10030    2    1    2    0    0  0.00000000000E+00  0.00000000000E+00  0.93884541791E+03  0.11691971200E+04  0.69684373190E+03 0.  0.
        4    1    3    3  502    0  0.79955412044E+02 -0.13775814800E+03  0.98935498427E+03  0.10020953413E+04  0.12699999809E+01 0. -1.
       -4    1    3    3    0  502 -0.79955412044E+02  0.13775814800E+03 -0.50509566353E+02  0.16710177871E+03  0.12699999809E+01 0.  1.
</event>
<event>
 5   0  0.2439375E-02  0.6802733E+03  0.7818609E-02  0.9751575E-01
       -3   -1    0    0    0  501  0.00000000000E+00  0.00000000000E+00  0.20056189143E+03  0.20056191687E+03  0.10100000352E+00 0.  1.
        3   -1    0    0  501    0  0.00000000000E+00  0.00000000000E+00 -0.57684405462E+03  0.57684406347E+03  0.10100000352E+00 0. -1.
    10030    2    1    2    0    0  0.00000000000E+00  0.00000000000E+00 -0.37628216319E+03  0.77740598033E+03  0.68027332148E+03 0.  0.
        5    1    3    3  502    0 -0.28985476303E+02  0.55027353993E+01 -0.57534181955E+03  0.57611694755E+03  0.46999998093E+01 0. -1.
       -5    1    3    3    0  502  0.28985476303E+02 -0.55027353993E+01  0.19905965636E+03  0.20128903279E+03  0.46999998093E+01 0.  1.
</event>
<event>
 5   0  0.3717372E-02  0.7163923E+03  0.7818609E-02  0.9689603E-01
       -1   -1    0    0    0  501  0.00000000000E+00  0.00000000000E+00  0.18285642201E+03  0.18285642208E+03  0.50400001928E-02 0. -1.
        1   -1    0    0  501    0  0.00000000000E+00  0.00000000000E+00 -0.70166790188E+03  0.70166790190E+03  0.50400001928E-02 0.  1.
    10030    2    1    2    0    0  0.00000000000E+00  0.00000000000E+00 -0.51881147988E+03  0.88452432398E+03  0.71639230039E+03 0.  0.
        3    1    3    3  502    0  0.10121077444E+03  0.21096804542E+03  0.75451778592E+02  0.24585385526E+03  0.10100000352E+00 0. -1.
       -3    1    3    3    0  502 -0.10121077444E+03 -0.21096804542E+03 -0.59426325847E+03  0.63867046872E+03  0.10100000352E+00 0.  1.
</event>
<event>
 5   0  0.6248886E-02  0.7029662E+03  0.7818609E-02  0.9712173E-01
        2   -1    0    0  501    0  0.00000000000E+00  0.00000000000E+00  0.15161018412E+04  0.15161018412E+04  0.25500000920E-02 0.  1.
       -2   -1    0    0    0  501  0.00000000000E+00  0.00000000000E+00 -0.81485540207E+02  0.81485540247E+02  0.25500000920E-02 0. -1.
    10030    2    1    2    0    0  0.00000000000E+00  0.00000000000E+00  0.14346163010E+04  0.15975873815E+04  0.70296622272E+03 0.  0.
        3    1    3    3  502    0  0.32344891270E+02 -0.24787630322E+03  0.15577114485E+03  0.29453949388E+03  0.10100000352E+00 0. -1.
       -3    1    3    3    0  502 -0.32344891270E+02  0.24787630322E+03  0.12788451561E+04  0.13030478876E+04  0.10100000352E+00 0.  1.
</event>
<event>
 5   0  0.3717372E-02  0.6902169E+03  0.7818609E-02  0.9734110E-01
       -1   -1    0    0    0  501  0.00000000000E+00  0.00000000000E+00  0.27819687385E+03  0.27819687390E+03  0.50400001928E-02 0. -1.
        1   -1    0    0  501    0  0.00000000000E+00  0.00000000000E+00 -0.42811355929E+03  0.42811355932E+03  0.50400001928E-02 0.  1.
    10030    2    1    2    0    0  0.00000000000E+00  0.00000000000E+00 -0.14991668544E+03  0.70631043322E+03  0.69021693365E+03 0.  0.
        3    1    3    3  502    0  0.15354663036E+03  0.30008950965E+03 -0.15063924365E+03  0.36921873385E+03  0.10100000352E+00 0. -1.
       -3    1    3    3    0  502 -0.15354663036E+03 -0.30008950965E+03  0.72255820531E+00  0.33709169937E+03  0.10100000352E+00 0.  1.
</event>
<event>
 5   0  0.3755872E-02  0.6999590E+03  0.7818609E-02  0.9717302E-01
       -1   -1    0    0    0  501  0.00000000000E+00  0.00000000000E+00  0.98161304842E+03  0.98161304843E+03  0.50400001928E-02 0. -1.
        1   -1    0    0  501    0  0.00000000000E+00  0.00000000000E+00 -0.12477996988E+03  0.12477996999E+03  0.50400001928E-02 0.  1.
    10030    2    1    2    0    0  0.00000000000E+00  0.00000000000E+00  0.85683307853E+03  0.11063930184E+04  0.69995898932E+03 0.  0.
        2    1    3    3  502    0  0.31293224306E+03 -0.32891730246E+01  0.67607148483E+03  0.74498997309E+03  0.25500000920E-02 0. -1.
       -2    1    3    3    0  502 -0.31293224306E+03  0.32891730246E+01  0.18076159370E+03  0.36140304532E+03  0.25500000920E-02 0.  1.
</event>
<event>
 5   0  0.5899787E-02  0.7087913E+03  0.7818609E-02  0.9702315E-01
        2   -1    0    0  501    0  0.00000000000E+00  0.00000000000E+00  0.15955296459E+04  0.15955296459E+04  0.25500000920E-02 0.  1.
       -2   -1    0    0    0  501  0.00000000000E+00  0.00000000000E+00 -0.78717596849E+02  0.78717596890E+02  0.25500000920E-02 0. -1.
    10030    2    1    2    0    0  0.00000000000E+00  0.00000000000E+00  0.15168120490E+04  0.16742472428E+04  0.70879125125E+03 0.  0.
        2    1    3    3  502    0  0.10101363626E+01  0.14693165020E+03  0.15201887646E+04  0.15272733253E+04  0.25500000920E-02 0.  1.
       -2    1    3    3    0  502 -0.10101363626E+01 -0.14693165020E+03 -0.33767155400E+01  0.14697391748E+03  0.25500000920E-02 0. -1.
</event>
<event>
 5   0  0.3601475E-02  0.7022559E+03  0.7818609E-02  0.9713382E-01
        1   -1    0    0  501    0  0.00000000000E+00  0.00000000000E+00  0.32381137930E+03  0.32381137934E+03  0.50400001928E-02 0. -1.
       -1   -1    0    0    0  501  0.00000000000E+00  0.00000000000E+00 -0.38074894545E+03  0.38074894548E+03  0.50400001928E-02 0.  1.
    10030    2    1    2    0    0  0.00000000000E+00  0.00000000000E+00 -0.56937566145E+02  0.70456032483E+03  0.70225591125E+03 0.  0.
        5    1    3    3  502    0 -0.99491810811E+02  0.25170133140E+03  0.19590893935E+03  0.33414754699E+03  0.46999998093E+01 0. -1.
       -5    1    3    3    0  502  0.99491810811E+02 -0.25170133140E+03 -0.25284650549E+03  0.37041277784E+03  0.46999998093E+01 0.  1.
</event>
<event>
 5   0  0.3439015E-02  0.6965076E+03  0.7818609E-02  0.9723223E-01
        1   -1    0    0  501    0  0.00000000000E+00  0.00000000000E+00  0.53969506081E+03  0.53969506083E+03  0.50400001928E-02 0.  1.
       -1   -1    0    0    0  501  0.00000000000E+00  0.00000000000E+00 -0.22472083648E+03  0.22472083653E+03  0.50400001928E-02 0. -1.
    10030    2    1    2    0    0  0.00000000000E+00  0.00000000000E+00  0.31497422433E+03  0.76441589736E+03  0.69650764687E+03 0.  0.
        1    1    3    3  502    0 -0.13748119208E+03  0.13418649577E+03 -0.16130472531E+03  0.25085116754E+03  0.50400001928E-02 0. -1.
       -1    1    3    3    0  502  0.13748119208E+03 -0.13418649577E+03  0.47627894964E+03  0.51356472983E+03  0.50400001928E-02 0.  1.
</event>
<event>
 5   0  0.6167756E-02  0.6999821E+03  0.7818609E-02  0.9717263E-01
        2   -1    0    0  501    0  0.00000000000E+00  0.00000000000E+00  0.48339804822E+03  0.48339804823E+03  0.25500000920E-02 0. -1.
       -2   -1    0    0    0  501  0.00000000000E+00  0.00000000000E+00 -0.25340139128E+03  0.25340139129E+03  0.25500000920E-02 0.  1.
    10030    2    1    2    0    0  0.00000000000E+00  0.00000000000E+00  0.22999665695E+03  0.73679943952E+03  0.69998210825E+03 0.  0.
        4    1    3    3  502    0 -0.13054739603E+03 -0.18428195111E+03  0.39643713355E+03  0.45625264259E+03  0.12699999809E+01 0. -1.
       -4    1    3    3    0  502  0.13054739603E+03  0.18428195111E+03 -0.16644047660E+03  0.28054679693E+03  0.12699999809E+01 0.  1.
</event>
<event>
 5   0  0.3439015E-02  0.7306412E+03  0.7818609E-02  0.9666220E-01
       -1   -1    0    0    0  501  0.00000000000E+00  0.00000000000E+00  0.20887343381E+03  0.20887343388E+03  0.50400001928E-02 0.  1.
        1   -1    0    0  501    0  0.00000000000E+00  0.00000000000E+00 -0.63894750122E+03  0.63894750124E+03  0.50400001928E-02 0. -1.
    10030    2    1    2    0    0  0.00000000000E+00  0.00000000000E+00 -0.43007406741E+03  0.84782093512E+03  0.73064124888E+03 0.  0.
        1    1    3    3  502    0  0.27199544336E+03  0.19107305661E+03 -0.39089756794E+03  0.51311922866E+03  0.50400001928E-02 0. -1.
       -1    1    3    3    0  502 -0.27199544336E+03 -0.19107305661E+03 -0.39176499474E+02  0.33470170646E+03  0.50400001928E-02 0.  1.
</event>
<event>
 5   0  0.6167756E-02  0.6950526E+03  0.7818609E-02  0.9725731E-01
        2   -1    0    0  501    0  0.00000000000E+00  0.00000000000E+00  0.82043196138E+03  0.82043196138E+03  0.25500000920E-02 0.  1.
       -2   -1    0    0    0  501  0.00000000000E+00  0.00000000000E+00 -0.14720844843E+03  0.14720844845E+03  0.25500000920E-02 0. -1.
    10030    2    1    2    0    0  0.00000000000E+00  0.00000000000E+00  0.67322351295E+03  0.96764040984E+03  0.69505256230E+03 0.  0.
        4    1    3    3  502    0 -0.18578072541E+03 -0.63181268029E+02 -0.62696230761E+02  0.20600674944E+03  0.12699999809E+01 0. -1.
       -4    1    3    3    0  502  0.18578072541E+03  0.63181268029E+02  0.73591974371E+03  0.76163366039E+03  0.12699999809E+01 0.  1.
</event>
<event>
 5   0  0.5987810E-02  0.7195188E+03  0.7818609E-02  0.9684423E-01
        2   -1    0    0  501    0  0.00000000000E+00  0.00000000000E+00  0.29085993353E+03  0.29085993354E+03  0.25500000920E-02 0.  1.
       -2   -1    0    0    0  501  0.00000000000E+00  0.00000000000E+00 -0.44497986300E+03  0.44497986300E+03  0.25500000920E-02 0. -1.
    10030    2    1    2    0    0  0.00000000000E+00  0.00000000000E+00 -0.15411992947E+03  0.73583979654E+03  0.71951876523E+03 0.  0.
        5    1    3    3  502    0  0.21886046825E+03  0.24767979245E+03  0.68144994097E+02  0.33750705825E+03  0.46999998093E+01 0.  1.
       -5    1    3    3    0  502 -0.21886046825E+03 -0.24767979245E+03 -0.22226492357E+03  0.39833273829E+03  0.46999998093E+01 0. -1.
</event>
<event>
 5   0  0.3749730E-02  0.7153572E+03  0.7818609E-02  0.9691324E-01
        1   -1    0    0  501    0  0.00000000000E+00  0.00000000000E+00  0.61897877076E+03  0.61897877078E+03  0.50400001928E-02 0.  1.
       -1   -1    0    0    0  501  0.00000000000E+00  0.00000000000E+00 -0.20668556445E+03  0.20668556451E+03  0.50400001928E-02 0. -1.
    10030    2    1    2    0    0  0.00000000000E+00  0.00000000000E+00  0.41229320631E+03  0.82566433529E+03  0.71535718812E+03 0.  0.
        4    1    3    3  502    0 -0.17331526299E+03  0.52129835494E+02  0.56222515785E+03  0.59063901086E+03  0.12699999809E+01 0.  1.
       -4    1    3    3    0  502  0.17331526299E+03 -0.52129835494E+02 -0.14993195153E+03  0.23502532443E+03  0.12699999809E+01 0. -1.
</event>
<event>
 5   0  0.5987810E-02  0.7214416E+03  0.7818609E-02  0.9681251E-01
        2   -1    0    0  501    0  0.00000000000E+00  0.00000000000E+00  0.26597137911E+03  0.26597137912E+03  0.25500000920E-02 0.  1.
       -2   -1    0    0    0  501  0.00000000000E+00  0.00000000000E+00 -0.48922363170E+03  0.48922363171E+03  0.25500000920E-02 0. -1.
    10030    2    1    2    0    0  0.00000000000E+00  0.00000000000E+00 -0.22325225259E+03  0.75519501083E+03  0.72144156803E+03 0.  0.
        5    1    3    3  502    0 -0.21631958930E+03 -0.28140874764E+02 -0.41231317261E+03  0.46648720867E+03  0.46999998093E+01 0. -1.
       -5    1    3    3    0  502  0.21631958930E+03  0.28140874764E+02  0.18906092002E+03  0.28870780215E+03  0.46999998093E+01 0.  1.
</event>
<event>
 5   0  0.2439375E-02  0.7012852E+03  0.7818609E-02  0.9715037E-01
        4   -1    0    0  501    0  0.00000000000E+00  0.00000000000E+00  0.12120788279E+03  0.12121453605E+03  0.12699999809E+01 0.  1.
       -4   -1    0    0    0  501  0.00000000000E+00  0.00000000000E+00 -0.10143399137E+04  0.10143407087E+04  0.12699999809E+01 0. -1.
    10030    2    1    2    0    0  0.00000000000E+00  0.00000000000E+00 -0.89313203091E+03  0.11355552448E+04  0.70128516977E+03 0.  0.
        1    1    3    3  502    0 -0.16833382326E+03  0.30015660515E+03 -0.55542915198E+03  0.65340018868E+03  0.50400001928E-02 0. -1.
       -1    1    3    3    0  502  0.16833382326E+03 -0.30015660515E+03 -0.33770287892E+03  0.48215505611E+03  0.50400001928E-02 0.  1.
</event>
<event>
 5   0  0.2439375E-02  0.6966058E+03  0.7818609E-02  0.9723054E-01
       -3   -1    0    0    0  501  0.00000000000E+00  0.00000000000E+00  0.18915351838E+03  0.18915354534E+03  0.10100000352E+00 0. -1.
        3   -1    0    0  501    0  0.00000000000E+00  0.00000000000E+00 -0.64135682020E+03  0.64135682816E+03  0.10100000352E+00 0.  1.
    10030    2    1    2    0    0  0.00000000000E+00  0.00000000000E+00 -0.45220330183E+03  0.83051037350E+03  0.69660580985E+03 0.  0.
        3    1    3    3  502    0 -0.15331903012E+02  0.34206619944E+02  0.18674161569E+03  0.19046679849E+03  0.10100000352E+00 0. -1.
       -3    1    3    3    0  502  0.15331903012E+02 -0.34206619944E+02 -0.63894491751E+03  0.64004357501E+03  0.10100000352E+00 0.  1.
</event>
<event>
 5   0  0.5899787E-02  0.6992777E+03  0.7818609E-02  0.9718468E-01
        2   -1    0    0  501    0  0.00000000000E+00  0.00000000000E+00  0.11450712957E+04  0.11450712957E+04  0.25500000920E-02 0. -1.
       -2   -1    0    0    0  501  0.00000000000E+00  0.00000000000E+00 -0.10675957674E+03  0.10675957677E+03  0.25500000920E-02 0.  1.
    10030    2    1    2    0    0  0.00000000000E+00  0.00000000000E+00  0.10383117189E+04  0.12518308724E+04  0.69927770415E+03 0.  0.
        2    1    3    3  502    0  0.21723589150E+03  0.16810582416E+03  0.90641515964E+03  0.94712166183E+03  0.25500000920E-02 0. -1.
       -2    1    3    3    0  502 -0.21723589150E+03 -0.16810582416E+03  0.13189655929E+03  0.30470921061E+03  0.25500000920E-02 0.  1.
</event>
<event>
 5   0  0.3717372E-02  0.7006479E+03  0.7818609E-02  0.9716125E-01
        1   -1    0    0  501    0  0.00000000000E+00  0.00000000000E+00  0.70401476371E+03  0.70401476373E+03  0.50400001928E-02 0. -1.
       -1   -1    0    0    0  501  0.00000000000E+00  0.00000000000E+00 -0.17432426443E+03  0.17432426450E+03  0.50400001928E-02 0.  1.
    10030    2    1    2    0    0  0.00000000000E+00  0.00000000000E+00  0.52969049928E+03  0.87833902823E+03  0.70064785983E+03 0.  0.
        3    1    3    3  502    0 -0.27662640508E+03 -0.16655394071E+03  0.94499729769E+02  0.33644106807E+03  0.10100000352E+00 0.  1.
       -3    1    3    3    0  502  0.27662640508E+03  0.16655394071E+03  0.43519076951E+03  0.54189796016E+03  0.10100000352E+00 0. -1.
</event>
</LesHouchesEvents>
