<LesHouchesEvents version="3.0">
<header>
<!--
#*********************************************************************
#                                                                    *
#                        MadGraph5_aMC@NLO                           *
#                                                                    *
#                           Going Beyond                             *
#                                                                    *
#                   http://madgraph.hep.uiuc.edu                     *
#                   http://madgraph.phys.ucl.ac.be                   *
#                   http://amcatnlo.cern.ch                          *
#                                                                    *
#                     The MadGraph5_aMC@NLO team                     *
#                                                                    *
#....................................................................*
#                                                                    *
# This file contains all the information necessary to reproduce      *
# the events generated:                                              *
#                                                                    *
# 1. software version                                                *
# 2. proc_card          : code generation info including model       *
# 3. param_card         : model primary parameters in the LH format  *
# 4. run_card           : running parameters (collider and cuts)     *
# 5. pythia_card        : present only if pythia has been run        *
# 6. pgs_card           : present only if pgs has been run           *
# 7. delphes_cards      : present only if delphes has been run       *
#                                                                    *
#                                                                    *
#*********************************************************************
-->
<MGVersion>
#5.2.2.3
</MGVersion>
<MG5ProcCard>
#************************************************************
#*                     MadGraph5_aMC@NLO                    *
#*                                                          *
#*                *                       *                 *
#*                  *        * *        *                   *
#*                    * * * * 5 * * * *                     *
#*                  *        * *        *                   *
#*                *                       *                 *
#*                                                          *
#*                                                          *
#*         VERSION 2.2.3                 2015-02-10         *
#*                                                          *
#*    The MadGraph5_aMC@NLO Development Team - Find us at   *
#*    https://server06.fynu.ucl.ac.be/projects/madgraph     *
#*                                                          *
#************************************************************
#*                                                          *
#*               Command File for MadGraph5_aMC@NLO         *
#*                                                          *
#*     run as ./bin/mg5_aMC  filename                       *
#*                                                          *
#************************************************************
set group_subprocesses Auto
set ignore_six_quark_processes False
set loop_optimized_output True
set gauge unitary
set complex_mass_scheme False
import model sm
define p = g u c d s u~ c~ d~ s~
define j = g u c d s u~ c~ d~ s~
define l+ = e+ mu+
define l- = e- mu-
define vl = ve vm vt
define vl~ = ve~ vm~ vt~
import model Zprime_UFO
generate p p > zph, zph > j j
add process p p > zph, zph > b b~
output Dijet_signal
</MG5ProcCard>
<MGProcCard>
#*********************************************************************
#                        MadGraph/MadEvent                           *
#                   http://madgraph.hep.uiuc.edu                     *
#                                                                    *
#                          proc_card.dat                             *
#*********************************************************************
#                                                                    *
#            This Files is generated by MADGRAPH 5                   *
#                                                                    *
# WARNING: This Files is generated for MADEVENT (compatibility issue)*
#          This files is NOT a valid MG4 proc_card.dat               *
#          Running this in MG4 will NEVER reproduce the result of MG5*
#                                                                    *
#*********************************************************************
#*********************************************************************
# Process(es) requested : mg2 input                                  *
#*********************************************************************
# Begin PROCESS # This is TAG. Do not modify this line
p p > zph , zph > j j           #Process
# Be carefull the coupling are here in MG5 convention
          
end_coup           # End the couplings input

done               # this tells MG there are no more procs
# End PROCESS  # This is TAG. Do not modify this line
#*********************************************************************
# Model information                                                  *
#*********************************************************************
# Begin MODEL  # This is TAG. Do not modify this line
Zprime_UFO
# End   MODEL  # This is TAG. Do not modify this line
#*********************************************************************
# Start multiparticle definitions                                    *
#*********************************************************************
# Begin MULTIPARTICLES # This is TAG. Do not modify this line

# End  MULTIPARTICLES # This is TAG. Do not modify this line
</MGProcCard>
<MGRunCard>
#*********************************************************************
#                       MadGraph5_aMC@NLO                            *
#                                                                    *
#                     run_card.dat MadEvent                          *
#                                                                    *
#  This file is used to set the parameters of the run.               *
#                                                                    *
#  Some notation/conventions:                                        *
#                                                                    *
#   Lines starting with a '# ' are info or comments                  *
#                                                                    *
#   mind the format:   value    = variable     ! comment             *
#*********************************************************************
#
#*******************                                                 
# Running parameters
#*******************                                                 
#                                                                    
#*********************************************************************
# Tag name for the run (one word)                                    *
#*********************************************************************
  tag_1     = run_tag ! name of the run 
#*********************************************************************
# Run to generate the grid pack                                      *
#*********************************************************************
  .false.     = gridpack  !True = setting up the grid pack
#*********************************************************************
# Number of events and rnd seed                                      *
# Warning: Do not generate more than 1M events in a single run       *
# If you want to run Pythia, avoid more than 50k events in a run.    *
#*********************************************************************
  2000 = nevents ! Number of unweighted events requested 
 2892 = iseed   ! rnd seed (0=assigned automatically=default))
#*********************************************************************
# Collider type and energy                                           *
# lpp: 0=No PDF, 1=proton, -1=antiproton, 2=photon from proton,      *
#                                         3=photon from electron     *
#*********************************************************************
        1     = lpp1    ! beam 1 type 
        1     = lpp2    ! beam 2 type
     4000     = ebeam1  ! beam 1 total energy in GeV
     4000     = ebeam2  ! beam 2 total energy in GeV
#*********************************************************************
# Beam polarization from -100 (left-handed) to 100 (right-handed)    *
#*********************************************************************
        0     = polbeam1 ! beam polarization for beam 1
        0     = polbeam2 ! beam polarization for beam 2
#*********************************************************************
# PDF CHOICE: this automatically fixes also alpha_s and its evol.    *
#*********************************************************************
 'nn23lo1'    = pdlabel     ! PDF set                                     
 230000    = lhaid     ! if pdlabel=lhapdf, this is the lhapdf number
#*********************************************************************
# Renormalization and factorization scales                           *
#*********************************************************************
 F        = fixed_ren_scale  ! if .true. use fixed ren scale
 F        = fixed_fac_scale  ! if .true. use fixed fac scale
 91.1880  = scale            ! fixed ren scale
 91.1880  = dsqrt_q2fact1    ! fixed fact scale for pdf1
 91.1880  = dsqrt_q2fact2    ! fixed fact scale for pdf2
 1        = scalefact        ! scale factor for event-by-event scales
#*********************************************************************
# Matching - Warning! ickkw > 1 is still beta
#*********************************************************************
 0        = ickkw            ! 0 no matching, 1 MLM, 2 CKKW matching
 1        = highestmult      ! for ickkw=2, highest mult group
 1        = ktscheme         ! for ickkw=1, 1 Durham kT, 2 Pythia pTE
 1        = alpsfact         ! scale factor for QCD emission vx
 F        = chcluster        ! cluster only according to channel diag
 T        = pdfwgt           ! for ickkw=1, perform pdf reweighting
 5        = asrwgtflavor     ! highest quark flavor for a_s reweight
 T        = clusinfo         ! include clustering tag in output
 3.0      = lhe_version       ! Change the way clustering information pass to shower.        
#*********************************************************************
#**********************************************************
#
#**********************************************************
# Automatic ptj and mjj cuts if xqcut > 0
# (turn off for VBF and single top processes)
#**********************************************************
   T  = auto_ptj_mjj  ! Automatic setting of ptj and mjj
#**********************************************************
#                                                                    
#**********************************
# BW cutoff (M+/-bwcutoff*Gamma)
#**********************************
  15  = bwcutoff      ! (M+/-bwcutoff*Gamma)
#**********************************************************
# Apply pt/E/eta/dr/mij cuts on decay products or not
# (note that etmiss/ptll/ptheavy/ht/sorted cuts always apply)
#**********************************************************
   T  = cut_decays    ! Cut decay products 
#*************************************************************
# Number of helicities to sum per event (0 = all helicities)
# 0 gives more stable result, but longer run time (needed for
# long decay chains e.g.).
# Use >=2 if most helicities contribute, e.g. pure QCD.
#*************************************************************
   0  = nhel          ! Number of helicities used per event
#*******************                                                 
# Standard Cuts
#*******************                                                 
#                                                                    
#*********************************************************************
# Minimum and maximum pt's (for max, -1 means no cut)                *
#*********************************************************************
 20  = ptj       ! minimum pt for the jets 
  0  = ptb       ! minimum pt for the b 
 10  = pta       ! minimum pt for the photons 
 10  = ptl       ! minimum pt for the charged leptons 
  0  = misset    ! minimum missing Et (sum of neutrino's momenta)
  0  = ptheavy   ! minimum pt for one heavy final state
 1.0 = ptonium   ! minimum pt for the quarkonium states
 -1  = ptjmax    ! maximum pt for the jets
 -1  = ptbmax    ! maximum pt for the b
 -1  = ptamax    ! maximum pt for the photons
 -1  = ptlmax    ! maximum pt for the charged leptons
 -1  = missetmax ! maximum missing Et (sum of neutrino's momenta)
#*********************************************************************
# Minimum and maximum E's (in the center of mass frame)              *
#*********************************************************************
  0  = ej     ! minimum E for the jets 
  0  = eb     ! minimum E for the b 
  0  = ea     ! minimum E for the photons 
  0  = el     ! minimum E for the charged leptons 
 -1   = ejmax ! maximum E for the jets
 -1   = ebmax ! maximum E for the b
 -1   = eamax ! maximum E for the photons
 -1   = elmax ! maximum E for the charged leptons
#*********************************************************************
# Maximum and minimum absolute rapidity (for max, -1 means no cut)   *
#*********************************************************************
   5  = etaj    ! max rap for the jets 
  -1  = etab    ! max rap for the b
 2.5  = etaa    ! max rap for the photons 
 2.5  = etal    ! max rap for the charged leptons 
 0.6  = etaonium ! max rap for the quarkonium states
   0  = etajmin ! min rap for the jets
   0  = etabmin ! min rap for the b
   0  = etaamin ! min rap for the photons
   0  = etalmin ! main rap for the charged leptons
#*********************************************************************
# Minimum and maximum DeltaR distance                                *
#*********************************************************************
 0.4 = drjj    ! min distance between jets 
 0   = drbb    ! min distance between b's 
 0.4 = drll    ! min distance between leptons 
 0.4 = draa    ! min distance between gammas 
 0   = drbj    ! min distance between b and jet 
 0.4 = draj    ! min distance between gamma and jet 
 0.4 = drjl    ! min distance between jet and lepton 
 0   = drab    ! min distance between gamma and b 
 0   = drbl    ! min distance between b and lepton 
 0.4 = dral    ! min distance between gamma and lepton 
 -1  = drjjmax ! max distance between jets
 -1  = drbbmax ! max distance between b's
 -1  = drllmax ! max distance between leptons
 -1  = draamax ! max distance between gammas
 -1  = drbjmax ! max distance between b and jet
 -1  = drajmax ! max distance between gamma and jet
 -1  = drjlmax ! max distance between jet and lepton
 -1  = drabmax ! max distance between gamma and b
 -1  = drblmax ! max distance between b and lepton
 -1  = dralmax ! maxdistance between gamma and lepton
#*********************************************************************
# Minimum and maximum invariant mass for pairs                       *
# WARNING: for four lepton final state mmll cut require to have      *
#          different lepton masses for each flavor!                  *           
#*********************************************************************
 0   = mmjj    ! min invariant mass of a jet pair 
 0   = mmbb    ! min invariant mass of a b pair 
 0   = mmaa    ! min invariant mass of gamma gamma pair
 0   = mmll    ! min invariant mass of l+l- (same flavour) lepton pair
 -1  = mmjjmax ! max invariant mass of a jet pair
 -1  = mmbbmax ! max invariant mass of a b pair
 -1  = mmaamax ! max invariant mass of gamma gamma pair
 -1  = mmllmax ! max invariant mass of l+l- (same flavour) lepton pair
#*********************************************************************
# Minimum and maximum invariant mass for all letpons                 *
#*********************************************************************
 0   = mmnl    ! min invariant mass for all letpons (l+- and vl) 
 -1  = mmnlmax ! max invariant mass for all letpons (l+- and vl) 
#*********************************************************************
# Minimum and maximum pt for 4-momenta sum of leptons                *
#*********************************************************************
 0   = ptllmin  ! Minimum pt for 4-momenta sum of leptons(l and vl)
 -1  = ptllmax  ! Maximum pt for 4-momenta sum of leptons(l and vl)
#*********************************************************************
# Inclusive cuts                                                     *
#*********************************************************************
 0  = xptj ! minimum pt for at least one jet  
 0  = xptb ! minimum pt for at least one b 
 0  = xpta ! minimum pt for at least one photon 
 0  = xptl ! minimum pt for at least one charged lepton 
#*********************************************************************
# Control the pt's of the jets sorted by pt                          *
#*********************************************************************
 0   = ptj1min ! minimum pt for the leading jet in pt
 0   = ptj2min ! minimum pt for the second jet in pt
 0   = ptj3min ! minimum pt for the third jet in pt
 0   = ptj4min ! minimum pt for the fourth jet in pt
 -1  = ptj1max ! maximum pt for the leading jet in pt 
 -1  = ptj2max ! maximum pt for the second jet in pt
 -1  = ptj3max ! maximum pt for the third jet in pt
 -1  = ptj4max ! maximum pt for the fourth jet in pt
 0   = cutuse  ! reject event if fails any (0) / all (1) jet pt cuts
#*********************************************************************
# Control the pt's of leptons sorted by pt                           *
#*********************************************************************
 0   = ptl1min ! minimum pt for the leading lepton in pt
 0   = ptl2min ! minimum pt for the second lepton in pt
 0   = ptl3min ! minimum pt for the third lepton in pt
 0   = ptl4min ! minimum pt for the fourth lepton in pt
 -1  = ptl1max ! maximum pt for the leading lepton in pt 
 -1  = ptl2max ! maximum pt for the second lepton in pt
 -1  = ptl3max ! maximum pt for the third lepton in pt
 -1  = ptl4max ! maximum pt for the fourth lepton in pt
#*********************************************************************
# Control the Ht(k)=Sum of k leading jets                            *
#*********************************************************************
 0   = htjmin ! minimum jet HT=Sum(jet pt)
 -1  = htjmax ! maximum jet HT=Sum(jet pt)
 0   = ihtmin  !inclusive Ht for all partons (including b)
 -1  = ihtmax  !inclusive Ht for all partons (including b)
 0   = ht2min ! minimum Ht for the two leading jets
 0   = ht3min ! minimum Ht for the three leading jets
 0   = ht4min ! minimum Ht for the four leading jets
 -1  = ht2max ! maximum Ht for the two leading jets
 -1  = ht3max ! maximum Ht for the three leading jets
 -1  = ht4max ! maximum Ht for the four leading jets
#***********************************************************************
# Photon-isolation cuts, according to hep-ph/9801442                   *
# When ptgmin=0, all the other parameters are ignored                  *
# When ptgmin>0, pta and draj are not going to be used                 *
#***********************************************************************
   0 = ptgmin ! Min photon transverse momentum
 0.4 = R0gamma ! Radius of isolation code
 1.0 = xn ! n parameter of eq.(3.4) in hep-ph/9801442
 1.0 = epsgamma ! epsilon_gamma parameter of eq.(3.4) in hep-ph/9801442
 .true. = isoEM ! isolate photons from EM energy (photons and leptons)
#*********************************************************************
# WBF cuts                                                           *
#*********************************************************************
 0   = xetamin ! minimum rapidity for two jets in the WBF case  
 0   = deltaeta ! minimum rapidity for two jets in the WBF case 
#*********************************************************************
# KT DURHAM CUT                                                      *
#*********************************************************************
 -1    =  ktdurham        
 0.4  =  dparameter 
#*********************************************************************
# maximal pdg code for quark to be considered as a light jet         *
# (otherwise b cuts are applied)                                     *
#*********************************************************************
 4 = maxjetflavor    ! Maximum jet pdg code
#*********************************************************************
# Jet measure cuts                                                   *
#*********************************************************************
 0   = xqcut   ! minimum kt jet measure between partons
#*********************************************************************
#
#*********************************************************************
# Store info for systematics studies                                 *
# WARNING: If use_syst is T, matched Pythia output is                *
#          meaningful ONLY if plotted taking matchscale              *
#          reweighting into account!                                 *
#*********************************************************************
   F  = use_syst      ! Enable systematics studies
#
#**************************************
# Parameter of the systematics study
#  will be used by SysCalc (if installed)
#**************************************                                  
#
0.5 1 2 = sys_scalefact  # factorization/renormalization scale factor
0.5 1 2 = sys_alpsfact  # \alpha_s emission scale factors
30 50 = sys_matchscale # variation of merging scale
# PDF sets and number of members (0 or none for all members).
CT10nlo.LHgrid = sys_pdf # matching scales
# MSTW2008nlo68cl.LHgrid 1  = sys_pdf
</MGRunCard>
<slha>
######################################################################
## PARAM_CARD AUTOMATICALY GENERATED BY MG5 FOLLOWING UFO MODEL   ####
######################################################################
##                                                                  ##
##  Width set on Auto will be computed following the information    ##
##        present in the decay.py files of the model.               ##
##        See  arXiv:1402.1178 for more details.                    ##
##                                                                  ##
######################################################################

###################################
## INFORMATION FOR CKMBLOCK
###################################
Block ckmblock 
    1 2.277360e-01 # cabi 

###################################
## INFORMATION FOR FRBLOCK
###################################
Block frblock 
    1 1.600000e+00 # gz 

###################################
## INFORMATION FOR MASS
###################################
Block mass 
    1 5.040000e-03 # MD 
    2 2.550000e-03 # MU 
    3 1.010000e-01 # MS 
    4 1.270000e+00 # MC 
    5 4.700000e+00 # MB 
    6 1.720000e+02 # MT 
   11 5.110000e-04 # Me 
   13 1.056600e-01 # MM 
   15 1.777000e+00 # MTA 
   23 9.118760e+01 # MZ 
   25 1.200000e+02 # MH 
  10030 1.900000e+03 # MZph 
  10031 3.000000e+02 # MZpl 
## Dependent parameters, given by model restrictions.
## Those values should be edited following the 
## analytical expression. MG5 ignores those values 
## but they are important for interfacing the output of MG5
## to external program such as Pythia.
  12 0.000000 # ve : 0.0 
  14 0.000000 # vm : 0.0 
  16 0.000000 # vt : 0.0 
  21 0.000000 # g : 0.0 
  22 0.000000 # a : 0.0 
  24 79.824360 # w+ : cmath.sqrt(MZ__exp__2/2. + cmath.sqrt(MZ__exp__4/4. - (aEW*cmath.pi*MZ__exp__2)/(Gf*sqrt__2))) 

###################################
## INFORMATION FOR SMINPUTS
###################################
Block sminputs 
    1 1.279000e+02 # aEWM1 
    2 1.166370e-05 # Gf 
    3 1.184000e-01 # aS 

###################################
## INFORMATION FOR YUKAWA
###################################
Block yukawa 
    1 5.040000e-03 # ymdo 
    2 2.550000e-03 # ymup 
    3 1.010000e-01 # yms 
    4 1.270000e+00 # ymc 
    5 4.700000e+00 # ymb 
    6 1.720000e+02 # ymt 
   11 5.110000e-04 # yme 
   13 1.056600e-01 # ymm 
   15 1.777000e+00 # ymtau 

###################################
## INFORMATION FOR DECAY
###################################
DECAY   6 1.508336e+00 # WT 
DECAY  23 2.495200e+00 # WZ 
DECAY  24 2.085000e+00 # WW 
DECAY  25 5.753088e-03 # WH 
## Dependent parameters, given by model restrictions.
## Those values should be edited following the 
## analytical expression. MG5 ignores those values 
## but they are important for interfacing the output of MG5
## to external program such as Pythia.
DECAY  1 0.000000 # d : 0.0 
DECAY  2 0.000000 # u : 0.0 
DECAY  3 0.000000 # s : 0.0 
DECAY  4 0.000000 # c : 0.0 
DECAY  5 0.000000 # b : 0.0 
DECAY  11 0.000000 # e- : 0.0 
DECAY  12 0.000000 # ve : 0.0 
DECAY  13 0.000000 # mu- : 0.0 
DECAY  14 0.000000 # vm : 0.0 
DECAY  15 0.000000 # ta- : 0.0 
DECAY  16 0.000000 # vt : 0.0 
DECAY  21 0.000000 # g : 0.0 
DECAY  22 0.000000 # a : 0.0 
DECAY  10030 0.308725 # zph : (gz__exp__2*MZph*(5 + cmath.sqrt(1 - (4*MT__exp__2)/MZph__exp__2)))/(144.*cmath.pi) 
DECAY  10031 0.132629 # zpl : (5*gz__exp__2*MZpl)/(144.*cmath.pi) 
#===========================================================
# QUANTUM NUMBERS OF NEW STATE(S) (NON SM PDG CODE)
#===========================================================

Block QNUMBERS 10030  # zph 
        1 0  # 3 times electric charge
        2 3  # number of spin states (2S+1)
        3 1  # colour rep (1: singlet, 3: triplet, 8: octet)
        4 0  # Particle/Antiparticle distinction (0=own anti)
Block QNUMBERS 10031  # zpl 
        1 0  # 3 times electric charge
        2 3  # number of spin states (2S+1)
        3 1  # colour rep (1: singlet, 3: triplet, 8: octet)
        4 0  # Particle/Antiparticle distinction (0=own anti)
</slha>
## END BANNER##
<MGGenerationInfo>
#  Number of Events        :         3935
#  Integrated weight (pb)  :  0.13835E+00
#  Max wgt                 :  0.49734E-04
#  Average wgt             :  0.35159E-04
</MGGenerationInfo>
</header>
<init>
     2212     2212  0.40000000000E+04  0.40000000000E+04 0 0  247000  247000 2   1
  0.13850474877E+00  0.33460384663E-03  0.49734110000E-04   0
</init>
<event>
 5   0  0.4973411E-04  0.1962589E+04  0.7818609E-02  0.8624314E-01
       -2   -1    0    0    0  501  0.00000000000E+00  0.00000000000E+00  0.99071632519E+03  0.99071632519E+03  0.25500000920E-02 0. -1.
        2   -1    0    0  501    0  0.00000000000E+00  0.00000000000E+00 -0.97196251822E+03  0.97196251822E+03  0.25500000920E-02 0.  1.
    10030    2    1    2    0    0  0.00000000000E+00  0.00000000000E+00  0.18753806972E+02  0.19626788434E+04  0.19625892431E+04 0.  0.
        1    1    3    3  502    0  0.26226208743E+03  0.52647916699E+03 -0.77613805812E+03  0.97383366191E+03  0.50400001928E-02 0.  1.
       -1    1    3    3    0  502 -0.26226208743E+03 -0.52647916699E+03  0.79489186509E+03  0.98884518151E+03  0.50400001928E-02 0. -1.
</event>
<event>
 5   0  0.4973411E-04  0.1998567E+04  0.7818609E-02  0.8607291E-01
        2   -1    0    0  501    0  0.00000000000E+00  0.00000000000E+00  0.11115073771E+04  0.11115073771E+04  0.25500000920E-02 0. -1.
       -2   -1    0    0    0  501  0.00000000000E+00  0.00000000000E+00 -0.89839023431E+03  0.89839023431E+03  0.25500000920E-02 0.  1.
    10030    2    1    2    0    0  0.00000000000E+00  0.00000000000E+00  0.21311714283E+03  0.20098976115E+04  0.19985668595E+04 0.  0.
        1    1    3    3  502    0 -0.77152890944E+03  0.53232784359E+03  0.45484206858E+03  0.10418786391E+04  0.50400001928E-02 0. -1.
       -1    1    3    3    0  502  0.77152890944E+03 -0.53232784359E+03 -0.24172492575E+03  0.96801897239E+03  0.50400001928E-02 0.  1.
</event>
<event>
 5   0  0.4802635E-04  0.1871701E+04  0.7818609E-02  0.8669072E-01
       -2   -1    0    0    0  501  0.00000000000E+00  0.00000000000E+00  0.33418804117E+03  0.33418804118E+03  0.25500000920E-02 0. -1.
        2   -1    0    0  501    0  0.00000000000E+00  0.00000000000E+00 -0.26207286407E+04  0.26207286407E+04  0.25500000920E-02 0.  1.
    10030    2    1    2    0    0  0.00000000000E+00  0.00000000000E+00 -0.22865405995E+04  0.29549166818E+04  0.18717010134E+04 0.  0.
        3    1    3    3  502    0  0.56491822797E+03  0.36464183895E+03 -0.11561329329E+03  0.68224828237E+03  0.10100000352E+00 0. -1.
       -3    1    3    3    0  502 -0.56491822797E+03 -0.36464183895E+03 -0.21709273062E+04  0.22726683995E+04  0.10100000352E+00 0.  1.
</event>
<event>
 5   0  0.4973411E-04  0.1924291E+04  0.7818609E-02  0.8642859E-01
       -2   -1    0    0    0  501  0.00000000000E+00  0.00000000000E+00  0.50629562168E+03  0.50629562169E+03  0.25500000920E-02 0.  1.
        2   -1    0    0  501    0  0.00000000000E+00  0.00000000000E+00 -0.18284254095E+04  0.18284254095E+04  0.25500000920E-02 0. -1.
    10030    2    1    2    0    0  0.00000000000E+00  0.00000000000E+00 -0.13221297879E+04  0.23347210312E+04  0.19242908090E+04 0.  0.
        1    1    3    3  502    0 -0.55521733707E+03 -0.78216169835E+03 -0.75250991871E+03  0.12191449428E+04  0.50400001928E-02 0. -1.
       -1    1    3    3    0  502  0.55521733707E+03  0.78216169835E+03 -0.56961986915E+03  0.11155760884E+04  0.50400001928E-02 0.  1.
</event>
<event>
 5   0  0.4802635E-04  0.1892295E+04  0.7818609E-02  0.8658701E-01
        2   -1    0    0  501    0  0.00000000000E+00  0.00000000000E+00  0.12897578734E+04  0.12897578734E+04  0.25500000920E-02 0. -1.
       -2   -1    0    0    0  501  0.00000000000E+00  0.00000000000E+00 -0.69407982457E+03  0.69407982457E+03  0.25500000920E-02 0.  1.
    10030    2    1    2    0    0  0.00000000000E+00  0.00000000000E+00  0.59567804879E+03  0.19838376979E+04  0.18922948169E+04 0.  0.
        3    1    3    3  502    0 -0.67537276582E+03  0.21258826089E+03  0.95579269754E+03  0.11894796477E+04  0.10100000352E+00 0. -1.
       -3    1    3    3    0  502  0.67537276582E+03 -0.21258826089E+03 -0.36011464876E+03  0.79435805020E+03  0.10100000352E+00 0.  1.
</event>
<event>
 5   0  0.2261755E-04  0.1907542E+04  0.7818609E-02  0.8651111E-01
       -1   -1    0    0    0  501  0.00000000000E+00  0.00000000000E+00  0.91081277338E+03  0.91081277339E+03  0.50400001928E-02 0. -1.
        1   -1    0    0  501    0  0.00000000000E+00  0.00000000000E+00 -0.99875508724E+03  0.99875508726E+03  0.50400001928E-02 0.  1.
    10030    2    1    2    0    0  0.00000000000E+00  0.00000000000E+00 -0.87942313868E+02  0.19095678606E+04  0.19075417594E+04 0.  0.
        1    1    3    3  502    0 -0.17324685289E+03 -0.39172295882E+03 -0.89706029064E+03  0.99407168432E+03  0.50400001928E-02 0.  1.
       -1    1    3    3    0  502  0.17324685289E+03  0.39172295882E+03  0.80911797677E+03  0.91549617632E+03  0.50400001928E-02 0. -1.
</event>
<event>
 5   0  0.2317458E-04  0.1932824E+04  0.7818609E-02  0.8638688E-01
        1   -1    0    0  501    0  0.00000000000E+00  0.00000000000E+00  0.11692238683E+04  0.11692238683E+04  0.50400001928E-02 0. -1.
       -1   -1    0    0    0  501  0.00000000000E+00  0.00000000000E+00 -0.79877977995E+03  0.79877977996E+03  0.50400001928E-02 0.  1.
    10030    2    1    2    0    0  0.00000000000E+00  0.00000000000E+00  0.37044408832E+03  0.19680036482E+04  0.19328242385E+04 0.  0.
        3    1    3    3  502    0 -0.22912283466E+03 -0.16507086637E+03 -0.75583299627E+03  0.80686380061E+03  0.10100000352E+00 0.  1.
       -3    1    3    3    0  502  0.22912283466E+03  0.16507086637E+03  0.11262770846E+04  0.11611398476E+04  0.10100000352E+00 0. -1.
</event>
<event>
 5   0  0.4973411E-04  0.1874371E+04  0.7818609E-02  0.8667720E-01
        2   -1    0    0  501    0  0.00000000000E+00  0.00000000000E+00  0.11937066839E+04  0.11937066839E+04  0.25500000920E-02 0.  1.
       -2   -1    0    0    0  501  0.00000000000E+00  0.00000000000E+00 -0.73578918652E+03  0.73578918652E+03  0.25500000920E-02 0. -1.
    10030    2    1    2    0    0  0.00000000000E+00  0.00000000000E+00  0.45791749736E+03  0.19294958704E+04  0.18743707956E+04 0.  0.
        1    1    3    3  502    0  0.35842393566E+03 -0.11898527565E+03 -0.65399131400E+03  0.75520186195E+03  0.50400001928E-02 0. -1.
       -1    1    3    3    0  502 -0.35842393566E+03  0.11898527565E+03  0.11119088114E+04  0.11742940085E+04  0.50400001928E-02 0.  1.
</event>
<event>
 5   0  0.2376359E-04  0.1912064E+04  0.7818609E-02  0.8648875E-01
       -1   -1    0    0    0  501  0.00000000000E+00  0.00000000000E+00  0.16124927810E+04  0.16124927810E+04  0.50400001928E-02 0.  1.
        1   -1    0    0  501    0  0.00000000000E+00  0.00000000000E+00 -0.56682247811E+03  0.56682247813E+03  0.50400001928E-02 0. -1.
    10030    2    1    2    0    0  0.00000000000E+00  0.00000000000E+00  0.10456703029E+04  0.21793152592E+04  0.19120639677E+04 0.  0.
        2    1    3    3  502    0 -0.26177508768E+03 -0.20521094376E+03  0.15444156390E+04  0.15798282799E+04  0.25500000920E-02 0.  1.
       -2    1    3    3    0  502  0.26177508768E+03  0.20521094376E+03 -0.49874533612E+03  0.59948697924E+03  0.25500000920E-02 0. -1.
</event>
<event>
 5   0  0.4973411E-04  0.1795303E+04  0.7818609E-02  0.8708801E-01
        2   -1    0    0  501    0  0.00000000000E+00  0.00000000000E+00  0.98857674260E+03  0.98857674261E+03  0.25500000920E-02 0. -1.
       -2   -1    0    0    0  501  0.00000000000E+00  0.00000000000E+00 -0.81508916940E+03  0.81508916940E+03  0.25500000920E-02 0.  1.
    10030    2    1    2    0    0  0.00000000000E+00  0.00000000000E+00  0.17348757321E+03  0.18036659120E+04  0.17953029784E+04 0.  0.
        1    1    3    3  502    0  0.88336777786E+03  0.15936226660E+03  0.93349597029E+02  0.90246834309E+03  0.50400001928E-02 0. -1.
       -1    1    3    3    0  502 -0.88336777786E+03 -0.15936226660E+03  0.80137976178E+02  0.90119756892E+03  0.50400001928E-02 0.  1.
</event>
<event>
 5   0  0.2376359E-04  0.1893967E+04  0.7818609E-02  0.8657865E-01
       -1   -1    0    0    0  501  0.00000000000E+00  0.00000000000E+00  0.10732623305E+04  0.10732623305E+04  0.50400001928E-02 0. -1.
        1   -1    0    0  501    0  0.00000000000E+00  0.00000000000E+00 -0.83556259460E+03  0.83556259462E+03  0.50400001928E-02 0.  1.
    10030    2    1    2    0    0  0.00000000000E+00  0.00000000000E+00  0.23769973587E+03  0.19088249251E+04  0.18939671144E+04 0.  0.
        2    1    3    3  502    0  0.31397792379E+03  0.87634978229E+03  0.29401428162E+03  0.97622511510E+03  0.25500000920E-02 0.  1.
       -2    1    3    3    0  502 -0.31397792379E+03 -0.87634978229E+03 -0.56314545751E+02  0.93259981000E+03  0.25500000920E-02 0. -1.
</event>
<event>
 5   0  0.4839293E-04  0.1804867E+04  0.7818609E-02  0.8703716E-01
       -2   -1    0    0    0  501  0.00000000000E+00  0.00000000000E+00  0.89458784514E+03  0.89458784514E+03  0.25500000920E-02 0. -1.
        2   -1    0    0  501    0  0.00000000000E+00  0.00000000000E+00 -0.91034774472E+03  0.91034774472E+03  0.25500000920E-02 0.  1.
    10030    2    1    2    0    0  0.00000000000E+00  0.00000000000E+00 -0.15759899582E+02  0.18049355899E+04  0.18048667843E+04 0.  0.
        5    1    3    3  502    0 -0.12104025761E+03  0.77718618996E+03  0.43451098636E+03  0.89860503287E+03  0.46999998093E+01 0. -1.
       -5    1    3    3    0  502  0.12104025761E+03 -0.77718618996E+03 -0.45027088595E+03  0.90633055700E+03  0.46999998093E+01 0.  1.
</event>
<event>
 5   0  0.2355414E-04  0.1867298E+04  0.7818609E-02  0.8671308E-01
       -1   -1    0    0    0  501  0.00000000000E+00  0.00000000000E+00  0.99680813679E+03  0.99680813681E+03  0.50400001928E-02 0. -1.
        1   -1    0    0  501    0  0.00000000000E+00  0.00000000000E+00 -0.87449185110E+03  0.87449185111E+03  0.50400001928E-02 0.  1.
    10030    2    1    2    0    0  0.00000000000E+00  0.00000000000E+00  0.12231628570E+03  0.18712999879E+04  0.18672981473E+04 0.  0.
        5    1    3    3  502    0 -0.61506649484E+02  0.32886515576E+03  0.93465861354E+03  0.99274577434E+03  0.46999998093E+01 0. -1.
       -5    1    3    3    0  502  0.61506649484E+02 -0.32886515576E+03 -0.81234232784E+03  0.87855421358E+03  0.46999998093E+01 0.  1.
</event>
<event>
 5   0  0.2261755E-04  0.1943821E+04  0.7818609E-02  0.8633346E-01
       -1   -1    0    0    0  501  0.00000000000E+00  0.00000000000E+00  0.83069257640E+03  0.83069257641E+03  0.50400001928E-02 0. -1.
        1   -1    0    0  501    0  0.00000000000E+00  0.00000000000E+00 -0.11371358293E+04  0.11371358293E+04  0.50400001928E-02 0.  1.
    10030    2    1    2    0    0  0.00000000000E+00  0.00000000000E+00 -0.30644325287E+03  0.19678284057E+04  0.19438212796E+04 0.  0.
        1    1    3    3  502    0 -0.99807095213E+02  0.35602553148E+03 -0.10631522073E+04  0.11256146104E+04  0.50400001928E-02 0.  1.
       -1    1    3    3    0  502  0.99807095213E+02 -0.35602553148E+03  0.75670895439E+03  0.84221379530E+03  0.50400001928E-02 0. -1.
</event>
<event>
 5   0  0.2317458E-04  0.1887525E+04  0.7818609E-02  0.8661091E-01
       -1   -1    0    0    0  501  0.00000000000E+00  0.00000000000E+00  0.41512912404E+03  0.41512912407E+03  0.50400001928E-02 0.  1.
        1   -1    0    0  501    0  0.00000000000E+00  0.00000000000E+00 -0.21455682663E+04  0.21455682663E+04  0.50400001928E-02 0. -1.
    10030    2    1    2    0    0  0.00000000000E+00  0.00000000000E+00 -0.17304391423E+04  0.25606973904E+04  0.18875252316E+04 0.  0.
        3    1    3    3  502    0 -0.17386011260E+03  0.92741505852E+03 -0.83941355553E+03  0.12629097976E+04  0.10100000352E+00 0. -1.
       -3    1    3    3    0  502  0.17386011260E+03 -0.92741505852E+03 -0.89102558674E+03  0.12977875928E+04  0.10100000352E+00 0.  1.
</event>
<event>
 5   0  0.2317458E-04  0.1540381E+04  0.7818609E-02  0.8858035E-01
       -1   -1    0    0    0  501  0.00000000000E+00  0.00000000000E+00  0.79842641276E+03  0.79842641278E+03  0.50400001928E-02 0. -1.
        1   -1    0    0  501    0  0.00000000000E+00  0.00000000000E+00 -0.74295298357E+03  0.74295298359E+03  0.50400001928E-02 0.  1.
    10030    2    1    2    0    0  0.00000000000E+00  0.00000000000E+00  0.55473429189E+02  0.15413793964E+04  0.15403808432E+04 0.  0.
        3    1    3    3  502    0  0.44180200120E+03 -0.12798507802E+02 -0.60341812637E+03  0.74797476930E+03  0.10100000352E+00 0.  1.
       -3    1    3    3    0  502 -0.44180200120E+03  0.12798507802E+02  0.65889155556E+03  0.79340462707E+03  0.10100000352E+00 0. -1.
</event>
<event>
 5   0  0.4973411E-04  0.1973265E+04  0.7818609E-02  0.8619223E-01
       -2   -1    0    0    0  501  0.00000000000E+00  0.00000000000E+00  0.61377418341E+03  0.61377418341E+03  0.25500000920E-02 0. -1.
        2   -1    0    0  501    0  0.00000000000E+00  0.00000000000E+00 -0.15859961092E+04  0.15859961092E+04  0.25500000920E-02 0.  1.
    10030    2    1    2    0    0  0.00000000000E+00  0.00000000000E+00 -0.97222192577E+03  0.21997702926E+04  0.19732647737E+04 0.  0.
        1    1    3    3  502    0  0.41859369874E+03  0.52418726770E+03  0.32043621370E+03  0.74341935899E+03  0.50400001928E-02 0. -1.
       -1    1    3    3    0  502 -0.41859369874E+03 -0.52418726770E+03 -0.12926581395E+04  0.14563509336E+04  0.50400001928E-02 0.  1.
</event>
<event>
 5   0  0.2510069E-04  0.1879292E+04  0.7818609E-02  0.8665233E-01
        1   -1    0    0  501    0  0.00000000000E+00  0.00000000000E+00  0.12193016107E+04  0.12193016108E+04  0.50400001928E-02 0.  1.
       -1   -1    0    0    0  501  0.00000000000E+00  0.00000000000E+00 -0.72413142408E+03  0.72413142410E+03  0.50400001928E-02 0. -1.
    10030    2    1    2    0    0  0.00000000000E+00  0.00000000000E+00  0.49517018667E+03  0.19434330349E+04  0.18792920069E+04 0.  0.
        4    1    3    3  502    0 -0.60742710899E+03 -0.50468190636E+03  0.77414078516E+03  0.11058784235E+04  0.12699999809E+01 0.  1.
       -4    1    3    3    0  502  0.60742710899E+03  0.50468190636E+03 -0.27897059849E+03  0.83755461139E+03  0.12699999809E+01 0. -1.
</event>
<event>
 5   0  0.2261755E-04  0.1808649E+04  0.7818609E-02  0.8701714E-01
        1   -1    0    0  501    0  0.00000000000E+00  0.00000000000E+00  0.10409985733E+04  0.10409985733E+04  0.50400001928E-02 0. -1.
       -1   -1    0    0    0  501  0.00000000000E+00  0.00000000000E+00 -0.78559426113E+03  0.78559426115E+03  0.50400001928E-02 0.  1.
    10030    2    1    2    0    0  0.00000000000E+00  0.00000000000E+00  0.25540431219E+03  0.18265928345E+04  0.18086486724E+04 0.  0.
        1    1    3    3  502    0 -0.79773239886E+03 -0.35418598214E+03  0.36664581332E+03  0.94670684089E+03  0.50400001928E-02 0. -1.
       -1    1    3    3    0  502  0.79773239886E+03  0.35418598214E+03 -0.11124150113E+03  0.87988599360E+03  0.50400001928E-02 0.  1.
</event>
<event>
 5   0  0.4829134E-04  0.1843131E+04  0.7818609E-02  0.8683693E-01
       -2   -1    0    0    0  501  0.00000000000E+00  0.00000000000E+00  0.70018662171E+03  0.70018662172E+03  0.25500000920E-02 0. -1.
        2   -1    0    0  501    0  0.00000000000E+00  0.00000000000E+00 -0.12129385764E+04  0.12129385764E+04  0.25500000920E-02 0.  1.
    10030    2    1    2    0    0  0.00000000000E+00  0.00000000000E+00 -0.51275195470E+03  0.19131251981E+04  0.18431314269E+04 0.  0.
        2    1    3    3  502    0  0.26698788671E+03 -0.34266609622E+03  0.58725021328E+03  0.73045560999E+03  0.25500000920E-02 0. -1.
       -2    1    3    3    0  502 -0.26698788671E+03  0.34266609622E+03 -0.11000021680E+04  0.11826695881E+04  0.25500000920E-02 0.  1.
</event>
<event>
 5   0  0.2317458E-04  0.1912305E+04  0.7818609E-02  0.8648755E-01
        1   -1    0    0  501    0  0.00000000000E+00  0.00000000000E+00  0.69844623361E+03  0.69844623363E+03  0.50400001928E-02 0.  1.
       -1   -1    0    0    0  501  0.00000000000E+00  0.00000000000E+00 -0.13089451417E+04  0.13089451417E+04  0.50400001928E-02 0. -1.
    10030    2    1    2    0    0  0.00000000000E+00  0.00000000000E+00 -0.61049890807E+03  0.20073913753E+04  0.19123052102E+04 0.  0.
        3    1    3    3  502    0  0.42530251971E+03 -0.85352790497E+03 -0.23225271621E+03  0.98149551819E+03  0.10100000352E+00 0. -1.
       -3    1    3    3    0  502 -0.42530251971E+03  0.85352790497E+03 -0.37824619186E+03  0.10258958571E+04  0.10100000352E+00 0.  1.
</event>
<event>
 5   0  0.4802635E-04  0.1901440E+04  0.7818609E-02  0.8654140E-01
        2   -1    0    0  501    0  0.00000000000E+00  0.00000000000E+00  0.13809448514E+04  0.13809448514E+04  0.25500000920E-02 0. -1.
       -2   -1    0    0    0  501  0.00000000000E+00  0.00000000000E+00 -0.65452911626E+03  0.65452911626E+03  0.25500000920E-02 0.  1.
    10030    2    1    2    0    0  0.00000000000E+00  0.00000000000E+00  0.72641573518E+03  0.20354739677E+04  0.19014400997E+04 0.  0.
        3    1    3    3  502    0 -0.95969041494E+01 -0.69054089246E+03  0.10626650398E+04  0.12673578113E+04  0.10100000352E+00 0. -1.
       -3    1    3    3    0  502  0.95969041494E+01  0.69054089246E+03 -0.33624930462E+03  0.76811615644E+03  0.10100000352E+00 0.  1.
</event>
<event>
 5   0  0.2261755E-04  0.1912622E+04  0.7818609E-02  0.8648599E-01
       -1   -1    0    0    0  501  0.00000000000E+00  0.00000000000E+00  0.51811899999E+03  0.51811900001E+03  0.50400001928E-02 0. -1.
        1   -1    0    0  501    0  0.00000000000E+00  0.00000000000E+00 -0.17650987203E+04  0.17650987203E+04  0.50400001928E-02 0.  1.
    10030    2    1    2    0    0  0.00000000000E+00  0.00000000000E+00 -0.12469797203E+04  0.22832177203E+04  0.19126224759E+04 0.  0.
        1    1    3    3  502    0 -0.36573439389E+03  0.75901734710E+03 -0.83436224029E+02  0.84665848108E+03  0.50400001928E-02 0. -1.
       -1    1    3    3    0  502  0.36573439389E+03 -0.75901734710E+03 -0.11635434963E+04  0.14365592392E+04  0.50400001928E-02 0.  1.
</event>
<event>
 5   0  0.4829134E-04  0.1916497E+04  0.7818609E-02  0.8646688E-01
        2   -1    0    0  501    0  0.00000000000E+00  0.00000000000E+00  0.91692488236E+03  0.91692488236E+03  0.25500000920E-02 0.  1.
       -2   -1    0    0    0  501  0.00000000000E+00  0.00000000000E+00 -0.10014348985E+04  0.10014348985E+04  0.25500000920E-02 0. -1.
    10030    2    1    2    0    0  0.00000000000E+00  0.00000000000E+00 -0.84510016111E+02  0.19183597808E+04  0.19164974057E+04 0.  0.
        2    1    3    3  502    0 -0.83199499092E+03 -0.45813254810E+03 -0.16941971444E+03  0.96478191121E+03  0.25500000920E-02 0. -1.
       -2    1    3    3    0  502  0.83199499092E+03  0.45813254810E+03  0.84909698327E+02  0.95357786962E+03  0.25500000920E-02 0.  1.
</event>
<event>
 5   0  0.2376359E-04  0.1905572E+04  0.7818609E-02  0.8652088E-01
       -1   -1    0    0    0  501  0.00000000000E+00  0.00000000000E+00  0.12790825995E+04  0.12790825995E+04  0.50400001928E-02 0.  1.
        1   -1    0    0  501    0  0.00000000000E+00  0.00000000000E+00 -0.70972846344E+03  0.70972846346E+03  0.50400001928E-02 0. -1.
    10030    2    1    2    0    0  0.00000000000E+00  0.00000000000E+00  0.56935413610E+03  0.19888110630E+04  0.19055721744E+04 0.  0.
        2    1    3    3  502    0  0.10676739526E+03 -0.88930665701E+03 -0.54376145963E+02  0.89734183684E+03  0.25500000920E-02 0.  1.
       -2    1    3    3    0  502 -0.10676739526E+03  0.88930665701E+03  0.62373028206E+03  0.10914692262E+04  0.25500000920E-02 0. -1.
</event>
<event>
 5   0  0.4802635E-04  0.1793028E+04  0.7818609E-02  0.8710016E-01
       -2   -1    0    0    0  501  0.00000000000E+00  0.00000000000E+00  0.41393462996E+03  0.41393462996E+03  0.25500000920E-02 0. -1.
        2   -1    0    0  501    0  0.00000000000E+00  0.00000000000E+00 -0.19417004699E+04  0.19417004699E+04  0.25500000920E-02 0.  1.
    10030    2    1    2    0    0  0.00000000000E+00  0.00000000000E+00 -0.15277658400E+04  0.23556350999E+04  0.17930276802E+04 0.  0.
        3    1    3    3  502    0  0.53904539939E+03 -0.57657297742E+03 -0.13224007029E+04  0.15400486908E+04  0.10100000352E+00 0. -1.
       -3    1    3    3    0  502 -0.53904539939E+03  0.57657297742E+03 -0.20536513706E+03  0.81558640905E+03  0.10100000352E+00 0.  1.
</event>
<event>
 5   0  0.4839293E-04  0.1924756E+04  0.7818609E-02  0.8642631E-01
        2   -1    0    0  501    0  0.00000000000E+00  0.00000000000E+00  0.84384001961E+03  0.84384001961E+03  0.25500000920E-02 0.  1.
       -2   -1    0    0    0  501  0.00000000000E+00  0.00000000000E+00 -0.10975675786E+04  0.10975675786E+04  0.25500000920E-02 0. -1.
    10030    2    1    2    0    0  0.00000000000E+00  0.00000000000E+00 -0.25372755903E+03  0.19414075983E+04  0.19247560335E+04 0.  0.
        5    1    3    3  502    0  0.81674193703E+03  0.12786947362E+03  0.37007625147E+03  0.90575742663E+03  0.46999998093E+01 0.  1.
       -5    1    3    3    0  502 -0.81674193703E+03 -0.12786947362E+03 -0.62380381051E+03  0.10356501716E+04  0.46999998093E+01 0. -1.
</event>
<event>
 5   0  0.2376359E-04  0.1896330E+04  0.7818609E-02  0.8656685E-01
        1   -1    0    0  501    0  0.00000000000E+00  0.00000000000E+00  0.14695801454E+04  0.14695801454E+04  0.50400001928E-02 0. -1.
       -1   -1    0    0    0  501  0.00000000000E+00  0.00000000000E+00 -0.61175066116E+03  0.61175066118E+03  0.50400001928E-02 0.  1.
    10030    2    1    2    0    0  0.00000000000E+00  0.00000000000E+00  0.85782948421E+03  0.20813308066E+04  0.18963297452E+04 0.  0.
        2    1    3    3  502    0  0.70880983515E+02  0.17293583932E+03  0.14491625397E+04  0.14611649410E+04  0.25500000920E-02 0. -1.
       -2    1    3    3    0  502 -0.70880983515E+02 -0.17293583932E+03 -0.59133305546E+03  0.62016586559E+03  0.25500000920E-02 0.  1.
</event>
<event>
 5   0  0.4802635E-04  0.1792579E+04  0.7818609E-02  0.8710256E-01
        2   -1    0    0  501    0  0.00000000000E+00  0.00000000000E+00  0.89676052653E+03  0.89676052654E+03  0.25500000920E-02 0. -1.
       -2   -1    0    0    0  501  0.00000000000E+00  0.00000000000E+00 -0.89581854818E+03  0.89581854819E+03  0.25500000920E-02 0.  1.
    10030    2    1    2    0    0  0.00000000000E+00  0.00000000000E+00  0.94197835155E+00  0.17925790747E+04  0.17925788272E+04 0.  0.
        3    1    3    3  502    0  0.10158121678E+03 -0.24912807942E+03  0.85542792437E+03  0.89673880676E+03  0.10100000352E+00 0. -1.
       -3    1    3    3    0  502 -0.10158121678E+03  0.24912807942E+03 -0.85448594602E+03  0.89584026796E+03  0.10100000352E+00 0.  1.
</event>
<event>
 5   0  0.4973411E-04  0.1881958E+04  0.7818609E-02  0.8663889E-01
        2   -1    0    0  501    0  0.00000000000E+00  0.00000000000E+00  0.19567543949E+04  0.19567543949E+04  0.25500000920E-02 0. -1.
       -2   -1    0    0    0  501  0.00000000000E+00  0.00000000000E+00 -0.45250522502E+03  0.45250522503E+03  0.25500000920E-02 0.  1.
    10030    2    1    2    0    0  0.00000000000E+00  0.00000000000E+00  0.15042491699E+04  0.24092596199E+04  0.18819581162E+04 0.  0.
        1    1    3    3  502    0 -0.31064818946E+03 -0.88116398390E+03  0.60905638673E+03  0.11153035221E+04  0.50400001928E-02 0. -1.
       -1    1    3    3    0  502  0.31064818946E+03  0.88116398390E+03  0.89519278315E+03  0.12939560978E+04  0.50400001928E-02 0.  1.
</event>
<event>
 5   0  0.2355414E-04  0.1891727E+04  0.7818609E-02  0.8658986E-01
       -1   -1    0    0    0  501  0.00000000000E+00  0.00000000000E+00  0.62945334869E+03  0.62945334871E+03  0.50400001928E-02 0.  1.
        1   -1    0    0  501    0  0.00000000000E+00  0.00000000000E+00 -0.14213244831E+04  0.14213244831E+04  0.50400001928E-02 0. -1.
    10030    2    1    2    0    0  0.00000000000E+00  0.00000000000E+00 -0.79187113441E+03  0.20507778318E+04  0.18917266774E+04 0.  0.
        5    1    3    3  502    0  0.78906078372E+03 -0.13110971750E+03  0.15131268623E+03  0.81407880297E+03  0.46999998093E+01 0.  1.
       -5    1    3    3    0  502 -0.78906078372E+03  0.13110971750E+03 -0.94318382064E+03  0.12366990288E+04  0.46999998093E+01 0. -1.
</event>
<event>
 5   0  0.4802635E-04  0.1831332E+04  0.7818609E-02  0.8689813E-01
        2   -1    0    0  501    0  0.00000000000E+00  0.00000000000E+00  0.11885944748E+04  0.11885944748E+04  0.25500000920E-02 0. -1.
       -2   -1    0    0    0  501  0.00000000000E+00  0.00000000000E+00 -0.70540805168E+03  0.70540805168E+03  0.25500000920E-02 0.  1.
    10030    2    1    2    0    0  0.00000000000E+00  0.00000000000E+00  0.48318642314E+03  0.18940025265E+04  0.18313318790E+04 0.  0.
        3    1    3    3  502    0  0.47757151935E+03 -0.75418282293E+03  0.30708869486E+02  0.89320173050E+03  0.10100000352E+00 0. -1.
       -3    1    3    3    0  502 -0.47757151935E+03  0.75418282293E+03  0.45247755365E+03  0.10008007960E+04  0.10100000352E+00 0.  1.
</event>
<event>
 5   0  0.2510069E-04  0.1855194E+04  0.7818609E-02  0.8677487E-01
        1   -1    0    0  501    0  0.00000000000E+00  0.00000000000E+00  0.15317545563E+04  0.15317545563E+04  0.50400001928E-02 0. -1.
       -1   -1    0    0    0  501  0.00000000000E+00  0.00000000000E+00 -0.56173220900E+03  0.56173220902E+03  0.50400001928E-02 0.  1.
    10030    2    1    2    0    0  0.00000000000E+00  0.00000000000E+00  0.97002234733E+03  0.20934867654E+04  0.18551936509E+04 0.  0.
        4    1    3    3  502    0  0.98714967499E+01  0.45087772385E+03 -0.42968926586E+03  0.62291463814E+03  0.12699999809E+01 0.  1.
       -4    1    3    3    0  502 -0.98714967499E+01 -0.45087772385E+03  0.13997116132E+04  0.14705721272E+04  0.12699999809E+01 0. -1.
</event>
<event>
 5   0  0.2261755E-04  0.1916544E+04  0.7818609E-02  0.8646665E-01
       -1   -1    0    0    0  501  0.00000000000E+00  0.00000000000E+00  0.10146972167E+04  0.10146972167E+04  0.50400001928E-02 0. -1.
        1   -1    0    0  501    0  0.00000000000E+00  0.00000000000E+00 -0.90498428478E+03  0.90498428479E+03  0.50400001928E-02 0.  1.
    10030    2    1    2    0    0  0.00000000000E+00  0.00000000000E+00  0.10971293188E+03  0.19196815015E+04  0.19165438006E+04 0.  0.
        1    1    3    3  502    0  0.10233780819E+03  0.58807626975E+03  0.80573589634E+03  0.10027547361E+04  0.50400001928E-02 0. -1.
       -1    1    3    3    0  502 -0.10233780819E+03 -0.58807626975E+03 -0.69602296446E+03  0.91692676540E+03  0.50400001928E-02 0.  1.
</event>
<event>
 5   0  0.2317458E-04  0.1859908E+04  0.7818609E-02  0.8675074E-01
        1   -1    0    0  501    0  0.00000000000E+00  0.00000000000E+00  0.56405200404E+03  0.56405200406E+03  0.50400001928E-02 0.  1.
       -1   -1    0    0    0  501  0.00000000000E+00  0.00000000000E+00 -0.15332173321E+04  0.15332173321E+04  0.50400001928E-02 0. -1.
    10030    2    1    2    0    0  0.00000000000E+00  0.00000000000E+00 -0.96916532807E+03  0.20972693362E+04  0.18599078567E+04 0.  0.
        3    1    3    3  502    0 -0.84577619886E+03 -0.38659727161E+03 -0.47960710446E+03  0.10463354213E+04  0.10100000352E+00 0. -1.
       -3    1    3    3    0  502  0.84577619886E+03  0.38659727161E+03 -0.48955822362E+03  0.10509339149E+04  0.10100000352E+00 0.  1.
</event>
<event>
 5   0  0.4761944E-04  0.2202194E+04  0.7818609E-02  0.8517515E-01
       -2   -1    0    0    0  501  0.00000000000E+00  0.00000000000E+00  0.85011142214E+03  0.85011142214E+03  0.25500000920E-02 0. -1.
        2   -1    0    0  501    0  0.00000000000E+00  0.00000000000E+00 -0.14261836982E+04  0.14261836982E+04  0.25500000920E-02 0.  1.
    10030    2    1    2    0    0  0.00000000000E+00  0.00000000000E+00 -0.57607227607E+03  0.22762951203E+04  0.22021944073E+04 0.  0.
        4    1    3    3  502    0  0.60839746940E+03  0.23733894169E+03 -0.12043970468E+04  0.13700551497E+04  0.12699999809E+01 0.  1.
       -4    1    3    3    0  502 -0.60839746940E+03 -0.23733894169E+03  0.62832477071E+03  0.90623997065E+03  0.12699999809E+01 0. -1.
</event>
<event>
 5   0  0.4761944E-04  0.1856862E+04  0.7818609E-02  0.8676632E-01
       -2   -1    0    0    0  501  0.00000000000E+00  0.00000000000E+00  0.10687561234E+04  0.10687561234E+04  0.25500000920E-02 0.  1.
        2   -1    0    0  501    0  0.00000000000E+00  0.00000000000E+00 -0.80653024174E+03  0.80653024175E+03  0.25500000920E-02 0. -1.
    10030    2    1    2    0    0  0.00000000000E+00  0.00000000000E+00  0.26222588168E+03  0.18752863652E+04  0.18568620138E+04 0.  0.
        4    1    3    3  502    0 -0.24958400366E+03  0.23816098735E+03  0.10016224363E+04  0.10593686557E+04  0.12699999809E+01 0.  1.
       -4    1    3    3    0  502  0.24958400366E+03 -0.23816098735E+03 -0.73939655463E+03  0.81591770950E+03  0.12699999809E+01 0. -1.
</event>
<event>
 5   0  0.2376359E-04  0.1766566E+04  0.7818609E-02  0.8724284E-01
        1   -1    0    0  501    0  0.00000000000E+00  0.00000000000E+00  0.77437722107E+03  0.77437722108E+03  0.50400001928E-02 0. -1.
       -1   -1    0    0    0  501  0.00000000000E+00  0.00000000000E+00 -0.10075045015E+04  0.10075045015E+04  0.50400001928E-02 0.  1.
    10030    2    1    2    0    0  0.00000000000E+00  0.00000000000E+00 -0.23312728043E+03  0.17818817226E+04  0.17665656355E+04 0.  0.
        2    1    3    3  502    0 -0.75149674498E+03  0.17124275697E+03 -0.55171688839E+03  0.94787286303E+03  0.25500000920E-02 0.  1.
       -2    1    3    3    0  502  0.75149674498E+03 -0.17124275697E+03  0.31858960796E+03  0.83400885957E+03  0.25500000920E-02 0. -1.
</event>
<event>
 5   0  0.2355414E-04  0.1647620E+04  0.7818609E-02  0.8791816E-01
        1   -1    0    0  501    0  0.00000000000E+00  0.00000000000E+00  0.61128293816E+03  0.61128293818E+03  0.50400001928E-02 0.  1.
       -1   -1    0    0    0  501  0.00000000000E+00  0.00000000000E+00 -0.11102275568E+04  0.11102275568E+04  0.50400001928E-02 0. -1.
    10030    2    1    2    0    0  0.00000000000E+00  0.00000000000E+00 -0.49894461863E+03  0.17215104950E+04  0.16476202997E+04 0.  0.
        5    1    3    3  502    0  0.24132388862E+03 -0.51231420441E+03 -0.87458231448E+03  0.10419306014E+04  0.46999998093E+01 0. -1.
       -5    1    3    3    0  502 -0.24132388862E+03  0.51231420441E+03  0.37563769585E+03  0.67957989361E+03  0.46999998093E+01 0.  1.
</event>
<event>
 5   0  0.2355414E-04  0.1894867E+04  0.7818609E-02  0.8657416E-01
        1   -1    0    0  501    0  0.00000000000E+00  0.00000000000E+00  0.22132903450E+04  0.22132903450E+04  0.50400001928E-02 0. -1.
       -1   -1    0    0    0  501  0.00000000000E+00  0.00000000000E+00 -0.40556379906E+03  0.40556379909E+03  0.50400001928E-02 0.  1.
    10030    2    1    2    0    0  0.00000000000E+00  0.00000000000E+00  0.18077265459E+04  0.26188541441E+04  0.18948672152E+04 0.  0.
        5    1    3    3  502    0 -0.31021781908E+03 -0.38292557708E+03  0.20221865996E+04  0.20813764259E+04  0.46999998093E+01 0. -1.
       -5    1    3    3    0  502  0.31021781908E+03  0.38292557708E+03 -0.21446005369E+03  0.53747771813E+03  0.46999998093E+01 0.  1.
</event>
<event>
 5   0  0.4829134E-04  0.1788718E+04  0.7818609E-02  0.8712322E-01
        2   -1    0    0  501    0  0.00000000000E+00  0.00000000000E+00  0.87363016154E+03  0.87363016154E+03  0.25500000920E-02 0. -1.
       -2   -1    0    0    0  501  0.00000000000E+00  0.00000000000E+00 -0.91557956048E+03  0.91557956048E+03  0.25500000920E-02 0.  1.
    10030    2    1    2    0    0  0.00000000000E+00  0.00000000000E+00 -0.41949398941E+02  0.17892097220E+04  0.17887178865E+04 0.  0.
        2    1    3    3  502    0  0.42465150941E+03  0.77351557458E+03 -0.16669478516E+03  0.89802138057E+03  0.25500000920E-02 0.  1.
       -2    1    3    3    0  502 -0.42465150941E+03 -0.77351557458E+03  0.12474538622E+03  0.89118834145E+03  0.25500000920E-02 0. -1.
</event>
<event>
 5   0  0.4802635E-04  0.1916827E+04  0.7818609E-02  0.8646525E-01
       -2   -1    0    0    0  501  0.00000000000E+00  0.00000000000E+00  0.70108125788E+03  0.70108125788E+03  0.25500000920E-02 0. -1.
        2   -1    0    0  501    0  0.00000000000E+00  0.00000000000E+00 -0.13102001963E+04  0.13102001963E+04  0.25500000920E-02 0.  1.
    10030    2    1    2    0    0  0.00000000000E+00  0.00000000000E+00 -0.60911893843E+03  0.20112814542E+04  0.19168273806E+04 0.  0.
        3    1    3    3  502    0 -0.68621128464E+03 -0.37446896193E+03  0.27723924536E+03  0.82944230660E+03  0.10100000352E+00 0. -1.
       -3    1    3    3    0  502  0.68621128464E+03  0.37446896193E+03 -0.88635818379E+03  0.11818391476E+04  0.10100000352E+00 0.  1.
</event>
<event>
 5   0  0.4973411E-04  0.1902173E+04  0.7818609E-02  0.8653776E-01
        2   -1    0    0  501    0  0.00000000000E+00  0.00000000000E+00  0.11893703092E+04  0.11893703092E+04  0.25500000920E-02 0.  1.
       -2   -1    0    0    0  501  0.00000000000E+00  0.00000000000E+00 -0.76054147058E+03  0.76054147058E+03  0.25500000920E-02 0. -1.
    10030    2    1    2    0    0  0.00000000000E+00  0.00000000000E+00  0.42882883863E+03  0.19499117798E+04  0.19021729091E+04 0.  0.
        1    1    3    3  502    0 -0.81699987774E+03  0.42296692297E+03 -0.32835126736E+02  0.92058023209E+03  0.50400001928E-02 0. -1.
       -1    1    3    3    0  502  0.81699987774E+03 -0.42296692297E+03  0.46166396536E+03  0.10293315477E+04  0.50400001928E-02 0.  1.
</event>
<event>
 5   0  0.4829134E-04  0.1841435E+04  0.7818609E-02  0.8684570E-01
       -2   -1    0    0    0  501  0.00000000000E+00  0.00000000000E+00  0.90791550934E+03  0.90791550934E+03  0.25500000920E-02 0.  1.
        2   -1    0    0  501    0  0.00000000000E+00  0.00000000000E+00 -0.93369978490E+03  0.93369978490E+03  0.25500000920E-02 0. -1.
    10030    2    1    2    0    0  0.00000000000E+00  0.00000000000E+00 -0.25784275564E+02  0.18416152942E+04  0.18414347838E+04 0.  0.
        2    1    3    3  502    0 -0.30341697856E+03 -0.17850850561E+03 -0.86373599885E+03  0.93272022878E+03  0.25500000920E-02 0. -1.
       -2    1    3    3    0  502  0.30341697856E+03  0.17850850561E+03  0.83795172329E+03  0.90889506546E+03  0.25500000920E-02 0.  1.
</event>
<event>
 5   0  0.4802635E-04  0.1906525E+04  0.7818609E-02  0.8651615E-01
       -2   -1    0    0    0  501  0.00000000000E+00  0.00000000000E+00  0.48405725939E+03  0.48405725940E+03  0.25500000920E-02 0.  1.
        2   -1    0    0  501    0  0.00000000000E+00  0.00000000000E+00 -0.18772765602E+04  0.18772765602E+04  0.25500000920E-02 0. -1.
    10030    2    1    2    0    0  0.00000000000E+00  0.00000000000E+00 -0.13932193008E+04  0.23613338196E+04  0.19065249506E+04 0.  0.
        3    1    3    3  502    0 -0.55957956402E+02  0.89971848582E+03 -0.31268854202E+03  0.95414819662E+03  0.10100000352E+00 0.  1.
       -3    1    3    3    0  502  0.55957956402E+02 -0.89971848582E+03 -0.10805307587E+04  0.14071856229E+04  0.10100000352E+00 0. -1.
</event>
<event>
 5   0  0.2317458E-04  0.2005277E+04  0.7818609E-02  0.8604158E-01
        1   -1    0    0  501    0  0.00000000000E+00  0.00000000000E+00  0.86816569510E+03  0.86816569511E+03  0.50400001928E-02 0.  1.
       -1   -1    0    0    0  501  0.00000000000E+00  0.00000000000E+00 -0.11579399093E+04  0.11579399093E+04  0.50400001928E-02 0. -1.
    10030    2    1    2    0    0  0.00000000000E+00  0.00000000000E+00 -0.28977421419E+03  0.20261056044E+04  0.20052767452E+04 0.  0.
        3    1    3    3  502    0 -0.48083790799E+03 -0.74445629411E+02  0.74088091130E+03  0.88637000199E+03  0.10100000352E+00 0.  1.
       -3    1    3    3    0  502  0.48083790799E+03  0.74445629411E+02 -0.10306551255E+04  0.11397356024E+04  0.10100000352E+00 0. -1.
</event>
<event>
 5   0  0.4839293E-04  0.1549226E+04  0.7818609E-02  0.8852362E-01
       -2   -1    0    0    0  501  0.00000000000E+00  0.00000000000E+00  0.74418849783E+03  0.74418849783E+03  0.25500000920E-02 0. -1.
        2   -1    0    0  501    0  0.00000000000E+00  0.00000000000E+00 -0.80628162863E+03  0.80628162864E+03  0.25500000920E-02 0.  1.
    10030    2    1    2    0    0  0.00000000000E+00  0.00000000000E+00 -0.62093130804E+02  0.15504701265E+04  0.15492262766E+04 0.  0.
        5    1    3    3  502    0  0.60973573904E+03  0.43070443760E+03  0.17580619651E+03  0.76695103674E+03  0.46999998093E+01 0.  1.
       -5    1    3    3    0  502 -0.60973573904E+03 -0.43070443760E+03 -0.23789932731E+03  0.78351908973E+03  0.46999998093E+01 0. -1.
</event>
<event>
 5   0  0.2355414E-04  0.1834548E+04  0.7818609E-02  0.8688140E-01
       -1   -1    0    0    0  501  0.00000000000E+00  0.00000000000E+00  0.99947927823E+03  0.99947927824E+03  0.50400001928E-02 0. -1.
        1   -1    0    0  501    0  0.00000000000E+00  0.00000000000E+00 -0.84182975843E+03  0.84182975845E+03  0.50400001928E-02 0.  1.
    10030    2    1    2    0    0  0.00000000000E+00  0.00000000000E+00  0.15764951980E+03  0.18413090367E+04  0.18345477910E+04 0.  0.
        5    1    3    3  502    0 -0.29171408671E+03  0.58897800212E+02  0.94966481665E+03  0.99521425494E+03  0.46999998093E+01 0. -1.
       -5    1    3    3    0  502  0.29171408671E+03 -0.58897800212E+02 -0.79201529685E+03  0.84609478175E+03  0.46999998093E+01 0.  1.
</event>
<event>
 5   0  0.2317458E-04  0.1951774E+04  0.7818609E-02  0.8629506E-01
        1   -1    0    0  501    0  0.00000000000E+00  0.00000000000E+00  0.11757530865E+04  0.11757530865E+04  0.50400001928E-02 0. -1.
       -1   -1    0    0    0  501  0.00000000000E+00  0.00000000000E+00 -0.80999605420E+03  0.80999605421E+03  0.50400001928E-02 0.  1.
    10030    2    1    2    0    0  0.00000000000E+00  0.00000000000E+00  0.36575703231E+03  0.19857491407E+04  0.19517739222E+04 0.  0.
        3    1    3    3  502    0 -0.94693446836E+03 -0.21688086182E+03  0.27741068931E+03  0.10102865417E+04  0.10100000352E+00 0.  1.
       -3    1    3    3    0  502  0.94693446836E+03  0.21688086182E+03  0.88346343007E+02  0.97546259903E+03  0.10100000352E+00 0. -1.
</event>
<event>
 5   0  0.4802635E-04  0.1678653E+04  0.7818609E-02  0.8773634E-01
       -2   -1    0    0    0  501  0.00000000000E+00  0.00000000000E+00  0.85643423486E+03  0.85643423487E+03  0.25500000920E-02 0. -1.
        2   -1    0    0  501    0  0.00000000000E+00  0.00000000000E+00 -0.82256044684E+03  0.82256044684E+03  0.25500000920E-02 0.  1.
    10030    2    1    2    0    0  0.00000000000E+00  0.00000000000E+00  0.33873788029E+02  0.16789946817E+04  0.16786529444E+04 0.  0.
        3    1    3    3  502    0 -0.54723701347E+03 -0.67131788454E+02 -0.61603780621E+03  0.82672704976E+03  0.10100000352E+00 0.  1.
       -3    1    3    3    0  502  0.54723701347E+03  0.67131788454E+02  0.64991159424E+03  0.85226763194E+03  0.10100000352E+00 0. -1.
</event>
<event>
 5   0  0.2261755E-04  0.1937524E+04  0.7818609E-02  0.8636401E-01
        1   -1    0    0  501    0  0.00000000000E+00  0.00000000000E+00  0.15288065185E+04  0.15288065185E+04  0.50400001928E-02 0. -1.
       -1   -1    0    0    0  501  0.00000000000E+00  0.00000000000E+00 -0.61387734258E+03  0.61387734260E+03  0.50400001928E-02 0.  1.
    10030    2    1    2    0    0  0.00000000000E+00  0.00000000000E+00  0.91492917589E+03  0.21426838611E+04  0.19375238661E+04 0.  0.
        1    1    3    3  502    0  0.57919620202E+03 -0.56713696786E+03  0.10440930512E+04  0.13218331515E+04  0.50400001928E-02 0. -1.
       -1    1    3    3    0  502 -0.57919620202E+03  0.56713696786E+03 -0.12916387531E+03  0.82085070960E+03  0.50400001928E-02 0.  1.
</event>
<event>
 5   0  0.2317458E-04  0.1936063E+04  0.7818609E-02  0.8637111E-01
       -1   -1    0    0    0  501  0.00000000000E+00  0.00000000000E+00  0.67327096235E+03  0.67327096237E+03  0.50400001928E-02 0.  1.
        1   -1    0    0  501    0  0.00000000000E+00  0.00000000000E+00 -0.13918396567E+04  0.13918396567E+04  0.50400001928E-02 0. -1.
    10030    2    1    2    0    0  0.00000000000E+00  0.00000000000E+00 -0.71856869431E+03  0.20651106190E+04  0.19360632480E+04 0.  0.
        3    1    3    3  502    0  0.93661720728E+03 -0.32568134167E+02 -0.61787435706E+03  0.11225333882E+04  0.10100000352E+00 0. -1.
       -3    1    3    3    0  502 -0.93661720728E+03  0.32568134167E+02 -0.10069433725E+03  0.94257723083E+03  0.10100000352E+00 0.  1.
</event>
<event>
 5   0  0.2510069E-04  0.1926818E+04  0.7818609E-02  0.8641621E-01
        1   -1    0    0  501    0  0.00000000000E+00  0.00000000000E+00  0.54814877680E+03  0.54814877682E+03  0.50400001928E-02 0.  1.
       -1   -1    0    0    0  501  0.00000000000E+00  0.00000000000E+00 -0.16932579463E+04  0.16932579463E+04  0.50400001928E-02 0. -1.
    10030    2    1    2    0    0  0.00000000000E+00  0.00000000000E+00 -0.11451091695E+04  0.22414067231E+04  0.19268183849E+04 0.  0.
        4    1    3    3  502    0 -0.87714523422E+03 -0.38803157695E+03 -0.67791479675E+03  0.11745306940E+04  0.12699999809E+01 0.  1.
       -4    1    3    3    0  502  0.87714523422E+03  0.38803157695E+03 -0.46719437271E+03  0.10668760291E+04  0.12699999809E+01 0. -1.
</event>
<event>
 5   0  0.2355414E-04  0.1813277E+04  0.7818609E-02  0.8699271E-01
        1   -1    0    0  501    0  0.00000000000E+00  0.00000000000E+00  0.10639492206E+04  0.10639492206E+04  0.50400001928E-02 0. -1.
       -1   -1    0    0    0  501  0.00000000000E+00  0.00000000000E+00 -0.77258662710E+03  0.77258662712E+03  0.50400001928E-02 0.  1.
    10030    2    1    2    0    0  0.00000000000E+00  0.00000000000E+00  0.29136259347E+03  0.18365358477E+04  0.18132765258E+04 0.  0.
        5    1    3    3  502    0 -0.36977461025E+03  0.31577553729E+03  0.92069163810E+03  0.10412217030E+04  0.46999998093E+01 0. -1.
       -5    1    3    3    0  502  0.36977461025E+03 -0.31577553729E+03 -0.62932904463E+03  0.79531414469E+03  0.46999998093E+01 0.  1.
</event>
<event>
 5   0  0.4761944E-04  0.1925964E+04  0.7818609E-02  0.8642039E-01
       -2   -1    0    0    0  501  0.00000000000E+00  0.00000000000E+00  0.63806254306E+03  0.63806254307E+03  0.25500000920E-02 0. -1.
        2   -1    0    0  501    0  0.00000000000E+00  0.00000000000E+00 -0.14533593574E+04  0.14533593574E+04  0.25500000920E-02 0.  1.
    10030    2    1    2    0    0  0.00000000000E+00  0.00000000000E+00 -0.81529681431E+03  0.20914219004E+04  0.19259638289E+04 0.  0.
        4    1    3    3  502    0 -0.38176103000E+03  0.35817522201E+03 -0.12853570594E+04  0.13878671971E+04  0.12699999809E+01 0.  1.
       -4    1    3    3    0  502  0.38176103000E+03 -0.35817522201E+03  0.47006024510E+03  0.70355470335E+03  0.12699999809E+01 0. -1.
</event>
<event>
 5   0  0.4973411E-04  0.1883369E+04  0.7818609E-02  0.8663179E-01
       -2   -1    0    0    0  501  0.00000000000E+00  0.00000000000E+00  0.10523516121E+04  0.10523516121E+04  0.25500000920E-02 0.  1.
        2   -1    0    0  501    0  0.00000000000E+00  0.00000000000E+00 -0.84265500898E+03  0.84265500898E+03  0.25500000920E-02 0. -1.
    10030    2    1    2    0    0  0.00000000000E+00  0.00000000000E+00  0.20969660307E+03  0.18950066210E+04  0.18833686385E+04 0.  0.
        1    1    3    3  502    0  0.13212476867E+02  0.10937555798E+03 -0.83614823041E+03  0.84337503252E+03  0.50400001928E-02 0. -1.
       -1    1    3    3    0  502 -0.13212476867E+02 -0.10937555798E+03  0.10458448335E+04  0.10516315885E+04  0.50400001928E-02 0.  1.
</event>
<event>
 5   0  0.2510069E-04  0.1901060E+04  0.7818609E-02  0.8654329E-01
        1   -1    0    0  501    0  0.00000000000E+00  0.00000000000E+00  0.39148702555E+03  0.39148702558E+03  0.50400001928E-02 0. -1.
       -1   -1    0    0    0  501  0.00000000000E+00  0.00000000000E+00 -0.23078846691E+04  0.23078846691E+04  0.50400001928E-02 0.  1.
    10030    2    1    2    0    0  0.00000000000E+00  0.00000000000E+00 -0.19163976436E+04  0.26993716947E+04  0.19010596040E+04 0.  0.
        4    1    3    3  502    0  0.53464345464E+03  0.15559672026E+03  0.13565555618E+03  0.57311255942E+03  0.12699999809E+01 0. -1.
       -4    1    3    3    0  502 -0.53464345464E+03 -0.15559672026E+03 -0.20520531998E+04  0.21262591353E+04  0.12699999809E+01 0.  1.
</event>
<event>
 5   0  0.4829134E-04  0.1957103E+04  0.7818609E-02  0.8626943E-01
        2   -1    0    0  501    0  0.00000000000E+00  0.00000000000E+00  0.10888748400E+04  0.10888748400E+04  0.25500000920E-02 0.  1.
       -2   -1    0    0    0  501  0.00000000000E+00  0.00000000000E+00 -0.87940557673E+03  0.87940557673E+03  0.25500000920E-02 0. -1.
    10030    2    1    2    0    0  0.00000000000E+00  0.00000000000E+00  0.20946926331E+03  0.19682804168E+04  0.19571025591E+04 0.  0.
        2    1    3    3  502    0 -0.71194154649E+03  0.32754335190E+03  0.69409971702E+03  0.10468618964E+04  0.25500000920E-02 0.  1.
       -2    1    3    3    0  502  0.71194154649E+03 -0.32754335190E+03 -0.48463045370E+03  0.92141852036E+03  0.25500000920E-02 0. -1.
</event>
<event>
 5   0  0.2355414E-04  0.1973946E+04  0.7818609E-02  0.8618900E-01
       -1   -1    0    0    0  501  0.00000000000E+00  0.00000000000E+00  0.11110493237E+04  0.11110493237E+04  0.50400001928E-02 0.  1.
        1   -1    0    0  501    0  0.00000000000E+00  0.00000000000E+00 -0.87675287140E+03  0.87675287141E+03  0.50400001928E-02 0. -1.
    10030    2    1    2    0    0  0.00000000000E+00  0.00000000000E+00  0.23429645233E+03  0.19878021951E+04  0.19739459819E+04 0.  0.
        5    1    3    3  502    0  0.76847633608E+03  0.61911714018E+03  0.13247619136E+03  0.99570776016E+03  0.46999998093E+01 0.  1.
       -5    1    3    3    0  502 -0.76847633608E+03 -0.61911714018E+03  0.10182026096E+03  0.99209443498E+03  0.46999998093E+01 0. -1.
</event>
<event>
 5   0  0.4829134E-04  0.1869916E+04  0.7818609E-02  0.8669978E-01
        2   -1    0    0  501    0  0.00000000000E+00  0.00000000000E+00  0.10865028426E+04  0.10865028426E+04  0.25500000920E-02 0. -1.
       -2   -1    0    0    0  501  0.00000000000E+00  0.00000000000E+00 -0.80455089249E+03  0.80455089249E+03  0.25500000920E-02 0.  1.
    10030    2    1    2    0    0  0.00000000000E+00  0.00000000000E+00  0.28195195010E+03  0.18910537351E+04  0.18699163957E+04 0.  0.
        2    1    3    3  502    0 -0.45584250055E+03  0.76447201479E+03  0.43045804523E+03  0.98868800712E+03  0.25500000920E-02 0. -1.
       -2    1    3    3    0  502  0.45584250055E+03 -0.76447201479E+03 -0.14850609513E+03  0.90236572797E+03  0.25500000920E-02 0.  1.
</event>
<event>
 5   0  0.2510069E-04  0.1912782E+04  0.7818609E-02  0.8648520E-01
        1   -1    0    0  501    0  0.00000000000E+00  0.00000000000E+00  0.10726980733E+04  0.10726980734E+04  0.50400001928E-02 0. -1.
       -1   -1    0    0    0  501  0.00000000000E+00  0.00000000000E+00 -0.85269410876E+03  0.85269410878E+03  0.50400001928E-02 0.  1.
    10030    2    1    2    0    0  0.00000000000E+00  0.00000000000E+00  0.22000396459E+03  0.19253921821E+04  0.19127815637E+04 0.  0.
        4    1    3    3  502    0  0.41899787715E+03 -0.79764343362E+03  0.43287742993E+03  0.99958929091E+03  0.12699999809E+01 0. -1.
       -4    1    3    3    0  502 -0.41899787715E+03  0.79764343362E+03 -0.21287346534E+03  0.92580289123E+03  0.12699999809E+01 0.  1.
</event>
<event>
 5   0  0.2510069E-04  0.2128003E+04  0.7818609E-02  0.8549007E-01
       -1   -1    0    0    0  501  0.00000000000E+00  0.00000000000E+00  0.92068836470E+03  0.92068836471E+03  0.50400001928E-02 0. -1.
        1   -1    0    0  501    0  0.00000000000E+00  0.00000000000E+00 -0.12296228623E+04  0.12296228623E+04  0.50400001928E-02 0.  1.
    10030    2    1    2    0    0  0.00000000000E+00  0.00000000000E+00 -0.30893449761E+03  0.21503112270E+04  0.21280032541E+04 0.  0.
        4    1    3    3  502    0  0.25240914952E+03 -0.35787948185E+03  0.82539382175E+03  0.93437929995E+03  0.12699999809E+01 0. -1.
       -4    1    3    3    0  502 -0.25240914952E+03  0.35787948185E+03 -0.11343283194E+04  0.12159319271E+04  0.12699999809E+01 0.  1.
</event>
<event>
 5   0  0.2376359E-04  0.1661701E+04  0.7818609E-02  0.8783514E-01
        1   -1    0    0  501    0  0.00000000000E+00  0.00000000000E+00  0.10998825438E+04  0.10998825438E+04  0.50400001928E-02 0.  1.
       -1   -1    0    0    0  501  0.00000000000E+00  0.00000000000E+00 -0.62762405061E+03  0.62762405063E+03  0.50400001928E-02 0. -1.
    10030    2    1    2    0    0  0.00000000000E+00  0.00000000000E+00  0.47225849314E+03  0.17275065944E+04  0.16617012214E+04 0.  0.
        2    1    3    3  502    0 -0.16656508033E+02  0.74902530121E+03  0.60951312591E+03  0.96582741303E+03  0.25500000920E-02 0.  1.
       -2    1    3    3    0  502  0.16656508033E+02 -0.74902530121E+03 -0.13725463276E+03  0.76167918137E+03  0.25500000920E-02 0. -1.
</event>
<event>
 5   0  0.4761944E-04  0.1394756E+04  0.7818609E-02  0.8957623E-01
        2   -1    0    0  501    0  0.00000000000E+00  0.00000000000E+00  0.70602045114E+03  0.70602045115E+03  0.25500000920E-02 0. -1.
       -2   -1    0    0    0  501  0.00000000000E+00  0.00000000000E+00 -0.68884175890E+03  0.68884175890E+03  0.25500000920E-02 0.  1.
    10030    2    1    2    0    0  0.00000000000E+00  0.00000000000E+00  0.17178692244E+02  0.13948622101E+04  0.13947564223E+04 0.  0.
        4    1    3    3  502    0  0.28697026768E+03 -0.10093902228E+03  0.63616712936E+03  0.70516015921E+03  0.12699999809E+01 0. -1.
       -4    1    3    3    0  502 -0.28697026768E+03  0.10093902228E+03 -0.61898843712E+03  0.68970205084E+03  0.12699999809E+01 0.  1.
</event>
<event>
 5   0  0.1729375E-04  0.1893689E+04  0.7818609E-02  0.8658004E-01
        3   -1    0    0  501    0  0.00000000000E+00  0.00000000000E+00  0.85503202338E+03  0.85503202935E+03  0.10100000352E+00 0.  1.
       -3   -1    0    0    0  501  0.00000000000E+00  0.00000000000E+00 -0.10485159890E+04  0.10485159938E+04  0.10100000352E+00 0. -1.
    10030    2    1    2    0    0  0.00000000000E+00  0.00000000000E+00 -0.19348396558E+03  0.19035480232E+04  0.18936892648E+04 0.  0.
        4    1    3    3  502    0 -0.37040431391E+03 -0.74668596948E+03  0.35478900790E+03  0.90587865954E+03  0.12699999809E+01 0.  1.
       -4    1    3    3    0  502  0.37040431391E+03  0.74668596948E+03 -0.54827297347E+03  0.99766936363E+03  0.12699999809E+01 0. -1.
</event>
<event>
 5   0  0.4839293E-04  0.1920627E+04  0.7818609E-02  0.8644657E-01
        2   -1    0    0  501    0  0.00000000000E+00  0.00000000000E+00  0.17730135237E+04  0.17730135237E+04  0.25500000920E-02 0. -1.
       -2   -1    0    0    0  501  0.00000000000E+00  0.00000000000E+00 -0.52013238215E+03  0.52013238216E+03  0.25500000920E-02 0.  1.
    10030    2    1    2    0    0  0.00000000000E+00  0.00000000000E+00  0.12528811415E+04  0.22931459058E+04  0.19206267182E+04 0.  0.
        5    1    3    3  502    0  0.87375453332E+03 -0.34875002826E+03  0.85643182669E+03  0.12722307693E+04  0.46999998093E+01 0. -1.
       -5    1    3    3    0  502 -0.87375453332E+03  0.34875002826E+03  0.39644931485E+03  0.10209151365E+04  0.46999998093E+01 0.  1.
</event>
<event>
 5   0  0.4839293E-04  0.1849040E+04  0.7818609E-02  0.8680647E-01
        2   -1    0    0  501    0  0.00000000000E+00  0.00000000000E+00  0.11168434165E+04  0.11168434165E+04  0.25500000920E-02 0.  1.
       -2   -1    0    0    0  501  0.00000000000E+00  0.00000000000E+00 -0.76531512945E+03  0.76531512945E+03  0.25500000920E-02 0. -1.
    10030    2    1    2    0    0  0.00000000000E+00  0.00000000000E+00  0.35152828704E+03  0.18821585459E+04  0.18490399280E+04 0.  0.
        5    1    3    3  502    0  0.20401014960E+03 -0.46834234052E+03 -0.60858940668E+03  0.79458658747E+03  0.46999998093E+01 0. -1.
       -5    1    3    3    0  502 -0.20401014960E+03  0.46834234052E+03  0.96011769372E+03  0.10875719585E+04  0.46999998093E+01 0.  1.
</event>
<event>
 5   0  0.4761944E-04  0.1929642E+04  0.7818609E-02  0.8640241E-01
        2   -1    0    0  501    0  0.00000000000E+00  0.00000000000E+00  0.98063462501E+03  0.98063462501E+03  0.25500000920E-02 0. -1.
       -2   -1    0    0    0  501  0.00000000000E+00  0.00000000000E+00 -0.94926264548E+03  0.94926264549E+03  0.25500000920E-02 0.  1.
    10030    2    1    2    0    0  0.00000000000E+00  0.00000000000E+00  0.31371979524E+02  0.19298972705E+04  0.19296422657E+04 0.  0.
        4    1    3    3  502    0  0.45577993143E+03  0.49877893076E+03  0.70451675372E+03  0.97614611449E+03  0.12699999809E+01 0. -1.
       -4    1    3    3    0  502 -0.45577993143E+03 -0.49877893076E+03 -0.67314477420E+03  0.95375115601E+03  0.12699999809E+01 0.  1.
</event>
<event>
 5   0  0.2510069E-04  0.1915625E+04  0.7818609E-02  0.8647118E-01
       -1   -1    0    0    0  501  0.00000000000E+00  0.00000000000E+00  0.38156390975E+03  0.38156390978E+03  0.50400001928E-02 0.  1.
        1   -1    0    0  501    0  0.00000000000E+00  0.00000000000E+00 -0.24043276052E+04  0.24043276052E+04  0.50400001928E-02 0. -1.
    10030    2    1    2    0    0  0.00000000000E+00  0.00000000000E+00 -0.20227636954E+04  0.27858915150E+04  0.19156248499E+04 0.  0.
        4    1    3    3  502    0 -0.86288597260E+02 -0.62057296455E+02 -0.23957235092E+04  0.23980803939E+04  0.12699999809E+01 0. -1.
       -4    1    3    3    0  502  0.86288597260E+02  0.62057296455E+02  0.37295981377E+03  0.38781112109E+03  0.12699999809E+01 0.  1.
</event>
<event>
 5   0  0.2376359E-04  0.2083411E+04  0.7818609E-02  0.8568586E-01
        1   -1    0    0  501    0  0.00000000000E+00  0.00000000000E+00  0.74453028836E+03  0.74453028838E+03  0.50400001928E-02 0.  1.
       -1   -1    0    0    0  501  0.00000000000E+00  0.00000000000E+00 -0.14574966949E+04  0.14574966949E+04  0.50400001928E-02 0. -1.
    10030    2    1    2    0    0  0.00000000000E+00  0.00000000000E+00 -0.71296640655E+03  0.22020269833E+04  0.20834110824E+04 0.  0.
        2    1    3    3  502    0 -0.80023116539E+03 -0.22285408454E+03 -0.10208536263E+04  0.13161215701E+04  0.25500000920E-02 0. -1.
       -2    1    3    3    0  502  0.80023116539E+03  0.22285408454E+03  0.30788721971E+03  0.88590541319E+03  0.25500000920E-02 0.  1.
</event>
<event>
 5   0  0.4829134E-04  0.1949469E+04  0.7818609E-02  0.8630617E-01
       -2   -1    0    0    0  501  0.00000000000E+00  0.00000000000E+00  0.67013152354E+03  0.67013152354E+03  0.25500000920E-02 0. -1.
        2   -1    0    0  501    0  0.00000000000E+00  0.00000000000E+00 -0.14177919155E+04  0.14177919155E+04  0.25500000920E-02 0.  1.
    10030    2    1    2    0    0  0.00000000000E+00  0.00000000000E+00 -0.74766039196E+03  0.20879234390E+04  0.19494687034E+04 0.  0.
        2    1    3    3  502    0  0.14365915949E+03  0.37753937548E+03 -0.13239255948E+04  0.13841795096E+04  0.25500000920E-02 0.  1.
       -2    1    3    3    0  502 -0.14365915949E+03 -0.37753937548E+03  0.57626520289E+03  0.70374392942E+03  0.25500000920E-02 0. -1.
</event>
<event>
 5   0  0.2376359E-04  0.1887858E+04  0.7818609E-02  0.8660924E-01
        1   -1    0    0  501    0  0.00000000000E+00  0.00000000000E+00  0.10185703198E+04  0.10185703199E+04  0.50400001928E-02 0.  1.
       -1   -1    0    0    0  501  0.00000000000E+00  0.00000000000E+00 -0.87475780106E+03  0.87475780108E+03  0.50400001928E-02 0. -1.
    10030    2    1    2    0    0  0.00000000000E+00  0.00000000000E+00  0.14381251879E+03  0.18933281209E+04  0.18878583985E+04 0.  0.
        2    1    3    3  502    0 -0.84032985364E+03  0.31757062331E+03  0.36256827301E+03  0.96874202774E+03  0.25500000920E-02 0.  1.
       -2    1    3    3    0  502  0.84032985364E+03 -0.31757062331E+03 -0.21875575423E+03  0.92458609319E+03  0.25500000920E-02 0. -1.
</event>
<event>
 5   0  0.4802635E-04  0.1516215E+04  0.7818609E-02  0.8873741E-01
       -2   -1    0    0    0  501  0.00000000000E+00  0.00000000000E+00  0.58220132913E+03  0.58220132914E+03  0.25500000920E-02 0. -1.
        2   -1    0    0  501    0  0.00000000000E+00  0.00000000000E+00 -0.98716247100E+03  0.98716247101E+03  0.25500000920E-02 0.  1.
    10030    2    1    2    0    0  0.00000000000E+00  0.00000000000E+00 -0.40496114187E+03  0.15693638001E+04  0.15162154236E+04 0.  0.
        3    1    3    3  502    0 -0.43225451160E+03  0.38496255419E+03 -0.70922047720E+03  0.91544187494E+03  0.10100000352E+00 0.  1.
       -3    1    3    3    0  502  0.43225451160E+03 -0.38496255419E+03  0.30425933533E+03  0.65392192520E+03  0.10100000352E+00 0. -1.
</event>
<event>
 5   0  0.4839293E-04  0.1998105E+04  0.7818609E-02  0.8607507E-01
        2   -1    0    0  501    0  0.00000000000E+00  0.00000000000E+00  0.81671628189E+03  0.81671628189E+03  0.25500000920E-02 0. -1.
       -2   -1    0    0    0  501  0.00000000000E+00  0.00000000000E+00 -0.12220957623E+04  0.12220957623E+04  0.25500000920E-02 0.  1.
    10030    2    1    2    0    0  0.00000000000E+00  0.00000000000E+00 -0.40537948038E+03  0.20388120442E+04  0.19981046090E+04 0.  0.
        5    1    3    3  502    0 -0.45753029924E+03 -0.87064383980E+03 -0.23822258770E+02  0.98384158303E+03  0.46999998093E+01 0.  1.
       -5    1    3    3    0  502  0.45753029924E+03  0.87064383980E+03 -0.38155722161E+03  0.10549704611E+04  0.46999998093E+01 0. -1.
</event>
<event>
 5   0  0.2355414E-04  0.1859269E+04  0.7818609E-02  0.8675401E-01
        1   -1    0    0  501    0  0.00000000000E+00  0.00000000000E+00  0.62893857278E+03  0.62893857280E+03  0.50400001928E-02 0.  1.
       -1   -1    0    0    0  501  0.00000000000E+00  0.00000000000E+00 -0.13740934404E+04  0.13740934404E+04  0.50400001928E-02 0. -1.
    10030    2    1    2    0    0  0.00000000000E+00  0.00000000000E+00 -0.74515486765E+03  0.20030320132E+04  0.18592690686E+04 0.  0.
        5    1    3    3  502    0 -0.60611906169E+03  0.12208054265E+03 -0.11204550818E+04  0.12797365573E+04  0.46999998093E+01 0. -1.
       -5    1    3    3    0  502  0.60611906169E+03 -0.12208054265E+03  0.37530021414E+03  0.72329545593E+03  0.46999998093E+01 0.  1.
</event>
<event>
 5   0  0.2317458E-04  0.1824155E+04  0.7818609E-02  0.8693559E-01
       -1   -1    0    0    0  501  0.00000000000E+00  0.00000000000E+00  0.91254813019E+03  0.91254813020E+03  0.50400001928E-02 0.  1.
        1   -1    0    0  501    0  0.00000000000E+00  0.00000000000E+00 -0.91160695792E+03  0.91160695793E+03  0.50400001928E-02 0. -1.
    10030    2    1    2    0    0  0.00000000000E+00  0.00000000000E+00  0.94117226844E+00  0.18241550881E+04  0.18241548453E+04 0.  0.
        3    1    3    3  502    0 -0.22737800948E+03 -0.74542088541E+03  0.47431889405E+03  0.91232202596E+03  0.10100000352E+00 0.  1.
       -3    1    3    3    0  502  0.22737800948E+03  0.74542088541E+03 -0.47337772178E+03  0.91183306217E+03  0.10100000352E+00 0. -1.
</event>
<event>
 5   0  0.4802635E-04  0.2002924E+04  0.7818609E-02  0.8605255E-01
        2   -1    0    0  501    0  0.00000000000E+00  0.00000000000E+00  0.92302689618E+03  0.92302689618E+03  0.25500000920E-02 0.  1.
       -2   -1    0    0    0  501  0.00000000000E+00  0.00000000000E+00 -0.10865618264E+04  0.10865618264E+04  0.25500000920E-02 0. -1.
    10030    2    1    2    0    0  0.00000000000E+00  0.00000000000E+00 -0.16353493024E+03  0.20095887226E+04  0.20029236532E+04 0.  0.
        3    1    3    3  502    0  0.51423115069E+03  0.36375333965E+03 -0.86293110290E+03  0.10683633591E+04  0.10100000352E+00 0. -1.
       -3    1    3    3    0  502 -0.51423115069E+03 -0.36375333965E+03  0.69939617266E+03  0.94122536354E+03  0.10100000352E+00 0.  1.
</event>
<event>
 5   0  0.4973411E-04  0.1962691E+04  0.7818609E-02  0.8624265E-01
       -2   -1    0    0    0  501  0.00000000000E+00  0.00000000000E+00  0.99162889609E+03  0.99162889610E+03  0.25500000920E-02 0.  1.
        2   -1    0    0  501    0  0.00000000000E+00  0.00000000000E+00 -0.97116921481E+03  0.97116921481E+03  0.25500000920E-02 0. -1.
    10030    2    1    2    0    0  0.00000000000E+00  0.00000000000E+00  0.20459681286E+02  0.19627981109E+04  0.19626914749E+04 0.  0.
        1    1    3    3  502    0  0.33777064857E+03  0.61065759625E+03  0.70022946071E+03  0.98859142651E+03  0.50400001928E-02 0.  1.
       -1    1    3    3    0  502 -0.33777064857E+03 -0.61065759625E+03 -0.67976977942E+03  0.97420668440E+03  0.50400001928E-02 0. -1.
</event>
<event>
 5   0  0.4973411E-04  0.1873344E+04  0.7818609E-02  0.8668239E-01
        2   -1    0    0  501    0  0.00000000000E+00  0.00000000000E+00  0.19505871118E+04  0.19505871118E+04  0.25500000920E-02 0. -1.
       -2   -1    0    0    0  501  0.00000000000E+00  0.00000000000E+00 -0.44979012962E+03  0.44979012962E+03  0.25500000920E-02 0.  1.
    10030    2    1    2    0    0  0.00000000000E+00  0.00000000000E+00  0.15007969822E+04  0.24003772414E+04  0.18733444209E+04 0.  0.
        1    1    3    3  502    0  0.51470849190E+03 -0.49290590090E+03  0.15292482249E+04  0.16871517988E+04  0.50400001928E-02 0. -1.
       -1    1    3    3    0  502 -0.51470849190E+03  0.49290590090E+03 -0.28451242725E+02  0.71322544263E+03  0.50400001928E-02 0.  1.
</event>
<event>
 5   0  0.4829134E-04  0.1849360E+04  0.7818609E-02  0.8680482E-01
        2   -1    0    0  501    0  0.00000000000E+00  0.00000000000E+00  0.12692635115E+04  0.12692635115E+04  0.25500000920E-02 0. -1.
       -2   -1    0    0    0  501  0.00000000000E+00  0.00000000000E+00 -0.67364509043E+03  0.67364509043E+03  0.25500000920E-02 0.  1.
    10030    2    1    2    0    0  0.00000000000E+00  0.00000000000E+00  0.59561842105E+03  0.19429086019E+04  0.18493600331E+04 0.  0.
        2    1    3    3  502    0  0.69451165952E+03 -0.16515867009E+03 -0.31963527678E+03  0.78217040451E+03  0.25500000920E-02 0.  1.
       -2    1    3    3    0  502 -0.69451165952E+03  0.16515867009E+03  0.91525369783E+03  0.11607381974E+04  0.25500000920E-02 0. -1.
</event>
<event>
 5   0  0.2261755E-04  0.1835116E+04  0.7818609E-02  0.8687845E-01
        1   -1    0    0  501    0  0.00000000000E+00  0.00000000000E+00  0.13857584304E+04  0.13857584304E+04  0.50400001928E-02 0.  1.
       -1   -1    0    0    0  501  0.00000000000E+00  0.00000000000E+00 -0.60754676295E+03  0.60754676298E+03  0.50400001928E-02 0. -1.
    10030    2    1    2    0    0  0.00000000000E+00  0.00000000000E+00  0.77821166748E+03  0.19933051934E+04  0.18351163981E+04 0.  0.
        1    1    3    3  502    0 -0.61318293361E+02 -0.19205467700E+03 -0.58319154137E+03  0.61705535085E+03  0.50400001928E-02 0. -1.
       -1    1    3    3    0  502  0.61318293361E+02  0.19205467700E+03  0.13614032089E+04  0.13762498426E+04  0.50400001928E-02 0.  1.
</event>
<event>
 5   0  0.4973411E-04  0.1913021E+04  0.7818609E-02  0.8648402E-01
        2   -1    0    0  501    0  0.00000000000E+00  0.00000000000E+00  0.72457744739E+03  0.72457744740E+03  0.25500000920E-02 0. -1.
       -2   -1    0    0    0  501  0.00000000000E+00  0.00000000000E+00 -0.12626845197E+04  0.12626845197E+04  0.25500000920E-02 0.  1.
    10030    2    1    2    0    0  0.00000000000E+00  0.00000000000E+00 -0.53810707233E+03  0.19872619671E+04  0.19130214073E+04 0.  0.
        1    1    3    3  502    0  0.65472693974E+03 -0.64992524661E+03 -0.53152999029E+03  0.10647038661E+04  0.50400001928E-02 0. -1.
       -1    1    3    3    0  502 -0.65472693974E+03  0.64992524661E+03 -0.65770820415E+01  0.92255810106E+03  0.50400001928E-02 0.  1.
</event>
<event>
 5   0  0.4761944E-04  0.1071134E+04  0.7818609E-02  0.9233792E-01
        2   -1    0    0  501    0  0.00000000000E+00  0.00000000000E+00  0.15366155047E+03  0.15366155050E+03  0.25500000920E-02 0.  1.
       -2   -1    0    0    0  501  0.00000000000E+00  0.00000000000E+00 -0.18666484563E+04  0.18666484563E+04  0.25500000920E-02 0. -1.
    10030    2    1    2    0    0  0.00000000000E+00  0.00000000000E+00 -0.17129869059E+04  0.20203100068E+04  0.10711341578E+04 0.  0.
        4    1    3    3  502    0 -0.36184617547E+03  0.36342234742E+03 -0.56537918494E+03  0.76332410742E+03  0.12699999809E+01 0.  1.
       -4    1    3    3    0  502  0.36184617547E+03 -0.36342234742E+03 -0.11476077209E+04  0.12569858994E+04  0.12699999809E+01 0. -1.
</event>
<event>
 5   0  0.4802635E-04  0.1894052E+04  0.7818609E-02  0.8657823E-01
        2   -1    0    0  501    0  0.00000000000E+00  0.00000000000E+00  0.18507175861E+04  0.18507175861E+04  0.25500000920E-02 0. -1.
       -2   -1    0    0    0  501  0.00000000000E+00  0.00000000000E+00 -0.48460013673E+03  0.48460013674E+03  0.25500000920E-02 0.  1.
    10030    2    1    2    0    0  0.00000000000E+00  0.00000000000E+00  0.13661174494E+04  0.23353177229E+04  0.18940517367E+04 0.  0.
        3    1    3    3  502    0 -0.46933440888E+03 -0.81952497108E+03  0.76991143426E+03  0.12184660818E+04  0.10100000352E+00 0.  1.
       -3    1    3    3    0  502  0.46933440888E+03  0.81952497108E+03  0.59620601515E+03  0.11168516411E+04  0.10100000352E+00 0. -1.
</event>
<event>
 5   0  0.2355414E-04  0.1897425E+04  0.7818609E-02  0.8656139E-01
       -1   -1    0    0    0  501  0.00000000000E+00  0.00000000000E+00  0.49034980787E+03  0.49034980790E+03  0.50400001928E-02 0.  1.
        1   -1    0    0  501    0  0.00000000000E+00  0.00000000000E+00 -0.18355382606E+04  0.18355382606E+04  0.50400001928E-02 0. -1.
    10030    2    1    2    0    0  0.00000000000E+00  0.00000000000E+00 -0.13451884527E+04  0.23258880685E+04  0.18974254488E+04 0.  0.
        5    1    3    3  502    0  0.13761899502E+03  0.67462741090E+03 -0.14726401711E+04  0.16256544205E+04  0.46999998093E+01 0. -1.
       -5    1    3    3    0  502 -0.13761899502E+03 -0.67462741090E+03  0.12745171835E+03  0.70023364803E+03  0.46999998093E+01 0.  1.
</event>
<event>
 5   0  0.2376359E-04  0.1937931E+04  0.7818609E-02  0.8636203E-01
        1   -1    0    0  501    0  0.00000000000E+00  0.00000000000E+00  0.10707405483E+04  0.10707405484E+04  0.50400001928E-02 0. -1.
       -1   -1    0    0    0  501  0.00000000000E+00  0.00000000000E+00 -0.87686450924E+03  0.87686450925E+03  0.50400001928E-02 0.  1.
    10030    2    1    2    0    0  0.00000000000E+00  0.00000000000E+00  0.19387603910E+03  0.19476050576E+04  0.19379312531E+04 0.  0.
        2    1    3    3  502    0 -0.34395500136E+02  0.81471129018E+03  0.62295965590E+03  0.10261658100E+04  0.25500000920E-02 0. -1.
       -2    1    3    3    0  502  0.34395500136E+02 -0.81471129018E+03 -0.42908361680E+03  0.92143924758E+03  0.25500000920E-02 0.  1.
</event>
<event>
 5   0  0.4973411E-04  0.2004649E+04  0.7818609E-02  0.8604450E-01
       -2   -1    0    0    0  501  0.00000000000E+00  0.00000000000E+00  0.50574153118E+03  0.50574153119E+03  0.25500000920E-02 0. -1.
        2   -1    0    0  501    0  0.00000000000E+00  0.00000000000E+00 -0.19864975019E+04  0.19864975019E+04  0.25500000920E-02 0.  1.
    10030    2    1    2    0    0  0.00000000000E+00  0.00000000000E+00 -0.14807559707E+04  0.24922390331E+04  0.20046488853E+04 0.  0.
        1    1    3    3  502    0 -0.94298455435E+02 -0.57096542239E+03  0.27706754166E+03  0.64160746171E+03  0.50400001928E-02 0. -1.
       -1    1    3    3    0  502  0.94298455435E+02  0.57096542239E+03 -0.17578235124E+04  0.18506315713E+04  0.50400001928E-02 0.  1.
</event>
<event>
 5   0  0.4761944E-04  0.2141111E+04  0.7818609E-02  0.8543347E-01
        2   -1    0    0  501    0  0.00000000000E+00  0.00000000000E+00  0.12037791403E+04  0.12037791403E+04  0.25500000920E-02 0.  1.
       -2   -1    0    0    0  501  0.00000000000E+00  0.00000000000E+00 -0.95207599438E+03  0.95207599439E+03  0.25500000920E-02 0. -1.
    10030    2    1    2    0    0  0.00000000000E+00  0.00000000000E+00  0.25170314591E+03  0.21558551347E+04  0.21411111340E+04 0.  0.
        4    1    3    3  502    0 -0.20933775724E+02 -0.32487758438E+01  0.12035673174E+04  0.12037544093E+04  0.12699999809E+01 0.  1.
       -4    1    3    3    0  502  0.20933775724E+02  0.32487758438E+01 -0.95186417146E+03  0.95210072541E+03  0.12699999809E+01 0. -1.
</event>
<event>
 5   0  0.4802635E-04  0.1759464E+04  0.7818609E-02  0.8728158E-01
        2   -1    0    0  501    0  0.00000000000E+00  0.00000000000E+00  0.20559453198E+04  0.20559453198E+04  0.25500000920E-02 0. -1.
       -2   -1    0    0    0  501  0.00000000000E+00  0.00000000000E+00 -0.37643426516E+03  0.37643426517E+03  0.25500000920E-02 0.  1.
    10030    2    1    2    0    0  0.00000000000E+00  0.00000000000E+00  0.16795110547E+04  0.24323795850E+04  0.17594638566E+04 0.  0.
        3    1    3    3  502    0 -0.42569108426E+03 -0.40097852978E+02 -0.22312448831E+03  0.48229170065E+03  0.10100000352E+00 0.  1.
       -3    1    3    3    0  502  0.42569108426E+03  0.40097852978E+02  0.19026355430E+04  0.19500878844E+04  0.10100000352E+00 0. -1.
</event>
<event>
 5   0  0.2261755E-04  0.1855236E+04  0.7818609E-02  0.8677465E-01
        1   -1    0    0  501    0  0.00000000000E+00  0.00000000000E+00  0.12534524631E+04  0.12534524631E+04  0.50400001928E-02 0.  1.
       -1   -1    0    0    0  501  0.00000000000E+00  0.00000000000E+00 -0.68648441579E+03  0.68648441581E+03  0.50400001928E-02 0. -1.
    10030    2    1    2    0    0  0.00000000000E+00  0.00000000000E+00  0.56696804726E+03  0.19399368789E+04  0.18552364613E+04 0.  0.
        1    1    3    3  502    0  0.11624864570E+03  0.90937535880E+03  0.13561242427E+03  0.92675132611E+03  0.50400001928E-02 0.  1.
       -1    1    3    3    0  502 -0.11624864570E+03 -0.90937535880E+03  0.43135562299E+03  0.10131855528E+04  0.50400001928E-02 0. -1.
</event>
<event>
 5   0  0.4829134E-04  0.1880361E+04  0.7818609E-02  0.8664694E-01
       -2   -1    0    0    0  501  0.00000000000E+00  0.00000000000E+00  0.79670823828E+03  0.79670823828E+03  0.25500000920E-02 0. -1.
        2   -1    0    0  501    0  0.00000000000E+00  0.00000000000E+00 -0.11094899964E+04  0.11094899964E+04  0.25500000920E-02 0.  1.
    10030    2    1    2    0    0  0.00000000000E+00  0.00000000000E+00 -0.31278175809E+03  0.19061982347E+04  0.18803614763E+04 0.  0.
        2    1    3    3  502    0  0.61026899904E+03 -0.64194534170E+03 -0.47602907989E+03  0.10055474916E+04  0.25500000920E-02 0. -1.
       -2    1    3    3    0  502 -0.61026899904E+03  0.64194534170E+03  0.16324732180E+03  0.90065074308E+03  0.25500000920E-02 0.  1.
</event>
<event>
 5   0  0.2261755E-04  0.1748155E+04  0.7818609E-02  0.8734366E-01
       -1   -1    0    0    0  501  0.00000000000E+00  0.00000000000E+00  0.66209105352E+03  0.66209105354E+03  0.50400001928E-02 0. -1.
        1   -1    0    0  501    0  0.00000000000E+00  0.00000000000E+00 -0.11539373227E+04  0.11539373227E+04  0.50400001928E-02 0.  1.
    10030    2    1    2    0    0  0.00000000000E+00  0.00000000000E+00 -0.49184626920E+03  0.18160283763E+04  0.17481551164E+04 0.  0.
        1    1    3    3  502    0 -0.36771975726E+03  0.52715703653E+03 -0.86128965456E+03  0.10746777331E+04  0.50400001928E-02 0.  1.
       -1    1    3    3    0  502  0.36771975726E+03 -0.52715703653E+03  0.36944338536E+03  0.74135064312E+03  0.50400001928E-02 0. -1.
</event>
<event>
 5   0  0.2376359E-04  0.1848282E+04  0.7818609E-02  0.8681037E-01
       -1   -1    0    0    0  501  0.00000000000E+00  0.00000000000E+00  0.76086927024E+03  0.76086927025E+03  0.50400001928E-02 0.  1.
        1   -1    0    0  501    0  0.00000000000E+00  0.00000000000E+00 -0.11224480837E+04  0.11224480837E+04  0.50400001928E-02 0. -1.
    10030    2    1    2    0    0  0.00000000000E+00  0.00000000000E+00 -0.36157881345E+03  0.18833173540E+04  0.18482816391E+04 0.  0.
        2    1    3    3  502    0  0.27356766581E+03  0.56012821281E+03  0.51438447891E+03  0.80819197887E+03  0.25500000920E-02 0.  1.
       -2    1    3    3    0  502 -0.27356766581E+03 -0.56012821281E+03 -0.87596329237E+03  0.10751253751E+04  0.25500000920E-02 0. -1.
</event>
<event>
 5   0  0.4839293E-04  0.1626088E+04  0.7818609E-02  0.8804680E-01
        2   -1    0    0  501    0  0.00000000000E+00  0.00000000000E+00  0.61600057395E+03  0.61600057396E+03  0.25500000920E-02 0. -1.
       -2   -1    0    0    0  501  0.00000000000E+00  0.00000000000E+00 -0.10731164323E+04  0.10731164323E+04  0.25500000920E-02 0.  1.
    10030    2    1    2    0    0  0.00000000000E+00  0.00000000000E+00 -0.45711585831E+03  0.16891170062E+04  0.16260877445E+04 0.  0.
        5    1    3    3  502    0 -0.11617985819E+03 -0.71195445710E+03 -0.61811604377E+03  0.94998233773E+03  0.46999998093E+01 0.  1.
       -5    1    3    3    0  502  0.11617985819E+03  0.71195445710E+03  0.16100018547E+03  0.73913466848E+03  0.46999998093E+01 0. -1.
</event>
<event>
 5   0  0.2261755E-04  0.1888211E+04  0.7818609E-02  0.8660747E-01
       -1   -1    0    0    0  501  0.00000000000E+00  0.00000000000E+00  0.67719145566E+03  0.67719145568E+03  0.50400001928E-02 0.  1.
        1   -1    0    0  501    0  0.00000000000E+00  0.00000000000E+00 -0.13162233605E+04  0.13162233605E+04  0.50400001928E-02 0. -1.
    10030    2    1    2    0    0  0.00000000000E+00  0.00000000000E+00 -0.63903190488E+03  0.19934148162E+04  0.18882110195E+04 0.  0.
        1    1    3    3  502    0 -0.29535162043E+03  0.25800800665E+03  0.58713124805E+03  0.70606218823E+03  0.50400001928E-02 0.  1.
       -1    1    3    3    0  502  0.29535162043E+03 -0.25800800665E+03 -0.12261631529E+04  0.12873526280E+04  0.50400001928E-02 0. -1.
</event>
<event>
 5   0  0.4761944E-04  0.1923785E+04  0.7818609E-02  0.8643107E-01
        2   -1    0    0  501    0  0.00000000000E+00  0.00000000000E+00  0.74154921508E+03  0.74154921508E+03  0.25500000920E-02 0. -1.
       -2   -1    0    0    0  501  0.00000000000E+00  0.00000000000E+00 -0.12477079969E+04  0.12477079969E+04  0.25500000920E-02 0.  1.
    10030    2    1    2    0    0  0.00000000000E+00  0.00000000000E+00 -0.50615878184E+03  0.19892572120E+04  0.19237846925E+04 0.  0.
        4    1    3    3  502    0 -0.43621570628E+03 -0.50154933347E+03 -0.97201091713E+03  0.11775579443E+04  0.12699999809E+01 0.  1.
       -4    1    3    3    0  502  0.43621570628E+03  0.50154933347E+03  0.46585213529E+03  0.81169926769E+03  0.12699999809E+01 0. -1.
</event>
<event>
 5   0  0.1729375E-04  0.1887927E+04  0.7818609E-02  0.8660889E-01
       -3   -1    0    0    0  501  0.00000000000E+00  0.00000000000E+00  0.17016648374E+04  0.17016648404E+04  0.10100000352E+00 0. -1.
        3   -1    0    0  501    0  0.00000000000E+00  0.00000000000E+00 -0.52364452274E+03  0.52364453248E+03  0.10100000352E+00 0.  1.
    10030    2    1    2    0    0  0.00000000000E+00  0.00000000000E+00  0.11780203147E+04  0.22253093729E+04  0.18879274200E+04 0.  0.
        4    1    3    3  502    0 -0.18978560054E+02  0.92014104342E+03  0.83638701401E+03  0.12436094948E+04  0.12699999809E+01 0. -1.
       -4    1    3    3    0  502  0.18978560054E+02 -0.92014104342E+03  0.34163330065E+03  0.98169987804E+03  0.12699999809E+01 0.  1.
</event>
<event>
 5   0  0.4802635E-04  0.1888117E+04  0.7818609E-02  0.8660794E-01
        2   -1    0    0  501    0  0.00000000000E+00  0.00000000000E+00  0.17148476426E+04  0.17148476426E+04  0.25500000920E-02 0. -1.
       -2   -1    0    0    0  501  0.00000000000E+00  0.00000000000E+00 -0.51972363210E+03  0.51972363210E+03  0.25500000920E-02 0.  1.
    10030    2    1    2    0    0  0.00000000000E+00  0.00000000000E+00  0.11951240105E+04  0.22345712747E+04  0.18881174172E+04 0.  0.
        3    1    3    3  502    0 -0.37675142468E+02  0.37895683650E+03 -0.42478517561E+03  0.57049991754E+03  0.10100000352E+00 0.  1.
       -3    1    3    3    0  502  0.37675142468E+02 -0.37895683650E+03  0.16199091861E+04  0.16640713572E+04  0.10100000352E+00 0. -1.
</event>
<event>
 5   0  0.4839293E-04  0.1896930E+04  0.7818609E-02  0.8656386E-01
        2   -1    0    0  501    0  0.00000000000E+00  0.00000000000E+00  0.93728546789E+03  0.93728546789E+03  0.25500000920E-02 0.  1.
       -2   -1    0    0    0  501  0.00000000000E+00  0.00000000000E+00 -0.95977772032E+03  0.95977772032E+03  0.25500000920E-02 0. -1.
    10030    2    1    2    0    0  0.00000000000E+00  0.00000000000E+00 -0.22492252425E+02  0.18970631882E+04  0.18969298455E+04 0.  0.
        5    1    3    3  502    0  0.25857382616E+03 -0.70949291967E+03  0.56266091634E+03  0.94172714914E+03  0.46999998093E+01 0.  1.
       -5    1    3    3    0  502 -0.25857382616E+03  0.70949291967E+03 -0.58515316877E+03  0.95533603908E+03  0.46999998093E+01 0. -1.
</event>
<event>
 5   0  0.2317458E-04  0.1888056E+04  0.7818609E-02  0.8660824E-01
        1   -1    0    0  501    0  0.00000000000E+00  0.00000000000E+00  0.10987038546E+04  0.10987038546E+04  0.50400001928E-02 0.  1.
       -1   -1    0    0    0  501  0.00000000000E+00  0.00000000000E+00 -0.81112773218E+03  0.81112773220E+03  0.50400001928E-02 0. -1.
    10030    2    1    2    0    0  0.00000000000E+00  0.00000000000E+00  0.28757612242E+03  0.19098315868E+04  0.18880563190E+04 0.  0.
        3    1    3    3  502    0  0.19832674883E+03  0.79980841867E+03 -0.32213486500E+03  0.88475866050E+03  0.10100000352E+00 0. -1.
       -3    1    3    3    0  502 -0.19832674883E+03 -0.79980841867E+03  0.60971098742E+03  0.10250729263E+04  0.10100000352E+00 0.  1.
</event>
<event>
 5   0  0.4829134E-04  0.1459255E+04  0.7818609E-02  0.8912010E-01
       -2   -1    0    0    0  501  0.00000000000E+00  0.00000000000E+00  0.29776025334E+03  0.29776025335E+03  0.25500000920E-02 0.  1.
        2   -1    0    0  501    0  0.00000000000E+00  0.00000000000E+00 -0.17878679761E+04  0.17878679761E+04  0.25500000920E-02 0. -1.
    10030    2    1    2    0    0  0.00000000000E+00  0.00000000000E+00 -0.14901077228E+04  0.20856282294E+04  0.14592546337E+04 0.  0.
        2    1    3    3  502    0  0.62224544136E+03  0.37765974519E+03 -0.81708183892E+03  0.10942755612E+04  0.25500000920E-02 0.  1.
       -2    1    3    3    0  502 -0.62224544136E+03 -0.37765974519E+03 -0.67302588383E+03  0.99135266820E+03  0.25500000920E-02 0. -1.
</event>
<event>
 5   0  0.4761944E-04  0.1954200E+04  0.7818609E-02  0.8628338E-01
        2   -1    0    0  501    0  0.00000000000E+00  0.00000000000E+00  0.66080553300E+03  0.66080553301E+03  0.25500000920E-02 0. -1.
       -2   -1    0    0    0  501  0.00000000000E+00  0.00000000000E+00 -0.14447885041E+04  0.14447885041E+04  0.25500000920E-02 0.  1.
    10030    2    1    2    0    0  0.00000000000E+00  0.00000000000E+00 -0.78398297114E+03  0.21055940372E+04  0.19541998235E+04 0.  0.
        4    1    3    3  502    0  0.59384027270E+03 -0.44679470086E+03 -0.10755285943E+04  0.13073007092E+04  0.12699999809E+01 0.  1.
       -4    1    3    3    0  502 -0.59384027270E+03  0.44679470086E+03  0.29154562315E+03  0.79829332797E+03  0.12699999809E+01 0. -1.
</event>
<event>
 5   0  0.4761944E-04  0.1977610E+04  0.7818609E-02  0.8617161E-01
       -2   -1    0    0    0  501  0.00000000000E+00  0.00000000000E+00  0.16435680478E+04  0.16435680478E+04  0.25500000920E-02 0. -1.
        2   -1    0    0  501    0  0.00000000000E+00  0.00000000000E+00 -0.59488596385E+03  0.59488596385E+03  0.25500000920E-02 0.  1.
    10030    2    1    2    0    0  0.00000000000E+00  0.00000000000E+00  0.10486820840E+04  0.22384540117E+04  0.19776102369E+04 0.  0.
        4    1    3    3  502    0  0.21411102834E+03  0.80369934132E+02 -0.56453769646E+03  0.60910367130E+03  0.12699999809E+01 0.  1.
       -4    1    3    3    0  502 -0.21411102834E+03 -0.80369934132E+02  0.16132197804E+04  0.16293503404E+04  0.12699999809E+01 0. -1.
</event>
<event>
 5   0  0.2510069E-04  0.1874553E+04  0.7818609E-02  0.8667628E-01
        1   -1    0    0  501    0  0.00000000000E+00  0.00000000000E+00  0.18834869055E+04  0.18834869055E+04  0.50400001928E-02 0. -1.
       -1   -1    0    0    0  501  0.00000000000E+00  0.00000000000E+00 -0.46641542249E+03  0.46641542251E+03  0.50400001928E-02 0.  1.
    10030    2    1    2    0    0  0.00000000000E+00  0.00000000000E+00  0.14170714830E+04  0.23499023281E+04  0.18745531103E+04 0.  0.
        4    1    3    3  502    0  0.60555035740E+03  0.65871084933E+03  0.10584047592E+04  0.13859341491E+04  0.12699999809E+01 0. -1.
       -4    1    3    3    0  502 -0.60555035740E+03 -0.65871084933E+03  0.35866672384E+03  0.96396817897E+03  0.12699999809E+01 0.  1.
</event>
<event>
 5   0  0.2355414E-04  0.1901746E+04  0.7818609E-02  0.8653988E-01
       -1   -1    0    0    0  501  0.00000000000E+00  0.00000000000E+00  0.50704387652E+03  0.50704387654E+03  0.50400001928E-02 0.  1.
        1   -1    0    0  501    0  0.00000000000E+00  0.00000000000E+00 -0.17831974532E+04  0.17831974532E+04  0.50400001928E-02 0. -1.
    10030    2    1    2    0    0  0.00000000000E+00  0.00000000000E+00 -0.12761535767E+04  0.22902413298E+04  0.19017458813E+04 0.  0.
        5    1    3    3  502    0  0.49850937847E+03 -0.10388559516E+02  0.33695996602E+03  0.60181694168E+03  0.46999998093E+01 0.  1.
       -5    1    3    3    0  502 -0.49850937847E+03  0.10388559516E+02 -0.16131135427E+04  0.16884243881E+04  0.46999998093E+01 0. -1.
</event>
<event>
 5   0  0.2261755E-04  0.1875902E+04  0.7818609E-02  0.8666945E-01
        1   -1    0    0  501    0  0.00000000000E+00  0.00000000000E+00  0.60175631866E+03  0.60175631868E+03  0.50400001928E-02 0. -1.
       -1   -1    0    0    0  501  0.00000000000E+00  0.00000000000E+00 -0.14619745557E+04  0.14619745557E+04  0.50400001928E-02 0.  1.
    10030    2    1    2    0    0  0.00000000000E+00  0.00000000000E+00 -0.86021823703E+03  0.20637308744E+04  0.18759023713E+04 0.  0.
        1    1    3    3  502    0 -0.40840547075E+01  0.20745274081E+03 -0.14364091399E+04  0.14513182065E+04  0.50400001928E-02 0.  1.
       -1    1    3    3    0  502  0.40840547075E+01 -0.20745274081E+03  0.57619090290E+03  0.61241266789E+03  0.50400001928E-02 0. -1.
</event>
<event>
 5   0  0.2510069E-04  0.9930811E+03  0.7818609E-02  0.9316166E-01
        1   -1    0    0  501    0  0.00000000000E+00  0.00000000000E+00  0.11876336749E+04  0.11876336749E+04  0.50400001928E-02 0.  1.
       -1   -1    0    0    0  501  0.00000000000E+00  0.00000000000E+00 -0.20759982195E+03  0.20759982201E+03  0.50400001928E-02 0. -1.
    10030    2    1    2    0    0  0.00000000000E+00  0.00000000000E+00  0.98003385295E+03  0.13952334969E+04  0.99308114372E+03 0.  0.
        4    1    3    3  502    0  0.17848173653E+02  0.11037458077E+03 -0.18968157968E+03  0.22018587592E+03  0.12699999809E+01 0. -1.
       -4    1    3    3    0  502 -0.17848173653E+02 -0.11037458077E+03  0.11697154326E+04  0.11750476210E+04  0.12699999809E+01 0.  1.
</event>
<event>
 5   0  0.2261755E-04  0.2542462E+04  0.7818609E-02  0.8388013E-01
        1   -1    0    0  501    0  0.00000000000E+00  0.00000000000E+00  0.10460166812E+04  0.10460166812E+04  0.50400001928E-02 0.  1.
       -1   -1    0    0    0  501  0.00000000000E+00  0.00000000000E+00 -0.15449348784E+04  0.15449348784E+04  0.50400001928E-02 0. -1.
    10030    2    1    2    0    0  0.00000000000E+00  0.00000000000E+00 -0.49891819719E+03  0.25909515596E+04  0.25424615271E+04 0.  0.
        1    1    3    3  502    0  0.20742336501E+03  0.12525410575E+04 -0.31506155100E+03  0.13081083036E+04  0.50400001928E-02 0. -1.
       -1    1    3    3    0  502 -0.20742336501E+03 -0.12525410575E+04 -0.18385664619E+03  0.12828432560E+04  0.50400001928E-02 0.  1.
</event>
<event>
 5   0  0.4829134E-04  0.1517955E+04  0.7818609E-02  0.8872600E-01
        2   -1    0    0  501    0  0.00000000000E+00  0.00000000000E+00  0.14893785108E+04  0.14893785108E+04  0.25500000920E-02 0.  1.
       -2   -1    0    0    0  501  0.00000000000E+00  0.00000000000E+00 -0.38676982776E+03  0.38676982777E+03  0.25500000920E-02 0. -1.
    10030    2    1    2    0    0  0.00000000000E+00  0.00000000000E+00  0.11026086830E+04  0.18761483386E+04  0.15179547689E+04 0.  0.
        2    1    3    3  502    0 -0.40395999477E+03  0.21446892617E+03  0.12999255342E+04  0.13780373696E+04  0.25500000920E-02 0.  1.
       -2    1    3    3    0  502  0.40395999477E+03 -0.21446892617E+03 -0.19731685112E+03  0.49811096897E+03  0.25500000920E-02 0. -1.
</event>
<event>
 5   0  0.2510069E-04  0.1610680E+04  0.7818609E-02  0.8814013E-01
        1   -1    0    0  501    0  0.00000000000E+00  0.00000000000E+00  0.10391938560E+04  0.10391938560E+04  0.50400001928E-02 0.  1.
       -1   -1    0    0    0  501  0.00000000000E+00  0.00000000000E+00 -0.62411146228E+03  0.62411146230E+03  0.50400001928E-02 0. -1.
    10030    2    1    2    0    0  0.00000000000E+00  0.00000000000E+00  0.41508239368E+03  0.16633053183E+04  0.16106803495E+04 0.  0.
        4    1    3    3  502    0 -0.56104457514E+03 -0.59435935931E+02  0.80100681093E+03  0.97975362711E+03  0.12699999809E+01 0.  1.
       -4    1    3    3    0  502  0.56104457514E+03  0.59435935931E+02 -0.38592441725E+03  0.68355169117E+03  0.12699999809E+01 0. -1.
</event>
<event>
 5   0  0.4761944E-04  0.1727114E+04  0.7818609E-02  0.8746049E-01
        2   -1    0    0  501    0  0.00000000000E+00  0.00000000000E+00  0.19957957587E+04  0.19957957587E+04  0.25500000920E-02 0.  1.
       -2   -1    0    0    0  501  0.00000000000E+00  0.00000000000E+00 -0.37365096143E+03  0.37365096144E+03  0.25500000920E-02 0. -1.
    10030    2    1    2    0    0  0.00000000000E+00  0.00000000000E+00  0.16221447973E+04  0.23694467202E+04  0.17271143611E+04 0.  0.
        4    1    3    3  502    0  0.73639664125E+03 -0.42632958567E+03  0.10131323657E+04  0.13230554532E+04  0.12699999809E+01 0.  1.
       -4    1    3    3    0  502 -0.73639664125E+03  0.42632958567E+03  0.60901243155E+03  0.10463912670E+04  0.12699999809E+01 0. -1.
</event>
<event>
 5   0  0.2261755E-04  0.1933762E+04  0.7818609E-02  0.8638231E-01
       -1   -1    0    0    0  501  0.00000000000E+00  0.00000000000E+00  0.76910622977E+03  0.76910622979E+03  0.50400001928E-02 0.  1.
        1   -1    0    0  501    0  0.00000000000E+00  0.00000000000E+00 -0.12155135957E+04  0.12155135957E+04  0.50400001928E-02 0. -1.
    10030    2    1    2    0    0  0.00000000000E+00  0.00000000000E+00 -0.44640736593E+03  0.19846198255E+04  0.19337622179E+04 0.  0.
        1    1    3    3  502    0  0.62446176899E+03 -0.45019900768E+03 -0.82359121325E+03  0.11273571457E+04  0.50400001928E-02 0. -1.
       -1    1    3    3    0  502 -0.62446176899E+03  0.45019900768E+03  0.37718384732E+03  0.85726267978E+03  0.50400001928E-02 0.  1.
</event>
<event>
 5   0  0.2317458E-04  0.1914027E+04  0.7818609E-02  0.8647905E-01
        1   -1    0    0  501    0  0.00000000000E+00  0.00000000000E+00  0.10475030069E+04  0.10475030069E+04  0.50400001928E-02 0. -1.
       -1   -1    0    0    0  501  0.00000000000E+00  0.00000000000E+00 -0.87434127227E+03  0.87434127228E+03  0.50400001928E-02 0.  1.
    10030    2    1    2    0    0  0.00000000000E+00  0.00000000000E+00  0.17316173466E+03  0.19218442792E+04  0.19140272849E+04 0.  0.
        3    1    3    3  502    0  0.14685656041E+03  0.53394170637E+03 -0.69712877279E+03  0.89030844722E+03  0.10100000352E+00 0.  1.
       -3    1    3    3    0  502 -0.14685656041E+03 -0.53394170637E+03  0.87029050746E+03  0.10315358320E+04  0.10100000352E+00 0. -1.
</event>
<event>
 5   0  0.4829134E-04  0.1810400E+04  0.7818609E-02  0.8700788E-01
       -2   -1    0    0    0  501  0.00000000000E+00  0.00000000000E+00  0.66227865492E+03  0.66227865492E+03  0.25500000920E-02 0.  1.
        2   -1    0    0  501    0  0.00000000000E+00  0.00000000000E+00 -0.12372240279E+04  0.12372240279E+04  0.25500000920E-02 0. -1.
    10030    2    1    2    0    0  0.00000000000E+00  0.00000000000E+00 -0.57494537302E+03  0.18995026829E+04  0.18104000277E+04 0.  0.
        2    1    3    3  502    0  0.34471439848E+02 -0.47435924928E+03 -0.10955620264E+04  0.11943454824E+04  0.25500000920E-02 0. -1.
       -2    1    3    3    0  502 -0.34471439848E+02  0.47435924928E+03  0.52061665342E+03  0.70515720047E+03  0.25500000920E-02 0.  1.
</event>
<event>
 5   0  0.4802635E-04  0.2011025E+04  0.7818609E-02  0.8601483E-01
        2   -1    0    0  501    0  0.00000000000E+00  0.00000000000E+00  0.12275062203E+04  0.12275062203E+04  0.25500000920E-02 0. -1.
       -2   -1    0    0    0  501  0.00000000000E+00  0.00000000000E+00 -0.82366614763E+03  0.82366614763E+03  0.25500000920E-02 0.  1.
    10030    2    1    2    0    0  0.00000000000E+00  0.00000000000E+00  0.40384007269E+03  0.20511723680E+04  0.20110249324E+04 0.  0.
        3    1    3    3  502    0  0.97845293339E+03  0.22728409780E+03  0.24784225676E+03  0.10346274684E+04  0.10100000352E+00 0.  1.
       -3    1    3    3    0  502 -0.97845293339E+03 -0.22728409780E+03  0.15599781593E+03  0.10165448995E+04  0.10100000352E+00 0. -1.
</event>
<event>
 5   0  0.4839293E-04  0.1899465E+04  0.7818609E-02  0.8655123E-01
        2   -1    0    0  501    0  0.00000000000E+00  0.00000000000E+00  0.14302179238E+04  0.14302179238E+04  0.25500000920E-02 0.  1.
       -2   -1    0    0    0  501  0.00000000000E+00  0.00000000000E+00 -0.63066766442E+03  0.63066766443E+03  0.25500000920E-02 0. -1.
    10030    2    1    2    0    0  0.00000000000E+00  0.00000000000E+00  0.79955025942E+03  0.20608855883E+04  0.18994653960E+04 0.  0.
        5    1    3    3  502    0 -0.90443742235E+03  0.19767588379E+03  0.62964616180E+03  0.11196245733E+04  0.46999998093E+01 0.  1.
       -5    1    3    3    0  502  0.90443742235E+03 -0.19767588379E+03  0.16990409762E+03  0.94126101501E+03  0.46999998093E+01 0. -1.
</event>
<event>
 5   0  0.2510069E-04  0.1416566E+04  0.7818609E-02  0.8941914E-01
        1   -1    0    0  501    0  0.00000000000E+00  0.00000000000E+00  0.53645067144E+03  0.53645067147E+03  0.50400001928E-02 0.  1.
       -1   -1    0    0    0  501  0.00000000000E+00  0.00000000000E+00 -0.93515549829E+03  0.93515549831E+03  0.50400001928E-02 0. -1.
    10030    2    1    2    0    0  0.00000000000E+00  0.00000000000E+00 -0.39870482685E+03  0.14716061698E+04  0.14165659815E+04 0.  0.
        4    1    3    3  502    0 -0.35486840473E+03  0.59651722611E+03 -0.34589646542E+03  0.77550652054E+03  0.12699999809E+01 0. -1.
       -4    1    3    3    0  502  0.35486840473E+03 -0.59651722611E+03 -0.52808361432E+02  0.69609964923E+03  0.12699999809E+01 0.  1.
</event>
<event>
 5   0  0.2261755E-04  0.1886626E+04  0.7818609E-02  0.8661542E-01
       -1   -1    0    0    0  501  0.00000000000E+00  0.00000000000E+00  0.10442973692E+04  0.10442973692E+04  0.50400001928E-02 0. -1.
        1   -1    0    0  501    0  0.00000000000E+00  0.00000000000E+00 -0.85209380363E+03  0.85209380364E+03  0.50400001928E-02 0.  1.
    10030    2    1    2    0    0  0.00000000000E+00  0.00000000000E+00  0.19220356556E+03  0.18963911728E+04  0.18866258956E+04 0.  0.
        1    1    3    3  502    0  0.34399051207E+03 -0.22772985449E+03  0.94881399828E+03  0.10346199120E+04  0.50400001928E-02 0. -1.
       -1    1    3    3    0  502 -0.34399051207E+03  0.22772985449E+03 -0.75661043272E+03  0.86177126081E+03  0.50400001928E-02 0.  1.
</event>
<event>
 5   0  0.2317458E-04  0.1657803E+04  0.7818609E-02  0.8785804E-01
       -1   -1    0    0    0  501  0.00000000000E+00  0.00000000000E+00  0.52397867875E+03  0.52397867877E+03  0.50400001928E-02 0. -1.
        1   -1    0    0  501    0  0.00000000000E+00  0.00000000000E+00 -0.13112699597E+04  0.13112699597E+04  0.50400001928E-02 0.  1.
    10030    2    1    2    0    0  0.00000000000E+00  0.00000000000E+00 -0.78729128092E+03  0.18352486384E+04  0.16578027639E+04 0.  0.
        3    1    3    3  502    0  0.42930137864E+03 -0.45295054525E+03  0.21028693116E+03  0.65854724490E+03  0.10100000352E+00 0. -1.
       -3    1    3    3    0  502 -0.42930137864E+03  0.45295054525E+03 -0.99757821209E+03  0.11767013935E+04  0.10100000352E+00 0.  1.
</event>
<event>
 5   0  0.4802635E-04  0.1921070E+04  0.7818609E-02  0.8644439E-01
        2   -1    0    0  501    0  0.00000000000E+00  0.00000000000E+00  0.22721496455E+04  0.22721496455E+04  0.25500000920E-02 0.  1.
       -2   -1    0    0    0  501  0.00000000000E+00  0.00000000000E+00 -0.40605932610E+03  0.40605932611E+03  0.25500000920E-02 0. -1.
    10030    2    1    2    0    0  0.00000000000E+00  0.00000000000E+00  0.18660903194E+04  0.26782089716E+04  0.19210700704E+04 0.  0.
        3    1    3    3  502    0 -0.76614589015E+03 -0.10457380815E+03  0.17274660382E+04  0.18926315356E+04  0.10100000352E+00 0.  1.
       -3    1    3    3    0  502  0.76614589015E+03  0.10457380815E+03  0.13862428117E+03  0.78557743595E+03  0.10100000352E+00 0. -1.
</event>
<event>
 5   0  0.4829134E-04  0.1886460E+04  0.7818609E-02  0.8661626E-01
        2   -1    0    0  501    0  0.00000000000E+00  0.00000000000E+00  0.27073356750E+04  0.27073356750E+04  0.25500000920E-02 0. -1.
       -2   -1    0    0    0  501  0.00000000000E+00  0.00000000000E+00 -0.32861935130E+03  0.32861935131E+03  0.25500000920E-02 0.  1.
    10030    2    1    2    0    0  0.00000000000E+00  0.00000000000E+00  0.23787163237E+04  0.30359550263E+04  0.18864600640E+04 0.  0.
        2    1    3    3  502    0 -0.88783397106E+03  0.38696489202E+02  0.16981139737E+04  0.19165953266E+04  0.25500000920E-02 0.  1.
       -2    1    3    3    0  502  0.88783397106E+03 -0.38696489202E+02  0.68060235008E+03  0.11193596997E+04  0.25500000920E-02 0. -1.
</event>
<event>
 5   0  0.2376359E-04  0.1571482E+04  0.7818609E-02  0.8838262E-01
       -1   -1    0    0    0  501  0.00000000000E+00  0.00000000000E+00  0.36734239330E+03  0.36734239334E+03  0.50400001928E-02 0.  1.
        1   -1    0    0  501    0  0.00000000000E+00  0.00000000000E+00 -0.16806896607E+04  0.16806896607E+04  0.50400001928E-02 0. -1.
    10030    2    1    2    0    0  0.00000000000E+00  0.00000000000E+00 -0.13133472674E+04  0.20480320541E+04  0.15714815461E+04 0.  0.
        2    1    3    3  502    0  0.12946711202E+03 -0.45930461141E+03  0.15685675143E+03  0.50232111207E+03  0.25500000920E-02 0.  1.
       -2    1    3    3    0  502 -0.12946711202E+03  0.45930461141E+03 -0.14702040188E+04  0.15457109420E+04  0.25500000920E-02 0. -1.
</event>
<event>
 5   0  0.2376359E-04  0.1991391E+04  0.7818609E-02  0.8610656E-01
        1   -1    0    0  501    0  0.00000000000E+00  0.00000000000E+00  0.14096506277E+04  0.14096506277E+04  0.50400001928E-02 0. -1.
       -1   -1    0    0    0  501  0.00000000000E+00  0.00000000000E+00 -0.70330157291E+03  0.70330157293E+03  0.50400001928E-02 0.  1.
    10030    2    1    2    0    0  0.00000000000E+00  0.00000000000E+00  0.70634905476E+03  0.21129522006E+04  0.19913909749E+04 0.  0.
        2    1    3    3  502    0  0.51401296174E+02  0.44367329404E+03  0.12973966741E+04  0.13721247083E+04  0.25500000920E-02 0. -1.
       -2    1    3    3    0  502 -0.51401296174E+02 -0.44367329404E+03 -0.59104761933E+03  0.74082749234E+03  0.25500000920E-02 0.  1.
</event>
<event>
 5   0  0.4973411E-04  0.1914187E+04  0.7818609E-02  0.8647827E-01
        2   -1    0    0  501    0  0.00000000000E+00  0.00000000000E+00  0.77876716625E+03  0.77876716625E+03  0.25500000920E-02 0.  1.
       -2   -1    0    0    0  501  0.00000000000E+00  0.00000000000E+00 -0.11762534350E+04  0.11762534350E+04  0.25500000920E-02 0. -1.
    10030    2    1    2    0    0  0.00000000000E+00  0.00000000000E+00 -0.39748626874E+03  0.19550206012E+04  0.19141865681E+04 0.  0.
        1    1    3    3  502    0 -0.12081465143E+03  0.14563749405E+03  0.75947185420E+03  0.78269020501E+03  0.50400001928E-02 0.  1.
       -1    1    3    3    0  502  0.12081465143E+03 -0.14563749405E+03 -0.11569581229E+04  0.11723303962E+04  0.50400001928E-02 0. -1.
</event>
<event>
 5   0  0.2317458E-04  0.1903974E+04  0.7818609E-02  0.8652881E-01
        1   -1    0    0  501    0  0.00000000000E+00  0.00000000000E+00  0.12244961030E+04  0.12244961030E+04  0.50400001928E-02 0. -1.
       -1   -1    0    0    0  501  0.00000000000E+00  0.00000000000E+00 -0.74012401379E+03  0.74012401380E+03  0.50400001928E-02 0.  1.
    10030    2    1    2    0    0  0.00000000000E+00  0.00000000000E+00  0.48437208922E+03  0.19646201168E+04  0.19039737085E+04 0.  0.
        3    1    3    3  502    0  0.52179426428E+03  0.37951000214E+03  0.96446945948E+03  0.11603871959E+04  0.10100000352E+00 0. -1.
       -3    1    3    3    0  502 -0.52179426428E+03 -0.37951000214E+03 -0.48009737026E+03  0.80423292092E+03  0.10100000352E+00 0.  1.
</event>
<event>
 5   0  0.4973411E-04  0.2010238E+04  0.7818609E-02  0.8601849E-01
        2   -1    0    0  501    0  0.00000000000E+00  0.00000000000E+00  0.20014808688E+04  0.20014808688E+04  0.25500000920E-02 0. -1.
       -2   -1    0    0    0  501  0.00000000000E+00  0.00000000000E+00 -0.50475823115E+03  0.50475823116E+03  0.25500000920E-02 0.  1.
    10030    2    1    2    0    0  0.00000000000E+00  0.00000000000E+00  0.14967226376E+04  0.25062390999E+04  0.20102377402E+04 0.  0.
        1    1    3    3  502    0 -0.87570343475E+03 -0.26796671162E+03  0.12648197111E+04  0.15615478109E+04  0.50400001928E-02 0. -1.
       -1    1    3    3    0  502  0.87570343475E+03  0.26796671162E+03  0.23190292651E+03  0.94469128900E+03  0.50400001928E-02 0.  1.
</event>
<event>
 5   0  0.2376359E-04  0.1880350E+04  0.7818609E-02  0.8664700E-01
        1   -1    0    0  501    0  0.00000000000E+00  0.00000000000E+00  0.17204550832E+04  0.17204550832E+04  0.50400001928E-02 0. -1.
       -1   -1    0    0    0  501  0.00000000000E+00  0.00000000000E+00 -0.51377633226E+03  0.51377633228E+03  0.50400001928E-02 0.  1.
    10030    2    1    2    0    0  0.00000000000E+00  0.00000000000E+00  0.12066787510E+04  0.22342314155E+04  0.18803500765E+04 0.  0.
        2    1    3    3  502    0 -0.68795783927E+03  0.32338239317E+03  0.12606908690E+04  0.14721425298E+04  0.25500000920E-02 0. -1.
       -2    1    3    3    0  502  0.68795783927E+03 -0.32338239317E+03 -0.54012118050E+02  0.76208888571E+03  0.25500000920E-02 0.  1.
</event>
<event>
 5   0  0.2510069E-04  0.1932910E+04  0.7818609E-02  0.8638646E-01
        1   -1    0    0  501    0  0.00000000000E+00  0.00000000000E+00  0.72668220063E+03  0.72668220064E+03  0.50400001928E-02 0.  1.
       -1   -1    0    0    0  501  0.00000000000E+00  0.00000000000E+00 -0.12853421582E+04  0.12853421582E+04  0.50400001928E-02 0. -1.
    10030    2    1    2    0    0  0.00000000000E+00  0.00000000000E+00 -0.55865995756E+03  0.20120243588E+04  0.19329100011E+04 0.  0.
        4    1    3    3  502    0 -0.52655013262E+03  0.69166579323E+03  0.16030382861E+03  0.88394317807E+03  0.12699999809E+01 0.  1.
       -4    1    3    3    0  502  0.52655013262E+03 -0.69166579323E+03 -0.71896378618E+03  0.11280811808E+04  0.12699999809E+01 0. -1.
</event>
<event>
 5   0  0.4761944E-04  0.1908892E+04  0.7818609E-02  0.8650443E-01
        2   -1    0    0  501    0  0.00000000000E+00  0.00000000000E+00  0.67009733678E+03  0.67009733679E+03  0.25500000920E-02 0.  1.
       -2   -1    0    0    0  501  0.00000000000E+00  0.00000000000E+00 -0.13594551573E+04  0.13594551573E+04  0.25500000920E-02 0. -1.
    10030    2    1    2    0    0  0.00000000000E+00  0.00000000000E+00 -0.68935782056E+03  0.20295524941E+04  0.19088921189E+04 0.  0.
        4    1    3    3  502    0  0.39255926230E+03 -0.62721921278E+03 -0.98566202476E+03  0.12324925782E+04  0.12699999809E+01 0. -1.
       -4    1    3    3    0  502 -0.39255926230E+03  0.62721921278E+03  0.29630420420E+03  0.79705991596E+03  0.12699999809E+01 0.  1.
</event>
<event>
 5   0  0.4829134E-04  0.1911786E+04  0.7818609E-02  0.8649012E-01
        2   -1    0    0  501    0  0.00000000000E+00  0.00000000000E+00  0.16808268967E+04  0.16808268967E+04  0.25500000920E-02 0. -1.
       -2   -1    0    0    0  501  0.00000000000E+00  0.00000000000E+00 -0.54362031713E+03  0.54362031713E+03  0.25500000920E-02 0.  1.
    10030    2    1    2    0    0  0.00000000000E+00  0.00000000000E+00  0.11372065796E+04  0.22244472138E+04  0.19117862335E+04 0.  0.
        2    1    3    3  502    0  0.88041683428E+03  0.15659317860E+03  0.96159258950E+03  0.13131319560E+04  0.25500000920E-02 0. -1.
       -2    1    3    3    0  502 -0.88041683428E+03 -0.15659317860E+03  0.17561399007E+03  0.91131525784E+03  0.25500000920E-02 0.  1.
</event>
<event>
 5   0  0.2355414E-04  0.1897591E+04  0.7818609E-02  0.8656056E-01
        1   -1    0    0  501    0  0.00000000000E+00  0.00000000000E+00  0.13165072050E+04  0.13165072051E+04  0.50400001928E-02 0.  1.
       -1   -1    0    0    0  501  0.00000000000E+00  0.00000000000E+00 -0.68378910339E+03  0.68378910341E+03  0.50400001928E-02 0. -1.
    10030    2    1    2    0    0  0.00000000000E+00  0.00000000000E+00  0.63271810165E+03  0.20002963085E+04  0.18975914011E+04 0.  0.
        5    1    3    3  502    0 -0.16800924444E+03  0.48333751094E+03 -0.52585154135E+03  0.73374667920E+03  0.46999998093E+01 0. -1.
       -5    1    3    3    0  502  0.16800924444E+03 -0.48333751094E+03  0.11585696430E+04  0.12665496293E+04  0.46999998093E+01 0.  1.
</event>
<event>
 5   0  0.4839293E-04  0.1872066E+04  0.7818609E-02  0.8668887E-01
        2   -1    0    0  501    0  0.00000000000E+00  0.00000000000E+00  0.94774494752E+03  0.94774494752E+03  0.25500000920E-02 0. -1.
       -2   -1    0    0    0  501  0.00000000000E+00  0.00000000000E+00 -0.92446541964E+03  0.92446541965E+03  0.25500000920E-02 0.  1.
    10030    2    1    2    0    0  0.00000000000E+00  0.00000000000E+00  0.23279527880E+02  0.18722103672E+04  0.18720656299E+04 0.  0.
        5    1    3    3  502    0 -0.35182831230E+03  0.26770477616E+03 -0.81346119331E+03  0.92584567372E+03  0.46999998093E+01 0.  1.
       -5    1    3    3    0  502  0.35182831230E+03 -0.26770477616E+03  0.83674072119E+03  0.94636469345E+03  0.46999998093E+01 0. -1.
</event>
<event>
 5   0  0.4829134E-04  0.1913011E+04  0.7818609E-02  0.8648407E-01
        2   -1    0    0  501    0  0.00000000000E+00  0.00000000000E+00  0.18131119737E+04  0.18131119738E+04  0.25500000920E-02 0. -1.
       -2   -1    0    0    0  501  0.00000000000E+00  0.00000000000E+00 -0.50460347851E+03  0.50460347852E+03  0.25500000920E-02 0.  1.
    10030    2    1    2    0    0  0.00000000000E+00  0.00000000000E+00  0.13085084952E+04  0.23177154523E+04  0.19130108300E+04 0.  0.
        2    1    3    3  502    0 -0.36814845171E+03 -0.36462789646E+03 -0.31983483753E+03  0.60891798190E+03  0.25500000920E-02 0.  1.
       -2    1    3    3    0  502  0.36814845171E+03  0.36462789646E+03  0.16283433328E+04  0.17087974704E+04  0.25500000920E-02 0. -1.
</event>
<event>
 5   0  0.1729375E-04  0.1996617E+04  0.7818609E-02  0.8608204E-01
        4   -1    0    0  501    0  0.00000000000E+00  0.00000000000E+00  0.15618665327E+04  0.15618670491E+04  0.12699999809E+01 0.  1.
       -4   -1    0    0    0  501  0.00000000000E+00  0.00000000000E+00 -0.63809394278E+03  0.63809520662E+03  0.12699999809E+01 0. -1.
    10030    2    1    2    0    0  0.00000000000E+00  0.00000000000E+00  0.92377258994E+03  0.21999622557E+04  0.19966166704E+04 0.  0.
        3    1    3    3  502    0  0.12574246642E+03 -0.94740313748E+03  0.14399749830E+03  0.96649840274E+03  0.10100000352E+00 0. -1.
       -3    1    3    3    0  502 -0.12574246642E+03  0.94740313748E+03  0.77977509164E+03  0.12334638529E+04  0.10100000352E+00 0.  1.
</event>
<event>
 5   0  0.2317458E-04  0.1851192E+04  0.7818609E-02  0.8679540E-01
       -1   -1    0    0    0  501  0.00000000000E+00  0.00000000000E+00  0.67857207487E+03  0.67857207489E+03  0.50400001928E-02 0.  1.
        1   -1    0    0  501    0  0.00000000000E+00  0.00000000000E+00 -0.12625450988E+04  0.12625450988E+04  0.50400001928E-02 0. -1.
    10030    2    1    2    0    0  0.00000000000E+00  0.00000000000E+00 -0.58397302389E+03  0.19411171737E+04  0.18511918834E+04 0.  0.
        3    1    3    3  502    0  0.17194061153E+03  0.57948180589E+03  0.44303909239E+03  0.74943070716E+03  0.10100000352E+00 0.  1.
       -3    1    3    3    0  502 -0.17194061153E+03 -0.57948180589E+03 -0.10270121163E+04  0.11916864665E+04  0.10100000352E+00 0. -1.
</event>
<event>
 5   0  0.4973411E-04  0.2074315E+04  0.7818609E-02  0.8572643E-01
        2   -1    0    0  501    0  0.00000000000E+00  0.00000000000E+00  0.13930302665E+04  0.13930302665E+04  0.25500000920E-02 0. -1.
       -2   -1    0    0    0  501  0.00000000000E+00  0.00000000000E+00 -0.77219865537E+03  0.77219865537E+03  0.25500000920E-02 0.  1.
    10030    2    1    2    0    0  0.00000000000E+00  0.00000000000E+00  0.62083161114E+03  0.21652289219E+04  0.20743154039E+04 0.  0.
        1    1    3    3  502    0  0.49938153791E+03  0.52965227936E+03  0.10815658473E+04  0.13037247177E+04  0.50400001928E-02 0. -1.
       -1    1    3    3    0  502 -0.49938153791E+03 -0.52965227936E+03 -0.46073423617E+03  0.86150420419E+03  0.50400001928E-02 0.  1.
</event>
<event>
 5   0  0.2317458E-04  0.1836569E+04  0.7818609E-02  0.8687091E-01
        1   -1    0    0  501    0  0.00000000000E+00  0.00000000000E+00  0.97185380744E+03  0.97185380745E+03  0.50400001928E-02 0.  1.
       -1   -1    0    0    0  501  0.00000000000E+00  0.00000000000E+00 -0.86766778729E+03  0.86766778730E+03  0.50400001928E-02 0. -1.
    10030    2    1    2    0    0  0.00000000000E+00  0.00000000000E+00  0.10418602015E+03  0.18395215948E+04  0.18365688037E+04 0.  0.
        3    1    3    3  502    0 -0.11402491355E+03  0.62097808397E+03 -0.61578546197E+03  0.88193378836E+03  0.10100000352E+00 0. -1.
       -3    1    3    3    0  502  0.11402491355E+03 -0.62097808397E+03  0.71997148213E+03  0.95758780639E+03  0.10100000352E+00 0.  1.
</event>
<event>
 5   0  0.4829134E-04  0.1840363E+04  0.7818609E-02  0.8685125E-01
       -2   -1    0    0    0  501  0.00000000000E+00  0.00000000000E+00  0.82894040258E+03  0.82894040259E+03  0.25500000920E-02 0. -1.
        2   -1    0    0  501    0  0.00000000000E+00  0.00000000000E+00 -0.10214651381E+04  0.10214651381E+04  0.25500000920E-02 0.  1.
    10030    2    1    2    0    0  0.00000000000E+00  0.00000000000E+00 -0.19252473552E+03  0.18504055407E+04  0.18403627064E+04 0.  0.
        2    1    3    3  502    0  0.88710890397E+03 -0.19935050698E+03 -0.23856522705E+03  0.94000861682E+03  0.25500000920E-02 0.  1.
       -2    1    3    3    0  502 -0.88710890397E+03  0.19935050698E+03  0.46040491533E+02  0.91039692387E+03  0.25500000920E-02 0. -1.
</event>
<event>
 5   0  0.4802635E-04  0.1881897E+04  0.7818609E-02  0.8663920E-01
        2   -1    0    0  501    0  0.00000000000E+00  0.00000000000E+00  0.25327377963E+04  0.25327377963E+04  0.25500000920E-02 0. -1.
       -2   -1    0    0    0  501  0.00000000000E+00  0.00000000000E+00 -0.34957571970E+03  0.34957571971E+03  0.25500000920E-02 0.  1.
    10030    2    1    2    0    0  0.00000000000E+00  0.00000000000E+00  0.21831620766E+04  0.28823135160E+04  0.18818965306E+04 0.  0.
        3    1    3    3  502    0  0.32167428305E+03 -0.23281266498E+03  0.23981246655E+04  0.24307772426E+04  0.10100000352E+00 0. -1.
       -3    1    3    3    0  502 -0.32167428305E+03  0.23281266498E+03 -0.21496258896E+03  0.45153627341E+03  0.10100000352E+00 0.  1.
</event>
<event>
 5   0  0.4973411E-04  0.1584314E+04  0.7818609E-02  0.8830243E-01
        2   -1    0    0  501    0  0.00000000000E+00  0.00000000000E+00  0.92531376876E+03  0.92531376877E+03  0.25500000920E-02 0. -1.
       -2   -1    0    0    0  501  0.00000000000E+00  0.00000000000E+00 -0.67816190789E+03  0.67816190789E+03  0.25500000920E-02 0.  1.
    10030    2    1    2    0    0  0.00000000000E+00  0.00000000000E+00  0.24715186088E+03  0.16034756767E+04  0.15843137957E+04 0.  0.
        1    1    3    3  502    0  0.76805345935E+03 -0.13191766865E+03 -0.20284582756E+02  0.77956388580E+03  0.50400001928E-02 0.  1.
       -1    1    3    3    0  502 -0.76805345935E+03  0.13191766865E+03  0.26743644363E+03  0.82391179086E+03  0.50400001928E-02 0. -1.
</event>
<event>
 5   0  0.4839293E-04  0.2003856E+04  0.7818609E-02  0.8604820E-01
        2   -1    0    0  501    0  0.00000000000E+00  0.00000000000E+00  0.10111794273E+04  0.10111794273E+04  0.25500000920E-02 0.  1.
       -2   -1    0    0    0  501  0.00000000000E+00  0.00000000000E+00 -0.99276086697E+03  0.99276086697E+03  0.25500000920E-02 0. -1.
    10030    2    1    2    0    0  0.00000000000E+00  0.00000000000E+00  0.18418560308E+02  0.20039402943E+04  0.20038556484E+04 0.  0.
        5    1    3    3  502    0  0.25462324115E+03  0.71321313173E+03 -0.64681485441E+03  0.99594051635E+03  0.46999998093E+01 0.  1.
       -5    1    3    3    0  502 -0.25462324115E+03 -0.71321313173E+03  0.66523341472E+03  0.10079997779E+04  0.46999998093E+01 0. -1.
</event>
<event>
 5   0  0.2510069E-04  0.1835245E+04  0.7818609E-02  0.8687778E-01
       -1   -1    0    0    0  501  0.00000000000E+00  0.00000000000E+00  0.92851960725E+03  0.92851960727E+03  0.50400001928E-02 0. -1.
        1   -1    0    0  501    0  0.00000000000E+00  0.00000000000E+00 -0.90685326137E+03  0.90685326138E+03  0.50400001928E-02 0.  1.
    10030    2    1    2    0    0  0.00000000000E+00  0.00000000000E+00  0.21666345889E+02  0.18353728686E+04  0.18352449799E+04 0.  0.
        4    1    3    3  502    0 -0.28499303413E+03 -0.77907213043E+03 -0.38143771657E+03  0.91305572581E+03  0.12699999809E+01 0.  1.
       -4    1    3    3    0  502  0.28499303413E+03  0.77907213043E+03  0.40310406245E+03  0.92231714284E+03  0.12699999809E+01 0. -1.
</event>
<event>
 5   0  0.2355414E-04  0.1909298E+04  0.7818609E-02  0.8650242E-01
       -1   -1    0    0    0  501  0.00000000000E+00  0.00000000000E+00  0.55237606739E+03  0.55237606741E+03  0.50400001928E-02 0. -1.
        1   -1    0    0  501    0  0.00000000000E+00  0.00000000000E+00 -0.16498809946E+04  0.16498809946E+04  0.50400001928E-02 0.  1.
    10030    2    1    2    0    0  0.00000000000E+00  0.00000000000E+00 -0.10975049272E+04  0.22022570620E+04  0.19092980652E+04 0.  0.
        5    1    3    3  502    0 -0.41373558260E+03 -0.20528765976E+03 -0.15124170250E+04  0.15813751936E+04  0.46999998093E+01 0.  1.
       -5    1    3    3    0  502  0.41373558260E+03  0.20528765976E+03  0.41491209780E+03  0.62088186836E+03  0.46999998093E+01 0. -1.
</event>
<event>
 5   0  0.4761944E-04  0.1809260E+04  0.7818609E-02  0.8701391E-01
       -2   -1    0    0    0  501  0.00000000000E+00  0.00000000000E+00  0.38038619011E+03  0.38038619012E+03  0.25500000920E-02 0.  1.
        2   -1    0    0  501    0  0.00000000000E+00  0.00000000000E+00 -0.21513798929E+04  0.21513798929E+04  0.25500000920E-02 0. -1.
    10030    2    1    2    0    0  0.00000000000E+00  0.00000000000E+00 -0.17709937028E+04  0.25317660830E+04  0.18092597392E+04 0.  0.
        4    1    3    3  502    0 -0.34257809470E+02 -0.70296702176E+03 -0.90188417510E+02  0.70955746402E+03  0.12699999809E+01 0.  1.
       -4    1    3    3    0  502  0.34257809470E+02  0.70296702176E+03 -0.16808052852E+04  0.18222086190E+04  0.12699999809E+01 0. -1.
</event>
<event>
 5   0  0.2510069E-04  0.1920025E+04  0.7818609E-02  0.8644952E-01
       -1   -1    0    0    0  501  0.00000000000E+00  0.00000000000E+00  0.79616207927E+03  0.79616207928E+03  0.50400001928E-02 0.  1.
        1   -1    0    0  501    0  0.00000000000E+00  0.00000000000E+00 -0.11575837018E+04  0.11575837018E+04  0.50400001928E-02 0. -1.
    10030    2    1    2    0    0  0.00000000000E+00  0.00000000000E+00 -0.36142162254E+03  0.19537457811E+04  0.19200252571E+04 0.  0.
        4    1    3    3  502    0 -0.49068734189E+03 -0.92345415672E+01 -0.10202851880E+04  0.11321849769E+04  0.12699999809E+01 0. -1.
       -4    1    3    3    0  502  0.49068734189E+03  0.92345415672E+01  0.65886356543E+03  0.82156080420E+03  0.12699999809E+01 0.  1.
</event>
<event>
 5   0  0.2317458E-04  0.1901771E+04  0.7818609E-02  0.8653975E-01
       -1   -1    0    0    0  501  0.00000000000E+00  0.00000000000E+00  0.14572215039E+04  0.14572215039E+04  0.50400001928E-02 0.  1.
        1   -1    0    0  501    0  0.00000000000E+00  0.00000000000E+00 -0.62048460725E+03  0.62048460727E+03  0.50400001928E-02 0. -1.
    10030    2    1    2    0    0  0.00000000000E+00  0.00000000000E+00  0.83673689663E+03  0.20777061112E+04  0.19017712928E+04 0.  0.
        3    1    3    3  502    0  0.77124623096E+03 -0.54738807498E+03  0.31060759452E+03  0.99545544419E+03  0.10100000352E+00 0.  1.
       -3    1    3    3    0  502 -0.77124623096E+03  0.54738807498E+03  0.52612930211E+03  0.10822506670E+04  0.10100000352E+00 0. -1.
</event>
<event>
 5   0  0.4973411E-04  0.1838686E+04  0.7818609E-02  0.8685993E-01
       -2   -1    0    0    0  501  0.00000000000E+00  0.00000000000E+00  0.29476440372E+03  0.29476440373E+03  0.25500000920E-02 0.  1.
        2   -1    0    0  501    0  0.00000000000E+00  0.00000000000E+00 -0.28673472837E+04  0.28673472837E+04  0.25500000920E-02 0. -1.
    10030    2    1    2    0    0  0.00000000000E+00  0.00000000000E+00 -0.25725828800E+04  0.31621116875E+04  0.18386863924E+04 0.  0.
        1    1    3    3  502    0 -0.23214102965E+03  0.86689510545E+03 -0.16293636998E+04  0.18601673709E+04  0.50400001928E-02 0.  1.
       -1    1    3    3    0  502  0.23214102965E+03 -0.86689510545E+03 -0.94321918022E+03  0.13019443166E+04  0.50400001928E-02 0. -1.
</event>
<event>
 5   0  0.2355414E-04  0.1856133E+04  0.7818609E-02  0.8677005E-01
        1   -1    0    0  501    0  0.00000000000E+00  0.00000000000E+00  0.96169208237E+03  0.96169208238E+03  0.50400001928E-02 0.  1.
       -1   -1    0    0    0  501  0.00000000000E+00  0.00000000000E+00 -0.89561635810E+03  0.89561635812E+03  0.50400001928E-02 0. -1.
    10030    2    1    2    0    0  0.00000000000E+00  0.00000000000E+00  0.66075724263E+02  0.18573084405E+04  0.18561327113E+04 0.  0.
        5    1    3    3  502    0 -0.38610827454E+03  0.11800784275E+03  0.86919844590E+03  0.95840152283E+03  0.46999998093E+01 0.  1.
       -5    1    3    3    0  502  0.38610827454E+03 -0.11800784275E+03 -0.80312272164E+03  0.89890691767E+03  0.46999998093E+01 0. -1.
</event>
<event>
 5   0  0.4761944E-04  0.1931392E+04  0.7818609E-02  0.8639386E-01
       -2   -1    0    0    0  501  0.00000000000E+00  0.00000000000E+00  0.11273128278E+04  0.11273128278E+04  0.25500000920E-02 0. -1.
        2   -1    0    0  501    0  0.00000000000E+00  0.00000000000E+00 -0.82724970988E+03  0.82724970988E+03  0.25500000920E-02 0.  1.
    10030    2    1    2    0    0  0.00000000000E+00  0.00000000000E+00  0.30006311789E+03  0.19545625377E+04  0.19313924611E+04 0.  0.
        4    1    3    3  502    0 -0.12840057375E+03 -0.23978124622E+03 -0.78768352144E+03  0.83332388435E+03  0.12699999809E+01 0.  1.
       -4    1    3    3    0  502  0.12840057375E+03  0.23978124622E+03  0.10877466393E+04  0.11212386533E+04  0.12699999809E+01 0. -1.
</event>
<event>
 5   0  0.4973411E-04  0.1913712E+04  0.7818609E-02  0.8648061E-01
        2   -1    0    0  501    0  0.00000000000E+00  0.00000000000E+00  0.11362250329E+04  0.11362250329E+04  0.25500000920E-02 0. -1.
       -2   -1    0    0    0  501  0.00000000000E+00  0.00000000000E+00 -0.80580317696E+03  0.80580317696E+03  0.25500000920E-02 0.  1.
    10030    2    1    2    0    0  0.00000000000E+00  0.00000000000E+00  0.33042185591E+03  0.19420282098E+04  0.19137123517E+04 0.  0.
        1    1    3    3  502    0 -0.33292375489E+03 -0.55505568941E+03 -0.54994957989E+03  0.84933478992E+03  0.50400001928E-02 0.  1.
       -1    1    3    3    0  502  0.33292375489E+03  0.55505568941E+03  0.88037143581E+03  0.10926934199E+04  0.50400001928E-02 0. -1.
</event>
<event>
 5   0  0.4802635E-04  0.1792613E+04  0.7818609E-02  0.8710237E-01
       -2   -1    0    0    0  501  0.00000000000E+00  0.00000000000E+00  0.91200563592E+03  0.91200563593E+03  0.25500000920E-02 0.  1.
        2   -1    0    0  501    0  0.00000000000E+00  0.00000000000E+00 -0.88087796608E+03  0.88087796608E+03  0.25500000920E-02 0. -1.
    10030    2    1    2    0    0  0.00000000000E+00  0.00000000000E+00  0.31127669846E+02  0.17928836020E+04  0.17926133656E+04 0.  0.
        3    1    3    3  502    0 -0.83623381322E+03 -0.14996122342E+03 -0.27011938449E+03  0.89148182874E+03  0.10100000352E+00 0.  1.
       -3    1    3    3    0  502  0.83623381322E+03  0.14996122342E+03  0.30124705433E+03  0.90140177326E+03  0.10100000352E+00 0. -1.
</event>
<event>
 5   0  0.4829134E-04  0.1192104E+04  0.7818609E-02  0.9119796E-01
       -2   -1    0    0    0  501  0.00000000000E+00  0.00000000000E+00  0.10202835321E+04  0.10202835321E+04  0.25500000920E-02 0.  1.
        2   -1    0    0  501    0  0.00000000000E+00  0.00000000000E+00 -0.34821493513E+03  0.34821493514E+03  0.25500000920E-02 0. -1.
    10030    2    1    2    0    0  0.00000000000E+00  0.00000000000E+00  0.67206859698E+03  0.13684984673E+04  0.11921039618E+04 0.  0.
        2    1    3    3  502    0 -0.90858356925E+02  0.44400844794E+03  0.78046177150E+03  0.90250724077E+03  0.25500000920E-02 0.  1.
       -2    1    3    3    0  502  0.90858356925E+02 -0.44400844794E+03 -0.10839317452E+03  0.46599122648E+03  0.25500000920E-02 0. -1.
</event>
<event>
 5   0  0.4973411E-04  0.1914986E+04  0.7818609E-02  0.8647433E-01
        2   -1    0    0  501    0  0.00000000000E+00  0.00000000000E+00  0.12385813673E+04  0.12385813673E+04  0.25500000920E-02 0. -1.
       -2   -1    0    0    0  501  0.00000000000E+00  0.00000000000E+00 -0.74019564108E+03  0.74019564109E+03  0.25500000920E-02 0.  1.
    10030    2    1    2    0    0  0.00000000000E+00  0.00000000000E+00  0.49838572619E+03  0.19787770084E+04  0.19149856701E+04 0.  0.
        1    1    3    3  502    0 -0.44483950083E+03  0.83942503574E+03  0.12573068250E+03  0.95829263624E+03  0.50400001928E-02 0.  1.
       -1    1    3    3    0  502  0.44483950083E+03 -0.83942503574E+03  0.37265504370E+03  0.10204843721E+04  0.50400001928E-02 0. -1.
</event>
<event>
 5   0  0.4839293E-04  0.1907384E+04  0.7818609E-02  0.8651189E-01
        2   -1    0    0  501    0  0.00000000000E+00  0.00000000000E+00  0.22418328418E+04  0.22418328418E+04  0.25500000920E-02 0.  1.
       -2   -1    0    0    0  501  0.00000000000E+00  0.00000000000E+00 -0.40570762071E+03  0.40570762072E+03  0.25500000920E-02 0. -1.
    10030    2    1    2    0    0  0.00000000000E+00  0.00000000000E+00  0.18361252211E+04  0.26475404625E+04  0.19073842489E+04 0.  0.
        5    1    3    3  502    0  0.12424050262E+03 -0.12502209683E+03  0.22190124524E+04  0.22260064199E+04  0.46999998093E+01 0.  1.
       -5    1    3    3    0  502 -0.12424050262E+03  0.12502209683E+03 -0.38288723135E+03  0.42153404265E+03  0.46999998093E+01 0. -1.
</event>
<event>
 5   0  0.4829134E-04  0.1896521E+04  0.7818609E-02  0.8656590E-01
        2   -1    0    0  501    0  0.00000000000E+00  0.00000000000E+00  0.13912157098E+04  0.13912157098E+04  0.25500000920E-02 0. -1.
       -2   -1    0    0    0  501  0.00000000000E+00  0.00000000000E+00 -0.64633991209E+03  0.64633991209E+03  0.25500000920E-02 0.  1.
    10030    2    1    2    0    0  0.00000000000E+00  0.00000000000E+00  0.74487579775E+03  0.20375556219E+04  0.18965212781E+04 0.  0.
        2    1    3    3  502    0 -0.65326717202E+03 -0.65064924329E+03  0.61049105330E+03  0.11058036724E+04  0.25500000920E-02 0. -1.
       -2    1    3    3    0  502  0.65326717202E+03  0.65064924329E+03  0.13438474445E+03  0.93175194949E+03  0.25500000920E-02 0.  1.
</event>
<event>
 5   0  0.2317458E-04  0.1821098E+04  0.7818609E-02  0.8695160E-01
        1   -1    0    0  501    0  0.00000000000E+00  0.00000000000E+00  0.71154591025E+03  0.71154591027E+03  0.50400001928E-02 0.  1.
       -1   -1    0    0    0  501  0.00000000000E+00  0.00000000000E+00 -0.11652086433E+04  0.11652086433E+04  0.50400001928E-02 0. -1.
    10030    2    1    2    0    0  0.00000000000E+00  0.00000000000E+00 -0.45366273301E+03  0.18767545535E+04  0.18210979597E+04 0.  0.
        3    1    3    3  502    0  0.58955651618E+02 -0.30107911584E+03 -0.11103393196E+04  0.11519452321E+04  0.10100000352E+00 0. -1.
       -3    1    3    3    0  502 -0.58955651618E+02  0.30107911584E+03  0.65667658661E+03  0.72480932145E+03  0.10100000352E+00 0.  1.
</event>
<event>
 5   0  0.2261755E-04  0.1865167E+04  0.7818609E-02  0.8672392E-01
        1   -1    0    0  501    0  0.00000000000E+00  0.00000000000E+00  0.87198956956E+03  0.87198956958E+03  0.50400001928E-02 0. -1.
       -1   -1    0    0    0  501  0.00000000000E+00  0.00000000000E+00 -0.99738765634E+03  0.99738765636E+03  0.50400001928E-02 0.  1.
    10030    2    1    2    0    0  0.00000000000E+00  0.00000000000E+00 -0.12539808678E+03  0.18693772259E+04  0.18651666233E+04 0.  0.
        1    1    3    3  502    0 -0.76000685515E+03  0.40629024999E+03  0.29451745940E+03  0.91072647981E+03  0.50400001928E-02 0. -1.
       -1    1    3    3    0  502  0.76000685515E+03 -0.40629024999E+03 -0.41991554618E+03  0.95865074613E+03  0.50400001928E-02 0.  1.
</event>
<event>
 5   0  0.4829134E-04  0.1911891E+04  0.7818609E-02  0.8648960E-01
       -2   -1    0    0    0  501  0.00000000000E+00  0.00000000000E+00  0.50929172963E+03  0.50929172964E+03  0.25500000920E-02 0. -1.
        2   -1    0    0  501    0  0.00000000000E+00  0.00000000000E+00 -0.17943192326E+04  0.17943192326E+04  0.25500000920E-02 0.  1.
    10030    2    1    2    0    0  0.00000000000E+00  0.00000000000E+00 -0.12850275030E+04  0.23036109623E+04  0.19118911533E+04 0.  0.
        2    1    3    3  502    0 -0.18687576479E+03 -0.38641206229E+03  0.38665580455E+03  0.57770195131E+03  0.25500000920E-02 0. -1.
       -2    1    3    3    0  502  0.18687576479E+03  0.38641206229E+03 -0.16716833076E+04  0.17259090110E+04  0.25500000920E-02 0.  1.
</event>
<event>
 5   0  0.4839293E-04  0.1861306E+04  0.7818609E-02  0.8674360E-01
       -2   -1    0    0    0  501  0.00000000000E+00  0.00000000000E+00  0.44988502374E+03  0.44988502375E+03  0.25500000920E-02 0. -1.
        2   -1    0    0  501    0  0.00000000000E+00  0.00000000000E+00 -0.19251923106E+04  0.19251923106E+04  0.25500000920E-02 0.  1.
    10030    2    1    2    0    0  0.00000000000E+00  0.00000000000E+00 -0.14753072868E+04  0.23750773343E+04  0.18613061955E+04 0.  0.
        5    1    3    3  502    0 -0.39040913780E+03  0.17602252625E+03 -0.17919717444E+04  0.18424407853E+04  0.46999998093E+01 0.  1.
       -5    1    3    3    0  502  0.39040913780E+03 -0.17602252625E+03  0.31666445759E+03  0.53263654899E+03  0.46999998093E+01 0. -1.
</event>
<event>
 5   0  0.4839293E-04  0.1949034E+04  0.7818609E-02  0.8630827E-01
        2   -1    0    0  501    0  0.00000000000E+00  0.00000000000E+00  0.12545924810E+04  0.12545924811E+04  0.25500000920E-02 0.  1.
       -2   -1    0    0    0  501  0.00000000000E+00  0.00000000000E+00 -0.75696579889E+03  0.75696579890E+03  0.25500000920E-02 0. -1.
    10030    2    1    2    0    0  0.00000000000E+00  0.00000000000E+00  0.49762668216E+03  0.20115582800E+04  0.19490342221E+04 0.  0.
        5    1    3    3  502    0 -0.53865992609E+03  0.98805090711E+02 -0.58311223652E+03  0.79997433228E+03  0.46999998093E+01 0. -1.
       -5    1    3    3    0  502  0.53865992609E+03 -0.98805090711E+02  0.10807389187E+04  0.12115839477E+04  0.46999998093E+01 0.  1.
</event>
<event>
 5   0  0.2510069E-04  0.1971049E+04  0.7818609E-02  0.8620277E-01
       -1   -1    0    0    0  501  0.00000000000E+00  0.00000000000E+00  0.95912580270E+03  0.95912580272E+03  0.50400001928E-02 0.  1.
        1   -1    0    0  501    0  0.00000000000E+00  0.00000000000E+00 -0.10126502226E+04  0.10126502227E+04  0.50400001928E-02 0. -1.
    10030    2    1    2    0    0  0.00000000000E+00  0.00000000000E+00 -0.53524419936E+02  0.19717760254E+04  0.19710494237E+04 0.  0.
        4    1    3    3  502    0 -0.30171876520E+02  0.85328441723E+03 -0.51913538702E+03  0.99925362234E+03  0.12699999809E+01 0. -1.
       -4    1    3    3    0  502  0.30171876520E+02 -0.85328441723E+03  0.46561096708E+03  0.97252240302E+03  0.12699999809E+01 0.  1.
</event>
<event>
 5   0  0.2355414E-04  0.1746345E+04  0.7818609E-02  0.8735365E-01
        1   -1    0    0  501    0  0.00000000000E+00  0.00000000000E+00  0.19624613914E+04  0.19624613914E+04  0.50400001928E-02 0.  1.
       -1   -1    0    0    0  501  0.00000000000E+00  0.00000000000E+00 -0.38850713779E+03  0.38850713782E+03  0.50400001928E-02 0. -1.
    10030    2    1    2    0    0  0.00000000000E+00  0.00000000000E+00  0.15739542536E+04  0.23509685292E+04  0.17463450498E+04 0.  0.
        5    1    3    3  502    0 -0.34931907086E+03  0.72826218025E+03  0.12335061786E+04  0.14744318225E+04  0.46999998093E+01 0.  1.
       -5    1    3    3    0  502  0.34931907086E+03 -0.72826218025E+03  0.34044807494E+03  0.87653670670E+03  0.46999998093E+01 0. -1.
</event>
<event>
 5   0  0.4973411E-04  0.1850875E+04  0.7818609E-02  0.8679703E-01
       -2   -1    0    0    0  501  0.00000000000E+00  0.00000000000E+00  0.57371889281E+03  0.57371889281E+03  0.25500000920E-02 0.  1.
        2   -1    0    0  501    0  0.00000000000E+00  0.00000000000E+00 -0.14927779890E+04  0.14927779890E+04  0.25500000920E-02 0. -1.
    10030    2    1    2    0    0  0.00000000000E+00  0.00000000000E+00 -0.91905909621E+03  0.20664968818E+04  0.18508753984E+04 0.  0.
        1    1    3    3  502    0 -0.54093127757E+03 -0.69780810079E+03 -0.76912783748E+03  0.11709399741E+04  0.50400001928E-02 0. -1.
       -1    1    3    3    0  502  0.54093127757E+03  0.69780810079E+03 -0.14993125873E+03  0.89555690771E+03  0.50400001928E-02 0.  1.
</event>
<event>
 5   0  0.4761944E-04  0.1893892E+04  0.7818609E-02  0.8657903E-01
        2   -1    0    0  501    0  0.00000000000E+00  0.00000000000E+00  0.10941830777E+04  0.10941830777E+04  0.25500000920E-02 0.  1.
       -2   -1    0    0    0  501  0.00000000000E+00  0.00000000000E+00 -0.81952128836E+03  0.81952128836E+03  0.25500000920E-02 0. -1.
    10030    2    1    2    0    0  0.00000000000E+00  0.00000000000E+00  0.27466178935E+03  0.19137043661E+04  0.18938915761E+04 0.  0.
        4    1    3    3  502    0 -0.20483111711E+03  0.92098064858E+03  0.21906948566E+03  0.96858360198E+03  0.12699999809E+01 0.  1.
       -4    1    3    3    0  502  0.20483111711E+03 -0.92098064858E+03  0.55592303695E+02  0.94512076409E+03  0.12699999809E+01 0. -1.
</event>
<event>
 5   0  0.4829134E-04  0.1908303E+04  0.7818609E-02  0.8650734E-01
       -2   -1    0    0    0  501  0.00000000000E+00  0.00000000000E+00  0.13171077895E+04  0.13171077895E+04  0.25500000920E-02 0.  1.
        2   -1    0    0  501    0  0.00000000000E+00  0.00000000000E+00 -0.69121559693E+03  0.69121559693E+03  0.25500000920E-02 0. -1.
    10030    2    1    2    0    0  0.00000000000E+00  0.00000000000E+00  0.62589219258E+03  0.20083233864E+04  0.19083033794E+04 0.  0.
        2    1    3    3  502    0  0.40648438022E+02  0.80869059216E+03 -0.21825951242E+03  0.83861193894E+03  0.25500000920E-02 0. -1.
       -2    1    3    3    0  502 -0.40648438022E+02 -0.80869059216E+03  0.84415170500E+03  0.11697114475E+04  0.25500000920E-02 0.  1.
</event>
<event>
 5   0  0.4829134E-04  0.1855149E+04  0.7818609E-02  0.8677509E-01
       -2   -1    0    0    0  501  0.00000000000E+00  0.00000000000E+00  0.38071382651E+03  0.38071382652E+03  0.25500000920E-02 0.  1.
        2   -1    0    0  501    0  0.00000000000E+00  0.00000000000E+00 -0.22599515670E+04  0.22599515670E+04  0.25500000920E-02 0. -1.
    10030    2    1    2    0    0  0.00000000000E+00  0.00000000000E+00 -0.18792377405E+04  0.26406653936E+04  0.18551493836E+04 0.  0.
        2    1    3    3  502    0 -0.90704853241E+03  0.38391114618E+02 -0.66885412245E+03  0.11276421218E+04  0.25500000920E-02 0. -1.
       -2    1    3    3    0  502  0.90704853241E+03 -0.38391114618E+02 -0.12103836181E+04  0.15130232717E+04  0.25500000920E-02 0.  1.
</event>
<event>
 5   0  0.2376359E-04  0.1885207E+04  0.7818609E-02  0.8662255E-01
        1   -1    0    0  501    0  0.00000000000E+00  0.00000000000E+00  0.10018895616E+04  0.10018895616E+04  0.50400001928E-02 0.  1.
       -1   -1    0    0    0  501  0.00000000000E+00  0.00000000000E+00 -0.88682519827E+03  0.88682519828E+03  0.50400001928E-02 0. -1.
    10030    2    1    2    0    0  0.00000000000E+00  0.00000000000E+00  0.11506436331E+03  0.18887147599E+04  0.18852065236E+04 0.  0.
        2    1    3    3  502    0  0.91896253844E+03 -0.96030728699E+02 -0.12932726674E+03  0.93297352044E+03  0.25500000920E-02 0. -1.
       -2    1    3    3    0  502 -0.91896253844E+03  0.96030728699E+02  0.24439163005E+03  0.95574123944E+03  0.25500000920E-02 0.  1.
</event>
<event>
 5   0  0.2317458E-04  0.1856380E+04  0.7818609E-02  0.8676879E-01
       -1   -1    0    0    0  501  0.00000000000E+00  0.00000000000E+00  0.58187259594E+03  0.58187259596E+03  0.50400001928E-02 0. -1.
        1   -1    0    0  501    0  0.00000000000E+00  0.00000000000E+00 -0.14806277735E+04  0.14806277735E+04  0.50400001928E-02 0.  1.
    10030    2    1    2    0    0  0.00000000000E+00  0.00000000000E+00 -0.89875517760E+03  0.20625003695E+04  0.18563800540E+04 0.  0.
        3    1    3    3  502    0 -0.66084322471E+03 -0.35316364758E+02  0.27371292086E+03  0.71615625845E+03  0.10100000352E+00 0. -1.
       -3    1    3    3    0  502  0.66084322471E+03  0.35316364758E+02 -0.11724680985E+04  0.13463441111E+04  0.10100000352E+00 0.  1.
</event>
<event>
 5   0  0.4839293E-04  0.1895492E+04  0.7818609E-02  0.8657103E-01
       -2   -1    0    0    0  501  0.00000000000E+00  0.00000000000E+00  0.41964102935E+03  0.41964102936E+03  0.25500000920E-02 0. -1.
        2   -1    0    0  501    0  0.00000000000E+00  0.00000000000E+00 -0.21404554858E+04  0.21404554858E+04  0.25500000920E-02 0.  1.
    10030    2    1    2    0    0  0.00000000000E+00  0.00000000000E+00 -0.17208144565E+04  0.25600965152E+04  0.18954924884E+04 0.  0.
        5    1    3    3  502    0  0.51129909357E+03 -0.70451722209E+03 -0.13665389529E+04  0.16202537082E+04  0.46999998093E+01 0.  1.
       -5    1    3    3    0  502 -0.51129909357E+03  0.70451722209E+03 -0.35427550355E+03  0.93984280692E+03  0.46999998093E+01 0. -1.
</event>
<event>
 5   0  0.4973411E-04  0.1993705E+04  0.7818609E-02  0.8609569E-01
        2   -1    0    0  501    0  0.00000000000E+00  0.00000000000E+00  0.13888913671E+04  0.13888913671E+04  0.25500000920E-02 0.  1.
       -2   -1    0    0    0  501  0.00000000000E+00  0.00000000000E+00 -0.71547369546E+03  0.71547369546E+03  0.25500000920E-02 0. -1.
    10030    2    1    2    0    0  0.00000000000E+00  0.00000000000E+00  0.67341767164E+03  0.21043650626E+04  0.19937053333E+04 0.  0.
        1    1    3    3  502    0 -0.46313732455E+03 -0.88229204680E+03  0.36618372720E+03  0.10616147886E+04  0.50400001928E-02 0. -1.
       -1    1    3    3    0  502  0.46313732455E+03  0.88229204680E+03  0.30723394444E+03  0.10427502740E+04  0.50400001928E-02 0.  1.
</event>
<event>
 5   0  0.2510069E-04  0.1894695E+04  0.7818609E-02  0.8657501E-01
       -1   -1    0    0    0  501  0.00000000000E+00  0.00000000000E+00  0.53103283417E+03  0.53103283420E+03  0.50400001928E-02 0.  1.
        1   -1    0    0  501    0  0.00000000000E+00  0.00000000000E+00 -0.16900419139E+04  0.16900419139E+04  0.50400001928E-02 0. -1.
    10030    2    1    2    0    0  0.00000000000E+00  0.00000000000E+00 -0.11590090798E+04  0.22210747481E+04  0.18946954874E+04 0.  0.
        4    1    3    3  502    0 -0.24929756204E+03  0.56275676700E+03 -0.14237118106E+04  0.15510645976E+04  0.12699999809E+01 0. -1.
       -4    1    3    3    0  502  0.24929756204E+03 -0.56275676700E+03  0.26470273086E+03  0.67001015057E+03  0.12699999809E+01 0.  1.
</event>
<event>
 5   0  0.2317458E-04  0.1907306E+04  0.7818609E-02  0.8651228E-01
       -1   -1    0    0    0  501  0.00000000000E+00  0.00000000000E+00  0.63310740986E+03  0.63310740988E+03  0.50400001928E-02 0. -1.
        1   -1    0    0  501    0  0.00000000000E+00  0.00000000000E+00 -0.14364927845E+04  0.14364927846E+04  0.50400001928E-02 0.  1.
    10030    2    1    2    0    0  0.00000000000E+00  0.00000000000E+00 -0.80338537468E+03  0.20696001944E+04  0.19073061906E+04 0.  0.
        3    1    3    3  502    0  0.79759728173E+03  0.52090618657E+03 -0.44960330477E+03  0.10533982252E+04  0.10100000352E+00 0. -1.
       -3    1    3    3    0  502 -0.79759728173E+03 -0.52090618657E+03 -0.35378206991E+03  0.10162019692E+04  0.10100000352E+00 0.  1.
</event>
<event>
 5   0  0.4839293E-04  0.1945255E+04  0.7818609E-02  0.8632652E-01
        2   -1    0    0  501    0  0.00000000000E+00  0.00000000000E+00  0.15555901115E+04  0.15555901115E+04  0.25500000920E-02 0.  1.
       -2   -1    0    0    0  501  0.00000000000E+00  0.00000000000E+00 -0.60813189161E+03  0.60813189161E+03  0.25500000920E-02 0. -1.
    10030    2    1    2    0    0  0.00000000000E+00  0.00000000000E+00  0.94745821986E+03  0.21637220031E+04  0.19452546950E+04 0.  0.
        5    1    3    3  502    0 -0.34798383537E+03 -0.84213122370E+03  0.95374177447E+02  0.91618560965E+03  0.46999998093E+01 0. -1.
       -5    1    3    3    0  502  0.34798383537E+03  0.84213122370E+03  0.85208404241E+03  0.12475363934E+04  0.46999998093E+01 0.  1.
</event>
<event>
 5   0  0.1729375E-04  0.1911218E+04  0.7818609E-02  0.8649293E-01
       -4   -1    0    0    0  501  0.00000000000E+00  0.00000000000E+00  0.86881629528E+03  0.86881722349E+03  0.12699999809E+01 0.  1.
        4   -1    0    0  501    0  0.00000000000E+00  0.00000000000E+00 -0.10510698821E+04  0.10510706494E+04  0.12699999809E+01 0. -1.
    10030    2    1    2    0    0  0.00000000000E+00  0.00000000000E+00 -0.18225358681E+03  0.19198878729E+04  0.19112176941E+04 0.  0.
        4    1    3    3  502    0 -0.20183908021E+03  0.41922392521E+03 -0.92959825098E+03  0.10395394340E+04  0.12699999809E+01 0. -1.
       -4    1    3    3    0  502  0.20183908021E+03 -0.41922392521E+03  0.74734466417E+03  0.88034843882E+03  0.12699999809E+01 0.  1.
</event>
<event>
 5   0  0.4829134E-04  0.1870093E+04  0.7818609E-02  0.8669888E-01
       -2   -1    0    0    0  501  0.00000000000E+00  0.00000000000E+00  0.89618448698E+03  0.89618448699E+03  0.25500000920E-02 0. -1.
        2   -1    0    0  501    0  0.00000000000E+00  0.00000000000E+00 -0.97559403970E+03  0.97559403970E+03  0.25500000920E-02 0.  1.
    10030    2    1    2    0    0  0.00000000000E+00  0.00000000000E+00 -0.79409552716E+02  0.18717785267E+04  0.18700933067E+04 0.  0.
        2    1    3    3  502    0  0.39538402350E+03  0.79698643237E+03  0.24829806103E+03  0.92367084318E+03  0.25500000920E-02 0.  1.
       -2    1    3    3    0  502 -0.39538402350E+03 -0.79698643237E+03 -0.32770761374E+03  0.94810768351E+03  0.25500000920E-02 0. -1.
</event>
<event>
 5   0  0.4761944E-04  0.1883628E+04  0.7818609E-02  0.8663049E-01
        2   -1    0    0  501    0  0.00000000000E+00  0.00000000000E+00  0.95477332124E+03  0.95477332124E+03  0.25500000920E-02 0. -1.
       -2   -1    0    0    0  501  0.00000000000E+00  0.00000000000E+00 -0.92903086974E+03  0.92903086974E+03  0.25500000920E-02 0.  1.
    10030    2    1    2    0    0  0.00000000000E+00  0.00000000000E+00  0.25742451500E+02  0.18838041910E+04  0.18836282956E+04 0.  0.
        4    1    3    3  502    0  0.62182772116E+03  0.41170209030E+03  0.58811529762E+03  0.94976288734E+03  0.12699999809E+01 0. -1.
       -4    1    3    3    0  502 -0.62182772116E+03 -0.41170209030E+03 -0.56237284612E+03  0.93404130365E+03  0.12699999809E+01 0.  1.
</event>
<event>
 5   0  0.2261755E-04  0.1706487E+04  0.7818609E-02  0.8757673E-01
        1   -1    0    0  501    0  0.00000000000E+00  0.00000000000E+00  0.62624297319E+03  0.62624297321E+03  0.50400001928E-02 0.  1.
       -1   -1    0    0    0  501  0.00000000000E+00  0.00000000000E+00 -0.11625273406E+04  0.11625273406E+04  0.50400001928E-02 0. -1.
    10030    2    1    2    0    0  0.00000000000E+00  0.00000000000E+00 -0.53628436742E+03  0.17887703138E+04  0.17064871265E+04 0.  0.
        1    1    3    3  502    0  0.42994823619E+03  0.13196724337E+03 -0.10281932059E+04  0.11222531389E+04  0.50400001928E-02 0. -1.
       -1    1    3    3    0  502 -0.42994823619E+03 -0.13196724337E+03  0.49190883845E+03  0.66651717494E+03  0.50400001928E-02 0.  1.
</event>
<event>
 5   0  0.2261755E-04  0.1602149E+04  0.7818609E-02  0.8819229E-01
        1   -1    0    0  501    0  0.00000000000E+00  0.00000000000E+00  0.74832714402E+03  0.74832714403E+03  0.50400001928E-02 0. -1.
       -1   -1    0    0    0  501  0.00000000000E+00  0.00000000000E+00 -0.85754015444E+03  0.85754015445E+03  0.50400001928E-02 0.  1.
    10030    2    1    2    0    0  0.00000000000E+00  0.00000000000E+00 -0.10921301042E+03  0.16058672985E+04  0.16021492748E+04 0.  0.
        1    1    3    3  502    0 -0.53729411110E+03  0.46896648521E+03 -0.42029017977E+03  0.82780333493E+03  0.50400001928E-02 0.  1.
       -1    1    3    3    0  502  0.53729411110E+03 -0.46896648521E+03  0.31107716935E+03  0.77806396356E+03  0.50400001928E-02 0. -1.
</event>
<event>
 5   0  0.2355414E-04  0.1916168E+04  0.7818609E-02  0.8646850E-01
        1   -1    0    0  501    0  0.00000000000E+00  0.00000000000E+00  0.10661347371E+04  0.10661347371E+04  0.50400001928E-02 0.  1.
       -1   -1    0    0    0  501  0.00000000000E+00  0.00000000000E+00 -0.86098430099E+03  0.86098430101E+03  0.50400001928E-02 0. -1.
    10030    2    1    2    0    0  0.00000000000E+00  0.00000000000E+00  0.20515043611E+03  0.19271190381E+04  0.19161683344E+04 0.  0.
        5    1    3    3  502    0 -0.72463505720E+03 -0.36139531573E+03  0.61755687172E+03  0.10183816181E+04  0.46999998093E+01 0. -1.
       -5    1    3    3    0  502  0.72463505720E+03  0.36139531573E+03 -0.41240643561E+03  0.90873741999E+03  0.46999998093E+01 0.  1.
</event>
<event>
 5   0  0.4973411E-04  0.1974088E+04  0.7818609E-02  0.8618832E-01
       -2   -1    0    0    0  501  0.00000000000E+00  0.00000000000E+00  0.74581121058E+03  0.74581121059E+03  0.25500000920E-02 0. -1.
        2   -1    0    0  501    0  0.00000000000E+00  0.00000000000E+00 -0.13063038357E+04  0.13063038357E+04  0.25500000920E-02 0.  1.
    10030    2    1    2    0    0  0.00000000000E+00  0.00000000000E+00 -0.56049262507E+03  0.20521150462E+04  0.19740881896E+04 0.  0.
        1    1    3    3  502    0 -0.16540137936E+02 -0.58432207261E+02  0.74386737647E+03  0.74634212852E+03  0.50400001928E-02 0. -1.
       -1    1    3    3    0  502  0.16540137936E+02  0.58432207261E+02 -0.13043600015E+04  0.13057729177E+04  0.50400001928E-02 0.  1.
</event>
<event>
 5   0  0.4761944E-04  0.1897293E+04  0.7818609E-02  0.8656205E-01
       -2   -1    0    0    0  501  0.00000000000E+00  0.00000000000E+00  0.88791459671E+03  0.88791459672E+03  0.25500000920E-02 0.  1.
        2   -1    0    0  501    0  0.00000000000E+00  0.00000000000E+00 -0.10135319857E+04  0.10135319857E+04  0.25500000920E-02 0. -1.
    10030    2    1    2    0    0  0.00000000000E+00  0.00000000000E+00 -0.12561738895E+03  0.19014465824E+04  0.18972926441E+04 0.  0.
        4    1    3    3  502    0 -0.90130489576E+03 -0.28441739537E+03 -0.14474625303E+03  0.95613642362E+03  0.12699999809E+01 0.  1.
       -4    1    3    3    0  502  0.90130489576E+03  0.28441739537E+03  0.19128864081E+02  0.94531015876E+03  0.12699999809E+01 0. -1.
</event>
<event>
 5   0  0.2510069E-04  0.2443529E+04  0.7818609E-02  0.8423384E-01
       -1   -1    0    0    0  501  0.00000000000E+00  0.00000000000E+00  0.98991899788E+03  0.98991899790E+03  0.50400001928E-02 0.  1.
        1   -1    0    0  501    0  0.00000000000E+00  0.00000000000E+00 -0.15079098314E+04  0.15079098314E+04  0.50400001928E-02 0. -1.
    10030    2    1    2    0    0  0.00000000000E+00  0.00000000000E+00 -0.51799083352E+03  0.24978288293E+04  0.24435290784E+04 0.  0.
        4    1    3    3  502    0  0.60692647234E+03  0.36720956390E+03 -0.12758386911E+04  0.14597837461E+04  0.12699999809E+01 0. -1.
       -4    1    3    3    0  502 -0.60692647234E+03 -0.36720956390E+03  0.75784785761E+03  0.10380450832E+04  0.12699999809E+01 0.  1.
</event>
<event>
 5   0  0.2355414E-04  0.1981062E+04  0.7818609E-02  0.8615526E-01
        1   -1    0    0  501    0  0.00000000000E+00  0.00000000000E+00  0.12852493956E+04  0.12852493956E+04  0.50400001928E-02 0.  1.
       -1   -1    0    0    0  501  0.00000000000E+00  0.00000000000E+00 -0.76339374361E+03  0.76339374362E+03  0.50400001928E-02 0. -1.
    10030    2    1    2    0    0  0.00000000000E+00  0.00000000000E+00  0.52185565197E+03  0.20486431392E+04  0.19810616826E+04 0.  0.
        5    1    3    3  502    0  0.10763178094E+02 -0.33535191180E+03 -0.70282653148E+03  0.77882217104E+03  0.46999998093E+01 0. -1.
       -5    1    3    3    0  502 -0.10763178094E+02  0.33535191180E+03  0.12246821834E+04  0.12698209682E+04  0.46999998093E+01 0.  1.
</event>
<event>
 5   0  0.4973411E-04  0.1879045E+04  0.7818609E-02  0.8665358E-01
       -2   -1    0    0    0  501  0.00000000000E+00  0.00000000000E+00  0.68216104415E+03  0.68216104415E+03  0.25500000920E-02 0.  1.
        2   -1    0    0  501    0  0.00000000000E+00  0.00000000000E+00 -0.12939798015E+04  0.12939798015E+04  0.25500000920E-02 0. -1.
    10030    2    1    2    0    0  0.00000000000E+00  0.00000000000E+00 -0.61181875739E+03  0.19761408457E+04  0.18790450900E+04 0.  0.
        1    1    3    3  502    0  0.17980397006E+03 -0.92184321296E+03 -0.28062029500E+03  0.98024085149E+03  0.50400001928E-02 0.  1.
       -1    1    3    3    0  502 -0.17980397006E+03  0.92184321296E+03 -0.33119846239E+03  0.99589999420E+03  0.50400001928E-02 0. -1.
</event>
<event>
 5   0  0.2317458E-04  0.2015685E+04  0.7818609E-02  0.8599323E-01
        1   -1    0    0  501    0  0.00000000000E+00  0.00000000000E+00  0.54277082969E+03  0.54277082971E+03  0.50400001928E-02 0. -1.
       -1   -1    0    0    0  501  0.00000000000E+00  0.00000000000E+00 -0.18714088442E+04  0.18714088442E+04  0.50400001928E-02 0.  1.
    10030    2    1    2    0    0  0.00000000000E+00  0.00000000000E+00 -0.13286380145E+04  0.24141796739E+04  0.20156846292E+04 0.  0.
        3    1    3    3  502    0 -0.27443312170E+03  0.70592836001E+03 -0.14606729765E+04  0.16453613409E+04  0.10100000352E+00 0.  1.
       -3    1    3    3    0  502  0.27443312170E+03 -0.70592836001E+03  0.13203496198E+03  0.76881833299E+03  0.10100000352E+00 0. -1.
</event>
<event>
 5   0  0.4829134E-04  0.1906034E+04  0.7818609E-02  0.8651859E-01
        2   -1    0    0  501    0  0.00000000000E+00  0.00000000000E+00  0.11704526519E+04  0.11704526519E+04  0.25500000920E-02 0.  1.
       -2   -1    0    0    0  501  0.00000000000E+00  0.00000000000E+00 -0.77597413422E+03  0.77597413422E+03  0.25500000920E-02 0. -1.
    10030    2    1    2    0    0  0.00000000000E+00  0.00000000000E+00  0.39447851767E+03  0.19464267861E+04  0.19060335602E+04 0.  0.
        2    1    3    3  502    0 -0.73759829111E+03 -0.46630490181E+03  0.58843653203E+03  0.10524965809E+04  0.25500000920E-02 0.  1.
       -2    1    3    3    0  502  0.73759829111E+03  0.46630490181E+03 -0.19395801436E+03  0.89393020524E+03  0.25500000920E-02 0. -1.
</event>
<event>
 5   0  0.4829134E-04  0.1914143E+04  0.7818609E-02  0.8647848E-01
       -2   -1    0    0    0  501  0.00000000000E+00  0.00000000000E+00  0.44260618798E+03  0.44260618798E+03  0.25500000920E-02 0.  1.
        2   -1    0    0  501    0  0.00000000000E+00  0.00000000000E+00 -0.20695277818E+04  0.20695277818E+04  0.25500000920E-02 0. -1.
    10030    2    1    2    0    0  0.00000000000E+00  0.00000000000E+00 -0.16269215938E+04  0.25121339698E+04  0.19141429439E+04 0.  0.
        2    1    3    3  502    0 -0.51111142834E+03 -0.44434105259E+03 -0.17009737482E+04  0.18308428538E+04  0.25500000920E-02 0. -1.
       -2    1    3    3    0  502  0.51111142834E+03  0.44434105259E+03  0.74052154351E+02  0.68129111602E+03  0.25500000920E-02 0.  1.
</event>
<event>
 5   0  0.4761944E-04  0.2027831E+04  0.7818609E-02  0.8593718E-01
       -2   -1    0    0    0  501  0.00000000000E+00  0.00000000000E+00  0.83780191894E+03  0.83780191894E+03  0.25500000920E-02 0. -1.
        2   -1    0    0  501    0  0.00000000000E+00  0.00000000000E+00 -0.12270494719E+04  0.12270494719E+04  0.25500000920E-02 0.  1.
    10030    2    1    2    0    0  0.00000000000E+00  0.00000000000E+00 -0.38924755293E+03  0.20648513908E+04  0.20278307643E+04 0.  0.
        4    1    3    3  502    0  0.17812324038E+03 -0.88916061740E+03  0.26718468317E+03  0.94536964206E+03  0.12699999809E+01 0. -1.
       -4    1    3    3    0  502 -0.17812324038E+03  0.88916061740E+03 -0.65643223609E+03  0.11194817488E+04  0.12699999809E+01 0.  1.
</event>
<event>
 5   0  0.4839293E-04  0.1876884E+04  0.7818609E-02  0.8666449E-01
       -2   -1    0    0    0  501  0.00000000000E+00  0.00000000000E+00  0.85332801461E+03  0.85332801461E+03  0.25500000920E-02 0. -1.
        2   -1    0    0  501    0  0.00000000000E+00  0.00000000000E+00 -0.10320454109E+04  0.10320454109E+04  0.25500000920E-02 0.  1.
    10030    2    1    2    0    0  0.00000000000E+00  0.00000000000E+00 -0.17871739629E+03  0.18853734255E+04  0.18768838659E+04 0.  0.
        5    1    3    3  502    0  0.75193772869E+03  0.31247601690E+03  0.37922695691E+03  0.89826877036E+03  0.46999998093E+01 0. -1.
       -5    1    3    3    0  502 -0.75193772869E+03 -0.31247601690E+03 -0.55794435320E+03  0.98710465516E+03  0.46999998093E+01 0.  1.
</event>
<event>
 5   0  0.4973411E-04  0.1874206E+04  0.7818609E-02  0.8667803E-01
       -2   -1    0    0    0  501  0.00000000000E+00  0.00000000000E+00  0.87765201613E+03  0.87765201613E+03  0.25500000920E-02 0.  1.
        2   -1    0    0  501    0  0.00000000000E+00  0.00000000000E+00 -0.10005815007E+04  0.10005815007E+04  0.25500000920E-02 0. -1.
    10030    2    1    2    0    0  0.00000000000E+00  0.00000000000E+00 -0.12292948455E+03  0.18782335168E+04  0.18742063615E+04 0.  0.
        1    1    3    3  502    0  0.35696055003E+03 -0.86341797863E+03 -0.13408375580E+03  0.94386963808E+03  0.50400001928E-02 0. -1.
       -1    1    3    3    0  502 -0.35696055003E+03  0.86341797863E+03  0.11154271244E+02  0.93436387874E+03  0.50400001928E-02 0.  1.
</event>
<event>
 5   0  0.4839293E-04  0.1932781E+04  0.7818609E-02  0.8638709E-01
        2   -1    0    0  501    0  0.00000000000E+00  0.00000000000E+00  0.12626580837E+04  0.12626580837E+04  0.25500000920E-02 0. -1.
       -2   -1    0    0    0  501  0.00000000000E+00  0.00000000000E+00 -0.73963863269E+03  0.73963863270E+03  0.25500000920E-02 0.  1.
    10030    2    1    2    0    0  0.00000000000E+00  0.00000000000E+00  0.52301945099E+03  0.20022967164E+04  0.19327811036E+04 0.  0.
        5    1    3    3  502    0  0.93805956611E+03  0.16285730014E+03  0.89994323903E+02  0.95634686077E+03  0.46999998093E+01 0.  1.
       -5    1    3    3    0  502 -0.93805956611E+03 -0.16285730014E+03  0.43302512709E+03  0.10459498556E+04  0.46999998093E+01 0. -1.
</event>
<event>
 5   0  0.2510069E-04  0.1907406E+04  0.7818609E-02  0.8651178E-01
       -1   -1    0    0    0  501  0.00000000000E+00  0.00000000000E+00  0.16652743407E+04  0.16652743407E+04  0.50400001928E-02 0.  1.
        1   -1    0    0  501    0  0.00000000000E+00  0.00000000000E+00 -0.54618619745E+03  0.54618619748E+03  0.50400001928E-02 0. -1.
    10030    2    1    2    0    0  0.00000000000E+00  0.00000000000E+00  0.11190881432E+04  0.22114605382E+04  0.19074064694E+04 0.  0.
        4    1    3    3  502    0 -0.11708584858E+03 -0.72838146537E+02  0.16536544453E+04  0.16593942054E+04  0.12699999809E+01 0.  1.
       -4    1    3    3    0  502  0.11708584858E+03  0.72838146537E+02 -0.53456630209E+03  0.55206633275E+03  0.12699999809E+01 0. -1.
</event>
<event>
 5   0  0.2355414E-04  0.1906699E+04  0.7818609E-02  0.8651529E-01
        1   -1    0    0  501    0  0.00000000000E+00  0.00000000000E+00  0.24174604851E+04  0.24174604851E+04  0.50400001928E-02 0. -1.
       -1   -1    0    0    0  501  0.00000000000E+00  0.00000000000E+00 -0.37596272189E+03  0.37596272192E+03  0.50400001928E-02 0.  1.
    10030    2    1    2    0    0  0.00000000000E+00  0.00000000000E+00  0.20414977632E+04  0.27934232070E+04  0.19066987430E+04 0.  0.
        5    1    3    3  502    0  0.74636323372E+03 -0.53489788645E+03  0.64528490003E+03  0.11223139123E+04  0.46999998093E+01 0.  1.
       -5    1    3    3    0  502 -0.74636323372E+03  0.53489788645E+03  0.13962128632E+04  0.16711092947E+04  0.46999998093E+01 0. -1.
</event>
<event>
 5   0  0.4761944E-04  0.1964090E+04  0.7818609E-02  0.8623596E-01
        2   -1    0    0  501    0  0.00000000000E+00  0.00000000000E+00  0.17990356477E+04  0.17990356477E+04  0.25500000920E-02 0. -1.
       -2   -1    0    0    0  501  0.00000000000E+00  0.00000000000E+00 -0.53607175791E+03  0.53607175792E+03  0.25500000920E-02 0.  1.
    10030    2    1    2    0    0  0.00000000000E+00  0.00000000000E+00  0.12629638898E+04  0.23351074056E+04  0.19640898169E+04 0.  0.
        4    1    3    3  502    0  0.59455479196E+02  0.23946423683E+03 -0.49861944760E+03  0.55632817756E+03  0.12699999809E+01 0.  1.
       -4    1    3    3    0  502 -0.59455479196E+02 -0.23946423683E+03  0.17615833374E+04  0.17787792281E+04  0.12699999809E+01 0. -1.
</event>
<event>
 5   0  0.4829134E-04  0.1872835E+04  0.7818609E-02  0.8668498E-01
       -2   -1    0    0    0  501  0.00000000000E+00  0.00000000000E+00  0.48098913141E+03  0.48098913141E+03  0.25500000920E-02 0. -1.
        2   -1    0    0  501    0  0.00000000000E+00  0.00000000000E+00 -0.18230712155E+04  0.18230712155E+04  0.25500000920E-02 0.  1.
    10030    2    1    2    0    0  0.00000000000E+00  0.00000000000E+00 -0.13420820841E+04  0.23040603469E+04  0.18728346862E+04 0.  0.
        2    1    3    3  502    0  0.12659464629E+03 -0.89536724877E+03 -0.97029542096E+03  0.13263415543E+04  0.25500000920E-02 0. -1.
       -2    1    3    3    0  502 -0.12659464629E+03  0.89536724877E+03 -0.37178666315E+03  0.97771879267E+03  0.25500000920E-02 0.  1.
</event>
<event>
 5   0  0.2355414E-04  0.1901537E+04  0.7818609E-02  0.8654092E-01
        1   -1    0    0  501    0  0.00000000000E+00  0.00000000000E+00  0.10834840703E+04  0.10834840703E+04  0.50400001928E-02 0. -1.
       -1   -1    0    0    0  501  0.00000000000E+00  0.00000000000E+00 -0.83430881736E+03  0.83430881737E+03  0.50400001928E-02 0.  1.
    10030    2    1    2    0    0  0.00000000000E+00  0.00000000000E+00  0.24917525292E+03  0.19177928877E+04  0.19015365506E+04 0.  0.
        5    1    3    3  502    0 -0.41806190179E+01 -0.47223261475E+03 -0.70764386901E+03  0.85076615786E+03  0.46999998093E+01 0.  1.
       -5    1    3    3    0  502  0.41806190179E+01  0.47223261475E+03  0.95681912194E+03  0.10670267298E+04  0.46999998093E+01 0. -1.
</event>
<event>
 5   0  0.2510069E-04  0.1939323E+04  0.7818609E-02  0.8635527E-01
       -1   -1    0    0    0  501  0.00000000000E+00  0.00000000000E+00  0.69041553406E+03  0.69041553408E+03  0.50400001928E-02 0. -1.
        1   -1    0    0  501    0  0.00000000000E+00  0.00000000000E+00 -0.13618517067E+04  0.13618517067E+04  0.50400001928E-02 0.  1.
    10030    2    1    2    0    0  0.00000000000E+00  0.00000000000E+00 -0.67143617260E+03  0.20522672407E+04  0.19393231535E+04 0.  0.
        4    1    3    3  502    0 -0.71996904077E+03  0.18029771474E+03 -0.99606194972E+03  0.12421770028E+04  0.12699999809E+01 0.  1.
       -4    1    3    3    0  502  0.71996904077E+03 -0.18029771474E+03  0.32462577712E+03  0.81009023798E+03  0.12699999809E+01 0. -1.
</event>
<event>
 5   0  0.4839293E-04  0.1889970E+04  0.7818609E-02  0.8659865E-01
        2   -1    0    0  501    0  0.00000000000E+00  0.00000000000E+00  0.10009054787E+04  0.10009054787E+04  0.25500000920E-02 0.  1.
       -2   -1    0    0    0  501  0.00000000000E+00  0.00000000000E+00 -0.89218911943E+03  0.89218911943E+03  0.25500000920E-02 0. -1.
    10030    2    1    2    0    0  0.00000000000E+00  0.00000000000E+00  0.10871635923E+03  0.18930945981E+04  0.18899703465E+04 0.  0.
        5    1    3    3  502    0  0.75488714500E+03  0.48019478167E+03  0.35905382813E+03  0.96404531611E+03  0.46999998093E+01 0.  1.
       -5    1    3    3    0  502 -0.75488714500E+03 -0.48019478167E+03 -0.25033746889E+03  0.92904928198E+03  0.46999998093E+01 0. -1.
</event>
<event>
 5   0  0.2376359E-04  0.1007698E+04  0.7818609E-02  0.9300141E-01
        1   -1    0    0  501    0  0.00000000000E+00  0.00000000000E+00  0.10768383441E+04  0.10768383442E+04  0.50400001928E-02 0.  1.
       -1   -1    0    0    0  501  0.00000000000E+00  0.00000000000E+00 -0.23574945144E+03  0.23574945149E+03  0.50400001928E-02 0. -1.
    10030    2    1    2    0    0  0.00000000000E+00  0.00000000000E+00  0.84108889270E+03  0.13125877956E+04  0.10076984647E+04 0.  0.
        2    1    3    3  502    0  0.33312952878E+03 -0.32348204506E+03  0.67528781225E+03  0.81953007620E+03  0.25500000920E-02 0.  1.
       -2    1    3    3    0  502 -0.33312952878E+03  0.32348204506E+03  0.16580108045E+03  0.49305771945E+03  0.25500000920E-02 0. -1.
</event>
<event>
 5   0  0.2317458E-04  0.1840269E+04  0.7818609E-02  0.8685173E-01
        1   -1    0    0  501    0  0.00000000000E+00  0.00000000000E+00  0.13803853749E+04  0.13803853749E+04  0.50400001928E-02 0. -1.
       -1   -1    0    0    0  501  0.00000000000E+00  0.00000000000E+00 -0.61334107103E+03  0.61334107105E+03  0.50400001928E-02 0.  1.
    10030    2    1    2    0    0  0.00000000000E+00  0.00000000000E+00  0.76704430384E+03  0.19937264459E+04  0.18402685068E+04 0.  0.
        3    1    3    3  502    0  0.49547770986E+03  0.26294880708E+03  0.11737329621E+04  0.13008802068E+04  0.10100000352E+00 0. -1.
       -3    1    3    3    0  502 -0.49547770986E+03 -0.26294880708E+03 -0.40668865821E+03  0.69284623910E+03  0.10100000352E+00 0.  1.
</event>
<event>
 5   0  0.2261755E-04  0.1623320E+04  0.7818609E-02  0.8806348E-01
       -1   -1    0    0    0  501  0.00000000000E+00  0.00000000000E+00  0.13413340501E+04  0.13413340501E+04  0.50400001928E-02 0.  1.
        1   -1    0    0  501    0  0.00000000000E+00  0.00000000000E+00 -0.49114681711E+03  0.49114681713E+03  0.50400001928E-02 0. -1.
    10030    2    1    2    0    0  0.00000000000E+00  0.00000000000E+00  0.85018723298E+03  0.18324808672E+04  0.16233199924E+04 0.  0.
        1    1    3    3  502    0  0.17508582838E+03  0.67428065622E+03  0.89527252773E+03  0.11343819240E+04  0.50400001928E-02 0.  1.
       -1    1    3    3    0  502 -0.17508582838E+03 -0.67428065622E+03 -0.45085294751E+02  0.69809894319E+03  0.50400001928E-02 0. -1.
</event>
<event>
 5   0  0.4973411E-04  0.1863835E+04  0.7818609E-02  0.8673070E-01
       -2   -1    0    0    0  501  0.00000000000E+00  0.00000000000E+00  0.81600885962E+03  0.81600885963E+03  0.25500000920E-02 0. -1.
        2   -1    0    0  501    0  0.00000000000E+00  0.00000000000E+00 -0.10642904195E+04  0.10642904195E+04  0.25500000920E-02 0.  1.
    10030    2    1    2    0    0  0.00000000000E+00  0.00000000000E+00 -0.24828155988E+03  0.18802992791E+04  0.18638351982E+04 0.  0.
        1    1    3    3  502    0  0.28078544002E+03 -0.50962299747E+03 -0.85852326439E+03  0.10371201755E+04  0.50400001928E-02 0.  1.
       -1    1    3    3    0  502 -0.28078544002E+03  0.50962299747E+03  0.61024170451E+03  0.84317910365E+03  0.50400001928E-02 0. -1.
</event>
<event>
 5   0  0.4802635E-04  0.1887584E+04  0.7818609E-02  0.8661061E-01
       -2   -1    0    0    0  501  0.00000000000E+00  0.00000000000E+00  0.58619348430E+03  0.58619348430E+03  0.25500000920E-02 0. -1.
        2   -1    0    0  501    0  0.00000000000E+00  0.00000000000E+00 -0.15195382584E+04  0.15195382584E+04  0.25500000920E-02 0.  1.
    10030    2    1    2    0    0  0.00000000000E+00  0.00000000000E+00 -0.93334477414E+03  0.21057317427E+04  0.18875840922E+04 0.  0.
        3    1    3    3  502    0 -0.82449481164E+03  0.35081164405E+03 -0.79738362637E+03  0.11994503582E+04  0.10100000352E+00 0.  1.
       -3    1    3    3    0  502  0.82449481164E+03 -0.35081164405E+03 -0.13596114777E+03  0.90628138452E+03  0.10100000352E+00 0. -1.
</event>
<event>
 5   0  0.4839293E-04  0.1834428E+04  0.7818609E-02  0.8688202E-01
       -2   -1    0    0    0  501  0.00000000000E+00  0.00000000000E+00  0.69157933703E+03  0.69157933703E+03  0.25500000920E-02 0.  1.
        2   -1    0    0  501    0  0.00000000000E+00  0.00000000000E+00 -0.12164645780E+04  0.12164645780E+04  0.25500000920E-02 0. -1.
    10030    2    1    2    0    0  0.00000000000E+00  0.00000000000E+00 -0.52488524097E+03  0.19080439150E+04  0.18344282667E+04 0.  0.
        5    1    3    3  502    0  0.23399120154E+03 -0.67206919862E+03 -0.86430933186E+03  0.11195899255E+04  0.46999998093E+01 0. -1.
       -5    1    3    3    0  502 -0.23399120154E+03  0.67206919862E+03  0.33942409089E+03  0.78845398953E+03  0.46999998093E+01 0.  1.
</event>
<event>
 5   0  0.4761944E-04  0.2053801E+04  0.7818609E-02  0.8581872E-01
        2   -1    0    0  501    0  0.00000000000E+00  0.00000000000E+00  0.21187813107E+04  0.21187813107E+04  0.25500000920E-02 0. -1.
       -2   -1    0    0    0  501  0.00000000000E+00  0.00000000000E+00 -0.49770360142E+03  0.49770360142E+03  0.25500000920E-02 0.  1.
    10030    2    1    2    0    0  0.00000000000E+00  0.00000000000E+00  0.16210777093E+04  0.26164849121E+04  0.20538014402E+04 0.  0.
        4    1    3    3  502    0 -0.89936640927E+03  0.14366503829E+03  0.14148687786E+04  0.16826630248E+04  0.12699999809E+01 0. -1.
       -4    1    3    3    0  502  0.89936640927E+03 -0.14366503829E+03  0.20620893071E+03  0.93382188738E+03  0.12699999809E+01 0.  1.
</event>
<event>
 5   0  0.4973411E-04  0.1818767E+04  0.7818609E-02  0.8696383E-01
       -2   -1    0    0    0  501  0.00000000000E+00  0.00000000000E+00  0.10753481252E+04  0.10753481252E+04  0.25500000920E-02 0. -1.
        2   -1    0    0  501    0  0.00000000000E+00  0.00000000000E+00 -0.76903278929E+03  0.76903278929E+03  0.25500000920E-02 0.  1.
    10030    2    1    2    0    0  0.00000000000E+00  0.00000000000E+00  0.30631533587E+03  0.18443809145E+04  0.18187665800E+04 0.  0.
        1    1    3    3  502    0  0.96519726619E+02  0.75317146670E+03 -0.35428406175E+03  0.83791438245E+03  0.50400001928E-02 0.  1.
       -1    1    3    3    0  502 -0.96519726619E+02 -0.75317146670E+03  0.66059939762E+03  0.10064665320E+04  0.50400001928E-02 0. -1.
</event>
<event>
 5   0  0.2376359E-04  0.1903612E+04  0.7818609E-02  0.8653061E-01
        1   -1    0    0  501    0  0.00000000000E+00  0.00000000000E+00  0.14043944285E+04  0.14043944285E+04  0.50400001928E-02 0. -1.
       -1   -1    0    0    0  501  0.00000000000E+00  0.00000000000E+00 -0.64507133422E+03  0.64507133424E+03  0.50400001928E-02 0.  1.
    10030    2    1    2    0    0  0.00000000000E+00  0.00000000000E+00  0.75932309424E+03  0.20494657627E+04  0.19036119224E+04 0.  0.
        2    1    3    3  502    0 -0.67611472608E+03  0.52845119726E+03  0.82296582611E+03  0.11889762578E+04  0.25500000920E-02 0. -1.
       -2    1    3    3    0  502  0.67611472608E+03 -0.52845119726E+03 -0.63642731862E+02  0.86048950490E+03  0.25500000920E-02 0.  1.
</event>
<event>
 5   0  0.2317458E-04  0.1752632E+04  0.7818609E-02  0.8731903E-01
       -1   -1    0    0    0  501  0.00000000000E+00  0.00000000000E+00  0.74067506575E+03  0.74067506577E+03  0.50400001928E-02 0. -1.
        1   -1    0    0  501    0  0.00000000000E+00  0.00000000000E+00 -0.10367974948E+04  0.10367974948E+04  0.50400001928E-02 0.  1.
    10030    2    1    2    0    0  0.00000000000E+00  0.00000000000E+00 -0.29612242901E+03  0.17774725605E+04  0.17526323660E+04 0.  0.
        3    1    3    3  502    0  0.38963812506E+03 -0.48524718606E+03  0.47764933674E+03  0.78449448638E+03  0.10100000352E+00 0. -1.
       -3    1    3    3    0  502 -0.38963812506E+03  0.48524718606E+03 -0.77377176575E+03  0.99297807415E+03  0.10100000352E+00 0.  1.
</event>
<event>
 5   0  0.4802635E-04  0.1868809E+04  0.7818609E-02  0.8670540E-01
       -2   -1    0    0    0  501  0.00000000000E+00  0.00000000000E+00  0.86110836798E+03  0.86110836798E+03  0.25500000920E-02 0. -1.
        2   -1    0    0  501    0  0.00000000000E+00  0.00000000000E+00 -0.10139391492E+04  0.10139391492E+04  0.25500000920E-02 0.  1.
    10030    2    1    2    0    0  0.00000000000E+00  0.00000000000E+00 -0.15283078123E+03  0.18750475172E+04  0.18688086965E+04 0.  0.
        3    1    3    3  502    0 -0.18631572974E+03  0.85894614106E+03 -0.39466422531E+03  0.96346348417E+03  0.10100000352E+00 0.  1.
       -3    1    3    3    0  502  0.18631572974E+03 -0.85894614106E+03  0.24183344408E+03  0.91158403302E+03  0.10100000352E+00 0. -1.
</event>
<event>
 5   0  0.4802635E-04  0.1798146E+04  0.7818609E-02  0.8707286E-01
       -2   -1    0    0    0  501  0.00000000000E+00  0.00000000000E+00  0.76041361371E+03  0.76041361371E+03  0.25500000920E-02 0.  1.
        2   -1    0    0  501    0  0.00000000000E+00  0.00000000000E+00 -0.10630165875E+04  0.10630165875E+04  0.25500000920E-02 0. -1.
    10030    2    1    2    0    0  0.00000000000E+00  0.00000000000E+00 -0.30260297377E+03  0.18234302012E+04  0.17981460282E+04 0.  0.
        3    1    3    3  502    0  0.38357269501E+01  0.57870352698E+03 -0.84903147575E+03  0.10275052029E+04  0.10100000352E+00 0. -1.
       -3    1    3    3    0  502 -0.38357269501E+01 -0.57870352698E+03  0.54642850198E+03  0.79592499830E+03  0.10100000352E+00 0.  1.
</event>
<event>
 5   0  0.2510069E-04  0.1605706E+04  0.7818609E-02  0.8817050E-01
        1   -1    0    0  501    0  0.00000000000E+00  0.00000000000E+00  0.76095509524E+03  0.76095509525E+03  0.50400001928E-02 0.  1.
       -1   -1    0    0    0  501  0.00000000000E+00  0.00000000000E+00 -0.84705746226E+03  0.84705746228E+03  0.50400001928E-02 0. -1.
    10030    2    1    2    0    0  0.00000000000E+00  0.00000000000E+00 -0.86102367025E+02  0.16080125575E+04  0.16057056915E+04 0.  0.
        4    1    3    3  502    0 -0.23152830592E+03 -0.70479155542E+03 -0.35046873033E+03  0.82046720646E+03  0.12699999809E+01 0. -1.
       -4    1    3    3    0  502  0.23152830592E+03  0.70479155542E+03  0.26436636331E+03  0.78754535107E+03  0.12699999809E+01 0.  1.
</event>
<event>
 5   0  0.2261755E-04  0.1904654E+04  0.7818609E-02  0.8652543E-01
        1   -1    0    0  501    0  0.00000000000E+00  0.00000000000E+00  0.12357606131E+04  0.12357606131E+04  0.50400001928E-02 0.  1.
       -1   -1    0    0    0  501  0.00000000000E+00  0.00000000000E+00 -0.73390177817E+03  0.73390177819E+03  0.50400001928E-02 0. -1.
    10030    2    1    2    0    0  0.00000000000E+00  0.00000000000E+00  0.50185883490E+03  0.19696623913E+04  0.19046542063E+04 0.  0.
        1    1    3    3  502    0 -0.31561433555E+03 -0.26373448094E+03  0.11391744767E+04  0.12111510119E+04  0.50400001928E-02 0.  1.
       -1    1    3    3    0  502  0.31561433555E+03  0.26373448094E+03 -0.63731564183E+03  0.75851137934E+03  0.50400001928E-02 0. -1.
</event>
<event>
 5   0  0.4839293E-04  0.1926916E+04  0.7818609E-02  0.8641574E-01
        2   -1    0    0  501    0  0.00000000000E+00  0.00000000000E+00  0.18145754931E+04  0.18145754931E+04  0.25500000920E-02 0. -1.
       -2   -1    0    0    0  501  0.00000000000E+00  0.00000000000E+00 -0.51155267888E+03  0.51155267889E+03  0.25500000920E-02 0.  1.
    10030    2    1    2    0    0  0.00000000000E+00  0.00000000000E+00  0.13030228142E+04  0.23261281720E+04  0.19269156230E+04 0.  0.
        5    1    3    3  502    0 -0.11584326748E+03  0.89905087394E+03  0.25752625802E+03  0.94236617093E+03  0.46999998093E+01 0.  1.
       -5    1    3    3    0  502  0.11584326748E+03 -0.89905087394E+03  0.10454965562E+04  0.13837620010E+04  0.46999998093E+01 0. -1.
</event>
<event>
 5   0  0.2261755E-04  0.1897069E+04  0.7818609E-02  0.8656317E-01
        1   -1    0    0  501    0  0.00000000000E+00  0.00000000000E+00  0.16895562867E+04  0.16895562867E+04  0.50400001928E-02 0.  1.
       -1   -1    0    0    0  501  0.00000000000E+00  0.00000000000E+00 -0.53251701460E+03  0.53251701463E+03  0.50400001928E-02 0. -1.
    10030    2    1    2    0    0  0.00000000000E+00  0.00000000000E+00  0.11570392721E+04  0.22220733014E+04  0.18970687598E+04 0.  0.
        1    1    3    3  502    0  0.20539778760E+03 -0.71616850248E+03  0.12661468288E+04  0.14690858951E+04  0.50400001928E-02 0.  1.
       -1    1    3    3    0  502 -0.20539778760E+03  0.71616850248E+03 -0.10910755663E+03  0.75298740629E+03  0.50400001928E-02 0. -1.
</event>
<event>
 5   0  0.2261755E-04  0.1288275E+04  0.7818609E-02  0.9038915E-01
        1   -1    0    0  501    0  0.00000000000E+00  0.00000000000E+00  0.93359776740E+03  0.93359776742E+03  0.50400001928E-02 0.  1.
       -1   -1    0    0    0  501  0.00000000000E+00  0.00000000000E+00 -0.44442361065E+03  0.44442361067E+03  0.50400001928E-02 0. -1.
    10030    2    1    2    0    0  0.00000000000E+00  0.00000000000E+00  0.48917415676E+03  0.13780213781E+04  0.12882746457E+04 0.  0.
        1    1    3    3  502    0 -0.16069316572E+03 -0.53637217542E+03 -0.96022461309E+02  0.56810009433E+03  0.50400001928E-02 0. -1.
       -1    1    3    3    0  502  0.16069316572E+03  0.53637217542E+03  0.58519661807E+03  0.80992128376E+03  0.50400001928E-02 0.  1.
</event>
<event>
 5   0  0.4761944E-04  0.1823676E+04  0.7818609E-02  0.8693809E-01
        2   -1    0    0  501    0  0.00000000000E+00  0.00000000000E+00  0.18760665053E+04  0.18760665053E+04  0.25500000920E-02 0.  1.
       -2   -1    0    0    0  501  0.00000000000E+00  0.00000000000E+00 -0.44318737082E+03  0.44318737083E+03  0.25500000920E-02 0. -1.
    10030    2    1    2    0    0  0.00000000000E+00  0.00000000000E+00  0.14328791345E+04  0.23192538761E+04  0.18236764866E+04 0.  0.
        4    1    3    3  502    0 -0.52697419928E+03  0.46396246327E+02  0.16609567132E+04  0.17431675864E+04  0.12699999809E+01 0.  1.
       -4    1    3    3    0  502  0.52697419928E+03 -0.46396246327E+02 -0.22807757871E+03  0.57608628971E+03  0.12699999809E+01 0. -1.
</event>
<event>
 5   0  0.2317458E-04  0.1874246E+04  0.7818609E-02  0.8667783E-01
        1   -1    0    0  501    0  0.00000000000E+00  0.00000000000E+00  0.13597425810E+04  0.13597425810E+04  0.50400001928E-02 0.  1.
       -1   -1    0    0    0  501  0.00000000000E+00  0.00000000000E+00 -0.64585693662E+03  0.64585693664E+03  0.50400001928E-02 0. -1.
    10030    2    1    2    0    0  0.00000000000E+00  0.00000000000E+00  0.71388564438E+03  0.20055995177E+04  0.18742456381E+04 0.  0.
        3    1    3    3  502    0 -0.76114676892E+03  0.37956333927E+03  0.77794482048E+03  0.11526538449E+04  0.10100000352E+00 0.  1.
       -3    1    3    3    0  502  0.76114676892E+03 -0.37956333927E+03 -0.64059176100E+02  0.85294567271E+03  0.10100000352E+00 0. -1.
</event>
<event>
 5   0  0.2317458E-04  0.1902043E+04  0.7818609E-02  0.8653840E-01
        1   -1    0    0  501    0  0.00000000000E+00  0.00000000000E+00  0.17914944504E+04  0.17914944504E+04  0.50400001928E-02 0.  1.
       -1   -1    0    0    0  501  0.00000000000E+00  0.00000000000E+00 -0.50485318314E+03  0.50485318316E+03  0.50400001928E-02 0. -1.
    10030    2    1    2    0    0  0.00000000000E+00  0.00000000000E+00  0.12866412673E+04  0.22963476336E+04  0.19020427712E+04 0.  0.
        3    1    3    3  502    0  0.41589834728E+03 -0.18968246124E+03 -0.36352536591E+03  0.58403901687E+03  0.10100000352E+00 0. -1.
       -3    1    3    3    0  502 -0.41589834728E+03  0.18968246124E+03  0.16501666332E+04  0.17123086167E+04  0.10100000352E+00 0.  1.
</event>
<event>
 5   0  0.2261755E-04  0.1850989E+04  0.7818609E-02  0.8679645E-01
        1   -1    0    0  501    0  0.00000000000E+00  0.00000000000E+00  0.10244427391E+04  0.10244427391E+04  0.50400001928E-02 0.  1.
       -1   -1    0    0    0  501  0.00000000000E+00  0.00000000000E+00 -0.83610307895E+03  0.83610307896E+03  0.50400001928E-02 0. -1.
    10030    2    1    2    0    0  0.00000000000E+00  0.00000000000E+00  0.18833966014E+03  0.18605458181E+04  0.18509886314E+04 0.  0.
        1    1    3    3  502    0 -0.65230536349E+03 -0.43782509770E+03  0.58592651456E+03  0.98005254140E+03  0.50400001928E-02 0.  1.
       -1    1    3    3    0  502  0.65230536349E+03  0.43782509770E+03 -0.39758685442E+03  0.88049327666E+03  0.50400001928E-02 0. -1.
</event>
<event>
 5   0  0.2355414E-04  0.1861893E+04  0.7818609E-02  0.8674061E-01
        1   -1    0    0  501    0  0.00000000000E+00  0.00000000000E+00  0.82226689595E+03  0.82226689596E+03  0.50400001928E-02 0.  1.
       -1   -1    0    0    0  501  0.00000000000E+00  0.00000000000E+00 -0.10539901164E+04  0.10539901164E+04  0.50400001928E-02 0. -1.
    10030    2    1    2    0    0  0.00000000000E+00  0.00000000000E+00 -0.23172322046E+03  0.18762570124E+04  0.18618927804E+04 0.  0.
        5    1    3    3  502    0  0.67146197769E+03  0.62316850045E+03  0.51063318190E+02  0.91751279004E+03  0.46999998093E+01 0.  1.
       -5    1    3    3    0  502 -0.67146197769E+03 -0.62316850045E+03 -0.28278653865E+03  0.95874422234E+03  0.46999998093E+01 0. -1.
</event>
<event>
 5   0  0.2355414E-04  0.1668956E+04  0.7818609E-02  0.8779271E-01
        1   -1    0    0  501    0  0.00000000000E+00  0.00000000000E+00  0.16626704640E+04  0.16626704640E+04  0.50400001928E-02 0.  1.
       -1   -1    0    0    0  501  0.00000000000E+00  0.00000000000E+00 -0.41881639578E+03  0.41881639581E+03  0.50400001928E-02 0. -1.
    10030    2    1    2    0    0  0.00000000000E+00  0.00000000000E+00  0.12438540682E+04  0.20814868598E+04  0.16689561422E+04 0.  0.
        5    1    3    3  502    0  0.12562195617E+03 -0.79481728082E+03  0.89748351175E+03  0.12054103574E+04  0.46999998093E+01 0.  1.
       -5    1    3    3    0  502 -0.12562195617E+03  0.79481728082E+03  0.34637055648E+03  0.87607650246E+03  0.46999998093E+01 0. -1.
</event>
<event>
 5   0  0.2376359E-04  0.1911650E+04  0.7818609E-02  0.8649079E-01
        1   -1    0    0  501    0  0.00000000000E+00  0.00000000000E+00  0.27690615489E+04  0.27690615489E+04  0.50400001928E-02 0. -1.
       -1   -1    0    0    0  501  0.00000000000E+00  0.00000000000E+00 -0.32993193626E+03  0.32993193629E+03  0.50400001928E-02 0.  1.
    10030    2    1    2    0    0  0.00000000000E+00  0.00000000000E+00  0.24391296126E+04  0.30989934852E+04  0.19116504267E+04 0.  0.
        2    1    3    3  502    0  0.15953504841E+03  0.92089475025E+03  0.15442048255E+04  0.18050116664E+04  0.25500000920E-02 0.  1.
       -2    1    3    3    0  502 -0.15953504841E+03 -0.92089475025E+03  0.89492478713E+03  0.12939818188E+04  0.25500000920E-02 0. -1.
</event>
<event>
 5   0  0.2376359E-04  0.1873731E+04  0.7818609E-02  0.8668044E-01
       -1   -1    0    0    0  501  0.00000000000E+00  0.00000000000E+00  0.12242648458E+04  0.12242648458E+04  0.50400001928E-02 0. -1.
        1   -1    0    0  501    0  0.00000000000E+00  0.00000000000E+00 -0.71693361412E+03  0.71693361414E+03  0.50400001928E-02 0.  1.
    10030    2    1    2    0    0  0.00000000000E+00  0.00000000000E+00  0.50733123166E+03  0.19411984599E+04  0.18737306323E+04 0.  0.
        2    1    3    3  502    0 -0.68317589291E+03 -0.11904508840E+03 -0.39894952106E+03  0.80003859537E+03  0.25500000920E-02 0.  1.
       -2    1    3    3    0  502  0.68317589291E+03  0.11904508840E+03  0.90628075272E+03  0.11411598646E+04  0.25500000920E-02 0. -1.
</event>
<event>
 5   0  0.2376359E-04  0.1895696E+04  0.7818609E-02  0.8657002E-01
        1   -1    0    0  501    0  0.00000000000E+00  0.00000000000E+00  0.18323572919E+04  0.18323572919E+04  0.50400001928E-02 0.  1.
       -1   -1    0    0    0  501  0.00000000000E+00  0.00000000000E+00 -0.49030600754E+03  0.49030600757E+03  0.50400001928E-02 0. -1.
    10030    2    1    2    0    0  0.00000000000E+00  0.00000000000E+00  0.13420512843E+04  0.23226632994E+04  0.18956959547E+04 0.  0.
        2    1    3    3  502    0  0.69097700862E+03  0.13764067599E+03  0.14478847674E+04  0.16102063476E+04  0.25500000920E-02 0.  1.
       -2    1    3    3    0  502 -0.69097700862E+03 -0.13764067599E+03 -0.10583348306E+03  0.71245695187E+03  0.25500000920E-02 0. -1.
</event>
<event>
 5   0  0.4839293E-04  0.1952573E+04  0.7818609E-02  0.8629121E-01
       -2   -1    0    0    0  501  0.00000000000E+00  0.00000000000E+00  0.39306456720E+03  0.39306456721E+03  0.25500000920E-02 0.  1.
        2   -1    0    0  501    0  0.00000000000E+00  0.00000000000E+00 -0.24248826236E+04  0.24248826236E+04  0.25500000920E-02 0. -1.
    10030    2    1    2    0    0  0.00000000000E+00  0.00000000000E+00 -0.20318180564E+04  0.28179471908E+04  0.19525731115E+04 0.  0.
        5    1    3    3  502    0  0.91844214967E+03 -0.12849145471E+03 -0.57563391981E+03  0.10915230350E+04  0.46999998093E+01 0.  1.
       -5    1    3    3    0  502 -0.91844214967E+03  0.12849145471E+03 -0.14561841366E+04  0.17264241558E+04  0.46999998093E+01 0. -1.
</event>
<event>
 5   0  0.2261755E-04  0.1877944E+04  0.7818609E-02  0.8665913E-01
       -1   -1    0    0    0  501  0.00000000000E+00  0.00000000000E+00  0.77841789196E+03  0.77841789198E+03  0.50400001928E-02 0.  1.
        1   -1    0    0  501    0  0.00000000000E+00  0.00000000000E+00 -0.11326419032E+04  0.11326419032E+04  0.50400001928E-02 0. -1.
    10030    2    1    2    0    0  0.00000000000E+00  0.00000000000E+00 -0.35422401125E+03  0.19110597952E+04  0.18779443258E+04 0.  0.
        1    1    3    3  502    0  0.83291675837E+03 -0.42398174027E+03 -0.26902570039E+03  0.97256653755E+03  0.50400001928E-02 0.  1.
       -1    1    3    3    0  502 -0.83291675837E+03  0.42398174027E+03 -0.85198310857E+02  0.93849325765E+03  0.50400001928E-02 0. -1.
</event>
<event>
 5   0  0.1729375E-04  0.2017885E+04  0.7818609E-02  0.8598304E-01
       -3   -1    0    0    0  501  0.00000000000E+00  0.00000000000E+00  0.11632476392E+04  0.11632476436E+04  0.10100000352E+00 0.  1.
        3   -1    0    0  501    0  0.00000000000E+00  0.00000000000E+00 -0.87510576768E+03  0.87510577351E+03  0.10100000352E+00 0. -1.
    10030    2    1    2    0    0  0.00000000000E+00  0.00000000000E+00  0.28814187155E+03  0.20383534171E+04  0.20178847626E+04 0.  0.
        1    1    3    3  502    0  0.45024990602E+03  0.89242370583E+03  0.54945457504E+01  0.99958753427E+03  0.50400001928E-02 0. -1.
       -1    1    3    3    0  502 -0.45024990602E+03 -0.89242370583E+03  0.28264732580E+03  0.10387658829E+04  0.50400001928E-02 0.  1.
</event>
<event>
 5   0  0.4839293E-04  0.1884198E+04  0.7818609E-02  0.8662762E-01
       -2   -1    0    0    0  501  0.00000000000E+00  0.00000000000E+00  0.85908914954E+03  0.85908914954E+03  0.25500000920E-02 0.  1.
        2   -1    0    0  501    0  0.00000000000E+00  0.00000000000E+00 -0.10331297836E+04  0.10331297836E+04  0.25500000920E-02 0. -1.
    10030    2    1    2    0    0  0.00000000000E+00  0.00000000000E+00 -0.17404063403E+03  0.18922189331E+04  0.18841980651E+04 0.  0.
        5    1    3    3  502    0  0.61426180549E+03  0.71366522619E+03 -0.57012079035E+02  0.94334939864E+03  0.46999998093E+01 0. -1.
       -5    1    3    3    0  502 -0.61426180549E+03 -0.71366522619E+03 -0.11702855499E+03  0.94886953447E+03  0.46999998093E+01 0.  1.
</event>
<event>
 5   0  0.2510069E-04  0.1826471E+04  0.7818609E-02  0.8692348E-01
        1   -1    0    0  501    0  0.00000000000E+00  0.00000000000E+00  0.12704672479E+04  0.12704672479E+04  0.50400001928E-02 0.  1.
       -1   -1    0    0    0  501  0.00000000000E+00  0.00000000000E+00 -0.65645088817E+03  0.65645088819E+03  0.50400001928E-02 0. -1.
    10030    2    1    2    0    0  0.00000000000E+00  0.00000000000E+00  0.61401635971E+03  0.19269181361E+04  0.18264713009E+04 0.  0.
        4    1    3    3  502    0  0.37717581702E+03 -0.53347111642E+03 -0.36616190908E+03  0.74895205825E+03  0.12699999809E+01 0. -1.
       -4    1    3    3    0  502 -0.37717581702E+03  0.53347111642E+03  0.98017826879E+03  0.11779660778E+04  0.12699999809E+01 0.  1.
</event>
<event>
 5   0  0.4761944E-04  0.1863726E+04  0.7818609E-02  0.8673126E-01
       -2   -1    0    0    0  501  0.00000000000E+00  0.00000000000E+00  0.85475966434E+03  0.85475966435E+03  0.25500000920E-02 0.  1.
        2   -1    0    0  501    0  0.00000000000E+00  0.00000000000E+00 -0.10159218392E+04  0.10159218392E+04  0.25500000920E-02 0. -1.
    10030    2    1    2    0    0  0.00000000000E+00  0.00000000000E+00 -0.16116217487E+03  0.18706815036E+04  0.18637263858E+04 0.  0.
        4    1    3    3  502    0  0.58621466490E+03 -0.28806161677E+03 -0.74769683733E+03  0.99281383041E+03  0.12699999809E+01 0. -1.
       -4    1    3    3    0  502 -0.58621466490E+03  0.28806161677E+03  0.58653466246E+03  0.87786767315E+03  0.12699999809E+01 0.  1.
</event>
<event>
 5   0  0.4973411E-04  0.1792258E+04  0.7818609E-02  0.8710428E-01
        2   -1    0    0  501    0  0.00000000000E+00  0.00000000000E+00  0.11748092983E+04  0.11748092983E+04  0.25500000920E-02 0.  1.
       -2   -1    0    0    0  501  0.00000000000E+00  0.00000000000E+00 -0.68355524808E+03  0.68355524809E+03  0.25500000920E-02 0. -1.
    10030    2    1    2    0    0  0.00000000000E+00  0.00000000000E+00  0.49125405017E+03  0.18583645463E+04  0.17922578624E+04 0.  0.
        1    1    3    3  502    0 -0.51855176976E+03  0.31402384170E+03 -0.43866978499E+03  0.74829011177E+03  0.50400001928E-02 0. -1.
       -1    1    3    3    0  502  0.51855176976E+03 -0.31402384170E+03  0.92992383516E+03  0.11100744346E+04  0.50400001928E-02 0.  1.
</event>
<event>
 5   0  0.2317458E-04  0.1751895E+04  0.7818609E-02  0.8732308E-01
        1   -1    0    0  501    0  0.00000000000E+00  0.00000000000E+00  0.14325336631E+04  0.14325336631E+04  0.50400001928E-02 0.  1.
       -1   -1    0    0    0  501  0.00000000000E+00  0.00000000000E+00 -0.53561336621E+03  0.53561336623E+03  0.50400001928E-02 0. -1.
    10030    2    1    2    0    0  0.00000000000E+00  0.00000000000E+00  0.89692029688E+03  0.19681470293E+04  0.17518951767E+04 0.  0.
        3    1    3    3  502    0  0.82112201500E+03  0.23276604172E+03  0.22698942793E+03  0.88314529059E+03  0.10100000352E+00 0. -1.
       -3    1    3    3    0  502 -0.82112201500E+03 -0.23276604172E+03  0.66993086895E+03  0.10850017387E+04  0.10100000352E+00 0.  1.
</event>
<event>
 5   0  0.4802635E-04  0.1969772E+04  0.7818609E-02  0.8620885E-01
       -2   -1    0    0    0  501  0.00000000000E+00  0.00000000000E+00  0.95198156772E+03  0.95198156773E+03  0.25500000920E-02 0.  1.
        2   -1    0    0  501    0  0.00000000000E+00  0.00000000000E+00 -0.10189282011E+04  0.10189282011E+04  0.25500000920E-02 0. -1.
    10030    2    1    2    0    0  0.00000000000E+00  0.00000000000E+00 -0.66946633342E+02  0.19709097688E+04  0.19697724399E+04 0.  0.
        3    1    3    3  502    0 -0.40465899730E+03  0.78544433389E+03  0.40189761408E+03  0.97066647626E+03  0.10100000352E+00 0.  1.
       -3    1    3    3    0  502  0.40465899730E+03 -0.78544433389E+03 -0.46884424742E+03  0.10002432925E+04  0.10100000352E+00 0. -1.
</event>
<event>
 5   0  0.2510069E-04  0.1858375E+04  0.7818609E-02  0.8675858E-01
        1   -1    0    0  501    0  0.00000000000E+00  0.00000000000E+00  0.27909142868E+04  0.27909142868E+04  0.50400001928E-02 0. -1.
       -1   -1    0    0    0  501  0.00000000000E+00  0.00000000000E+00 -0.30935722063E+03  0.30935722067E+03  0.50400001928E-02 0.  1.
    10030    2    1    2    0    0  0.00000000000E+00  0.00000000000E+00  0.24815570662E+04  0.31002715075E+04  0.18583750825E+04 0.  0.
        4    1    3    3  502    0 -0.37141750768E+03  0.35456010543E+03 -0.51160692676E+02  0.51602602914E+03  0.12699999809E+01 0.  1.
       -4    1    3    3    0  502  0.37141750768E+03 -0.35456010543E+03  0.25327177589E+04  0.25842454784E+04  0.12699999809E+01 0. -1.
</event>
<event>
 5   0  0.4829134E-04  0.1898396E+04  0.7818609E-02  0.8655655E-01
       -2   -1    0    0    0  501  0.00000000000E+00  0.00000000000E+00  0.52844868584E+03  0.52844868585E+03  0.25500000920E-02 0.  1.
        2   -1    0    0  501    0  0.00000000000E+00  0.00000000000E+00 -0.17049461476E+04  0.17049461476E+04  0.25500000920E-02 0. -1.
    10030    2    1    2    0    0  0.00000000000E+00  0.00000000000E+00 -0.11764974618E+04  0.22333948335E+04  0.18983956923E+04 0.  0.
        2    1    3    3  502    0  0.38981253887E+03 -0.83318739218E+03 -0.31279145695E+03  0.97159330046E+03  0.25500000920E-02 0.  1.
       -2    1    3    3    0  502 -0.38981253887E+03  0.83318739218E+03 -0.86370600484E+03  0.12618015330E+04  0.25500000920E-02 0. -1.
</event>
<event>
 5   0  0.2510069E-04  0.1851747E+04  0.7818609E-02  0.8679255E-01
        1   -1    0    0  501    0  0.00000000000E+00  0.00000000000E+00  0.21865999978E+04  0.21865999978E+04  0.50400001928E-02 0. -1.
       -1   -1    0    0    0  501  0.00000000000E+00  0.00000000000E+00 -0.39204312499E+03  0.39204312503E+03  0.50400001928E-02 0.  1.
    10030    2    1    2    0    0  0.00000000000E+00  0.00000000000E+00  0.17945568728E+04  0.25786431228E+04  0.18517467389E+04 0.  0.
        4    1    3    3  502    0 -0.49517287750E+03  0.14945010545E+03  0.19666491815E+04  0.20335294757E+04  0.12699999809E+01 0. -1.
       -4    1    3    3    0  502  0.49517287750E+03 -0.14945010545E+03 -0.17209230871E+03  0.54511364710E+03  0.12699999809E+01 0.  1.
</event>
<event>
 5   0  0.2510069E-04  0.1900544E+04  0.7818609E-02  0.8654585E-01
       -1   -1    0    0    0  501  0.00000000000E+00  0.00000000000E+00  0.10430471046E+04  0.10430471046E+04  0.50400001928E-02 0.  1.
        1   -1    0    0  501    0  0.00000000000E+00  0.00000000000E+00 -0.86574925956E+03  0.86574925957E+03  0.50400001928E-02 0. -1.
    10030    2    1    2    0    0  0.00000000000E+00  0.00000000000E+00  0.17729784504E+03  0.19087963642E+04  0.19005444047E+04 0.  0.
        4    1    3    3  502    0  0.91965158085E+03  0.39800454351E+02  0.32562368318E+03  0.97640949518E+03  0.12699999809E+01 0. -1.
       -4    1    3    3    0  502 -0.91965158085E+03 -0.39800454351E+02 -0.14832583815E+03  0.93238686900E+03  0.12699999809E+01 0.  1.
</event>
<event>
 5   0  0.2376359E-04  0.1862181E+04  0.7818609E-02  0.8673914E-01
        1   -1    0    0  501    0  0.00000000000E+00  0.00000000000E+00  0.17125587733E+04  0.17125587733E+04  0.50400001928E-02 0. -1.
       -1   -1    0    0    0  501  0.00000000000E+00  0.00000000000E+00 -0.50621899589E+03  0.50621899592E+03  0.50400001928E-02 0.  1.
    10030    2    1    2    0    0  0.00000000000E+00  0.00000000000E+00  0.12063397774E+04  0.22187777692E+04  0.18621812830E+04 0.  0.
        2    1    3    3  502    0 -0.50121012168E+03  0.54616360748E+03  0.12744617685E+04  0.14743673462E+04  0.25500000920E-02 0. -1.
       -2    1    3    3    0  502  0.50121012168E+03 -0.54616360748E+03 -0.68121991104E+02  0.74441042301E+03  0.25500000920E-02 0.  1.
</event>
<event>
 5   0  0.4829134E-04  0.1862038E+04  0.7818609E-02  0.8673987E-01
       -2   -1    0    0    0  501  0.00000000000E+00  0.00000000000E+00  0.13254943310E+04  0.13254943311E+04  0.25500000920E-02 0. -1.
        2   -1    0    0  501    0  0.00000000000E+00  0.00000000000E+00 -0.65394205250E+03  0.65394205250E+03  0.25500000920E-02 0.  1.
    10030    2    1    2    0    0  0.00000000000E+00  0.00000000000E+00  0.67155227855E+03  0.19794363836E+04  0.18620381128E+04 0.  0.
        2    1    3    3  502    0  0.22286665409E+03 -0.65608913882E+03  0.99681266447E+03  0.12139843457E+04  0.25500000920E-02 0. -1.
       -2    1    3    3    0  502 -0.22286665409E+03  0.65608913882E+03 -0.32526038592E+03  0.76545203784E+03  0.25500000920E-02 0.  1.
</event>
<event>
 5   0  0.4973411E-04  0.1797364E+04  0.7818609E-02  0.8707702E-01
       -2   -1    0    0    0  501  0.00000000000E+00  0.00000000000E+00  0.52020426959E+03  0.52020426960E+03  0.25500000920E-02 0.  1.
        2   -1    0    0  501    0  0.00000000000E+00  0.00000000000E+00 -0.15525237476E+04  0.15525237476E+04  0.25500000920E-02 0. -1.
    10030    2    1    2    0    0  0.00000000000E+00  0.00000000000E+00 -0.10323194781E+04  0.20727280172E+04  0.17973641614E+04 0.  0.
        1    1    3    3  502    0  0.49735828710E+03  0.34156819771E+03  0.25190839725E+03  0.65382867791E+03  0.50400001928E-02 0.  1.
       -1    1    3    3    0  502 -0.49735828710E+03 -0.34156819771E+03 -0.12842278753E+04  0.14188993393E+04  0.50400001928E-02 0. -1.
</event>
<event>
 5   0  0.1729375E-04  0.1928549E+04  0.7818609E-02  0.8640775E-01
        4   -1    0    0  501    0  0.00000000000E+00  0.00000000000E+00  0.47730459593E+03  0.47730628552E+03  0.12699999809E+01 0.  1.
       -4   -1    0    0    0  501  0.00000000000E+00  0.00000000000E+00 -0.19480694118E+04  0.19480698258E+04  0.12699999809E+01 0. -1.
    10030    2    1    2    0    0  0.00000000000E+00  0.00000000000E+00 -0.14707648159E+04  0.24253761113E+04  0.19285487128E+04 0.  0.
        1    1    3    3  502    0  0.70228622110E+02  0.96000593156E+03 -0.66333963805E+03  0.11690008227E+04  0.50400001928E-02 0.  1.
       -1    1    3    3    0  502 -0.70228622110E+02 -0.96000593156E+03 -0.80742517780E+03  0.12563752886E+04  0.50400001928E-02 0. -1.
</event>
<event>
 5   0  0.4973411E-04  0.1875341E+04  0.7818609E-02  0.8667229E-01
        2   -1    0    0  501    0  0.00000000000E+00  0.00000000000E+00  0.11552991662E+04  0.11552991662E+04  0.25500000920E-02 0. -1.
       -2   -1    0    0    0  501  0.00000000000E+00  0.00000000000E+00 -0.76103770598E+03  0.76103770598E+03  0.25500000920E-02 0.  1.
    10030    2    1    2    0    0  0.00000000000E+00  0.00000000000E+00  0.39426146020E+03  0.19163368722E+04  0.18753412779E+04 0.  0.
        1    1    3    3  502    0  0.41892208471E+03  0.82861074926E+03  0.63369483989E+02  0.93064879432E+03  0.50400001928E-02 0. -1.
       -1    1    3    3    0  502 -0.41892208471E+03 -0.82861074926E+03  0.33089197621E+03  0.98568807784E+03  0.50400001928E-02 0.  1.
</event>
<event>
 5   0  0.2261755E-04  0.1897907E+04  0.7818609E-02  0.8655899E-01
       -1   -1    0    0    0  501  0.00000000000E+00  0.00000000000E+00  0.10060089591E+04  0.10060089591E+04  0.50400001928E-02 0.  1.
        1   -1    0    0  501    0  0.00000000000E+00  0.00000000000E+00 -0.89513406234E+03  0.89513406236E+03  0.50400001928E-02 0. -1.
    10030    2    1    2    0    0  0.00000000000E+00  0.00000000000E+00  0.11087489672E+03  0.19011430214E+04  0.18979071487E+04 0.  0.
        1    1    3    3  502    0  0.88659752520E+03 -0.33637887806E+03  0.19223839667E+02  0.94845952857E+03  0.50400001928E-02 0. -1.
       -1    1    3    3    0  502 -0.88659752520E+03  0.33637887806E+03  0.91651057055E+02  0.95268349287E+03  0.50400001928E-02 0.  1.
</event>
<event>
 5   0  0.4839293E-04  0.1874408E+04  0.7818609E-02  0.8667701E-01
       -2   -1    0    0    0  501  0.00000000000E+00  0.00000000000E+00  0.69213052521E+03  0.69213052521E+03  0.25500000920E-02 0.  1.
        2   -1    0    0  501    0  0.00000000000E+00  0.00000000000E+00 -0.12690541798E+04  0.12690541798E+04  0.25500000920E-02 0. -1.
    10030    2    1    2    0    0  0.00000000000E+00  0.00000000000E+00 -0.57692365460E+03  0.19611847050E+04  0.18744077849E+04 0.  0.
        5    1    3    3  502    0  0.34680147796E+03 -0.79440723836E+03  0.84370355148E+02  0.87091593871E+03  0.46999998093E+01 0.  1.
       -5    1    3    3    0  502 -0.34680147796E+03  0.79440723836E+03 -0.66129400975E+03  0.10902687663E+04  0.46999998093E+01 0. -1.
</event>
<event>
 5   0  0.1729375E-04  0.1871135E+04  0.7818609E-02  0.8669359E-01
       -3   -1    0    0    0  501  0.00000000000E+00  0.00000000000E+00  0.77449742201E+03  0.77449742859E+03  0.10100000352E+00 0.  1.
        3   -1    0    0  501    0  0.00000000000E+00  0.00000000000E+00 -0.11301345571E+04  0.11301345616E+04  0.10100000352E+00 0. -1.
    10030    2    1    2    0    0  0.00000000000E+00  0.00000000000E+00 -0.35563713511E+03  0.19046319902E+04  0.18711347483E+04 0.  0.
        5    1    3    3  502    0  0.12843947238E+03  0.44936740419E+03  0.64714474694E+03  0.79827700425E+03  0.46999998093E+01 0.  1.
       -5    1    3    3    0  502 -0.12843947238E+03 -0.44936740419E+03 -0.10027818821E+04  0.11063549860E+04  0.46999998093E+01 0. -1.
</event>
<event>
 5   0  0.4761944E-04  0.1780234E+04  0.7818609E-02  0.8716882E-01
       -2   -1    0    0    0  501  0.00000000000E+00  0.00000000000E+00  0.29392463065E+03  0.29392463066E+03  0.25500000920E-02 0. -1.
        2   -1    0    0  501    0  0.00000000000E+00  0.00000000000E+00 -0.26956163785E+04  0.26956163785E+04  0.25500000920E-02 0.  1.
    10030    2    1    2    0    0  0.00000000000E+00  0.00000000000E+00 -0.24016917478E+04  0.29895410091E+04  0.17802337469E+04 0.  0.
        4    1    3    3  502    0 -0.35589812171E+03  0.61216965924E+03 -0.29512822558E+03  0.76714890808E+03  0.12699999809E+01 0. -1.
       -4    1    3    3    0  502  0.35589812171E+03 -0.61216965924E+03 -0.21065635223E+04  0.22223921011E+04  0.12699999809E+01 0.  1.
</event>
<event>
 5   0  0.4761944E-04  0.1901391E+04  0.7818609E-02  0.8654164E-01
       -2   -1    0    0    0  501  0.00000000000E+00  0.00000000000E+00  0.40630791094E+03  0.40630791095E+03  0.25500000920E-02 0. -1.
        2   -1    0    0  501    0  0.00000000000E+00  0.00000000000E+00 -0.22244748842E+04  0.22244748842E+04  0.25500000920E-02 0.  1.
    10030    2    1    2    0    0  0.00000000000E+00  0.00000000000E+00 -0.18181669732E+04  0.26307827951E+04  0.19013907995E+04 0.  0.
        4    1    3    3  502    0 -0.22588513990E+03  0.77679529976E+03 -0.21812993658E+03  0.83786473627E+03  0.12699999809E+01 0. -1.
       -4    1    3    3    0  502  0.22588513990E+03 -0.77679529976E+03 -0.16000370366E+04  0.17929180588E+04  0.12699999809E+01 0.  1.
</event>
<event>
 5   0  0.2376359E-04  0.1872867E+04  0.7818609E-02  0.8668481E-01
        1   -1    0    0  501    0  0.00000000000E+00  0.00000000000E+00  0.86320583681E+03  0.86320583682E+03  0.50400001928E-02 0.  1.
       -1   -1    0    0    0  501  0.00000000000E+00  0.00000000000E+00 -0.10158733362E+04  0.10158733362E+04  0.50400001928E-02 0. -1.
    10030    2    1    2    0    0  0.00000000000E+00  0.00000000000E+00 -0.15266749940E+03  0.18790791730E+04  0.18728670997E+04 0.  0.
        2    1    3    3  502    0  0.76933050906E+02 -0.29552596808E+03 -0.96451204834E+03  0.10117004416E+04  0.25500000920E-02 0. -1.
       -2    1    3    3    0  502 -0.76933050906E+02  0.29552596808E+03  0.81184454894E+03  0.86737873145E+03  0.25500000920E-02 0.  1.
</event>
<event>
 5   0  0.2317458E-04  0.1831764E+04  0.7818609E-02  0.8689588E-01
       -1   -1    0    0    0  501  0.00000000000E+00  0.00000000000E+00  0.12594769920E+04  0.12594769920E+04  0.50400001928E-02 0. -1.
        1   -1    0    0  501    0  0.00000000000E+00  0.00000000000E+00 -0.66602201932E+03  0.66602201934E+03  0.50400001928E-02 0.  1.
    10030    2    1    2    0    0  0.00000000000E+00  0.00000000000E+00  0.59345497270E+03  0.19254990114E+04  0.18317635323E+04 0.  0.
        3    1    3    3  502    0  0.61685880700E+03  0.39119891698E+03  0.87753038040E+03  0.11417578373E+04  0.10100000352E+00 0. -1.
       -3    1    3    3    0  502 -0.61685880700E+03 -0.39119891698E+03 -0.28407540770E+03  0.78374117403E+03  0.10100000352E+00 0.  1.
</event>
<event>
 5   0  0.2355414E-04  0.1725088E+04  0.7818609E-02  0.8747183E-01
        1   -1    0    0  501    0  0.00000000000E+00  0.00000000000E+00  0.24495995366E+03  0.24495995371E+03  0.50400001928E-02 0. -1.
       -1   -1    0    0    0  501  0.00000000000E+00  0.00000000000E+00 -0.30371597336E+04  0.30371597336E+04  0.50400001928E-02 0.  1.
    10030    2    1    2    0    0  0.00000000000E+00  0.00000000000E+00 -0.27921997799E+04  0.32821196873E+04  0.17250884124E+04 0.  0.
        5    1    3    3  502    0  0.42217678742E+03  0.56256354107E+03 -0.23459610987E+04  0.24491358770E+04  0.46999998093E+01 0.  1.
       -5    1    3    3    0  502 -0.42217678742E+03 -0.56256354107E+03 -0.44623868126E+03  0.83298381030E+03  0.46999998093E+01 0. -1.
</event>
<event>
 5   0  0.4761944E-04  0.1996049E+04  0.7818609E-02  0.8608470E-01
       -2   -1    0    0    0  501  0.00000000000E+00  0.00000000000E+00  0.65428512791E+03  0.65428512791E+03  0.25500000920E-02 0.  1.
        2   -1    0    0  501    0  0.00000000000E+00  0.00000000000E+00 -0.15223535839E+04  0.15223535839E+04  0.25500000920E-02 0. -1.
    10030    2    1    2    0    0  0.00000000000E+00  0.00000000000E+00 -0.86806845604E+03  0.21766387119E+04  0.19960494076E+04 0.  0.
        4    1    3    3  502    0 -0.49213716647E+02  0.28110366257E+03  0.60884288963E+03  0.67240801317E+03  0.12699999809E+01 0.  1.
       -4    1    3    3    0  502  0.49213716647E+02 -0.28110366257E+03 -0.14769113457E+04  0.15042306987E+04  0.12699999809E+01 0. -1.
</event>
<event>
 5   0  0.4839293E-04  0.1820757E+04  0.7818609E-02  0.8695338E-01
       -2   -1    0    0    0  501  0.00000000000E+00  0.00000000000E+00  0.75864104068E+03  0.75864104068E+03  0.25500000920E-02 0. -1.
        2   -1    0    0  501    0  0.00000000000E+00  0.00000000000E+00 -0.10924655661E+04  0.10924655661E+04  0.25500000920E-02 0.  1.
    10030    2    1    2    0    0  0.00000000000E+00  0.00000000000E+00 -0.33382452545E+03  0.18511066068E+04  0.18207572205E+04 0.  0.
        5    1    3    3  502    0  0.31214269801E+03  0.35962221782E+03  0.62191111177E+03  0.78329861765E+03  0.46999998093E+01 0. -1.
       -5    1    3    3    0  502 -0.31214269801E+03 -0.35962221782E+03 -0.95573563721E+03  0.10678079892E+04  0.46999998093E+01 0.  1.
</event>
<event>
 5   0  0.4973411E-04  0.1873969E+04  0.7818609E-02  0.8667923E-01
        2   -1    0    0  501    0  0.00000000000E+00  0.00000000000E+00  0.15006896888E+04  0.15006896888E+04  0.25500000920E-02 0. -1.
       -2   -1    0    0    0  501  0.00000000000E+00  0.00000000000E+00 -0.58502409207E+03  0.58502409208E+03  0.25500000920E-02 0.  1.
    10030    2    1    2    0    0  0.00000000000E+00  0.00000000000E+00  0.91566559670E+03  0.20857137809E+04  0.18739686472E+04 0.  0.
        1    1    3    3  502    0 -0.44670830061E+03  0.16419331682E+03  0.13561441577E+04  0.14372316193E+04  0.50400001928E-02 0. -1.
       -1    1    3    3    0  502  0.44670830061E+03 -0.16419331682E+03 -0.44047856098E+03  0.64848216154E+03  0.50400001928E-02 0.  1.
</event>
<event>
 5   0  0.4973411E-04  0.1906617E+04  0.7818609E-02  0.8651570E-01
        2   -1    0    0  501    0  0.00000000000E+00  0.00000000000E+00  0.72567182035E+03  0.72567182035E+03  0.25500000920E-02 0.  1.
       -2   -1    0    0    0  501  0.00000000000E+00  0.00000000000E+00 -0.12523531629E+04  0.12523531629E+04  0.25500000920E-02 0. -1.
    10030    2    1    2    0    0  0.00000000000E+00  0.00000000000E+00 -0.52668134258E+03  0.19780249833E+04  0.19066173182E+04 0.  0.
        1    1    3    3  502    0  0.26154543718E+03  0.60135649676E+03 -0.98118117734E+03  0.11801492087E+04  0.50400001928E-02 0. -1.
       -1    1    3    3    0  502 -0.26154543718E+03 -0.60135649676E+03  0.45449983477E+03  0.79787577462E+03  0.50400001928E-02 0.  1.
</event>
<event>
 5   0  0.1729375E-04  0.1906815E+04  0.7818609E-02  0.8651471E-01
        3   -1    0    0  501    0  0.00000000000E+00  0.00000000000E+00  0.58360291305E+03  0.58360292179E+03  0.10100000352E+00 0. -1.
       -3   -1    0    0    0  501  0.00000000000E+00  0.00000000000E+00 -0.15575423854E+04  0.15575423886E+04  0.10100000352E+00 0.  1.
    10030    2    1    2    0    0  0.00000000000E+00  0.00000000000E+00 -0.97393947232E+03  0.21411453104E+04  0.19068154459E+04 0.  0.
        2    1    3    3  502    0 -0.36640690361E+03  0.18451682248E+03  0.47942486018E+03  0.63099023238E+03  0.25500000920E-02 0. -1.
       -2    1    3    3    0  502  0.36640690361E+03 -0.18451682248E+03 -0.14533643325E+04  0.15101550781E+04  0.25500000920E-02 0.  1.
</event>
<event>
 5   0  0.1729375E-04  0.1843851E+04  0.7818609E-02  0.8683322E-01
       -3   -1    0    0    0  501  0.00000000000E+00  0.00000000000E+00  0.71277309042E+03  0.71277309757E+03  0.10100000352E+00 0.  1.
        3   -1    0    0  501    0  0.00000000000E+00  0.00000000000E+00 -0.11924502411E+04  0.11924502454E+04  0.10100000352E+00 0. -1.
    10030    2    1    2    0    0  0.00000000000E+00  0.00000000000E+00 -0.47967715066E+03  0.19052233429E+04  0.18438508122E+04 0.  0.
        4    1    3    3  502    0 -0.61963708334E+03  0.32479481176E+03  0.38056542672E+03  0.79641285883E+03  0.12699999809E+01 0.  1.
       -4    1    3    3    0  502  0.61963708334E+03 -0.32479481176E+03 -0.86024257738E+03  0.11088104841E+04  0.12699999809E+01 0. -1.
</event>
<event>
 5   0  0.4761944E-04  0.2033297E+04  0.7818609E-02  0.8591209E-01
       -2   -1    0    0    0  501  0.00000000000E+00  0.00000000000E+00  0.12583625141E+04  0.12583625141E+04  0.25500000920E-02 0.  1.
        2   -1    0    0  501    0  0.00000000000E+00  0.00000000000E+00 -0.82136452600E+03  0.82136452600E+03  0.25500000920E-02 0. -1.
    10030    2    1    2    0    0  0.00000000000E+00  0.00000000000E+00  0.43699798809E+03  0.20797270401E+04  0.20332971548E+04 0.  0.
        4    1    3    3  502    0  0.12835745596E+03  0.38027001390E+03 -0.73690304045E+03  0.83911180656E+03  0.12699999809E+01 0. -1.
       -4    1    3    3    0  502 -0.12835745596E+03 -0.38027001390E+03  0.11739010285E+04  0.12406152335E+04  0.12699999809E+01 0.  1.
</event>
<event>
 5   0  0.2510069E-04  0.1917890E+04  0.7818609E-02  0.8646003E-01
        1   -1    0    0  501    0  0.00000000000E+00  0.00000000000E+00  0.93204692524E+03  0.93204692526E+03  0.50400001928E-02 0.  1.
       -1   -1    0    0    0  501  0.00000000000E+00  0.00000000000E+00 -0.98661884071E+03  0.98661884072E+03  0.50400001928E-02 0. -1.
    10030    2    1    2    0    0  0.00000000000E+00  0.00000000000E+00 -0.54571915470E+02  0.19186657660E+04  0.19178895243E+04 0.  0.
        4    1    3    3  502    0 -0.12040532370E+03  0.47039285328E+03  0.79997470361E+03  0.93580340762E+03  0.12699999809E+01 0.  1.
       -4    1    3    3    0  502  0.12040532370E+03 -0.47039285328E+03 -0.85454661908E+03  0.98286235836E+03  0.12699999809E+01 0. -1.
</event>
<event>
 5   0  0.4761944E-04  0.1941815E+04  0.7818609E-02  0.8634318E-01
       -2   -1    0    0    0  501  0.00000000000E+00  0.00000000000E+00  0.10604377606E+04  0.10604377606E+04  0.25500000920E-02 0.  1.
        2   -1    0    0  501    0  0.00000000000E+00  0.00000000000E+00 -0.88893628251E+03  0.88893628251E+03  0.25500000920E-02 0. -1.
    10030    2    1    2    0    0  0.00000000000E+00  0.00000000000E+00  0.17150147810E+03  0.19493740431E+04  0.19418152340E+04 0.  0.
        4    1    3    3  502    0  0.11570310508E+03  0.62709328058E+03  0.82073920808E+03  0.10393496292E+04  0.12699999809E+01 0.  1.
       -4    1    3    3    0  502 -0.11570310508E+03 -0.62709328058E+03 -0.64923772998E+03  0.91002441396E+03  0.12699999809E+01 0. -1.
</event>
<event>
 5   0  0.2317458E-04  0.1917441E+04  0.7818609E-02  0.8646223E-01
        1   -1    0    0  501    0  0.00000000000E+00  0.00000000000E+00  0.55271872797E+03  0.55271872799E+03  0.50400001928E-02 0.  1.
       -1   -1    0    0    0  501  0.00000000000E+00  0.00000000000E+00 -0.16629520285E+04  0.16629520285E+04  0.50400001928E-02 0. -1.
    10030    2    1    2    0    0  0.00000000000E+00  0.00000000000E+00 -0.11102333005E+04  0.22156707565E+04  0.19174407213E+04 0.  0.
        3    1    3    3  502    0 -0.10086289575E+03  0.24776220636E+03  0.50872008659E+03  0.57476566646E+03  0.10100000352E+00 0.  1.
       -3    1    3    3    0  502  0.10086289575E+03 -0.24776220636E+03 -0.16189533871E+04  0.16409050900E+04  0.10100000352E+00 0. -1.
</event>
<event>
 5   0  0.2510069E-04  0.1888797E+04  0.7818609E-02  0.8660453E-01
       -1   -1    0    0    0  501  0.00000000000E+00  0.00000000000E+00  0.12458439505E+04  0.12458439505E+04  0.50400001928E-02 0.  1.
        1   -1    0    0  501    0  0.00000000000E+00  0.00000000000E+00 -0.71589140406E+03  0.71589140407E+03  0.50400001928E-02 0. -1.
    10030    2    1    2    0    0  0.00000000000E+00  0.00000000000E+00  0.52995254644E+03  0.19617353546E+04  0.18887974746E+04 0.  0.
        4    1    3    3  502    0 -0.34222905831E+03 -0.83028249308E+03 -0.38537146225E+02  0.89887511436E+03  0.12699999809E+01 0. -1.
       -4    1    3    3    0  502  0.34222905831E+03  0.83028249308E+03  0.56848969266E+03  0.10628602402E+04  0.12699999809E+01 0.  1.
</event>
<event>
 5   0  0.2376359E-04  0.1885008E+04  0.7818609E-02  0.8662355E-01
        1   -1    0    0  501    0  0.00000000000E+00  0.00000000000E+00  0.97228942229E+03  0.97228942230E+03  0.50400001928E-02 0. -1.
       -1   -1    0    0    0  501  0.00000000000E+00  0.00000000000E+00 -0.91363146385E+03  0.91363146386E+03  0.50400001928E-02 0.  1.
    10030    2    1    2    0    0  0.00000000000E+00  0.00000000000E+00  0.58657958440E+02  0.18859208862E+04  0.18850084437E+04 0.  0.
        2    1    3    3  502    0  0.53711456118E+03 -0.72328068280E+03 -0.24772962369E+03  0.93434306569E+03  0.25500000920E-02 0. -1.
       -2    1    3    3    0  502 -0.53711456118E+03  0.72328068280E+03  0.30638758213E+03  0.95157782048E+03  0.25500000920E-02 0.  1.
</event>
<event>
 5   0  0.4973411E-04  0.2040997E+04  0.7818609E-02  0.8587689E-01
        2   -1    0    0  501    0  0.00000000000E+00  0.00000000000E+00  0.10199377145E+04  0.10199377145E+04  0.25500000920E-02 0. -1.
       -2   -1    0    0    0  501  0.00000000000E+00  0.00000000000E+00 -0.10210598739E+04  0.10210598739E+04  0.25500000920E-02 0.  1.
    10030    2    1    2    0    0  0.00000000000E+00  0.00000000000E+00 -0.11221594030E+01  0.20409975883E+04  0.20409972798E+04 0.  0.
        1    1    3    3  502    0 -0.27981752982E+03  0.97720247188E+03  0.89964913760E+02  0.10204490221E+04  0.50400001928E-02 0. -1.
       -1    1    3    3    0  502  0.27981752982E+03 -0.97720247188E+03 -0.91087073163E+02  0.10205485662E+04  0.50400001928E-02 0.  1.
</event>
<event>
 5   0  0.2317458E-04  0.1921890E+04  0.7818609E-02  0.8644036E-01
        1   -1    0    0  501    0  0.00000000000E+00  0.00000000000E+00  0.10121651344E+04  0.10121651344E+04  0.50400001928E-02 0. -1.
       -1   -1    0    0    0  501  0.00000000000E+00  0.00000000000E+00 -0.91231677459E+03  0.91231677461E+03  0.50400001928E-02 0.  1.
    10030    2    1    2    0    0  0.00000000000E+00  0.00000000000E+00  0.99848359834E+02  0.19244819090E+04  0.19218899353E+04 0.  0.
        3    1    3    3  502    0  0.20693288458E+03  0.41995827965E+03 -0.79039115111E+03  0.91864267119E+03  0.10100000352E+00 0.  1.
       -3    1    3    3    0  502 -0.20693288458E+03 -0.41995827965E+03  0.89023951095E+03  0.10058392379E+04  0.10100000352E+00 0. -1.
</event>
<event>
 5   0  0.4802635E-04  0.1642935E+04  0.7818609E-02  0.8794597E-01
        2   -1    0    0  501    0  0.00000000000E+00  0.00000000000E+00  0.13651454187E+04  0.13651454187E+04  0.25500000920E-02 0. -1.
       -2   -1    0    0    0  501  0.00000000000E+00  0.00000000000E+00 -0.49431254543E+03  0.49431254544E+03  0.25500000920E-02 0.  1.
    10030    2    1    2    0    0  0.00000000000E+00  0.00000000000E+00  0.87083287328E+03  0.18594579642E+04  0.16429345779E+04 0.  0.
        3    1    3    3  502    0  0.21812000637E+03 -0.10361466103E+03  0.13240675376E+04  0.13459075710E+04  0.10100000352E+00 0. -1.
       -3    1    3    3    0  502 -0.21812000637E+03  0.10361466103E+03 -0.45323466436E+03  0.51355039318E+03  0.10100000352E+00 0.  1.
</event>
<event>
 5   0  0.4829134E-04  0.1422643E+04  0.7818609E-02  0.8937589E-01
        2   -1    0    0  501    0  0.00000000000E+00  0.00000000000E+00  0.77611031027E+03  0.77611031028E+03  0.25500000920E-02 0.  1.
       -2   -1    0    0    0  501  0.00000000000E+00  0.00000000000E+00 -0.65194141025E+03  0.65194141026E+03  0.25500000920E-02 0. -1.
    10030    2    1    2    0    0  0.00000000000E+00  0.00000000000E+00  0.12416890002E+03  0.14280517205E+04  0.14226432444E+04 0.  0.
        2    1    3    3  502    0  0.37601021476E+03 -0.21029524086E+03 -0.50608033507E+03  0.66462401061E+03  0.25500000920E-02 0. -1.
       -2    1    3    3    0  502 -0.37601021476E+03  0.21029524086E+03  0.63024923510E+03  0.76342770992E+03  0.25500000920E-02 0.  1.
</event>
<event>
 5   0  0.4761944E-04  0.1967345E+04  0.7818609E-02  0.8622042E-01
        2   -1    0    0  501    0  0.00000000000E+00  0.00000000000E+00  0.94058065516E+03  0.94058065516E+03  0.25500000920E-02 0. -1.
       -2   -1    0    0    0  501  0.00000000000E+00  0.00000000000E+00 -0.10287388350E+04  0.10287388350E+04  0.25500000920E-02 0.  1.
    10030    2    1    2    0    0  0.00000000000E+00  0.00000000000E+00 -0.88158179855E+02  0.19693194902E+04  0.19673452645E+04 0.  0.
        4    1    3    3  502    0 -0.29241742034E+03  0.55965554328E+03  0.71092441181E+03  0.95086140265E+03  0.12699999809E+01 0. -1.
       -4    1    3    3    0  502  0.29241742034E+03 -0.55965554328E+03 -0.79908259166E+03  0.10184580875E+04  0.12699999809E+01 0.  1.
</event>
<event>
 5   0  0.2510069E-04  0.1252926E+04  0.7818609E-02  0.9067751E-01
        1   -1    0    0  501    0  0.00000000000E+00  0.00000000000E+00  0.74193000906E+03  0.74193000908E+03  0.50400001928E-02 0. -1.
       -1   -1    0    0    0  501  0.00000000000E+00  0.00000000000E+00 -0.52896639935E+03  0.52896639937E+03  0.50400001928E-02 0.  1.
    10030    2    1    2    0    0  0.00000000000E+00  0.00000000000E+00  0.21296360972E+03  0.12708964084E+04  0.12529262476E+04 0.  0.
        4    1    3    3  502    0  0.42540616895E+03  0.15604553214E+01  0.57294880725E+03  0.71361389577E+03  0.12699999809E+01 0. -1.
       -4    1    3    3    0  502 -0.42540616895E+03 -0.15604553214E+01 -0.35998519753E+03  0.55728251268E+03  0.12699999809E+01 0.  1.
</event>
<event>
 5   0  0.2261755E-04  0.1891771E+04  0.7818609E-02  0.8658963E-01
       -1   -1    0    0    0  501  0.00000000000E+00  0.00000000000E+00  0.62936317666E+03  0.62936317668E+03  0.50400001928E-02 0.  1.
        1   -1    0    0  501    0  0.00000000000E+00  0.00000000000E+00 -0.14215945353E+04  0.14215945353E+04  0.50400001928E-02 0. -1.
    10030    2    1    2    0    0  0.00000000000E+00  0.00000000000E+00 -0.79223135864E+03  0.20509577120E+04  0.18917708663E+04 0.  0.
        1    1    3    3  502    0  0.29619263305E+03 -0.84380371370E+03 -0.73020973319E+03  0.11545306568E+04  0.50400001928E-02 0. -1.
       -1    1    3    3    0  502 -0.29619263305E+03  0.84380371370E+03 -0.62021625444E+02  0.89642705513E+03  0.50400001928E-02 0.  1.
</event>
<event>
 5   0  0.4761944E-04  0.1572341E+04  0.7818609E-02  0.8837722E-01
       -2   -1    0    0    0  501  0.00000000000E+00  0.00000000000E+00  0.83904356113E+03  0.83904356113E+03  0.25500000920E-02 0.  1.
        2   -1    0    0  501    0  0.00000000000E+00  0.00000000000E+00 -0.73662965342E+03  0.73662965343E+03  0.25500000920E-02 0. -1.
    10030    2    1    2    0    0  0.00000000000E+00  0.00000000000E+00  0.10241390770E+03  0.15756732146E+04  0.15723413976E+04 0.  0.
        4    1    3    3  502    0  0.12638162168E+03  0.77474685898E+03  0.80140553602E+01  0.78502920186E+03  0.12699999809E+01 0.  1.
       -4    1    3    3    0  502 -0.12638162168E+03 -0.77474685898E+03  0.94399852343E+02  0.79064401270E+03  0.12699999809E+01 0. -1.
</event>
<event>
 5   0  0.4839293E-04  0.1854181E+04  0.7818609E-02  0.8678005E-01
       -2   -1    0    0    0  501  0.00000000000E+00  0.00000000000E+00  0.53282405274E+03  0.53282405275E+03  0.25500000920E-02 0. -1.
        2   -1    0    0  501    0  0.00000000000E+00  0.00000000000E+00 -0.16130974831E+04  0.16130974831E+04  0.25500000920E-02 0.  1.
    10030    2    1    2    0    0  0.00000000000E+00  0.00000000000E+00 -0.10802734304E+04  0.21459215359E+04  0.18541813702E+04 0.  0.
        5    1    3    3  502    0  0.58215574214E+03 -0.58961065835E+03 -0.10214142112E+04  0.13152395665E+04  0.46999998093E+01 0.  1.
       -5    1    3    3    0  502 -0.58215574214E+03  0.58961065835E+03 -0.58859219218E+02  0.83068196936E+03  0.46999998093E+01 0. -1.
</event>
<event>
 5   0  0.2376359E-04  0.1674389E+04  0.7818609E-02  0.8776107E-01
       -1   -1    0    0    0  501  0.00000000000E+00  0.00000000000E+00  0.57512713644E+03  0.57512713646E+03  0.50400001928E-02 0. -1.
        1   -1    0    0  501    0  0.00000000000E+00  0.00000000000E+00 -0.12186780796E+04  0.12186780796E+04  0.50400001928E-02 0.  1.
    10030    2    1    2    0    0  0.00000000000E+00  0.00000000000E+00 -0.64355094318E+03  0.17938052161E+04  0.16743892429E+04 0.  0.
        2    1    3    3  502    0 -0.74912122284E+03 -0.34648168917E+03 -0.17155121390E+03  0.84300770248E+03  0.25500000920E-02 0. -1.
       -2    1    3    3    0  502  0.74912122284E+03  0.34648168917E+03 -0.47199972928E+03  0.95079751361E+03  0.25500000920E-02 0.  1.
</event>
<event>
 5   0  0.2317458E-04  0.1922015E+04  0.7818609E-02  0.8643975E-01
        1   -1    0    0  501    0  0.00000000000E+00  0.00000000000E+00  0.22203534963E+04  0.22203534963E+04  0.50400001928E-02 0. -1.
       -1   -1    0    0    0  501  0.00000000000E+00  0.00000000000E+00 -0.41594069526E+03  0.41594069529E+03  0.50400001928E-02 0.  1.
    10030    2    1    2    0    0  0.00000000000E+00  0.00000000000E+00  0.18044128011E+04  0.26362941916E+04  0.19220149604E+04 0.  0.
        3    1    3    3  502    0  0.42645432714E+03  0.35806974323E+03  0.19765162889E+04  0.20534590049E+04  0.10100000352E+00 0. -1.
       -3    1    3    3    0  502 -0.42645432714E+03 -0.35806974323E+03 -0.17210348786E+03  0.58283518673E+03  0.10100000352E+00 0.  1.
</event>
<event>
 5   0  0.4829134E-04  0.1929646E+04  0.7818609E-02  0.8640239E-01
        2   -1    0    0  501    0  0.00000000000E+00  0.00000000000E+00  0.18426850174E+04  0.18426850174E+04  0.25500000920E-02 0.  1.
       -2   -1    0    0    0  501  0.00000000000E+00  0.00000000000E+00 -0.50517763085E+03  0.50517763086E+03  0.25500000920E-02 0. -1.
    10030    2    1    2    0    0  0.00000000000E+00  0.00000000000E+00  0.13375073866E+04  0.23478626483E+04  0.19296458240E+04 0.  0.
        2    1    3    3  502    0 -0.91492915534E+02 -0.93210888927E+03  0.95067171653E+03  0.13345316211E+04  0.25500000920E-02 0.  1.
       -2    1    3    3    0  502  0.91492915534E+02  0.93210888927E+03  0.38683567003E+03  0.10133310272E+04  0.25500000920E-02 0. -1.
</event>
<event>
 5   0  0.4761944E-04  0.9473383E+03  0.7818609E-02  0.9368267E-01
       -2   -1    0    0    0  501  0.00000000000E+00  0.00000000000E+00  0.19191942512E+03  0.19191942514E+03  0.25500000920E-02 0.  1.
        2   -1    0    0  501    0  0.00000000000E+00  0.00000000000E+00 -0.11690450373E+04  0.11690450373E+04  0.25500000920E-02 0. -1.
    10030    2    1    2    0    0  0.00000000000E+00  0.00000000000E+00 -0.97712561215E+03  0.13609644624E+04  0.94733827435E+03 0.  0.
        4    1    3    3  502    0  0.42807926419E+03 -0.16975594688E+03 -0.64783912949E+03  0.79483714592E+03  0.12699999809E+01 0. -1.
       -4    1    3    3    0  502 -0.42807926419E+03  0.16975594688E+03 -0.32928648266E+03  0.56612731650E+03  0.12699999809E+01 0.  1.
</event>
<event>
 5   0  0.2261755E-04  0.1897429E+04  0.7818609E-02  0.8656137E-01
        1   -1    0    0  501    0  0.00000000000E+00  0.00000000000E+00  0.16417097922E+04  0.16417097922E+04  0.50400001928E-02 0. -1.
       -1   -1    0    0    0  501  0.00000000000E+00  0.00000000000E+00 -0.54824492140E+03  0.54824492143E+03  0.50400001928E-02 0.  1.
    10030    2    1    2    0    0  0.00000000000E+00  0.00000000000E+00  0.10934648708E+04  0.21899547137E+04  0.18974288456E+04 0.  0.
        1    1    3    3  502    0  0.63604227355E+03 -0.63999598989E+03  0.20843192377E+03  0.92606074730E+03  0.50400001928E-02 0.  1.
       -1    1    3    3    0  502 -0.63604227355E+03  0.63999598989E+03  0.88503294707E+03  0.12638939664E+04  0.50400001928E-02 0. -1.
</event>
<event>
 5   0  0.2261755E-04  0.1848468E+04  0.7818609E-02  0.8680941E-01
        1   -1    0    0  501    0  0.00000000000E+00  0.00000000000E+00  0.14681301016E+04  0.14681301016E+04  0.50400001928E-02 0. -1.
       -1   -1    0    0    0  501  0.00000000000E+00  0.00000000000E+00 -0.58183424901E+03  0.58183424903E+03  0.50400001928E-02 0.  1.
    10030    2    1    2    0    0  0.00000000000E+00  0.00000000000E+00  0.88629585260E+03  0.20499643506E+04  0.18484678792E+04 0.  0.
        1    1    3    3  502    0 -0.36893312990E+03  0.33652881943E+03  0.13056427048E+04  0.13978791698E+04  0.50400001928E-02 0. -1.
       -1    1    3    3    0  502  0.36893312990E+03 -0.33652881943E+03 -0.41934685221E+03  0.65208518088E+03  0.50400001928E-02 0.  1.
</event>
<event>
 5   0  0.4802635E-04  0.1840271E+04  0.7818609E-02  0.8685172E-01
        2   -1    0    0  501    0  0.00000000000E+00  0.00000000000E+00  0.69586036325E+03  0.69586036325E+03  0.25500000920E-02 0.  1.
       -2   -1    0    0    0  501  0.00000000000E+00  0.00000000000E+00 -0.12166940762E+04  0.12166940762E+04  0.25500000920E-02 0. -1.
    10030    2    1    2    0    0  0.00000000000E+00  0.00000000000E+00 -0.52083371294E+03  0.19125544394E+04  0.18402708299E+04 0.  0.
        3    1    3    3  502    0  0.63705013833E+03 -0.47419369576E+03  0.22254778470E+03  0.82475454926E+03  0.10100000352E+00 0.  1.
       -3    1    3    3    0  502 -0.63705013833E+03  0.47419369576E+03 -0.74338149764E+03  0.10877998902E+04  0.10100000352E+00 0. -1.
</event>
<event>
 5   0  0.2510069E-04  0.1959149E+04  0.7818609E-02  0.8625962E-01
       -1   -1    0    0    0  501  0.00000000000E+00  0.00000000000E+00  0.95061684070E+03  0.95061684072E+03  0.50400001928E-02 0. -1.
        1   -1    0    0  501    0  0.00000000000E+00  0.00000000000E+00 -0.10094140227E+04  0.10094140228E+04  0.50400001928E-02 0.  1.
    10030    2    1    2    0    0  0.00000000000E+00  0.00000000000E+00 -0.58797182045E+02  0.19600308635E+04  0.19591487634E+04 0.  0.
        4    1    3    3  502    0  0.34112227583E+03  0.18366235136E+03 -0.92950812581E+03  0.10070169985E+04  0.12699999809E+01 0.  1.
       -4    1    3    3    0  502 -0.34112227583E+03 -0.18366235136E+03  0.87071094377E+03  0.95301386499E+03  0.12699999809E+01 0. -1.
</event>
<event>
 5   0  0.2317458E-04  0.1594010E+04  0.7818609E-02  0.8824237E-01
       -1   -1    0    0    0  501  0.00000000000E+00  0.00000000000E+00  0.45783039682E+03  0.45783039685E+03  0.50400001928E-02 0. -1.
        1   -1    0    0  501    0  0.00000000000E+00  0.00000000000E+00 -0.13874498525E+04  0.13874498525E+04  0.50400001928E-02 0.  1.
    10030    2    1    2    0    0  0.00000000000E+00  0.00000000000E+00 -0.92961945570E+03  0.18452802494E+04  0.15940096820E+04 0.  0.
        3    1    3    3  502    0 -0.70725878640E+03  0.11762431571E+03 -0.86776995852E+03  0.11256443407E+04  0.10100000352E+00 0.  1.
       -3    1    3    3    0  502  0.70725878640E+03 -0.11762431571E+03 -0.61849497175E+02  0.71963590870E+03  0.10100000352E+00 0. -1.
</event>
<event>
 5   0  0.2261755E-04  0.1623424E+04  0.7818609E-02  0.8806286E-01
        1   -1    0    0  501    0  0.00000000000E+00  0.00000000000E+00  0.21100232613E+04  0.21100232613E+04  0.50400001928E-02 0.  1.
       -1   -1    0    0    0  501  0.00000000000E+00  0.00000000000E+00 -0.31226007276E+03  0.31226007280E+03  0.50400001928E-02 0. -1.
    10030    2    1    2    0    0  0.00000000000E+00  0.00000000000E+00  0.17977631885E+04  0.24222833341E+04  0.16234235641E+04 0.  0.
        1    1    3    3  502    0  0.95069034278E+02  0.30554959887E+02  0.21008233375E+04  0.21031952886E+04  0.50400001928E-02 0.  1.
       -1    1    3    3    0  502 -0.95069034278E+02 -0.30554959887E+02 -0.30306014895E+03  0.31908804546E+03  0.50400001928E-02 0. -1.
</event>
<event>
 5   0  0.2317458E-04  0.1893003E+04  0.7818609E-02  0.8658347E-01
        1   -1    0    0  501    0  0.00000000000E+00  0.00000000000E+00  0.76670848038E+03  0.76670848040E+03  0.50400001928E-02 0.  1.
       -1   -1    0    0    0  501  0.00000000000E+00  0.00000000000E+00 -0.11684562820E+04  0.11684562820E+04  0.50400001928E-02 0. -1.
    10030    2    1    2    0    0  0.00000000000E+00  0.00000000000E+00 -0.40174780165E+03  0.19351647624E+04  0.18930032651E+04 0.  0.
        3    1    3    3  502    0 -0.45981447297E+03 -0.82159866312E+03 -0.10169969831E+03  0.94699342745E+03  0.10100000352E+00 0. -1.
       -3    1    3    3    0  502  0.45981447297E+03  0.82159866312E+03 -0.30004810335E+03  0.98817133500E+03  0.10100000352E+00 0.  1.
</event>
<event>
 5   0  0.1729375E-04  0.1764678E+04  0.7818609E-02  0.8725312E-01
       -4   -1    0    0    0  501  0.00000000000E+00  0.00000000000E+00  0.90102074270E+03  0.90102163774E+03  0.12699999809E+01 0.  1.
        4   -1    0    0  501    0  0.00000000000E+00  0.00000000000E+00 -0.86404309115E+03  0.86404402449E+03  0.12699999809E+01 0. -1.
    10030    2    1    2    0    0  0.00000000000E+00  0.00000000000E+00  0.36977651555E+02  0.17650656622E+04  0.17646782838E+04 0.  0.
        2    1    3    3  502    0  0.77944324873E+03  0.29370549024E+03 -0.27265524660E+03  0.87643344100E+03  0.25500000920E-02 0. -1.
       -2    1    3    3    0  502 -0.77944324873E+03 -0.29370549024E+03  0.30963289816E+03  0.88863222124E+03  0.25500000920E-02 0.  1.
</event>
<event>
 5   0  0.2510069E-04  0.1846786E+04  0.7818609E-02  0.8681807E-01
        1   -1    0    0  501    0  0.00000000000E+00  0.00000000000E+00  0.16251054868E+04  0.16251054868E+04  0.50400001928E-02 0. -1.
       -1   -1    0    0    0  501  0.00000000000E+00  0.00000000000E+00 -0.52467673810E+03  0.52467673813E+03  0.50400001928E-02 0.  1.
    10030    2    1    2    0    0  0.00000000000E+00  0.00000000000E+00  0.11004287487E+04  0.21497822250E+04  0.18467864478E+04 0.  0.
        4    1    3    3  502    0 -0.36446984882E+03 -0.27568385665E+03 -0.38380923296E+03  0.59678388024E+03  0.12699999809E+01 0.  1.
       -4    1    3    3    0  502  0.36446984882E+03  0.27568385665E+03  0.14842379817E+04  0.15529983447E+04  0.12699999809E+01 0. -1.
</event>
<event>
 5   0  0.2261755E-04  0.1822923E+04  0.7818609E-02  0.8694204E-01
        1   -1    0    0  501    0  0.00000000000E+00  0.00000000000E+00  0.25865254525E+04  0.25865254525E+04  0.50400001928E-02 0.  1.
       -1   -1    0    0    0  501  0.00000000000E+00  0.00000000000E+00 -0.32118829994E+03  0.32118829998E+03  0.50400001928E-02 0. -1.
    10030    2    1    2    0    0  0.00000000000E+00  0.00000000000E+00  0.22653371525E+04  0.29077137525E+04  0.18229226126E+04 0.  0.
        1    1    3    3  502    0 -0.56965389115E+03 -0.54881892412E+03  0.41036879466E+03  0.89112867468E+03  0.50400001928E-02 0. -1.
       -1    1    3    3    0  502  0.56965389115E+03  0.54881892412E+03  0.18549683579E+04  0.20165850778E+04  0.50400001928E-02 0.  1.
</event>
<event>
 5   0  0.2317458E-04  0.2138243E+04  0.7818609E-02  0.8544582E-01
       -1   -1    0    0    0  501  0.00000000000E+00  0.00000000000E+00  0.62847906269E+03  0.62847906271E+03  0.50400001928E-02 0.  1.
        1   -1    0    0  501    0  0.00000000000E+00  0.00000000000E+00 -0.18187086843E+04  0.18187086844E+04  0.50400001928E-02 0. -1.
    10030    2    1    2    0    0  0.00000000000E+00  0.00000000000E+00 -0.11902296217E+04  0.24471877471E+04  0.21382425768E+04 0.  0.
        3    1    3    3  502    0 -0.95569439240E+03 -0.70643402891E+02 -0.11376034484E+04  0.14874420587E+04  0.10100000352E+00 0. -1.
       -3    1    3    3    0  502  0.95569439240E+03  0.70643402891E+02 -0.52626173295E+02  0.95974568837E+03  0.10100000352E+00 0.  1.
</event>
<event>
 5   0  0.4839293E-04  0.1909992E+04  0.7818609E-02  0.8649899E-01
       -2   -1    0    0    0  501  0.00000000000E+00  0.00000000000E+00  0.94790466746E+03  0.94790466746E+03  0.25500000920E-02 0. -1.
        2   -1    0    0  501    0  0.00000000000E+00  0.00000000000E+00 -0.96213991008E+03  0.96213991009E+03  0.25500000920E-02 0.  1.
    10030    2    1    2    0    0  0.00000000000E+00  0.00000000000E+00 -0.14235242629E+02  0.19100445775E+04  0.19099915304E+04 0.  0.
        5    1    3    3  502    0  0.93390323286E+03  0.19954842131E+03 -0.71445973057E+01  0.95502248982E+03  0.46999998093E+01 0.  1.
       -5    1    3    3    0  502 -0.93390323286E+03 -0.19954842131E+03 -0.70906453234E+01  0.95502208773E+03  0.46999998093E+01 0. -1.
</event>
<event>
 5   0  0.4761944E-04  0.1886317E+04  0.7818609E-02  0.8661698E-01
        2   -1    0    0  501    0  0.00000000000E+00  0.00000000000E+00  0.94352864829E+03  0.94352864829E+03  0.25500000920E-02 0. -1.
       -2   -1    0    0    0  501  0.00000000000E+00  0.00000000000E+00 -0.94278808823E+03  0.94278808823E+03  0.25500000920E-02 0.  1.
    10030    2    1    2    0    0  0.00000000000E+00  0.00000000000E+00  0.74056006031E+00  0.18863167365E+04  0.18863165912E+04 0.  0.
        4    1    3    3  502    0 -0.72266550158E+03 -0.38797179594E+02  0.60518046983E+03  0.94339581422E+03  0.12699999809E+01 0. -1.
       -4    1    3    3    0  502  0.72266550158E+03  0.38797179594E+02 -0.60443990977E+03  0.94292092231E+03  0.12699999809E+01 0.  1.
</event>
<event>
 5   0  0.2355414E-04  0.1931952E+04  0.7818609E-02  0.8639113E-01
        1   -1    0    0  501    0  0.00000000000E+00  0.00000000000E+00  0.18735177641E+04  0.18735177641E+04  0.50400001928E-02 0. -1.
       -1   -1    0    0    0  501  0.00000000000E+00  0.00000000000E+00 -0.49805229449E+03  0.49805229452E+03  0.50400001928E-02 0.  1.
    10030    2    1    2    0    0  0.00000000000E+00  0.00000000000E+00  0.13754654696E+04  0.23715700586E+04  0.19319521953E+04 0.  0.
        5    1    3    3  502    0  0.49753605301E+03 -0.89856022482E+02 -0.32264809699E+03  0.59978338866E+03  0.46999998093E+01 0.  1.
       -5    1    3    3    0  502 -0.49753605301E+03  0.89856022482E+02  0.16981135666E+04  0.17717866699E+04  0.46999998093E+01 0. -1.
</event>
<event>
 5   0  0.4761944E-04  0.1772541E+04  0.7818609E-02  0.8721040E-01
       -2   -1    0    0    0  501  0.00000000000E+00  0.00000000000E+00  0.16147169238E+04  0.16147169238E+04  0.25500000920E-02 0.  1.
        2   -1    0    0  501    0  0.00000000000E+00  0.00000000000E+00 -0.48644748967E+03  0.48644748967E+03  0.25500000920E-02 0. -1.
    10030    2    1    2    0    0  0.00000000000E+00  0.00000000000E+00  0.11282694341E+04  0.21011644135E+04  0.17725405430E+04 0.  0.
        4    1    3    3  502    0  0.99899451694E+02  0.22815073484E+03  0.15723779949E+04  0.15919820445E+04  0.12699999809E+01 0.  1.
       -4    1    3    3    0  502 -0.99899451694E+02 -0.22815073484E+03 -0.44410856075E+03  0.50918236899E+03  0.12699999809E+01 0. -1.
</event>
<event>
 5   0  0.2317458E-04  0.2035383E+04  0.7818609E-02  0.8590254E-01
       -1   -1    0    0    0  501  0.00000000000E+00  0.00000000000E+00  0.54191433546E+03  0.54191433549E+03  0.50400001928E-02 0. -1.
        1   -1    0    0  501    0  0.00000000000E+00  0.00000000000E+00 -0.19111797466E+04  0.19111797466E+04  0.50400001928E-02 0.  1.
    10030    2    1    2    0    0  0.00000000000E+00  0.00000000000E+00 -0.13692654112E+04  0.24530940821E+04  0.20353827182E+04 0.  0.
        3    1    3    3  502    0 -0.85907861618E+03  0.19047203786E+02 -0.27462497579E+02  0.85972848256E+03  0.10100000352E+00 0. -1.
       -3    1    3    3    0  502  0.85907861618E+03 -0.19047203786E+02 -0.13418029136E+04  0.15933655996E+04  0.10100000352E+00 0.  1.
</event>
<event>
 5   0  0.4829134E-04  0.1328874E+04  0.7818609E-02  0.9006976E-01
       -2   -1    0    0    0  501  0.00000000000E+00  0.00000000000E+00  0.78076029311E+03  0.78076029312E+03  0.25500000920E-02 0. -1.
        2   -1    0    0  501    0  0.00000000000E+00  0.00000000000E+00 -0.56544406387E+03  0.56544406388E+03  0.25500000920E-02 0.  1.
    10030    2    1    2    0    0  0.00000000000E+00  0.00000000000E+00  0.21531622924E+03  0.13462043570E+04  0.13288736179E+04 0.  0.
        2    1    3    3  502    0  0.63444441728E+03  0.28508850650E+02 -0.90193359276E+02  0.64145718115E+03  0.25500000920E-02 0.  1.
       -2    1    3    3    0  502 -0.63444441728E+03 -0.28508850650E+02  0.30550958852E+03  0.70474717585E+03  0.25500000920E-02 0. -1.
</event>
<event>
 5   0  0.4973411E-04  0.1886507E+04  0.7818609E-02  0.8661602E-01
       -2   -1    0    0    0  501  0.00000000000E+00  0.00000000000E+00  0.41832034606E+03  0.41832034606E+03  0.25500000920E-02 0. -1.
        2   -1    0    0  501    0  0.00000000000E+00  0.00000000000E+00 -0.21269043177E+04  0.21269043177E+04  0.25500000920E-02 0.  1.
    10030    2    1    2    0    0  0.00000000000E+00  0.00000000000E+00 -0.17085839716E+04  0.25452246638E+04  0.18865071961E+04 0.  0.
        1    1    3    3  502    0 -0.15722453047E+03 -0.70290159940E+03 -0.16760005543E+04  0.18242171114E+04  0.50400001928E-02 0.  1.
       -1    1    3    3    0  502  0.15722453047E+03  0.70290159940E+03 -0.32583417299E+02  0.72100755234E+03  0.50400001928E-02 0. -1.
</event>
<event>
 5   0  0.2510069E-04  0.1864187E+04  0.7818609E-02  0.8672891E-01
       -1   -1    0    0    0  501  0.00000000000E+00  0.00000000000E+00  0.82377677323E+03  0.82377677325E+03  0.50400001928E-02 0. -1.
        1   -1    0    0  501    0  0.00000000000E+00  0.00000000000E+00 -0.10546521915E+04  0.10546521915E+04  0.50400001928E-02 0.  1.
    10030    2    1    2    0    0  0.00000000000E+00  0.00000000000E+00 -0.23087541823E+03  0.18784289647E+04  0.18641866636E+04 0.  0.
        4    1    3    3  502    0 -0.17870731478E+03  0.83383472862E+03 -0.49458319061E+03  0.98581479212E+03  0.12699999809E+01 0.  1.
       -4    1    3    3    0  502  0.17870731478E+03 -0.83383472862E+03  0.26370777239E+03  0.89261417260E+03  0.12699999809E+01 0. -1.
</event>
<event>
 5   0  0.4973411E-04  0.1815477E+04  0.7818609E-02  0.8698112E-01
        2   -1    0    0  501    0  0.00000000000E+00  0.00000000000E+00  0.19940330051E+04  0.19940330051E+04  0.25500000920E-02 0. -1.
       -2   -1    0    0    0  501  0.00000000000E+00  0.00000000000E+00 -0.41322761596E+03  0.41322761597E+03  0.25500000920E-02 0.  1.
    10030    2    1    2    0    0  0.00000000000E+00  0.00000000000E+00  0.15808053891E+04  0.24072606211E+04  0.18154773530E+04 0.  0.
        1    1    3    3  502    0 -0.44624147864E+03  0.62422620491E+03  0.14734394636E+03  0.78134502667E+03  0.50400001928E-02 0.  1.
       -1    1    3    3    0  502  0.44624147864E+03 -0.62422620491E+03  0.14334614428E+04  0.16259155944E+04  0.50400001928E-02 0. -1.
</event>
<event>
 5   0  0.2376359E-04  0.1911098E+04  0.7818609E-02  0.8649352E-01
        1   -1    0    0  501    0  0.00000000000E+00  0.00000000000E+00  0.14656364875E+04  0.14656364875E+04  0.50400001928E-02 0. -1.
       -1   -1    0    0    0  501  0.00000000000E+00  0.00000000000E+00 -0.62298770293E+03  0.62298770295E+03  0.50400001928E-02 0.  1.
    10030    2    1    2    0    0  0.00000000000E+00  0.00000000000E+00  0.84264878454E+03  0.20886241904E+04  0.19110975995E+04 0.  0.
        2    1    3    3  502    0 -0.44762654454E+03  0.84127932254E+03  0.34440862012E+03  0.10132806716E+04  0.25500000920E-02 0.  1.
       -2    1    3    3    0  502  0.44762654454E+03 -0.84127932254E+03  0.49824016442E+03  0.10753435188E+04  0.25500000920E-02 0. -1.
</event>
<event>
 5   0  0.4761944E-04  0.1822852E+04  0.7818609E-02  0.8694241E-01
        2   -1    0    0  501    0  0.00000000000E+00  0.00000000000E+00  0.55998708181E+03  0.55998708182E+03  0.25500000920E-02 0.  1.
       -2   -1    0    0    0  501  0.00000000000E+00  0.00000000000E+00 -0.14834225539E+04  0.14834225539E+04  0.25500000920E-02 0. -1.
    10030    2    1    2    0    0  0.00000000000E+00  0.00000000000E+00 -0.92343547209E+03  0.20434096357E+04  0.18228521246E+04 0.  0.
        4    1    3    3  502    0  0.20498034003E+03 -0.65911953017E+03  0.20547762503E+03  0.72019314225E+03  0.12699999809E+01 0.  1.
       -4    1    3    3    0  502 -0.20498034003E+03  0.65911953017E+03 -0.11289130971E+04  0.13232164935E+04  0.12699999809E+01 0. -1.
</event>
<event>
 5   0  0.4802635E-04  0.1645064E+04  0.7818609E-02  0.8793332E-01
        2   -1    0    0  501    0  0.00000000000E+00  0.00000000000E+00  0.15075245299E+04  0.15075245299E+04  0.25500000920E-02 0. -1.
       -2   -1    0    0    0  501  0.00000000000E+00  0.00000000000E+00 -0.44878801795E+03  0.44878801796E+03  0.25500000920E-02 0.  1.
    10030    2    1    2    0    0  0.00000000000E+00  0.00000000000E+00  0.10587365119E+04  0.19563125478E+04  0.16450640666E+04 0.  0.
        3    1    3    3  502    0  0.64234441414E+03  0.16586651544E+03 -0.48883174163E+02  0.66521246399E+03  0.10100000352E+00 0.  1.
       -3    1    3    3    0  502 -0.64234441414E+03 -0.16586651544E+03  0.11076196861E+04  0.12911000839E+04  0.10100000352E+00 0. -1.
</event>
<event>
 5   0  0.2376359E-04  0.1903458E+04  0.7818609E-02  0.8653137E-01
       -1   -1    0    0    0  501  0.00000000000E+00  0.00000000000E+00  0.71510286510E+03  0.71510286512E+03  0.50400001928E-02 0.  1.
        1   -1    0    0  501    0  0.00000000000E+00  0.00000000000E+00 -0.12666548256E+04  0.12666548256E+04  0.50400001928E-02 0. -1.
    10030    2    1    2    0    0  0.00000000000E+00  0.00000000000E+00 -0.55155196048E+03  0.19817576907E+04  0.19034584260E+04 0.  0.
        2    1    3    3  502    0  0.66374357378E+03 -0.77485622292E+01 -0.98586757190E+03  0.11885076530E+04  0.25500000920E-02 0. -1.
       -2    1    3    3    0  502 -0.66374357378E+03  0.77485622292E+01  0.43431561142E+03  0.79325003768E+03  0.25500000920E-02 0.  1.
</event>
<event>
 5   0  0.2510069E-04  0.2328053E+04  0.7818609E-02  0.8466942E-01
        1   -1    0    0  501    0  0.00000000000E+00  0.00000000000E+00  0.28620968690E+04  0.28620968690E+04  0.50400001928E-02 0.  1.
       -1   -1    0    0    0  501  0.00000000000E+00  0.00000000000E+00 -0.47341445222E+03  0.47341445225E+03  0.50400001928E-02 0. -1.
    10030    2    1    2    0    0  0.00000000000E+00  0.00000000000E+00  0.23886824168E+04  0.33355113213E+04  0.23280532825E+04 0.  0.
        4    1    3    3  502    0 -0.29294266017E+03  0.87636985204E+03  0.22085772118E+04  0.23940873905E+04  0.12699999809E+01 0.  1.
       -4    1    3    3    0  502  0.29294266017E+03 -0.87636985204E+03  0.18010520497E+03  0.94142393080E+03  0.12699999809E+01 0. -1.
</event>
<event>
 5   0  0.2317458E-04  0.1903820E+04  0.7818609E-02  0.8652957E-01
       -1   -1    0    0    0  501  0.00000000000E+00  0.00000000000E+00  0.95215525016E+03  0.95215525018E+03  0.50400001928E-02 0. -1.
        1   -1    0    0  501    0  0.00000000000E+00  0.00000000000E+00 -0.95166464209E+03  0.95166464210E+03  0.50400001928E-02 0.  1.
    10030    2    1    2    0    0  0.00000000000E+00  0.00000000000E+00  0.49060807253E+00  0.19038198923E+04  0.19038198291E+04 0.  0.
        3    1    3    3  502    0  0.60338616983E+03 -0.51642785043E+03 -0.52450215792E+03  0.95177472046E+03  0.10100000352E+00 0.  1.
       -3    1    3    3    0  502 -0.60338616983E+03  0.51642785043E+03  0.52499276599E+03  0.95204517182E+03  0.10100000352E+00 0. -1.
</event>
<event>
 5   0  0.2317458E-04  0.1822502E+04  0.7818609E-02  0.8694424E-01
       -1   -1    0    0    0  501  0.00000000000E+00  0.00000000000E+00  0.81376212469E+03  0.81376212470E+03  0.50400001928E-02 0. -1.
        1   -1    0    0  501    0  0.00000000000E+00  0.00000000000E+00 -0.10204187436E+04  0.10204187436E+04  0.50400001928E-02 0.  1.
    10030    2    1    2    0    0  0.00000000000E+00  0.00000000000E+00 -0.20665661890E+03  0.18341808683E+04  0.18225017145E+04 0.  0.
        3    1    3    3  502    0 -0.55742922791E+03  0.49776013664E+03  0.42143967382E+03  0.85796497984E+03  0.10100000352E+00 0. -1.
       -3    1    3    3    0  502  0.55742922791E+03 -0.49776013664E+03 -0.62809629272E+03  0.97621588846E+03  0.10100000352E+00 0.  1.
</event>
<event>
 5   0  0.4802635E-04  0.1841497E+04  0.7818609E-02  0.8684538E-01
        2   -1    0    0  501    0  0.00000000000E+00  0.00000000000E+00  0.14426989202E+04  0.14426989202E+04  0.25500000920E-02 0.  1.
       -2   -1    0    0    0  501  0.00000000000E+00  0.00000000000E+00 -0.58763298275E+03  0.58763298275E+03  0.25500000920E-02 0. -1.
    10030    2    1    2    0    0  0.00000000000E+00  0.00000000000E+00  0.85506593744E+03  0.20303319029E+04  0.18414966410E+04 0.  0.
        3    1    3    3  502    0  0.69697055855E+03 -0.82656749491E+02  0.10846137219E+04  0.12918928105E+04  0.10100000352E+00 0.  1.
       -3    1    3    3    0  502 -0.69697055855E+03  0.82656749491E+02 -0.22954778449E+03  0.73843909247E+03  0.10100000352E+00 0. -1.
</event>
<event>
 5   0  0.4839293E-04  0.1965810E+04  0.7818609E-02  0.8622774E-01
       -2   -1    0    0    0  501  0.00000000000E+00  0.00000000000E+00  0.53130697874E+03  0.53130697875E+03  0.25500000920E-02 0. -1.
        2   -1    0    0  501    0  0.00000000000E+00  0.00000000000E+00 -0.18183505266E+04  0.18183505266E+04  0.25500000920E-02 0.  1.
    10030    2    1    2    0    0  0.00000000000E+00  0.00000000000E+00 -0.12870435478E+04  0.23496575053E+04  0.19658100870E+04 0.  0.
        5    1    3    3  502    0  0.65452880857E+03  0.99322951300E+02  0.22483994294E+03  0.69917673005E+03  0.46999998093E+01 0. -1.
       -5    1    3    3    0  502 -0.65452880857E+03 -0.99322951300E+02 -0.15118834908E+04  0.16504807753E+04  0.46999998093E+01 0.  1.
</event>
<event>
 5   0  0.4829134E-04  0.1874537E+04  0.7818609E-02  0.8667636E-01
       -2   -1    0    0    0  501  0.00000000000E+00  0.00000000000E+00  0.12822912759E+04  0.12822912759E+04  0.25500000920E-02 0. -1.
        2   -1    0    0  501    0  0.00000000000E+00  0.00000000000E+00 -0.68507997335E+03  0.68507997335E+03  0.25500000920E-02 0.  1.
    10030    2    1    2    0    0  0.00000000000E+00  0.00000000000E+00  0.59721130255E+03  0.19673712492E+04  0.18745368208E+04 0.  0.
        2    1    3    3  502    0  0.77864784890E+03  0.15404326970E+03 -0.22452730774E+03  0.82488442430E+03  0.25500000920E-02 0.  1.
       -2    1    3    3    0  502 -0.77864784890E+03 -0.15404326970E+03  0.82173861029E+03  0.11424868249E+04  0.25500000920E-02 0. -1.
</event>
<event>
 5   0  0.2261755E-04  0.1939587E+04  0.7818609E-02  0.8635399E-01
       -1   -1    0    0    0  501  0.00000000000E+00  0.00000000000E+00  0.11933952104E+04  0.11933952104E+04  0.50400001928E-02 0. -1.
        1   -1    0    0  501    0  0.00000000000E+00  0.00000000000E+00 -0.78808680811E+03  0.78808680812E+03  0.50400001928E-02 0.  1.
    10030    2    1    2    0    0  0.00000000000E+00  0.00000000000E+00  0.40530840230E+03  0.19814820185E+04  0.19395865768E+04 0.  0.
        1    1    3    3  502    0  0.85328875444E+03  0.32931527214E+03  0.53202921751E+03  0.10581140464E+04  0.50400001928E-02 0. -1.
       -1    1    3    3    0  502 -0.85328875444E+03 -0.32931527214E+03 -0.12672081521E+03  0.92336797212E+03  0.50400001928E-02 0.  1.
</event>
<event>
 5   0  0.4829134E-04  0.1890881E+04  0.7818609E-02  0.8659409E-01
       -2   -1    0    0    0  501  0.00000000000E+00  0.00000000000E+00  0.41236676445E+03  0.41236676446E+03  0.25500000920E-02 0.  1.
        2   -1    0    0  501    0  0.00000000000E+00  0.00000000000E+00 -0.21676278133E+04  0.21676278133E+04  0.25500000920E-02 0. -1.
    10030    2    1    2    0    0  0.00000000000E+00  0.00000000000E+00 -0.17552610488E+04  0.25799945777E+04  0.18908809248E+04 0.  0.
        2    1    3    3  502    0  0.40620705402E+03  0.83459673590E+03 -0.63240375456E+03  0.11231608928E+04  0.25500000920E-02 0.  1.
       -2    1    3    3    0  502 -0.40620705402E+03 -0.83459673590E+03 -0.11228572943E+04  0.14568336850E+04  0.25500000920E-02 0. -1.
</event>
<event>
 5   0  0.2261755E-04  0.1932606E+04  0.7818609E-02  0.8638794E-01
       -1   -1    0    0    0  501  0.00000000000E+00  0.00000000000E+00  0.55662686388E+03  0.55662686391E+03  0.50400001928E-02 0. -1.
        1   -1    0    0  501    0  0.00000000000E+00  0.00000000000E+00 -0.16775004864E+04  0.16775004864E+04  0.50400001928E-02 0.  1.
    10030    2    1    2    0    0  0.00000000000E+00  0.00000000000E+00 -0.11208736225E+04  0.22341273503E+04  0.19326063592E+04 0.  0.
        1    1    3    3  502    0 -0.53628286746E+03  0.54624607094E+03  0.12127831468E+03  0.77504355592E+03  0.50400001928E-02 0. -1.
       -1    1    3    3    0  502  0.53628286746E+03 -0.54624607094E+03 -0.12421519372E+04  0.14590837944E+04  0.50400001928E-02 0.  1.
</event>
<event>
 5   0  0.2355414E-04  0.1777206E+04  0.7818609E-02  0.8718516E-01
       -1   -1    0    0    0  501  0.00000000000E+00  0.00000000000E+00  0.39644168237E+03  0.39644168240E+03  0.50400001928E-02 0.  1.
        1   -1    0    0  501    0  0.00000000000E+00  0.00000000000E+00 -0.19917555758E+04  0.19917555758E+04  0.50400001928E-02 0. -1.
    10030    2    1    2    0    0  0.00000000000E+00  0.00000000000E+00 -0.15953138934E+04  0.23881972582E+04  0.17772055946E+04 0.  0.
        5    1    3    3  502    0 -0.51765207560E+03 -0.38898920795E+03 -0.16154041999E+04  0.17403531522E+04  0.46999998093E+01 0. -1.
       -5    1    3    3    0  502  0.51765207560E+03  0.38898920795E+03  0.20090306491E+02  0.64784410600E+03  0.46999998093E+01 0.  1.
</event>
<event>
 5   0  0.4761944E-04  0.1929045E+04  0.7818609E-02  0.8640532E-01
        2   -1    0    0  501    0  0.00000000000E+00  0.00000000000E+00  0.17996497133E+04  0.17996497133E+04  0.25500000920E-02 0.  1.
       -2   -1    0    0    0  501  0.00000000000E+00  0.00000000000E+00 -0.51693614723E+03  0.51693614724E+03  0.25500000920E-02 0. -1.
    10030    2    1    2    0    0  0.00000000000E+00  0.00000000000E+00  0.12827135661E+04  0.23165858606E+04  0.19290453485E+04 0.  0.
        4    1    3    3  502    0 -0.73310697296E+03  0.59181894848E+03  0.88923924652E+03  0.12955475877E+04  0.12699999809E+01 0.  1.
       -4    1    3    3    0  502  0.73310697296E+03 -0.59181894848E+03  0.39347431958E+03  0.10210382729E+04  0.12699999809E+01 0. -1.
</event>
<event>
 5   0  0.2317458E-04  0.1830984E+04  0.7818609E-02  0.8689994E-01
        1   -1    0    0  501    0  0.00000000000E+00  0.00000000000E+00  0.81048134744E+03  0.81048134745E+03  0.50400001928E-02 0. -1.
       -1   -1    0    0    0  501  0.00000000000E+00  0.00000000000E+00 -0.10341079731E+04  0.10341079731E+04  0.50400001928E-02 0.  1.
    10030    2    1    2    0    0  0.00000000000E+00  0.00000000000E+00 -0.22362662562E+03  0.18445893205E+04  0.18309835864E+04 0.  0.
        3    1    3    3  502    0  0.29295938198E+03 -0.86591728745E+03 -0.16205639471E+03  0.92838582145E+03  0.10100000352E+00 0.  1.
       -3    1    3    3    0  502 -0.29295938198E+03  0.86591728745E+03 -0.61570230913E+02  0.91620349908E+03  0.10100000352E+00 0. -1.
</event>
<event>
 5   0  0.1729375E-04  0.1890731E+04  0.7818609E-02  0.8659484E-01
       -3   -1    0    0    0  501  0.00000000000E+00  0.00000000000E+00  0.12898015865E+04  0.12898015905E+04  0.10100000352E+00 0.  1.
        3   -1    0    0  501    0  0.00000000000E+00  0.00000000000E+00 -0.69290960542E+03  0.69290961278E+03  0.10100000352E+00 0. -1.
    10030    2    1    2    0    0  0.00000000000E+00  0.00000000000E+00  0.59689198112E+03  0.19827112033E+04  0.18907309905E+04 0.  0.
        3    1    3    3  502    0 -0.56398532717E+03 -0.54319133042E+03  0.85391239056E+03  0.11585778574E+04  0.10100000352E+00 0.  1.
       -3    1    3    3    0  502  0.56398532717E+03  0.54319133042E+03 -0.25702040944E+03  0.82413334587E+03  0.10100000352E+00 0. -1.
</event>
<event>
 5   0  0.2261755E-04  0.1845567E+04  0.7818609E-02  0.8682436E-01
       -1   -1    0    0    0  501  0.00000000000E+00  0.00000000000E+00  0.47994961910E+03  0.47994961912E+03  0.50400001928E-02 0.  1.
        1   -1    0    0  501    0  0.00000000000E+00  0.00000000000E+00 -0.17742054094E+04  0.17742054094E+04  0.50400001928E-02 0. -1.
    10030    2    1    2    0    0  0.00000000000E+00  0.00000000000E+00 -0.12942557903E+04  0.22541550286E+04  0.18455668078E+04 0.  0.
        1    1    3    3  502    0 -0.91268082463E+03  0.32907498518E+02 -0.48573798840E+03  0.10344131595E+04  0.50400001928E-02 0.  1.
       -1    1    3    3    0  502  0.91268082463E+03 -0.32907498518E+02 -0.80851780192E+03  0.12197418691E+04  0.50400001928E-02 0. -1.
</event>
<event>
 5   0  0.2376359E-04  0.1873603E+04  0.7818609E-02  0.8668108E-01
        1   -1    0    0  501    0  0.00000000000E+00  0.00000000000E+00  0.18302017898E+04  0.18302017898E+04  0.50400001928E-02 0.  1.
       -1   -1    0    0    0  501  0.00000000000E+00  0.00000000000E+00 -0.47950855935E+03  0.47950855938E+03  0.50400001928E-02 0. -1.
    10030    2    1    2    0    0  0.00000000000E+00  0.00000000000E+00  0.13506932305E+04  0.23097103492E+04  0.18736033984E+04 0.  0.
        2    1    3    3  502    0  0.20432781016E+03  0.91023685787E+03  0.78079247442E+03  0.12165187543E+04  0.25500000920E-02 0. -1.
       -2    1    3    3    0  502 -0.20432781016E+03 -0.91023685787E+03  0.56990075606E+03  0.10931915949E+04  0.25500000920E-02 0.  1.
</event>
<event>
 5   0  0.2510069E-04  0.1116755E+04  0.7818609E-02  0.9189013E-01
       -1   -1    0    0    0  501  0.00000000000E+00  0.00000000000E+00  0.27486838062E+03  0.27486838067E+03  0.50400001928E-02 0.  1.
        1   -1    0    0  501    0  0.00000000000E+00  0.00000000000E+00 -0.11343081986E+04  0.11343081986E+04  0.50400001928E-02 0. -1.
    10030    2    1    2    0    0  0.00000000000E+00  0.00000000000E+00 -0.85943981796E+03  0.14091765793E+04  0.11167550451E+04 0.  0.
        4    1    3    3  502    0 -0.11194231573E+03 -0.49178257027E+03 -0.73204453635E+03  0.88897243746E+03  0.12699999809E+01 0. -1.
       -4    1    3    3    0  502  0.11194231573E+03  0.49178257027E+03 -0.12739528162E+03  0.52020414181E+03  0.12699999809E+01 0.  1.
</event>
<event>
 5   0  0.1729375E-04  0.1914399E+04  0.7818609E-02  0.8647722E-01
       -3   -1    0    0    0  501  0.00000000000E+00  0.00000000000E+00  0.48744847600E+03  0.48744848646E+03  0.10100000352E+00 0. -1.
        3   -1    0    0  501    0  0.00000000000E+00  0.00000000000E+00 -0.18796474197E+04  0.18796474224E+04  0.10100000352E+00 0.  1.
    10030    2    1    2    0    0  0.00000000000E+00  0.00000000000E+00 -0.13921989437E+04  0.23670959089E+04  0.19143994210E+04 0.  0.
        2    1    3    3  502    0 -0.82284482003E+03 -0.47092358899E+03 -0.85914780885E+03  0.12794442473E+04  0.25500000920E-02 0.  1.
       -2    1    3    3    0  502  0.82284482003E+03  0.47092358899E+03 -0.53305113485E+03  0.10876516616E+04  0.25500000920E-02 0. -1.
</event>
<event>
 5   0  0.4973411E-04  0.1763967E+04  0.7818609E-02  0.8725699E-01
        2   -1    0    0  501    0  0.00000000000E+00  0.00000000000E+00  0.84416085538E+03  0.84416085539E+03  0.25500000920E-02 0.  1.
       -2   -1    0    0    0  501  0.00000000000E+00  0.00000000000E+00 -0.92150108069E+03  0.92150108069E+03  0.25500000920E-02 0. -1.
    10030    2    1    2    0    0  0.00000000000E+00  0.00000000000E+00 -0.77340225308E+02  0.17656619361E+04  0.17639672792E+04 0.  0.
        1    1    3    3  502    0 -0.47584290570E+03 -0.62245559207E+03 -0.44405018494E+03  0.90058758695E+03  0.50400001928E-02 0. -1.
       -1    1    3    3    0  502  0.47584290570E+03  0.62245559207E+03  0.36670995963E+03  0.86507434913E+03  0.50400001928E-02 0.  1.
</event>
<event>
 5   0  0.2376359E-04  0.1726779E+04  0.7818609E-02  0.8746237E-01
       -1   -1    0    0    0  501  0.00000000000E+00  0.00000000000E+00  0.81606741674E+03  0.81606741676E+03  0.50400001928E-02 0.  1.
        1   -1    0    0  501    0  0.00000000000E+00  0.00000000000E+00 -0.91345614366E+03  0.91345614367E+03  0.50400001928E-02 0. -1.
    10030    2    1    2    0    0  0.00000000000E+00  0.00000000000E+00 -0.97388726913E+02  0.17295235604E+04  0.17267794248E+04 0.  0.
        2    1    3    3  502    0 -0.31380572757E+03  0.28061184470E+03  0.70631040014E+03  0.82224778710E+03  0.25500000920E-02 0.  1.
       -2    1    3    3    0  502  0.31380572757E+03 -0.28061184470E+03 -0.80369912705E+03  0.90727577333E+03  0.25500000920E-02 0. -1.
</event>
<event>
 5   0  0.4802635E-04  0.1909854E+04  0.7818609E-02  0.8649967E-01
       -2   -1    0    0    0  501  0.00000000000E+00  0.00000000000E+00  0.68810681238E+03  0.68810681238E+03  0.25500000920E-02 0. -1.
        2   -1    0    0  501    0  0.00000000000E+00  0.00000000000E+00 -0.13252086601E+04  0.13252086601E+04  0.25500000920E-02 0.  1.
    10030    2    1    2    0    0  0.00000000000E+00  0.00000000000E+00 -0.63710184772E+03  0.20133154725E+04  0.19098535094E+04 0.  0.
        3    1    3    3  502    0  0.28336838954E+03  0.10884815901E+03  0.63589145279E+03  0.70463005602E+03  0.10100000352E+00 0. -1.
       -3    1    3    3    0  502 -0.28336838954E+03 -0.10884815901E+03 -0.12729933005E+04  0.13086854165E+04  0.10100000352E+00 0.  1.
</event>
<event>
 5   0  0.2510069E-04  0.2264485E+04  0.7818609E-02  0.8492057E-01
        1   -1    0    0  501    0  0.00000000000E+00  0.00000000000E+00  0.13071463402E+04  0.13071463402E+04  0.50400001928E-02 0.  1.
       -1   -1    0    0    0  501  0.00000000000E+00  0.00000000000E+00 -0.98074183584E+03  0.98074183586E+03  0.50400001928E-02 0. -1.
    10030    2    1    2    0    0  0.00000000000E+00  0.00000000000E+00  0.32640450432E+03  0.22878881760E+04  0.22644850199E+04 0.  0.
        4    1    3    3  502    0  0.92751649490E+03 -0.44704964749E+03  0.63905952114E+03  0.12118328763E+04  0.12699999809E+01 0.  1.
       -4    1    3    3    0  502 -0.92751649490E+03  0.44704964749E+03 -0.31265501682E+03  0.10760552997E+04  0.12699999809E+01 0. -1.
</event>
<event>
 5   0  0.4973411E-04  0.1904596E+04  0.7818609E-02  0.8652572E-01
        2   -1    0    0  501    0  0.00000000000E+00  0.00000000000E+00  0.20313343050E+04  0.20313343050E+04  0.25500000920E-02 0. -1.
       -2   -1    0    0    0  501  0.00000000000E+00  0.00000000000E+00 -0.44644125656E+03  0.44644125656E+03  0.25500000920E-02 0.  1.
    10030    2    1    2    0    0  0.00000000000E+00  0.00000000000E+00  0.15848930484E+04  0.24777755615E+04  0.19045959567E+04 0.  0.
        1    1    3    3  502    0 -0.30926695294E+03  0.60947308098E+03  0.16551685721E+04  0.17907223366E+04  0.50400001928E-02 0. -1.
       -1    1    3    3    0  502  0.30926695294E+03 -0.60947308098E+03 -0.70275523724E+02  0.68705322492E+03  0.50400001928E-02 0.  1.
</event>
<event>
 5   0  0.2317458E-04  0.1941642E+04  0.7818609E-02  0.8634402E-01
       -1   -1    0    0    0  501  0.00000000000E+00  0.00000000000E+00  0.44646349425E+03  0.44646349428E+03  0.50400001928E-02 0.  1.
        1   -1    0    0  501    0  0.00000000000E+00  0.00000000000E+00 -0.21110191187E+04  0.21110191187E+04  0.50400001928E-02 0. -1.
    10030    2    1    2    0    0  0.00000000000E+00  0.00000000000E+00 -0.16645556244E+04  0.25574826130E+04  0.19416415449E+04 0.  0.
        3    1    3    3  502    0 -0.16231691414E+03  0.67974541025E+02  0.42528034695E+03  0.46025069533E+03  0.10100000352E+00 0.  1.
       -3    1    3    3    0  502  0.16231691414E+03 -0.67974541025E+02 -0.20898359714E+04  0.20972319176E+04  0.10100000352E+00 0. -1.
</event>
<event>
 5   0  0.4761944E-04  0.1187083E+04  0.7818609E-02  0.9124239E-01
        2   -1    0    0  501    0  0.00000000000E+00  0.00000000000E+00  0.11310006493E+04  0.11310006493E+04  0.25500000920E-02 0.  1.
       -2   -1    0    0    0  501  0.00000000000E+00  0.00000000000E+00 -0.31148646450E+03  0.31148646451E+03  0.25500000920E-02 0. -1.
    10030    2    1    2    0    0  0.00000000000E+00  0.00000000000E+00  0.81951418480E+03  0.14424871138E+04  0.11870828001E+04 0.  0.
        4    1    3    3  502    0 -0.41106404884E+03  0.12201462620E+03  0.90845643622E+03  0.10045675342E+04  0.12699999809E+01 0.  1.
       -4    1    3    3    0  502  0.41106404884E+03 -0.12201462620E+03 -0.88942251422E+02  0.43791957965E+03  0.12699999809E+01 0. -1.
</event>
<event>
 5   0  0.4761944E-04  0.1819783E+04  0.7818609E-02  0.8695850E-01
        2   -1    0    0  501    0  0.00000000000E+00  0.00000000000E+00  0.51388062906E+03  0.51388062906E+03  0.25500000920E-02 0.  1.
       -2   -1    0    0    0  501  0.00000000000E+00  0.00000000000E+00 -0.16110786322E+04  0.16110786322E+04  0.25500000920E-02 0. -1.
    10030    2    1    2    0    0  0.00000000000E+00  0.00000000000E+00 -0.10971980032E+04  0.21249592613E+04  0.18197825156E+04 0.  0.
        4    1    3    3  502    0  0.37831087116E+03  0.79791572481E+03 -0.29247089782E+03  0.93023086280E+03  0.12699999809E+01 0.  1.
       -4    1    3    3    0  502 -0.37831087116E+03 -0.79791572481E+03 -0.80472710535E+03  0.11947283985E+04  0.12699999809E+01 0. -1.
</event>
<event>
 5   0  0.4839293E-04  0.1913273E+04  0.7818609E-02  0.8648277E-01
        2   -1    0    0  501    0  0.00000000000E+00  0.00000000000E+00  0.12020009979E+04  0.12020009979E+04  0.25500000920E-02 0. -1.
       -2   -1    0    0    0  501  0.00000000000E+00  0.00000000000E+00 -0.76135849104E+03  0.76135849104E+03  0.25500000920E-02 0.  1.
    10030    2    1    2    0    0  0.00000000000E+00  0.00000000000E+00  0.44064250683E+03  0.19633594889E+04  0.19132732852E+04 0.  0.
        5    1    3    3  502    0  0.72690217193E+03  0.81561763380E+02 -0.41233449857E+03  0.83969096549E+03  0.46999998093E+01 0.  1.
       -5    1    3    3    0  502 -0.72690217193E+03 -0.81561763380E+02  0.85297700540E+03  0.11236685234E+04  0.46999998093E+01 0. -1.
</event>
<event>
 5   0  0.4829134E-04  0.1849523E+04  0.7818609E-02  0.8680398E-01
       -2   -1    0    0    0  501  0.00000000000E+00  0.00000000000E+00  0.88176546722E+03  0.88176546723E+03  0.25500000920E-02 0. -1.
        2   -1    0    0  501    0  0.00000000000E+00  0.00000000000E+00 -0.96985380466E+03  0.96985380466E+03  0.25500000920E-02 0.  1.
    10030    2    1    2    0    0  0.00000000000E+00  0.00000000000E+00 -0.88088337437E+02  0.18516192719E+04  0.18495227419E+04 0.  0.
        2    1    3    3  502    0  0.46387280962E+03 -0.21209261345E+03 -0.81629547170E+03  0.96254847011E+03  0.25500000920E-02 0.  1.
       -2    1    3    3    0  502 -0.46387280962E+03  0.21209261345E+03  0.72820713426E+03  0.88907080178E+03  0.25500000920E-02 0. -1.
</event>
<event>
 5   0  0.4802635E-04  0.1895098E+04  0.7818609E-02  0.8657300E-01
        2   -1    0    0  501    0  0.00000000000E+00  0.00000000000E+00  0.17630391466E+04  0.17630391466E+04  0.25500000920E-02 0. -1.
       -2   -1    0    0    0  501  0.00000000000E+00  0.00000000000E+00 -0.50926215637E+03  0.50926215638E+03  0.25500000920E-02 0.  1.
    10030    2    1    2    0    0  0.00000000000E+00  0.00000000000E+00  0.12537769902E+04  0.22723013029E+04  0.18950980107E+04 0.  0.
        3    1    3    3  502    0  0.85710364483E+03 -0.37444805007E+03  0.80877605607E+03  0.12365098945E+04  0.10100000352E+00 0.  1.
       -3    1    3    3    0  502 -0.85710364483E+03  0.37444805007E+03  0.44500093414E+03  0.10357914084E+04  0.10100000352E+00 0. -1.
</event>
<event>
 5   0  0.4802635E-04  0.1881893E+04  0.7818609E-02  0.8663922E-01
       -2   -1    0    0    0  501  0.00000000000E+00  0.00000000000E+00  0.16714584584E+04  0.16714584584E+04  0.25500000920E-02 0. -1.
        2   -1    0    0  501    0  0.00000000000E+00  0.00000000000E+00 -0.52970531722E+03  0.52970531722E+03  0.25500000920E-02 0.  1.
    10030    2    1    2    0    0  0.00000000000E+00  0.00000000000E+00  0.11417531412E+04  0.22011637756E+04  0.18818931244E+04 0.  0.
        3    1    3    3  502    0  0.84547196210E+03  0.29276764651E+03  0.91157468742E+03  0.12773034700E+04  0.10100000352E+00 0. -1.
       -3    1    3    3    0  502 -0.84547196210E+03 -0.29276764651E+03  0.23017845378E+03  0.92386030564E+03  0.10100000352E+00 0.  1.
</event>
<event>
 5   0  0.4829134E-04  0.1874486E+04  0.7818609E-02  0.8667661E-01
       -2   -1    0    0    0  501  0.00000000000E+00  0.00000000000E+00  0.74822067882E+03  0.74822067882E+03  0.25500000920E-02 0.  1.
        2   -1    0    0  501    0  0.00000000000E+00  0.00000000000E+00 -0.11740182558E+04  0.11740182558E+04  0.25500000920E-02 0. -1.
    10030    2    1    2    0    0  0.00000000000E+00  0.00000000000E+00 -0.42579757694E+03  0.19222389346E+04  0.18744863150E+04 0.  0.
        2    1    3    3  502    0  0.11102954602E+03  0.75916950700E+03 -0.76490433238E+03  0.10833949133E+04  0.25500000920E-02 0. -1.
       -2    1    3    3    0  502 -0.11102954602E+03 -0.75916950700E+03  0.33910675544E+03  0.83884402129E+03  0.25500000920E-02 0.  1.
</event>
<event>
 5   0  0.1729375E-04  0.1771130E+04  0.7818609E-02  0.8721804E-01
        3   -1    0    0  501    0  0.00000000000E+00  0.00000000000E+00  0.14994021111E+04  0.14994021145E+04  0.10100000352E+00 0.  1.
       -3   -1    0    0    0  501  0.00000000000E+00  0.00000000000E+00 -0.52302561888E+03  0.52302562863E+03  0.10100000352E+00 0. -1.
    10030    2    1    2    0    0  0.00000000000E+00  0.00000000000E+00  0.97637649224E+03  0.20224277431E+04  0.17711304079E+04 0.  0.
        5    1    3    3  502    0 -0.23656538507E+03  0.34370144304E+03 -0.40373291362E+03  0.58061710180E+03  0.46999998093E+01 0. -1.
       -5    1    3    3    0  502  0.23656538507E+03 -0.34370144304E+03  0.13801094059E+04  0.14418106413E+04  0.46999998093E+01 0.  1.
</event>
<event>
 5   0  0.1729375E-04  0.1917182E+04  0.7818609E-02  0.8646351E-01
       -4   -1    0    0    0  501  0.00000000000E+00  0.00000000000E+00  0.55210693979E+03  0.55210840046E+03  0.12699999809E+01 0. -1.
        4   -1    0    0  501    0  0.00000000000E+00  0.00000000000E+00 -0.16643424024E+04  0.16643428869E+04  0.12699999809E+01 0.  1.
    10030    2    1    2    0    0  0.00000000000E+00  0.00000000000E+00 -0.11122354626E+04  0.22164512874E+04  0.19171824600E+04 0.  0.
        3    1    3    3  502    0  0.53158239848E+02  0.72601538331E+03  0.16491415754E+03  0.74640526849E+03  0.10100000352E+00 0. -1.
       -3    1    3    3    0  502 -0.53158239848E+02 -0.72601538331E+03 -0.12771496201E+04  0.14700460189E+04  0.10100000352E+00 0.  1.
</event>
<event>
 5   0  0.4802635E-04  0.1889457E+04  0.7818609E-02  0.8660122E-01
        2   -1    0    0  501    0  0.00000000000E+00  0.00000000000E+00  0.13133706020E+04  0.13133706020E+04  0.25500000920E-02 0. -1.
       -2   -1    0    0    0  501  0.00000000000E+00  0.00000000000E+00 -0.67955854379E+03  0.67955854379E+03  0.25500000920E-02 0.  1.
    10030    2    1    2    0    0  0.00000000000E+00  0.00000000000E+00  0.63381205821E+03  0.19929291458E+04  0.18894572911E+04 0.  0.
        3    1    3    3  502    0  0.11732358949E+02  0.26656561296E+03  0.12728012098E+04  0.13004683019E+04  0.10100000352E+00 0. -1.
       -3    1    3    3    0  502 -0.11732358949E+02 -0.26656561296E+03 -0.63898915162E+03  0.69246084391E+03  0.10100000352E+00 0.  1.
</event>
<event>
 5   0  0.2261755E-04  0.1933633E+04  0.7818609E-02  0.8638294E-01
        1   -1    0    0  501    0  0.00000000000E+00  0.00000000000E+00  0.92051299848E+03  0.92051299849E+03  0.50400001928E-02 0. -1.
       -1   -1    0    0    0  501  0.00000000000E+00  0.00000000000E+00 -0.10154490793E+04  0.10154490793E+04  0.50400001928E-02 0.  1.
    10030    2    1    2    0    0  0.00000000000E+00  0.00000000000E+00 -0.94936080850E+02  0.19359620778E+04  0.19336329298E+04 0.  0.
        1    1    3    3  502    0  0.77623948869E+03 -0.40468429079E+03  0.36341264028E+03  0.94783219304E+03  0.50400001928E-02 0. -1.
       -1    1    3    3    0  502 -0.77623948869E+03  0.40468429079E+03 -0.45834872113E+03  0.98812988479E+03  0.50400001928E-02 0.  1.
</event>
<event>
 5   0  0.4973411E-04  0.1967962E+04  0.7818609E-02  0.8621748E-01
       -2   -1    0    0    0  501  0.00000000000E+00  0.00000000000E+00  0.44672380235E+03  0.44672380235E+03  0.25500000920E-02 0. -1.
        2   -1    0    0  501    0  0.00000000000E+00  0.00000000000E+00 -0.21673758925E+04  0.21673758925E+04  0.25500000920E-02 0.  1.
    10030    2    1    2    0    0  0.00000000000E+00  0.00000000000E+00 -0.17206520901E+04  0.26140996948E+04  0.19679617881E+04 0.  0.
        1    1    3    3  502    0  0.31174601347E+03 -0.58864212472E+03 -0.18223635551E+04  0.19402819524E+04  0.50400001928E-02 0.  1.
       -1    1    3    3    0  502 -0.31174601347E+03  0.58864212472E+03  0.10171146494E+03  0.67381774244E+03  0.50400001928E-02 0. -1.
</event>
<event>
 5   0  0.4829134E-04  0.1740948E+04  0.7818609E-02  0.8738349E-01
       -2   -1    0    0    0  501  0.00000000000E+00  0.00000000000E+00  0.51484226741E+03  0.51484226741E+03  0.25500000920E-02 0.  1.
        2   -1    0    0  501    0  0.00000000000E+00  0.00000000000E+00 -0.14717619257E+04  0.14717619257E+04  0.25500000920E-02 0. -1.
    10030    2    1    2    0    0  0.00000000000E+00  0.00000000000E+00 -0.95691965826E+03  0.19866041931E+04  0.17409483012E+04 0.  0.
        2    1    3    3  502    0 -0.10538587496E+03 -0.51399324981E+03 -0.12710389512E+04  0.13750764556E+04  0.25500000920E-02 0. -1.
       -2    1    3    3    0  502  0.10538587496E+03  0.51399324981E+03  0.31411929289E+03  0.61152773745E+03  0.25500000920E-02 0.  1.
</event>
<event>
 5   0  0.2376359E-04  0.1829340E+04  0.7818609E-02  0.8690850E-01
        1   -1    0    0  501    0  0.00000000000E+00  0.00000000000E+00  0.71485205792E+03  0.71485205794E+03  0.50400001928E-02 0.  1.
       -1   -1    0    0    0  501  0.00000000000E+00  0.00000000000E+00 -0.11703419131E+04  0.11703419131E+04  0.50400001928E-02 0. -1.
    10030    2    1    2    0    0  0.00000000000E+00  0.00000000000E+00 -0.45548985515E+03  0.18851939710E+04  0.18293401270E+04 0.  0.
        2    1    3    3  502    0  0.62503746433E+03  0.29443673857E+02  0.45976958757E+03  0.77648363499E+03  0.25500000920E-02 0.  1.
       -2    1    3    3    0  502 -0.62503746433E+03 -0.29443673857E+02 -0.91525944272E+03  0.11087103360E+04  0.25500000920E-02 0. -1.
</event>
<event>
 5   0  0.4839293E-04  0.1887902E+04  0.7818609E-02  0.8660902E-01
       -2   -1    0    0    0  501  0.00000000000E+00  0.00000000000E+00  0.19915614448E+04  0.19915614448E+04  0.25500000920E-02 0. -1.
        2   -1    0    0  501    0  0.00000000000E+00  0.00000000000E+00 -0.44740950707E+03  0.44740950708E+03  0.25500000920E-02 0.  1.
    10030    2    1    2    0    0  0.00000000000E+00  0.00000000000E+00  0.15441519378E+04  0.24389709519E+04  0.18879020360E+04 0.  0.
        5    1    3    3  502    0 -0.85897001498E+02 -0.21138376005E+03  0.19553840007E+04  0.19686569201E+04  0.46999998093E+01 0. -1.
       -5    1    3    3    0  502  0.85897001498E+02  0.21138376005E+03 -0.41123206297E+03  0.47031403178E+03  0.46999998093E+01 0.  1.
</event>
<event>
 5   0  0.2317458E-04  0.1959803E+04  0.7818609E-02  0.8625648E-01
       -1   -1    0    0    0  501  0.00000000000E+00  0.00000000000E+00  0.11904143584E+04  0.11904143584E+04  0.50400001928E-02 0. -1.
        1   -1    0    0  501    0  0.00000000000E+00  0.00000000000E+00 -0.80661532701E+03  0.80661532702E+03  0.50400001928E-02 0.  1.
    10030    2    1    2    0    0  0.00000000000E+00  0.00000000000E+00  0.38379903140E+03  0.19970296854E+04  0.19598025074E+04 0.  0.
        3    1    3    3  502    0  0.56255816259E+03 -0.79060206415E+03  0.52616800885E+02  0.97174680245E+03  0.10100000352E+00 0.  1.
       -3    1    3    3    0  502 -0.56255816259E+03  0.79060206415E+03  0.33118223051E+03  0.10252828830E+04  0.10100000352E+00 0. -1.
</event>
<event>
 5   0  0.2317458E-04  0.1915381E+04  0.7818609E-02  0.8647238E-01
       -1   -1    0    0    0  501  0.00000000000E+00  0.00000000000E+00  0.57594868413E+03  0.57594868416E+03  0.50400001928E-02 0. -1.
        1   -1    0    0  501    0  0.00000000000E+00  0.00000000000E+00 -0.15924536136E+04  0.15924536136E+04  0.50400001928E-02 0.  1.
    10030    2    1    2    0    0  0.00000000000E+00  0.00000000000E+00 -0.10165049295E+04  0.21684022978E+04  0.19153814903E+04 0.  0.
        3    1    3    3  502    0  0.20098779238E+03  0.74433851057E+03  0.13489126198E+03  0.78270784700E+03  0.10100000352E+00 0. -1.
       -3    1    3    3    0  502 -0.20098779238E+03 -0.74433851057E+03 -0.11513961915E+04  0.13856944508E+04  0.10100000352E+00 0.  1.
</event>
<event>
 5   0  0.2510069E-04  0.1785044E+04  0.7818609E-02  0.8714293E-01
       -1   -1    0    0    0  501  0.00000000000E+00  0.00000000000E+00  0.85410101904E+03  0.85410101905E+03  0.50400001928E-02 0.  1.
        1   -1    0    0  501    0  0.00000000000E+00  0.00000000000E+00 -0.93267144945E+03  0.93267144946E+03  0.50400001928E-02 0. -1.
    10030    2    1    2    0    0  0.00000000000E+00  0.00000000000E+00 -0.78570430409E+02  0.17867724685E+04  0.17850441288E+04 0.  0.
        4    1    3    3  502    0  0.25288198308E+03 -0.85565845239E+03 -0.61517934368E+02  0.89436388214E+03  0.12699999809E+01 0. -1.
       -4    1    3    3    0  502 -0.25288198308E+03  0.85565845239E+03 -0.17052496042E+02  0.89240858638E+03  0.12699999809E+01 0.  1.
</event>
<event>
 5   0  0.4761944E-04  0.1846679E+04  0.7818609E-02  0.8681862E-01
       -2   -1    0    0    0  501  0.00000000000E+00  0.00000000000E+00  0.37789186124E+03  0.37789186125E+03  0.25500000920E-02 0.  1.
        2   -1    0    0  501    0  0.00000000000E+00  0.00000000000E+00 -0.22560845681E+04  0.22560845681E+04  0.25500000920E-02 0. -1.
    10030    2    1    2    0    0  0.00000000000E+00  0.00000000000E+00 -0.18781927069E+04  0.26339764293E+04  0.18466791780E+04 0.  0.
        4    1    3    3  502    0 -0.59599235248E+03  0.33120724224E+03 -0.18271514535E+04  0.19502279785E+04  0.12699999809E+01 0. -1.
       -4    1    3    3    0  502  0.59599235248E+03 -0.33120724224E+03 -0.51041253396E+02  0.68374845080E+03  0.12699999809E+01 0.  1.
</event>
<event>
 5   0  0.4829134E-04  0.1903154E+04  0.7818609E-02  0.8653288E-01
        2   -1    0    0  501    0  0.00000000000E+00  0.00000000000E+00  0.19923411487E+04  0.19923411487E+04  0.25500000920E-02 0. -1.
       -2   -1    0    0    0  501  0.00000000000E+00  0.00000000000E+00 -0.45448970188E+03  0.45448970189E+03  0.25500000920E-02 0.  1.
    10030    2    1    2    0    0  0.00000000000E+00  0.00000000000E+00  0.15378514468E+04  0.24468308506E+04  0.19031537350E+04 0.  0.
        2    1    3    3  502    0  0.90993245155E+03  0.46315058209E+02  0.11219037940E+04  0.14452647764E+04  0.25500000920E-02 0.  1.
       -2    1    3    3    0  502 -0.90993245155E+03 -0.46315058209E+02  0.41594765282E+03  0.10015660742E+04  0.25500000920E-02 0. -1.
</event>
<event>
 5   0  0.4761944E-04  0.1744782E+04  0.7818609E-02  0.8736228E-01
        2   -1    0    0  501    0  0.00000000000E+00  0.00000000000E+00  0.12141682654E+04  0.12141682654E+04  0.25500000920E-02 0. -1.
       -2   -1    0    0    0  501  0.00000000000E+00  0.00000000000E+00 -0.62682081732E+03  0.62682081732E+03  0.25500000920E-02 0.  1.
    10030    2    1    2    0    0  0.00000000000E+00  0.00000000000E+00  0.58734744812E+03  0.18409890828E+04  0.17447818712E+04 0.  0.
        4    1    3    3  502    0 -0.37169050489E+02  0.22405790177E+03  0.11824253572E+04  0.12040410375E+04  0.12699999809E+01 0. -1.
       -4    1    3    3    0  502  0.37169050489E+02 -0.22405790177E+03 -0.59507790907E+03  0.63694804531E+03  0.12699999809E+01 0.  1.
</event>
<event>
 5   0  0.4973411E-04  0.1907676E+04  0.7818609E-02  0.8651045E-01
        2   -1    0    0  501    0  0.00000000000E+00  0.00000000000E+00  0.91353382561E+03  0.91353382562E+03  0.25500000920E-02 0.  1.
       -2   -1    0    0    0  501  0.00000000000E+00  0.00000000000E+00 -0.99592054172E+03  0.99592054173E+03  0.25500000920E-02 0. -1.
    10030    2    1    2    0    0  0.00000000000E+00  0.00000000000E+00 -0.82386716109E+02  0.19094543673E+04  0.19076761806E+04 0.  0.
        1    1    3    3  502    0  0.67271090262E+03  0.20980667579E+03  0.60224976873E+03  0.92696471544E+03  0.50400001928E-02 0.  1.
       -1    1    3    3    0  502 -0.67271090262E+03 -0.20980667579E+03 -0.68463648484E+03  0.98248965191E+03  0.50400001928E-02 0. -1.
</event>
<event>
 5   0  0.4802635E-04  0.1978661E+04  0.7818609E-02  0.8616663E-01
       -2   -1    0    0    0  501  0.00000000000E+00  0.00000000000E+00  0.46674680269E+03  0.46674680270E+03  0.25500000920E-02 0. -1.
        2   -1    0    0  501    0  0.00000000000E+00  0.00000000000E+00 -0.20970143244E+04  0.20970143244E+04  0.25500000920E-02 0.  1.
    10030    2    1    2    0    0  0.00000000000E+00  0.00000000000E+00 -0.16302675217E+04  0.25637611271E+04  0.19786608917E+04 0.  0.
        3    1    3    3  502    0  0.79206552409E+03 -0.50136935198E+03 -0.40532268237E+03  0.10212862031E+04  0.10100000352E+00 0. -1.
       -3    1    3    3    0  502 -0.79206552409E+03  0.50136935198E+03 -0.12249448393E+04  0.15424749240E+04  0.10100000352E+00 0.  1.
</event>
<event>
 5   0  0.2261755E-04  0.1898210E+04  0.7818609E-02  0.8655748E-01
        1   -1    0    0  501    0  0.00000000000E+00  0.00000000000E+00  0.21518429826E+04  0.21518429826E+04  0.50400001928E-02 0. -1.
       -1   -1    0    0    0  501  0.00000000000E+00  0.00000000000E+00 -0.41861799144E+03  0.41861799147E+03  0.50400001928E-02 0.  1.
    10030    2    1    2    0    0  0.00000000000E+00  0.00000000000E+00  0.17332249912E+04  0.25704609741E+04  0.18982098802E+04 0.  0.
        1    1    3    3  502    0  0.54535636208E+03 -0.34242642582E+03 -0.77542596673E+02  0.64860024136E+03  0.50400001928E-02 0.  1.
       -1    1    3    3    0  502 -0.54535636208E+03  0.34242642582E+03  0.18107675878E+04  0.19218607327E+04  0.50400001928E-02 0. -1.
</event>
<event>
 5   0  0.4829134E-04  0.1606284E+04  0.7818609E-02  0.8816697E-01
        2   -1    0    0  501    0  0.00000000000E+00  0.00000000000E+00  0.23680180644E+04  0.23680180644E+04  0.25500000920E-02 0.  1.
       -2   -1    0    0    0  501  0.00000000000E+00  0.00000000000E+00 -0.27239534571E+03  0.27239534572E+03  0.25500000920E-02 0. -1.
    10030    2    1    2    0    0  0.00000000000E+00  0.00000000000E+00  0.20956227187E+04  0.26404134101E+04  0.16062840338E+04 0.  0.
        2    1    3    3  502    0 -0.18707041108E+03  0.29310939126E+03 -0.14224775600E+03  0.37568986949E+03  0.25500000920E-02 0. -1.
       -2    1    3    3    0  502  0.18707041108E+03 -0.29310939126E+03  0.22378704747E+04  0.22647235406E+04  0.25500000920E-02 0.  1.
</event>
<event>
 5   0  0.2376359E-04  0.1001979E+04  0.7818609E-02  0.9306377E-01
        1   -1    0    0  501    0  0.00000000000E+00  0.00000000000E+00  0.16625863423E+04  0.16625863423E+04  0.50400001928E-02 0. -1.
       -1   -1    0    0    0  501  0.00000000000E+00  0.00000000000E+00 -0.15096386759E+03  0.15096386768E+03  0.50400001928E-02 0.  1.
    10030    2    1    2    0    0  0.00000000000E+00  0.00000000000E+00  0.15116224747E+04  0.18135502100E+04  0.10019789709E+04 0.  0.
        2    1    3    3  502    0  0.36078588318E+03 -0.74231033257E+02  0.13704381215E+04  0.14190762294E+04  0.25500000920E-02 0. -1.
       -2    1    3    3    0  502 -0.36078588318E+03  0.74231033257E+02  0.14118435319E+03  0.39447398063E+03  0.25500000920E-02 0.  1.
</event>
<event>
 5   0  0.4761944E-04  0.1931678E+04  0.7818609E-02  0.8639247E-01
       -2   -1    0    0    0  501  0.00000000000E+00  0.00000000000E+00  0.56824034120E+03  0.56824034120E+03  0.25500000920E-02 0. -1.
        2   -1    0    0  501    0  0.00000000000E+00  0.00000000000E+00 -0.16416374681E+04  0.16416374681E+04  0.25500000920E-02 0.  1.
    10030    2    1    2    0    0  0.00000000000E+00  0.00000000000E+00 -0.10733971269E+04  0.22098778093E+04  0.19316776491E+04 0.  0.
        4    1    3    3  502    0  0.37690984726E+03 -0.72909568931E+03  0.45742963902E+02  0.82203137944E+03  0.12699999809E+01 0. -1.
       -4    1    3    3    0  502 -0.37690984726E+03  0.72909568931E+03 -0.11191400908E+04  0.13878464298E+04  0.12699999809E+01 0.  1.
</event>
<event>
 5   0  0.4761944E-04  0.1888875E+04  0.7818609E-02  0.8660414E-01
        2   -1    0    0  501    0  0.00000000000E+00  0.00000000000E+00  0.75845926623E+03  0.75845926623E+03  0.25500000920E-02 0. -1.
       -2   -1    0    0    0  501  0.00000000000E+00  0.00000000000E+00 -0.11760188095E+04  0.11760188095E+04  0.25500000920E-02 0.  1.
    10030    2    1    2    0    0  0.00000000000E+00  0.00000000000E+00 -0.41755954325E+03  0.19344780757E+04  0.18888751820E+04 0.  0.
        4    1    3    3  502    0 -0.82389742180E+03  0.15206172739E+03  0.23767020147E+03  0.87087224560E+03  0.12699999809E+01 0. -1.
       -4    1    3    3    0  502  0.82389742180E+03 -0.15206172739E+03 -0.65522974472E+03  0.10636058301E+04  0.12699999809E+01 0.  1.
</event>
<event>
 5   0  0.2261755E-04  0.1848354E+04  0.7818609E-02  0.8681000E-01
       -1   -1    0    0    0  501  0.00000000000E+00  0.00000000000E+00  0.81140514956E+03  0.81140514957E+03  0.50400001928E-02 0. -1.
        1   -1    0    0  501    0  0.00000000000E+00  0.00000000000E+00 -0.10526219526E+04  0.10526219526E+04  0.50400001928E-02 0.  1.
    10030    2    1    2    0    0  0.00000000000E+00  0.00000000000E+00 -0.24121680304E+03  0.18640271022E+04  0.18483537247E+04 0.  0.
        1    1    3    3  502    0  0.79711582797E+03 -0.46697854184E+03 -0.95090256621E+02  0.92871134302E+03  0.50400001928E-02 0.  1.
       -1    1    3    3    0  502 -0.79711582797E+03  0.46697854184E+03 -0.14612654642E+03  0.93531575916E+03  0.50400001928E-02 0. -1.
</event>
<event>
 5   0  0.2317458E-04  0.1761265E+04  0.7818609E-02  0.8727174E-01
        1   -1    0    0  501    0  0.00000000000E+00  0.00000000000E+00  0.11000621785E+04  0.11000621786E+04  0.50400001928E-02 0.  1.
       -1   -1    0    0    0  501  0.00000000000E+00  0.00000000000E+00 -0.70497225453E+03  0.70497225455E+03  0.50400001928E-02 0. -1.
    10030    2    1    2    0    0  0.00000000000E+00  0.00000000000E+00  0.39508992401E+03  0.18050344331E+04  0.17612646754E+04 0.  0.
        3    1    3    3  502    0 -0.11478287696E+03 -0.84955848068E+03  0.40401774483E+03  0.94771043536E+03  0.10100000352E+00 0.  1.
       -3    1    3    3    0  502  0.11478287696E+03  0.84955848068E+03 -0.89278208248E+01  0.85732399775E+03  0.10100000352E+00 0. -1.
</event>
<event>
 5   0  0.4802635E-04  0.1880944E+04  0.7818609E-02  0.8664400E-01
       -2   -1    0    0    0  501  0.00000000000E+00  0.00000000000E+00  0.10697537632E+04  0.10697537632E+04  0.25500000920E-02 0. -1.
        2   -1    0    0  501    0  0.00000000000E+00  0.00000000000E+00 -0.82681387928E+03  0.82681387929E+03  0.25500000920E-02 0.  1.
    10030    2    1    2    0    0  0.00000000000E+00  0.00000000000E+00  0.24293988391E+03  0.18965676425E+04  0.18809436555E+04 0.  0.
        3    1    3    3  502    0  0.80799083527E+03 -0.48017932340E+03  0.15438888774E+03  0.95250055715E+03  0.10100000352E+00 0. -1.
       -3    1    3    3    0  502 -0.80799083527E+03  0.48017932340E+03  0.88550996166E+02  0.94406708534E+03  0.10100000352E+00 0.  1.
</event>
<event>
 5   0  0.2355414E-04  0.1876864E+04  0.7818609E-02  0.8666459E-01
       -1   -1    0    0    0  501  0.00000000000E+00  0.00000000000E+00  0.71598739444E+03  0.71598739445E+03  0.50400001928E-02 0. -1.
        1   -1    0    0  501    0  0.00000000000E+00  0.00000000000E+00 -0.12299863380E+04  0.12299863380E+04  0.50400001928E-02 0.  1.
    10030    2    1    2    0    0  0.00000000000E+00  0.00000000000E+00 -0.51399894359E+03  0.19459737325E+04  0.18768641010E+04 0.  0.
        5    1    3    3  502    0  0.38625669534E+03 -0.15302851061E+03 -0.11294224838E+04  0.12034239472E+04  0.46999998093E+01 0.  1.
       -5    1    3    3    0  502 -0.38625669534E+03  0.15302851061E+03  0.61542354023E+03  0.74254978528E+03  0.46999998093E+01 0. -1.
</event>
<event>
 5   0  0.2510069E-04  0.1917027E+04  0.7818609E-02  0.8646427E-01
        1   -1    0    0  501    0  0.00000000000E+00  0.00000000000E+00  0.65156906072E+03  0.65156906074E+03  0.50400001928E-02 0.  1.
       -1   -1    0    0    0  501  0.00000000000E+00  0.00000000000E+00 -0.14100554802E+04  0.14100554802E+04  0.50400001928E-02 0. -1.
    10030    2    1    2    0    0  0.00000000000E+00  0.00000000000E+00 -0.75848641944E+03  0.20616245409E+04  0.19170274122E+04 0.  0.
        4    1    3    3  502    0 -0.90608881838E+03  0.31241612288E+03 -0.36624292588E+03  0.10260293730E+04  0.12699999809E+01 0.  1.
       -4    1    3    3    0  502  0.90608881838E+03 -0.31241612288E+03 -0.39224349356E+03  0.10355951679E+04  0.12699999809E+01 0. -1.
</event>
<event>
 5   0  0.4761944E-04  0.1886038E+04  0.7818609E-02  0.8661837E-01
       -2   -1    0    0    0  501  0.00000000000E+00  0.00000000000E+00  0.69813367809E+03  0.69813367809E+03  0.25500000920E-02 0.  1.
        2   -1    0    0  501    0  0.00000000000E+00  0.00000000000E+00 -0.12738036952E+04  0.12738036952E+04  0.25500000920E-02 0. -1.
    10030    2    1    2    0    0  0.00000000000E+00  0.00000000000E+00 -0.57567001716E+03  0.19719373733E+04  0.18860384502E+04 0.  0.
        4    1    3    3  502    0 -0.24174790608E+03 -0.17029808218E+03  0.64840345109E+03  0.71265148227E+03  0.12699999809E+01 0.  1.
       -4    1    3    3    0  502  0.24174790608E+03  0.17029808218E+03 -0.12240734682E+04  0.12592858911E+04  0.12699999809E+01 0. -1.
</event>
<event>
 5   0  0.4973411E-04  0.1977069E+04  0.7818609E-02  0.8617417E-01
       -2   -1    0    0    0  501  0.00000000000E+00  0.00000000000E+00  0.64146536609E+03  0.64146536609E+03  0.25500000920E-02 0.  1.
        2   -1    0    0  501    0  0.00000000000E+00  0.00000000000E+00 -0.15233881756E+04  0.15233881756E+04  0.25500000920E-02 0. -1.
    10030    2    1    2    0    0  0.00000000000E+00  0.00000000000E+00 -0.88192280952E+03  0.21648535417E+04  0.19770692995E+04 0.  0.
        1    1    3    3  502    0 -0.51372816493E+03 -0.24984703181E+03 -0.13243476137E+04  0.14423025926E+04  0.50400001928E-02 0. -1.
       -1    1    3    3    0  502  0.51372816493E+03  0.24984703181E+03  0.44242480413E+03  0.72255094912E+03  0.50400001928E-02 0.  1.
</event>
<event>
 5   0  0.2376359E-04  0.1296593E+04  0.7818609E-02  0.9032271E-01
        1   -1    0    0  501    0  0.00000000000E+00  0.00000000000E+00  0.78114325740E+03  0.78114325741E+03  0.50400001928E-02 0.  1.
       -1   -1    0    0    0  501  0.00000000000E+00  0.00000000000E+00 -0.53804276778E+03  0.53804276781E+03  0.50400001928E-02 0. -1.
    10030    2    1    2    0    0  0.00000000000E+00  0.00000000000E+00  0.24310048961E+03  0.13191860252E+04  0.12965931980E+04 0.  0.
        2    1    3    3  502    0  0.24246980925E+03  0.19294739991E+03 -0.45781770298E+03  0.55282669681E+03  0.25500000920E-02 0. -1.
       -2    1    3    3    0  502 -0.24246980925E+03 -0.19294739991E+03  0.70091819259E+03  0.76635932841E+03  0.25500000920E-02 0.  1.
</event>
<event>
 5   0  0.4829134E-04  0.1915321E+04  0.7818609E-02  0.8647268E-01
        2   -1    0    0  501    0  0.00000000000E+00  0.00000000000E+00  0.83707880549E+03  0.83707880550E+03  0.25500000920E-02 0.  1.
       -2   -1    0    0    0  501  0.00000000000E+00  0.00000000000E+00 -0.10956116570E+04  0.10956116570E+04  0.25500000920E-02 0. -1.
    10030    2    1    2    0    0  0.00000000000E+00  0.00000000000E+00 -0.25853285152E+03  0.19326904625E+04  0.19153206490E+04 0.  0.
        2    1    3    3  502    0  0.15058130997E+03 -0.50230656159E+03  0.67932879794E+03  0.85818076677E+03  0.25500000920E-02 0.  1.
       -2    1    3    3    0  502 -0.15058130997E+03  0.50230656159E+03 -0.93786164946E+03  0.10745096957E+04  0.25500000920E-02 0. -1.
</event>
<event>
 5   0  0.4973411E-04  0.1887348E+04  0.7818609E-02  0.8661180E-01
        2   -1    0    0  501    0  0.00000000000E+00  0.00000000000E+00  0.10530795507E+04  0.10530795507E+04  0.25500000920E-02 0. -1.
       -2   -1    0    0    0  501  0.00000000000E+00  0.00000000000E+00 -0.84563481210E+03  0.84563481210E+03  0.25500000920E-02 0.  1.
    10030    2    1    2    0    0  0.00000000000E+00  0.00000000000E+00  0.20744473860E+03  0.18987143628E+04  0.18873481163E+04 0.  0.
        1    1    3    3  502    0 -0.52477605230E+03 -0.44807730496E+03 -0.54386035245E+03  0.87860529209E+03  0.50400001928E-02 0.  1.
       -1    1    3    3    0  502  0.52477605230E+03  0.44807730496E+03  0.75130509105E+03  0.10201090707E+04  0.50400001928E-02 0. -1.
</event>
<event>
 5   0  0.4802635E-04  0.1541290E+04  0.7818609E-02  0.8857451E-01
       -2   -1    0    0    0  501  0.00000000000E+00  0.00000000000E+00  0.10908370074E+04  0.10908370074E+04  0.25500000920E-02 0. -1.
        2   -1    0    0  501    0  0.00000000000E+00  0.00000000000E+00 -0.54443819642E+03  0.54443819642E+03  0.25500000920E-02 0.  1.
    10030    2    1    2    0    0  0.00000000000E+00  0.00000000000E+00  0.54639881094E+03  0.16352752038E+04  0.15412895028E+04 0.  0.
        3    1    3    3  502    0  0.68546787659E+02 -0.54004473299E+02 -0.53917923358E+03  0.54619538753E+03  0.10100000352E+00 0.  1.
       -3    1    3    3    0  502 -0.68546787659E+02  0.54004473299E+02  0.10855780445E+04  0.10890798163E+04  0.10100000352E+00 0. -1.
</event>
<event>
 5   0  0.4829134E-04  0.1652804E+04  0.7818609E-02  0.8788749E-01
        2   -1    0    0  501    0  0.00000000000E+00  0.00000000000E+00  0.20935767476E+04  0.20935767476E+04  0.25500000920E-02 0.  1.
       -2   -1    0    0    0  501  0.00000000000E+00  0.00000000000E+00 -0.32620735772E+03  0.32620735773E+03  0.25500000920E-02 0. -1.
    10030    2    1    2    0    0  0.00000000000E+00  0.00000000000E+00  0.17673693899E+04  0.24197841053E+04  0.16528038468E+04 0.  0.
        2    1    3    3  502    0 -0.22876383030E+03 -0.69765769998E+03  0.14390221968E+04  0.16155011728E+04  0.25500000920E-02 0.  1.
       -2    1    3    3    0  502  0.22876383030E+03  0.69765769998E+03  0.32834719312E+03  0.80428293257E+03  0.25500000920E-02 0. -1.
</event>
<event>
 5   0  0.2355414E-04  0.1857537E+04  0.7818609E-02  0.8676286E-01
        1   -1    0    0  501    0  0.00000000000E+00  0.00000000000E+00  0.76612611212E+03  0.76612611213E+03  0.50400001928E-02 0.  1.
       -1   -1    0    0    0  501  0.00000000000E+00  0.00000000000E+00 -0.11259387150E+04  0.11259387150E+04  0.50400001928E-02 0. -1.
    10030    2    1    2    0    0  0.00000000000E+00  0.00000000000E+00 -0.35981260289E+03  0.18920648271E+04  0.18575371331E+04 0.  0.
        5    1    3    3  502    0  0.39885888834E+03 -0.75959295546E+02  0.67092299303E+03  0.78423082059E+03  0.46999998093E+01 0.  1.
       -5    1    3    3    0  502 -0.39885888834E+03  0.75959295546E+02 -0.10307355959E+04  0.11078340066E+04  0.46999998093E+01 0. -1.
</event>
<event>
 5   0  0.4761944E-04  0.1880000E+04  0.7818609E-02  0.8664876E-01
       -2   -1    0    0    0  501  0.00000000000E+00  0.00000000000E+00  0.67508057300E+03  0.67508057301E+03  0.25500000920E-02 0.  1.
        2   -1    0    0  501    0  0.00000000000E+00  0.00000000000E+00 -0.13088809746E+04  0.13088809746E+04  0.25500000920E-02 0. -1.
    10030    2    1    2    0    0  0.00000000000E+00  0.00000000000E+00 -0.63380040156E+03  0.19839615476E+04  0.18800001259E+04 0.  0.
        4    1    3    3  502    0 -0.72332698459E+03 -0.59490477411E+03 -0.40188213850E+03  0.10191292769E+04  0.12699999809E+01 0.  1.
       -4    1    3    3    0  502  0.72332698459E+03  0.59490477411E+03 -0.23191826306E+03  0.96483227067E+03  0.12699999809E+01 0. -1.
</event>
<event>
 5   0  0.2317458E-04  0.1994940E+04  0.7818609E-02  0.8608990E-01
       -1   -1    0    0    0  501  0.00000000000E+00  0.00000000000E+00  0.63142411065E+03  0.63142411067E+03  0.50400001928E-02 0.  1.
        1   -1    0    0  501    0  0.00000000000E+00  0.00000000000E+00 -0.15757177363E+04  0.15757177363E+04  0.50400001928E-02 0. -1.
    10030    2    1    2    0    0  0.00000000000E+00  0.00000000000E+00 -0.94429362566E+03  0.22071418470E+04  0.19949397688E+04 0.  0.
        3    1    3    3  502    0 -0.81875403435E+03  0.50354289175E+03 -0.17727778884E+03  0.97741548852E+03  0.10100000352E+00 0.  1.
       -3    1    3    3    0  502  0.81875403435E+03 -0.50354289175E+03 -0.76701583682E+03  0.12297263585E+04  0.10100000352E+00 0. -1.
</event>
<event>
 5   0  0.2317458E-04  0.9484120E+03  0.7818609E-02  0.9367009E-01
        1   -1    0    0  501    0  0.00000000000E+00  0.00000000000E+00  0.54545856556E+03  0.54545856559E+03  0.50400001928E-02 0.  1.
       -1   -1    0    0    0  501  0.00000000000E+00  0.00000000000E+00 -0.41226110052E+03  0.41226110055E+03  0.50400001928E-02 0. -1.
    10030    2    1    2    0    0  0.00000000000E+00  0.00000000000E+00  0.13319746504E+03  0.95771966613E+03  0.94841203820E+03 0.  0.
        3    1    3    3  502    0 -0.29288390364E+03  0.37286543398E+03  0.58665072124E+02  0.47775643769E+03  0.10100000352E+00 0.  1.
       -3    1    3    3    0  502  0.29288390364E+03 -0.37286543398E+03  0.74532392920E+02  0.47996322845E+03  0.10100000352E+00 0. -1.
</event>
<event>
 5   0  0.4802635E-04  0.1705382E+04  0.7818609E-02  0.8758301E-01
       -2   -1    0    0    0  501  0.00000000000E+00  0.00000000000E+00  0.58684319415E+03  0.58684319415E+03  0.25500000920E-02 0. -1.
        2   -1    0    0  501    0  0.00000000000E+00  0.00000000000E+00 -0.12389716827E+04  0.12389716827E+04  0.25500000920E-02 0.  1.
    10030    2    1    2    0    0  0.00000000000E+00  0.00000000000E+00 -0.65212848856E+03  0.18258148769E+04  0.17053821856E+04 0.  0.
        3    1    3    3  502    0  0.29498341930E+03  0.31156400845E+02 -0.11819545754E+04  0.12186068141E+04  0.10100000352E+00 0.  1.
       -3    1    3    3    0  502 -0.29498341930E+03 -0.31156400845E+02  0.52982608682E+03  0.60720806274E+03  0.10100000352E+00 0. -1.
</event>
<event>
 5   0  0.1729375E-04  0.1890681E+04  0.7818609E-02  0.8659509E-01
        3   -1    0    0  501    0  0.00000000000E+00  0.00000000000E+00  0.12044194445E+04  0.12044194488E+04  0.10100000352E+00 0. -1.
       -3   -1    0    0    0  501  0.00000000000E+00  0.00000000000E+00 -0.74199159726E+03  0.74199160413E+03  0.10100000352E+00 0.  1.
    10030    2    1    2    0    0  0.00000000000E+00  0.00000000000E+00  0.46242784727E+03  0.19464110529E+04  0.18906814837E+04 0.  0.
        1    1    3    3  502    0  0.75165659673E+03 -0.43023063380E+03  0.62130662481E+03  0.10658836521E+04  0.50400001928E-02 0. -1.
       -1    1    3    3    0  502 -0.75165659673E+03  0.43023063380E+03 -0.15887877754E+03  0.88052740084E+03  0.50400001928E-02 0.  1.
</event>
<event>
 5   0  0.2317458E-04  0.1897887E+04  0.7818609E-02  0.8655909E-01
       -1   -1    0    0    0  501  0.00000000000E+00  0.00000000000E+00  0.80325167217E+03  0.80325167218E+03  0.50400001928E-02 0. -1.
        1   -1    0    0  501    0  0.00000000000E+00  0.00000000000E+00 -0.11210605254E+04  0.11210605254E+04  0.50400001928E-02 0.  1.
    10030    2    1    2    0    0  0.00000000000E+00  0.00000000000E+00 -0.31780885326E+03  0.19243121976E+04  0.18978869742E+04 0.  0.
        3    1    3    3  502    0 -0.23037367198E+03  0.54787781486E+03  0.59116024191E+03  0.83827953009E+03  0.10100000352E+00 0. -1.
       -3    1    3    3    0  502  0.23037367198E+03 -0.54787781486E+03 -0.90896909517E+03  0.10860326675E+04  0.10100000352E+00 0.  1.
</event>
<event>
 5   0  0.2510069E-04  0.1951798E+04  0.7818609E-02  0.8629494E-01
        1   -1    0    0  501    0  0.00000000000E+00  0.00000000000E+00  0.14639577327E+04  0.14639577328E+04  0.50400001928E-02 0.  1.
       -1   -1    0    0    0  501  0.00000000000E+00  0.00000000000E+00 -0.65055063145E+03  0.65055063147E+03  0.50400001928E-02 0. -1.
    10030    2    1    2    0    0  0.00000000000E+00  0.00000000000E+00  0.81340710130E+03  0.21145083642E+04  0.19517977636E+04 0.  0.
        4    1    3    3  502    0 -0.86802076968E+03 -0.44587343415E+03  0.39514456923E+03  0.10528076839E+04  0.12699999809E+01 0. -1.
       -4    1    3    3    0  502  0.86802076968E+03  0.44587343415E+03  0.41826253207E+03  0.10617006803E+04  0.12699999809E+01 0.  1.
</event>
<event>
 5   0  0.2355414E-04  0.1837738E+04  0.7818609E-02  0.8686484E-01
        1   -1    0    0  501    0  0.00000000000E+00  0.00000000000E+00  0.19961252674E+04  0.19961252674E+04  0.50400001928E-02 0. -1.
       -1   -1    0    0    0  501  0.00000000000E+00  0.00000000000E+00 -0.42297978347E+03  0.42297978350E+03  0.50400001928E-02 0.  1.
    10030    2    1    2    0    0  0.00000000000E+00  0.00000000000E+00  0.15731454839E+04  0.24191050509E+04  0.18377384291E+04 0.  0.
        5    1    3    3  502    0  0.28315713886E+03  0.68296896375E+03  0.15047662300E+04  0.16765941870E+04  0.46999998093E+01 0. -1.
       -5    1    3    3    0  502 -0.28315713886E+03 -0.68296896375E+03  0.68379253922E+02  0.74251086396E+03  0.46999998093E+01 0.  1.
</event>
<event>
 5   0  0.2510069E-04  0.1951699E+04  0.7818609E-02  0.8629542E-01
        1   -1    0    0  501    0  0.00000000000E+00  0.00000000000E+00  0.74858295390E+03  0.74858295392E+03  0.50400001928E-02 0.  1.
       -1   -1    0    0    0  501  0.00000000000E+00  0.00000000000E+00 -0.12721133705E+04  0.12721133705E+04  0.50400001928E-02 0. -1.
    10030    2    1    2    0    0  0.00000000000E+00  0.00000000000E+00 -0.52353041656E+03  0.20206963244E+04  0.19516991413E+04 0.  0.
        4    1    3    3  502    0  0.91246702801E+03  0.33074189238E+03 -0.36681391401E+03  0.10375646182E+04  0.12699999809E+01 0. -1.
       -4    1    3    3    0  502 -0.91246702801E+03 -0.33074189238E+03 -0.15671650256E+03  0.98313170616E+03  0.12699999809E+01 0.  1.
</event>
<event>
 5   0  0.4802635E-04  0.1854988E+04  0.7818609E-02  0.8677592E-01
       -2   -1    0    0    0  501  0.00000000000E+00  0.00000000000E+00  0.70113734260E+03  0.70113734260E+03  0.25500000920E-02 0. -1.
        2   -1    0    0  501    0  0.00000000000E+00  0.00000000000E+00 -0.12269286238E+04  0.12269286238E+04  0.25500000920E-02 0.  1.
    10030    2    1    2    0    0  0.00000000000E+00  0.00000000000E+00 -0.52579128124E+03  0.19280659664E+04  0.18549883826E+04 0.  0.
        3    1    3    3  502    0 -0.68804642492E+03  0.61760270953E+03 -0.33930691640E+03  0.98487064297E+03  0.10100000352E+00 0. -1.
       -3    1    3    3    0  502  0.68804642492E+03 -0.61760270953E+03 -0.18648436484E+03  0.94319532346E+03  0.10100000352E+00 0.  1.
</event>
<event>
 5   0  0.2261755E-04  0.1917428E+04  0.7818609E-02  0.8646230E-01
        1   -1    0    0  501    0  0.00000000000E+00  0.00000000000E+00  0.14876371338E+04  0.14876371338E+04  0.50400001928E-02 0. -1.
       -1   -1    0    0    0  501  0.00000000000E+00  0.00000000000E+00 -0.61784734891E+03  0.61784734893E+03  0.50400001928E-02 0.  1.
    10030    2    1    2    0    0  0.00000000000E+00  0.00000000000E+00  0.86978978486E+03  0.21054844827E+04  0.19174281309E+04 0.  0.
        1    1    3    3  502    0  0.21319266495E+03  0.72323596364E+03 -0.21530350883E+03  0.78414091363E+03  0.50400001928E-02 0.  1.
       -1    1    3    3    0  502 -0.21319266495E+03 -0.72323596364E+03  0.10850932937E+04  0.13213435691E+04  0.50400001928E-02 0. -1.
</event>
<event>
 5   0  0.4802635E-04  0.1868202E+04  0.7818609E-02  0.8670848E-01
        2   -1    0    0  501    0  0.00000000000E+00  0.00000000000E+00  0.12403395409E+04  0.12403395409E+04  0.25500000920E-02 0.  1.
       -2   -1    0    0    0  501  0.00000000000E+00  0.00000000000E+00 -0.70347247075E+03  0.70347247075E+03  0.25500000920E-02 0. -1.
    10030    2    1    2    0    0  0.00000000000E+00  0.00000000000E+00  0.53686707019E+03  0.19438120117E+04  0.18682020463E+04 0.  0.
        3    1    3    3  502    0 -0.46274946579E+03 -0.63995535258E+03 -0.25061999124E+03  0.82854710886E+03  0.10100000352E+00 0. -1.
       -3    1    3    3    0  502  0.46274946579E+03  0.63995535258E+03  0.78748706143E+03  0.11152649028E+04  0.10100000352E+00 0.  1.
</event>
<event>
 5   0  0.4761944E-04  0.1933586E+04  0.7818609E-02  0.8638317E-01
        2   -1    0    0  501    0  0.00000000000E+00  0.00000000000E+00  0.38090439606E+03  0.38090439607E+03  0.25500000920E-02 0. -1.
       -2   -1    0    0    0  501  0.00000000000E+00  0.00000000000E+00 -0.24538672562E+04  0.24538672562E+04  0.25500000920E-02 0.  1.
    10030    2    1    2    0    0  0.00000000000E+00  0.00000000000E+00 -0.20729628601E+04  0.28347716523E+04  0.19335861245E+04 0.  0.
        4    1    3    3  502    0 -0.27750535379E+03  0.14108386620E+03  0.30541138204E+03  0.43610962368E+03  0.12699999809E+01 0. -1.
       -4    1    3    3    0  502  0.27750535379E+03 -0.14108386620E+03 -0.23783742422E+04  0.23986620286E+04  0.12699999809E+01 0.  1.
</event>
<event>
 5   0  0.2510069E-04  0.1747941E+04  0.7818609E-02  0.8734484E-01
       -1   -1    0    0    0  501  0.00000000000E+00  0.00000000000E+00  0.80222471972E+03  0.80222471973E+03  0.50400001928E-02 0. -1.
        1   -1    0    0  501    0  0.00000000000E+00  0.00000000000E+00 -0.95213293908E+03  0.95213293910E+03  0.50400001928E-02 0.  1.
    10030    2    1    2    0    0  0.00000000000E+00  0.00000000000E+00 -0.14990821936E+03  0.17543576588E+04  0.17479411663E+04 0.  0.
        4    1    3    3  502    0  0.42665251769E+03  0.37240802080E+03  0.59314917093E+03  0.82009002962E+03  0.12699999809E+01 0. -1.
       -4    1    3    3    0  502 -0.42665251769E+03 -0.37240802080E+03 -0.74305739030E+03  0.93426762921E+03  0.12699999809E+01 0.  1.
</event>
<event>
 5   0  0.2261755E-04  0.1910147E+04  0.7818609E-02  0.8649822E-01
       -1   -1    0    0    0  501  0.00000000000E+00  0.00000000000E+00  0.68743162512E+03  0.68743162513E+03  0.50400001928E-02 0. -1.
        1   -1    0    0  501    0  0.00000000000E+00  0.00000000000E+00 -0.13269177412E+04  0.13269177412E+04  0.50400001928E-02 0.  1.
    10030    2    1    2    0    0  0.00000000000E+00  0.00000000000E+00 -0.63948611609E+03  0.20143493663E+04  0.19101468208E+04 0.  0.
        1    1    3    3  502    0 -0.91139832780E+02 -0.23601673611E+03  0.65145011595E+03  0.69885450735E+03  0.50400001928E-02 0. -1.
       -1    1    3    3    0  502  0.91139832780E+02  0.23601673611E+03 -0.12909362320E+04  0.13154948590E+04  0.50400001928E-02 0.  1.
</event>
<event>
 5   0  0.4829134E-04  0.1897681E+04  0.7818609E-02  0.8656012E-01
        2   -1    0    0  501    0  0.00000000000E+00  0.00000000000E+00  0.14323801486E+04  0.14323801486E+04  0.25500000920E-02 0. -1.
       -2   -1    0    0    0  501  0.00000000000E+00  0.00000000000E+00 -0.62853284125E+03  0.62853284126E+03  0.25500000920E-02 0.  1.
    10030    2    1    2    0    0  0.00000000000E+00  0.00000000000E+00  0.80384730731E+03  0.20609129898E+04  0.18976806523E+04 0.  0.
        2    1    3    3  502    0 -0.74250794430E+03  0.48122037701E+03  0.29803429107E+02  0.88531313274E+03  0.25500000920E-02 0.  1.
       -2    1    3    3    0  502  0.74250794430E+03 -0.48122037701E+03  0.77404387820E+03  0.11755998571E+04  0.25500000920E-02 0. -1.
</event>
<event>
 5   0  0.4802635E-04  0.1891374E+04  0.7818609E-02  0.8659162E-01
       -2   -1    0    0    0  501  0.00000000000E+00  0.00000000000E+00  0.82445894902E+03  0.82445894902E+03  0.25500000920E-02 0.  1.
        2   -1    0    0  501    0  0.00000000000E+00  0.00000000000E+00 -0.10847399950E+04  0.10847399950E+04  0.25500000920E-02 0. -1.
    10030    2    1    2    0    0  0.00000000000E+00  0.00000000000E+00 -0.26028104602E+03  0.19091989441E+04  0.18913736767E+04 0.  0.
        3    1    3    3  502    0  0.72021355905E+03 -0.61005549706E+03 -0.70864816433E+02  0.94651841638E+03  0.10100000352E+00 0.  1.
       -3    1    3    3    0  502 -0.72021355905E+03  0.61005549706E+03 -0.18941622959E+03  0.96268052768E+03  0.10100000352E+00 0. -1.
</event>
<event>
 5   0  0.2510069E-04  0.1880707E+04  0.7818609E-02  0.8664520E-01
        1   -1    0    0  501    0  0.00000000000E+00  0.00000000000E+00  0.54149407887E+03  0.54149407889E+03  0.50400001928E-02 0.  1.
       -1   -1    0    0    0  501  0.00000000000E+00  0.00000000000E+00 -0.16330098414E+04  0.16330098414E+04  0.50400001928E-02 0. -1.
    10030    2    1    2    0    0  0.00000000000E+00  0.00000000000E+00 -0.10915157625E+04  0.21745039203E+04  0.18807074838E+04 0.  0.
        4    1    3    3  502    0  0.32303298576E+03  0.50862855138E+03 -0.13804867035E+04  0.15062531210E+04  0.12699999809E+01 0. -1.
       -4    1    3    3    0  502 -0.32303298576E+03 -0.50862855138E+03  0.28897094094E+03  0.66825079931E+03  0.12699999809E+01 0.  1.
</event>
<event>
 5   0  0.2376359E-04  0.1784919E+04  0.7818609E-02  0.8714361E-01
        1   -1    0    0  501    0  0.00000000000E+00  0.00000000000E+00  0.90757015002E+03  0.90757015004E+03  0.50400001928E-02 0.  1.
       -1   -1    0    0    0  501  0.00000000000E+00  0.00000000000E+00 -0.87760014177E+03  0.87760014179E+03  0.50400001928E-02 0. -1.
    10030    2    1    2    0    0  0.00000000000E+00  0.00000000000E+00  0.29970008251E+02  0.17851702918E+04  0.17849187011E+04 0.  0.
        2    1    3    3  502    0  0.86064642688E+03 -0.19611430934E+03  0.14657329481E+03  0.89479429211E+03  0.25500000920E-02 0.  1.
       -2    1    3    3    0  502 -0.86064642688E+03  0.19611430934E+03 -0.11660328656E+03  0.89037599972E+03  0.25500000920E-02 0. -1.
</event>
<event>
 5   0  0.2261755E-04  0.1924505E+04  0.7818609E-02  0.8642754E-01
       -1   -1    0    0    0  501  0.00000000000E+00  0.00000000000E+00  0.51894299780E+03  0.51894299783E+03  0.50400001928E-02 0. -1.
        1   -1    0    0  501    0  0.00000000000E+00  0.00000000000E+00 -0.17842616658E+04  0.17842616658E+04  0.50400001928E-02 0.  1.
    10030    2    1    2    0    0  0.00000000000E+00  0.00000000000E+00 -0.12653186680E+04  0.23032046637E+04  0.19245052328E+04 0.  0.
        1    1    3    3  502    0  0.48433591076E+02 -0.69844605941E+03 -0.14226752012E+04  0.15856157917E+04  0.50400001928E-02 0.  1.
       -1    1    3    3    0  502 -0.48433591076E+02  0.69844605941E+03  0.15735653318E+03  0.71758887199E+03  0.50400001928E-02 0. -1.
</event>
<event>
 5   0  0.4829134E-04  0.1885501E+04  0.7818609E-02  0.8662107E-01
       -2   -1    0    0    0  501  0.00000000000E+00  0.00000000000E+00  0.58110347442E+03  0.58110347443E+03  0.25500000920E-02 0.  1.
        2   -1    0    0  501    0  0.00000000000E+00  0.00000000000E+00 -0.15294675610E+04  0.15294675610E+04  0.25500000920E-02 0. -1.
    10030    2    1    2    0    0  0.00000000000E+00  0.00000000000E+00 -0.94836408653E+03  0.21105710354E+04  0.18855014332E+04 0.  0.
        2    1    3    3  502    0  0.32855818036E+02  0.65562554320E+03  0.28323814559E+03  0.71494629504E+03  0.25500000920E-02 0.  1.
       -2    1    3    3    0  502 -0.32855818036E+02 -0.65562554320E+03 -0.12316022321E+04  0.13956247403E+04  0.25500000920E-02 0. -1.
</event>
<event>
 5   0  0.2355414E-04  0.1893909E+04  0.7818609E-02  0.8657894E-01
       -1   -1    0    0    0  501  0.00000000000E+00  0.00000000000E+00  0.45695563767E+03  0.45695563770E+03  0.50400001928E-02 0. -1.
        1   -1    0    0  501    0  0.00000000000E+00  0.00000000000E+00 -0.19623839162E+04  0.19623839162E+04  0.50400001928E-02 0.  1.
    10030    2    1    2    0    0  0.00000000000E+00  0.00000000000E+00 -0.15054282785E+04  0.24193395539E+04  0.18939085446E+04 0.  0.
        5    1    3    3  502    0  0.24463202044E+03  0.18355183104E+03  0.39211320610E+03  0.49730368639E+03  0.46999998093E+01 0. -1.
       -5    1    3    3    0  502 -0.24463202044E+03 -0.18355183104E+03 -0.18975414846E+04  0.19220358675E+04  0.46999998093E+01 0.  1.
</event>
<event>
 5   0  0.2317458E-04  0.1878986E+04  0.7818609E-02  0.8665388E-01
       -1   -1    0    0    0  501  0.00000000000E+00  0.00000000000E+00  0.11376463775E+04  0.11376463775E+04  0.50400001928E-02 0.  1.
        1   -1    0    0  501    0  0.00000000000E+00  0.00000000000E+00 -0.77585381665E+03  0.77585381666E+03  0.50400001928E-02 0. -1.
    10030    2    1    2    0    0  0.00000000000E+00  0.00000000000E+00  0.36179256085E+03  0.19135001942E+04  0.18789861990E+04 0.  0.
        3    1    3    3  502    0  0.58501941991E+03 -0.53426781844E+03  0.69510421528E+03  0.10539732937E+04  0.10100000352E+00 0.  1.
       -3    1    3    3    0  502 -0.58501941991E+03  0.53426781844E+03 -0.33331165442E+03  0.85952690049E+03  0.10100000352E+00 0. -1.
</event>
<event>
 5   0  0.4802635E-04  0.1835529E+04  0.7818609E-02  0.8687631E-01
        2   -1    0    0  501    0  0.00000000000E+00  0.00000000000E+00  0.13290235500E+04  0.13290235500E+04  0.25500000920E-02 0.  1.
       -2   -1    0    0    0  501  0.00000000000E+00  0.00000000000E+00 -0.63376703951E+03  0.63376703951E+03  0.25500000920E-02 0. -1.
    10030    2    1    2    0    0  0.00000000000E+00  0.00000000000E+00  0.69525651047E+03  0.19627905895E+04  0.18355286113E+04 0.  0.
        3    1    3    3  502    0  0.88033334402E+03  0.18721955869E+03  0.15558448284E+03  0.91336986005E+03  0.10100000352E+00 0.  1.
       -3    1    3    3    0  502 -0.88033334402E+03 -0.18721955869E+03  0.53967202764E+03  0.10494207294E+04  0.10100000352E+00 0. -1.
</event>
<event>
 5   0  0.4802635E-04  0.1860144E+04  0.7818609E-02  0.8674953E-01
       -2   -1    0    0    0  501  0.00000000000E+00  0.00000000000E+00  0.90021228206E+03  0.90021228206E+03  0.25500000920E-02 0.  1.
        2   -1    0    0  501    0  0.00000000000E+00  0.00000000000E+00 -0.96092245620E+03  0.96092245620E+03  0.25500000920E-02 0. -1.
    10030    2    1    2    0    0  0.00000000000E+00  0.00000000000E+00 -0.60710174144E+02  0.18611347383E+04  0.18601442924E+04 0.  0.
        3    1    3    3  502    0 -0.43203079177E+03  0.81889598517E+03 -0.11867976331E+03  0.93344851812E+03  0.10100000352E+00 0.  1.
       -3    1    3    3    0  502  0.43203079177E+03 -0.81889598517E+03  0.57969589167E+02  0.92768622014E+03  0.10100000352E+00 0. -1.
</event>
<event>
 5   0  0.2261755E-04  0.1943882E+04  0.7818609E-02  0.8633316E-01
       -1   -1    0    0    0  501  0.00000000000E+00  0.00000000000E+00  0.72223546131E+03  0.72223546132E+03  0.50400001928E-02 0.  1.
        1   -1    0    0  501    0  0.00000000000E+00  0.00000000000E+00 -0.13079802381E+04  0.13079802381E+04  0.50400001928E-02 0. -1.
    10030    2    1    2    0    0  0.00000000000E+00  0.00000000000E+00 -0.58574477683E+03  0.20302156995E+04  0.19438824149E+04 0.  0.
        1    1    3    3  502    0  0.15082534781E+03  0.49675808176E+03  0.56529743327E+03  0.76751421187E+03  0.50400001928E-02 0.  1.
       -1    1    3    3    0  502 -0.15082534781E+03 -0.49675808176E+03 -0.11510422101E+04  0.12627014876E+04  0.50400001928E-02 0. -1.
</event>
<event>
 5   0  0.4973411E-04  0.1908288E+04  0.7818609E-02  0.8650742E-01
        2   -1    0    0  501    0  0.00000000000E+00  0.00000000000E+00  0.13346711347E+04  0.13346711347E+04  0.25500000920E-02 0.  1.
       -2   -1    0    0    0  501  0.00000000000E+00  0.00000000000E+00 -0.68210851195E+03  0.68210851196E+03  0.25500000920E-02 0. -1.
    10030    2    1    2    0    0  0.00000000000E+00  0.00000000000E+00  0.65256262272E+03  0.20167796466E+04  0.19082877578E+04 0.  0.
        1    1    3    3  502    0  0.32034290848E+03 -0.64720689486E+03  0.98534945062E+03  0.12216422896E+04  0.50400001928E-02 0.  1.
       -1    1    3    3    0  502 -0.32034290848E+03  0.64720689486E+03 -0.33278682790E+03  0.79513735708E+03  0.50400001928E-02 0. -1.
</event>
<event>
 5   0  0.2376359E-04  0.1887402E+04  0.7818609E-02  0.8661153E-01
        1   -1    0    0  501    0  0.00000000000E+00  0.00000000000E+00  0.57436339864E+03  0.57436339866E+03  0.50400001928E-02 0.  1.
       -1   -1    0    0    0  501  0.00000000000E+00  0.00000000000E+00 -0.15505366510E+04  0.15505366510E+04  0.50400001928E-02 0. -1.
    10030    2    1    2    0    0  0.00000000000E+00  0.00000000000E+00 -0.97617325238E+03  0.21249000497E+04  0.18874019186E+04 0.  0.
        2    1    3    3  502    0  0.87206057505E+03 -0.32324385456E+03 -0.30796994925E+03  0.97970491768E+03  0.25500000920E-02 0.  1.
       -2    1    3    3    0  502 -0.87206057505E+03  0.32324385456E+03 -0.66820330313E+03  0.11451951320E+04  0.25500000920E-02 0. -1.
</event>
<event>
 5   0  0.2261755E-04  0.1893587E+04  0.7818609E-02  0.8658055E-01
       -1   -1    0    0    0  501  0.00000000000E+00  0.00000000000E+00  0.84401479871E+03  0.84401479872E+03  0.50400001928E-02 0. -1.
        1   -1    0    0  501    0  0.00000000000E+00  0.00000000000E+00 -0.10620881991E+04  0.10620881991E+04  0.50400001928E-02 0.  1.
    10030    2    1    2    0    0  0.00000000000E+00  0.00000000000E+00 -0.21807340036E+03  0.19061029978E+04  0.18935872386E+04 0.  0.
        1    1    3    3  502    0 -0.48853291177E+01  0.55742636665E+03  0.66131241186E+03  0.86491741038E+03  0.50400001928E-02 0. -1.
       -1    1    3    3    0  502  0.48853291177E+01 -0.55742636665E+03 -0.87938581222E+03  0.10411855874E+04  0.50400001928E-02 0.  1.
</event>
<event>
 5   0  0.1729375E-04  0.1915433E+04  0.7818609E-02  0.8647212E-01
        4   -1    0    0  501    0  0.00000000000E+00  0.00000000000E+00  0.92845301673E+03  0.92845388532E+03  0.12699999809E+01 0. -1.
       -4   -1    0    0    0  501  0.00000000000E+00  0.00000000000E+00 -0.98790038454E+03  0.98790120087E+03  0.12699999809E+01 0.  1.
    10030    2    1    2    0    0  0.00000000000E+00  0.00000000000E+00 -0.59447367817E+02  0.19163550862E+04  0.19154328041E+04 0.  0.
        5    1    3    3  502    0  0.59824178794E+03 -0.72221362307E+03  0.16456782081E+03  0.95215041450E+03  0.46999998093E+01 0. -1.
       -5    1    3    3    0  502 -0.59824178794E+03  0.72221362307E+03 -0.22401518863E+03  0.96420467170E+03  0.46999998093E+01 0.  1.
</event>
<event>
 5   0  0.4802635E-04  0.1109100E+04  0.7818609E-02  0.9196368E-01
        2   -1    0    0  501    0  0.00000000000E+00  0.00000000000E+00  0.51227384644E+03  0.51227384645E+03  0.25500000920E-02 0.  1.
       -2   -1    0    0    0  501  0.00000000000E+00  0.00000000000E+00 -0.60031476874E+03  0.60031476874E+03  0.25500000920E-02 0. -1.
    10030    2    1    2    0    0  0.00000000000E+00  0.00000000000E+00 -0.88040922297E+02  0.11125886152E+04  0.11090997352E+04 0.  0.
        3    1    3    3  502    0 -0.51872891014E+03 -0.14143593487E+03  0.92207090853E+02  0.54551440282E+03  0.10100000352E+00 0.  1.
       -3    1    3    3    0  502  0.51872891014E+03  0.14143593487E+03 -0.18024801315E+03  0.56707421236E+03  0.10100000352E+00 0. -1.
</event>
<event>
 5   0  0.2510069E-04  0.1853315E+04  0.7818609E-02  0.8678450E-01
        1   -1    0    0  501    0  0.00000000000E+00  0.00000000000E+00  0.12280595569E+04  0.12280595569E+04  0.50400001928E-02 0. -1.
       -1   -1    0    0    0  501  0.00000000000E+00  0.00000000000E+00 -0.69922870614E+03  0.69922870616E+03  0.50400001928E-02 0.  1.
    10030    2    1    2    0    0  0.00000000000E+00  0.00000000000E+00  0.52883085077E+03  0.19272882631E+04  0.18533154023E+04 0.  0.
        4    1    3    3  502    0 -0.42964560586E+03  0.45582490001E+02  0.11169036074E+04  0.11975593476E+04  0.12699999809E+01 0. -1.
       -4    1    3    3    0  502  0.42964560586E+03 -0.45582490001E+02 -0.58807275662E+03  0.72972891543E+03  0.12699999809E+01 0.  1.
</event>
<event>
 5   0  0.2376359E-04  0.1910635E+04  0.7818609E-02  0.8649581E-01
       -1   -1    0    0    0  501  0.00000000000E+00  0.00000000000E+00  0.70518424885E+03  0.70518424887E+03  0.50400001928E-02 0.  1.
        1   -1    0    0  501    0  0.00000000000E+00  0.00000000000E+00 -0.12941745533E+04  0.12941745533E+04  0.50400001928E-02 0. -1.
    10030    2    1    2    0    0  0.00000000000E+00  0.00000000000E+00 -0.58899030447E+03  0.19993588022E+04  0.19106349838E+04 0.  0.
        2    1    3    3  502    0  0.42568761853E+03 -0.61374902139E+03  0.32875764774E+03  0.81607560972E+03  0.25500000920E-02 0.  1.
       -2    1    3    3    0  502 -0.42568761853E+03  0.61374902139E+03 -0.91774795221E+03  0.11832831925E+04  0.25500000920E-02 0. -1.
</event>
<event>
 5   0  0.4829134E-04  0.2017659E+04  0.7818609E-02  0.8598409E-01
       -2   -1    0    0    0  501  0.00000000000E+00  0.00000000000E+00  0.10829927156E+04  0.10829927156E+04  0.25500000920E-02 0.  1.
        2   -1    0    0  501    0  0.00000000000E+00  0.00000000000E+00 -0.93974482160E+03  0.93974482161E+03  0.25500000920E-02 0. -1.
    10030    2    1    2    0    0  0.00000000000E+00  0.00000000000E+00  0.14324789403E+03  0.20227375372E+04  0.20176588377E+04 0.  0.
        2    1    3    3  502    0  0.72590558102E+03 -0.67781822683E+03  0.24915819622E+03  0.10239415354E+04  0.25500000920E-02 0. -1.
       -2    1    3    3    0  502 -0.72590558102E+03  0.67781822683E+03 -0.10591030218E+03  0.99879600184E+03  0.25500000920E-02 0.  1.
</event>
<event>
 5   0  0.2317458E-04  0.1888520E+04  0.7818609E-02  0.8660592E-01
       -1   -1    0    0    0  501  0.00000000000E+00  0.00000000000E+00  0.96243877814E+03  0.96243877815E+03  0.50400001928E-02 0. -1.
        1   -1    0    0  501    0  0.00000000000E+00  0.00000000000E+00 -0.92642445105E+03  0.92642445106E+03  0.50400001928E-02 0.  1.
    10030    2    1    2    0    0  0.00000000000E+00  0.00000000000E+00  0.36014327089E+02  0.18888632292E+04  0.18885198614E+04 0.  0.
        3    1    3    3  502    0 -0.94606992080E+02  0.28063242531E+03  0.91478702933E+03  0.96153021810E+03  0.10100000352E+00 0. -1.
       -3    1    3    3    0  502  0.94606992080E+02 -0.28063242531E+03 -0.87877270224E+03  0.92733301111E+03  0.10100000352E+00 0.  1.
</event>
<event>
 5   0  0.4839293E-04  0.1923610E+04  0.7818609E-02  0.8643193E-01
       -2   -1    0    0    0  501  0.00000000000E+00  0.00000000000E+00  0.10614787207E+04  0.10614787207E+04  0.25500000920E-02 0.  1.
        2   -1    0    0  501    0  0.00000000000E+00  0.00000000000E+00 -0.87149068519E+03  0.87149068519E+03  0.25500000920E-02 0. -1.
    10030    2    1    2    0    0  0.00000000000E+00  0.00000000000E+00  0.18998803546E+03  0.19329694058E+04  0.19236099579E+04 0.  0.
        5    1    3    3  502    0 -0.51675153627E+03  0.26714756186E+03 -0.67466134713E+03  0.89083668164E+03  0.46999998093E+01 0. -1.
       -5    1    3    3    0  502  0.51675153627E+03 -0.26714756186E+03  0.86464938259E+03  0.10421327242E+04  0.46999998093E+01 0.  1.
</event>
<event>
 5   0  0.2317458E-04  0.1906627E+04  0.7818609E-02  0.8651565E-01
       -1   -1    0    0    0  501  0.00000000000E+00  0.00000000000E+00  0.31435592030E+03  0.31435592034E+03  0.50400001928E-02 0.  1.
        1   -1    0    0  501    0  0.00000000000E+00  0.00000000000E+00 -0.28910107062E+04  0.28910107062E+04  0.50400001928E-02 0. -1.
    10030    2    1    2    0    0  0.00000000000E+00  0.00000000000E+00 -0.25766547859E+04  0.32053666265E+04  0.19066266873E+04 0.  0.
        3    1    3    3  502    0  0.56014381901E+02 -0.94455409629E+03 -0.14835625183E+04  0.17596243371E+04  0.10100000352E+00 0. -1.
       -3    1    3    3    0  502 -0.56014381901E+02  0.94455409629E+03 -0.10930922676E+04  0.14457422894E+04  0.10100000352E+00 0.  1.
</event>
<event>
 5   0  0.4829134E-04  0.1900160E+04  0.7818609E-02  0.8654777E-01
        2   -1    0    0  501    0  0.00000000000E+00  0.00000000000E+00  0.11122002134E+04  0.11122002134E+04  0.25500000920E-02 0.  1.
       -2   -1    0    0    0  501  0.00000000000E+00  0.00000000000E+00 -0.81159154233E+03  0.81159154234E+03  0.25500000920E-02 0. -1.
    10030    2    1    2    0    0  0.00000000000E+00  0.00000000000E+00  0.30060867103E+03  0.19237917557E+04  0.19001602949E+04 0.  0.
        2    1    3    3  502    0 -0.44604741624E+03 -0.17085643406E+03  0.98179899281E+03  0.10918239239E+04  0.25500000920E-02 0.  1.
       -2    1    3    3    0  502  0.44604741624E+03  0.17085643406E+03 -0.68119032178E+03  0.83196783176E+03  0.25500000920E-02 0. -1.
</event>
<event>
 5   0  0.4829134E-04  0.1946215E+04  0.7818609E-02  0.8632188E-01
        2   -1    0    0  501    0  0.00000000000E+00  0.00000000000E+00  0.18970498888E+04  0.18970498888E+04  0.25500000920E-02 0.  1.
       -2   -1    0    0    0  501  0.00000000000E+00  0.00000000000E+00 -0.49916370159E+03  0.49916370159E+03  0.25500000920E-02 0. -1.
    10030    2    1    2    0    0  0.00000000000E+00  0.00000000000E+00  0.13978861872E+04  0.23962135904E+04  0.19462152446E+04 0.  0.
        2    1    3    3  502    0 -0.54690245941E+03  0.23411942852E+02 -0.29162296589E+03  0.62023735248E+03  0.25500000920E-02 0. -1.
       -2    1    3    3    0  502  0.54690245941E+03 -0.23411942852E+02  0.16895091531E+04  0.17759762379E+04  0.25500000920E-02 0.  1.
</event>
<event>
 5   0  0.2261755E-04  0.1894625E+04  0.7818609E-02  0.8657536E-01
        1   -1    0    0  501    0  0.00000000000E+00  0.00000000000E+00  0.19596507186E+04  0.19596507186E+04  0.50400001928E-02 0.  1.
       -1   -1    0    0    0  501  0.00000000000E+00  0.00000000000E+00 -0.45793929577E+03  0.45793929580E+03  0.50400001928E-02 0. -1.
    10030    2    1    2    0    0  0.00000000000E+00  0.00000000000E+00  0.15017114229E+04  0.24175900144E+04  0.18946251029E+04 0.  0.
        1    1    3    3  502    0 -0.41159153234E+03  0.66604510821E+03  0.70388973275E+02  0.78611594772E+03  0.50400001928E-02 0. -1.
       -1    1    3    3    0  502  0.41159153234E+03 -0.66604510821E+03  0.14313224496E+04  0.16314740667E+04  0.50400001928E-02 0.  1.
</event>
<event>
 5   0  0.4802635E-04  0.1873296E+04  0.7818609E-02  0.8668264E-01
        2   -1    0    0  501    0  0.00000000000E+00  0.00000000000E+00  0.13189282377E+04  0.13189282377E+04  0.25500000920E-02 0. -1.
       -2   -1    0    0    0  501  0.00000000000E+00  0.00000000000E+00 -0.66516845741E+03  0.66516845741E+03  0.25500000920E-02 0.  1.
    10030    2    1    2    0    0  0.00000000000E+00  0.00000000000E+00  0.65375978033E+03  0.19840966952E+04  0.18732959845E+04 0.  0.
        3    1    3    3  502    0 -0.64057916062E+03 -0.66522078817E+02 -0.39345143539E+03  0.75469920512E+03  0.10100000352E+00 0.  1.
       -3    1    3    3    0  502  0.64057916062E+03  0.66522078817E+02  0.10472112157E+04  0.12293974900E+04  0.10100000352E+00 0. -1.
</event>
<event>
 5   0  0.4829134E-04  0.1915806E+04  0.7818609E-02  0.8647028E-01
       -2   -1    0    0    0  501  0.00000000000E+00  0.00000000000E+00  0.13826292926E+04  0.13826292926E+04  0.25500000920E-02 0.  1.
        2   -1    0    0  501    0  0.00000000000E+00  0.00000000000E+00 -0.66364744951E+03  0.66364744952E+03  0.25500000920E-02 0. -1.
    10030    2    1    2    0    0  0.00000000000E+00  0.00000000000E+00  0.71898184312E+03  0.20462767421E+04  0.19158062571E+04 0.  0.
        2    1    3    3  502    0  0.33477129736E+03 -0.84503510636E+03  0.36538357985E+02  0.90966543527E+03  0.25500000920E-02 0. -1.
       -2    1    3    3    0  502 -0.33477129736E+03  0.84503510636E+03  0.68244348513E+03  0.11366113069E+04  0.25500000920E-02 0.  1.
</event>
<event>
 5   0  0.2317458E-04  0.1896646E+04  0.7818609E-02  0.8656528E-01
       -1   -1    0    0    0  501  0.00000000000E+00  0.00000000000E+00  0.45178450509E+03  0.45178450512E+03  0.50400001928E-02 0.  1.
        1   -1    0    0  501    0  0.00000000000E+00  0.00000000000E+00 -0.19905871107E+04  0.19905871107E+04  0.50400001928E-02 0. -1.
    10030    2    1    2    0    0  0.00000000000E+00  0.00000000000E+00 -0.15388026056E+04  0.24423716158E+04  0.18966458949E+04 0.  0.
        3    1    3    3  502    0  0.68141569853E+00  0.80324834109E+02 -0.19861982483E+04  0.19878219324E+04  0.10100000352E+00 0. -1.
       -3    1    3    3    0  502 -0.68141569853E+00 -0.80324834109E+02  0.44739564273E+03  0.45454968336E+03  0.10100000352E+00 0.  1.
</event>
<event>
 5   0  0.2317458E-04  0.1901018E+04  0.7818609E-02  0.8654350E-01
        1   -1    0    0  501    0  0.00000000000E+00  0.00000000000E+00  0.27327530524E+04  0.27327530524E+04  0.50400001928E-02 0. -1.
       -1   -1    0    0    0  501  0.00000000000E+00  0.00000000000E+00 -0.33060685901E+03  0.33060685905E+03  0.50400001928E-02 0.  1.
    10030    2    1    2    0    0  0.00000000000E+00  0.00000000000E+00  0.24021461934E+04  0.30633599114E+04  0.19010175203E+04 0.  0.
        3    1    3    3  502    0  0.60077852059E+03  0.10241549548E+03  0.25674076250E+02  0.60998601042E+03  0.10100000352E+00 0.  1.
       -3    1    3    3    0  502 -0.60077852059E+03 -0.10241549548E+03  0.23764721171E+04  0.24533739010E+04  0.10100000352E+00 0. -1.
</event>
<event>
 5   0  0.2510069E-04  0.1789733E+04  0.7818609E-02  0.8711779E-01
        1   -1    0    0  501    0  0.00000000000E+00  0.00000000000E+00  0.78636064639E+03  0.78636064640E+03  0.50400001928E-02 0.  1.
       -1   -1    0    0    0  501  0.00000000000E+00  0.00000000000E+00 -0.10183439544E+04  0.10183439544E+04  0.50400001928E-02 0. -1.
    10030    2    1    2    0    0  0.00000000000E+00  0.00000000000E+00 -0.23198330798E+03  0.18047046008E+04  0.17897325054E+04 0.  0.
        4    1    3    3  502    0 -0.53415363430E+03  0.67532446842E+03  0.12976992054E+03  0.87076121174E+03  0.12699999809E+01 0. -1.
       -4    1    3    3    0  502  0.53415363430E+03 -0.67532446842E+03 -0.36175322852E+03  0.93394338904E+03  0.12699999809E+01 0.  1.
</event>
<event>
 5   0  0.4802635E-04  0.1860552E+04  0.7818609E-02  0.8674745E-01
        2   -1    0    0  501    0  0.00000000000E+00  0.00000000000E+00  0.70931797613E+03  0.70931797614E+03  0.25500000920E-02 0. -1.
       -2   -1    0    0    0  501  0.00000000000E+00  0.00000000000E+00 -0.12200647279E+04  0.12200647279E+04  0.25500000920E-02 0.  1.
    10030    2    1    2    0    0  0.00000000000E+00  0.00000000000E+00 -0.51074675176E+03  0.19293827040E+04  0.18605524379E+04 0.  0.
        3    1    3    3  502    0 -0.32937006566E+03 -0.58430399306E+03  0.41308043952E+03  0.78773806317E+03  0.10100000352E+00 0. -1.
       -3    1    3    3    0  502  0.32937006566E+03  0.58430399306E+03 -0.92382719128E+03  0.11416446409E+04  0.10100000352E+00 0.  1.
</event>
<event>
 5   0  0.4829134E-04  0.1930743E+04  0.7818609E-02  0.8639703E-01
        2   -1    0    0  501    0  0.00000000000E+00  0.00000000000E+00  0.21559137270E+04  0.21559137270E+04  0.25500000920E-02 0.  1.
       -2   -1    0    0    0  501  0.00000000000E+00  0.00000000000E+00 -0.43227227186E+03  0.43227227187E+03  0.25500000920E-02 0. -1.
    10030    2    1    2    0    0  0.00000000000E+00  0.00000000000E+00  0.17236414551E+04  0.25881859988E+04  0.19307425770E+04 0.  0.
        2    1    3    3  502    0 -0.41631470987E+03  0.87096040572E+03  0.87146485289E+03  0.13005156500E+04  0.25500000920E-02 0.  1.
       -2    1    3    3    0  502  0.41631470987E+03 -0.87096040572E+03  0.85217660220E+03  0.12876703489E+04  0.25500000920E-02 0. -1.
</event>
<event>
 5   0  0.4761944E-04  0.1533138E+04  0.7818609E-02  0.8862710E-01
        2   -1    0    0  501    0  0.00000000000E+00  0.00000000000E+00  0.16188551401E+04  0.16188551401E+04  0.25500000920E-02 0.  1.
       -2   -1    0    0    0  501  0.00000000000E+00  0.00000000000E+00 -0.36299005207E+03  0.36299005208E+03  0.25500000920E-02 0. -1.
    10030    2    1    2    0    0  0.00000000000E+00  0.00000000000E+00  0.12558650880E+04  0.19818451922E+04  0.15331383651E+04 0.  0.
        4    1    3    3  502    0  0.98969194518E+02  0.59258897420E+01  0.16105305927E+04  0.16135800013E+04  0.12699999809E+01 0.  1.
       -4    1    3    3    0  502 -0.98969194518E+02 -0.59258897420E+01 -0.35466550473E+03  0.36826519083E+03  0.12699999809E+01 0. -1.
</event>
<event>
 5   0  0.2376359E-04  0.1905581E+04  0.7818609E-02  0.8652084E-01
       -1   -1    0    0    0  501  0.00000000000E+00  0.00000000000E+00  0.11380290085E+04  0.11380290085E+04  0.50400001928E-02 0. -1.
        1   -1    0    0  501    0  0.00000000000E+00  0.00000000000E+00 -0.79770323964E+03  0.79770323966E+03  0.50400001928E-02 0.  1.
    10030    2    1    2    0    0  0.00000000000E+00  0.00000000000E+00  0.34032576889E+03  0.19357322482E+04  0.19055806747E+04 0.  0.
        2    1    3    3  502    0  0.62161465820E+03  0.52588285875E+03  0.67281747295E+03  0.10562390432E+04  0.25500000920E-02 0. -1.
       -2    1    3    3    0  502 -0.62161465820E+03 -0.52588285875E+03 -0.33249170406E+03  0.87949320503E+03  0.25500000920E-02 0.  1.
</event>
<event>
 5   0  0.1729375E-04  0.1887446E+04  0.7818609E-02  0.8661130E-01
        3   -1    0    0  501    0  0.00000000000E+00  0.00000000000E+00  0.76681666251E+03  0.76681666916E+03  0.10100000352E+00 0. -1.
       -3   -1    0    0    0  501  0.00000000000E+00  0.00000000000E+00 -0.11614424112E+04  0.11614424156E+04  0.10100000352E+00 0.  1.
    10030    2    1    2    0    0  0.00000000000E+00  0.00000000000E+00 -0.39462574868E+03  0.19282590847E+04  0.18874463214E+04 0.  0.
        5    1    3    3  502    0 -0.51672501388E+03 -0.39195023219E+03  0.50304813344E+03  0.82079792826E+03  0.46999998093E+01 0. -1.
       -5    1    3    3    0  502  0.51672501388E+03  0.39195023219E+03 -0.89767388211E+03  0.11074611565E+04  0.46999998093E+01 0.  1.
</event>
<event>
 5   0  0.4802635E-04  0.2006497E+04  0.7818609E-02  0.8603589E-01
        2   -1    0    0  501    0  0.00000000000E+00  0.00000000000E+00  0.14250697087E+04  0.14250697087E+04  0.25500000920E-02 0.  1.
       -2   -1    0    0    0  501  0.00000000000E+00  0.00000000000E+00 -0.70628638345E+03  0.70628638346E+03  0.25500000920E-02 0. -1.
    10030    2    1    2    0    0  0.00000000000E+00  0.00000000000E+00  0.71878332526E+03  0.21313560922E+04  0.20064967787E+04 0.  0.
        3    1    3    3  502    0  0.81449306178E+03  0.28475375391E+03  0.90312731776E+03  0.12490486821E+04  0.10100000352E+00 0.  1.
       -3    1    3    3    0  502 -0.81449306178E+03 -0.28475375391E+03 -0.18434399249E+03  0.88230741005E+03  0.10100000352E+00 0. -1.
</event>
<event>
 5   0  0.4829134E-04  0.1884658E+04  0.7818609E-02  0.8662531E-01
       -2   -1    0    0    0  501  0.00000000000E+00  0.00000000000E+00  0.87451865987E+03  0.87451865987E+03  0.25500000920E-02 0.  1.
        2   -1    0    0  501    0  0.00000000000E+00  0.00000000000E+00 -0.10153972654E+04  0.10153972654E+04  0.25500000920E-02 0. -1.
    10030    2    1    2    0    0  0.00000000000E+00  0.00000000000E+00 -0.14087860554E+03  0.18899159253E+04  0.18846579061E+04 0.  0.
        2    1    3    3  502    0 -0.32937474967E+03 -0.11632518367E+03 -0.94807503736E+03  0.10103789143E+04  0.25500000920E-02 0. -1.
       -2    1    3    3    0  502  0.32937474967E+03  0.11632518367E+03  0.80719643182E+03  0.87953701095E+03  0.25500000920E-02 0.  1.
</event>
<event>
 5   0  0.2261755E-04  0.1884455E+04  0.7818609E-02  0.8662633E-01
       -1   -1    0    0    0  501  0.00000000000E+00  0.00000000000E+00  0.64952125211E+03  0.64952125213E+03  0.50400001928E-02 0. -1.
        1   -1    0    0  501    0  0.00000000000E+00  0.00000000000E+00 -0.13668414721E+04  0.13668414721E+04  0.50400001928E-02 0.  1.
    10030    2    1    2    0    0  0.00000000000E+00  0.00000000000E+00 -0.71732022002E+03  0.20163627243E+04  0.18844549180E+04 0.  0.
        1    1    3    3  502    0  0.10309596474E+03  0.27324670665E+03  0.59986929499E+03  0.66718491571E+03  0.50400001928E-02 0. -1.
       -1    1    3    3    0  502 -0.10309596474E+03 -0.27324670665E+03 -0.13171895150E+04  0.13491778086E+04  0.50400001928E-02 0.  1.
</event>
<event>
 5   0  0.2317458E-04  0.1952284E+04  0.7818609E-02  0.8629260E-01
       -1   -1    0    0    0  501  0.00000000000E+00  0.00000000000E+00  0.10487324676E+04  0.10487324676E+04  0.50400001928E-02 0.  1.
        1   -1    0    0  501    0  0.00000000000E+00  0.00000000000E+00 -0.90857564137E+03  0.90857564138E+03  0.50400001928E-02 0. -1.
    10030    2    1    2    0    0  0.00000000000E+00  0.00000000000E+00  0.14015682627E+03  0.19573081090E+04  0.19522835598E+04 0.  0.
        3    1    3    3  502    0 -0.75999293949E+03  0.64995954164E+02  0.68077584210E+03  0.10223842230E+04  0.10100000352E+00 0.  1.
       -3    1    3    3    0  502  0.75999293949E+03 -0.64995954164E+02 -0.54061901583E+03  0.93492388599E+03  0.10100000352E+00 0. -1.
</event>
<event>
 5   0  0.2510069E-04  0.1704478E+04  0.7818609E-02  0.8758814E-01
       -1   -1    0    0    0  501  0.00000000000E+00  0.00000000000E+00  0.99186594347E+03  0.99186594348E+03  0.50400001928E-02 0.  1.
        1   -1    0    0  501    0  0.00000000000E+00  0.00000000000E+00 -0.73226776914E+03  0.73226776916E+03  0.50400001928E-02 0. -1.
    10030    2    1    2    0    0  0.00000000000E+00  0.00000000000E+00  0.25959817433E+03  0.17241337126E+04  0.17044781744E+04 0.  0.
        4    1    3    3  502    0 -0.50204578792E+03 -0.67324742131E+03  0.27637622779E+03  0.88413658202E+03  0.12699999809E+01 0. -1.
       -4    1    3    3    0  502  0.50204578792E+03  0.67324742131E+03 -0.16778053462E+02  0.83999713062E+03  0.12699999809E+01 0.  1.
</event>
<event>
 5   0  0.2317458E-04  0.1899229E+04  0.7818609E-02  0.8655240E-01
        1   -1    0    0  501    0  0.00000000000E+00  0.00000000000E+00  0.16051403664E+04  0.16051403664E+04  0.50400001928E-02 0.  1.
       -1   -1    0    0    0  501  0.00000000000E+00  0.00000000000E+00 -0.56179985505E+03  0.56179985507E+03  0.50400001928E-02 0. -1.
    10030    2    1    2    0    0  0.00000000000E+00  0.00000000000E+00  0.10433405113E+04  0.21669402215E+04  0.18992289227E+04 0.  0.
        3    1    3    3  502    0 -0.45349804975E+03 -0.59380441626E+03 -0.14703566198E+03  0.76150092711E+03  0.10100000352E+00 0. -1.
       -3    1    3    3    0  502  0.45349804975E+03  0.59380441626E+03  0.11903761733E+04  0.14054392944E+04  0.10100000352E+00 0.  1.
</event>
<event>
 5   0  0.4802635E-04  0.1899101E+04  0.7818609E-02  0.8655304E-01
        2   -1    0    0  501    0  0.00000000000E+00  0.00000000000E+00  0.17929164709E+04  0.17929164709E+04  0.25500000920E-02 0.  1.
       -2   -1    0    0    0  501  0.00000000000E+00  0.00000000000E+00 -0.50289338118E+03  0.50289338118E+03  0.25500000920E-02 0. -1.
    10030    2    1    2    0    0  0.00000000000E+00  0.00000000000E+00  0.12900230898E+04  0.22958098521E+04  0.18991006569E+04 0.  0.
        3    1    3    3  502    0 -0.22749832056E+03 -0.59305594601E+03  0.14982666299E+04  0.16273517583E+04  0.10100000352E+00 0.  1.
       -3    1    3    3    0  502  0.22749832056E+03  0.59305594601E+03 -0.20824354011E+03  0.66845809379E+03  0.10100000352E+00 0. -1.
</event>
<event>
 5   0  0.2376359E-04  0.1868720E+04  0.7818609E-02  0.8670585E-01
        1   -1    0    0  501    0  0.00000000000E+00  0.00000000000E+00  0.45274434900E+03  0.45274434903E+03  0.50400001928E-02 0. -1.
       -1   -1    0    0    0  501  0.00000000000E+00  0.00000000000E+00 -0.19283029455E+04  0.19283029456E+04  0.50400001928E-02 0.  1.
    10030    2    1    2    0    0  0.00000000000E+00  0.00000000000E+00 -0.14755585965E+04  0.23810472946E+04  0.18687196278E+04 0.  0.
        2    1    3    3  502    0 -0.56576565837E+03 -0.51815307733E+03 -0.14173436073E+04  0.16116563818E+04  0.25500000920E-02 0.  1.
       -2    1    3    3    0  502  0.56576565837E+03  0.51815307733E+03 -0.58214989250E+02  0.76939091282E+03  0.25500000920E-02 0. -1.
</event>
<event>
 5   0  0.4973411E-04  0.1863636E+04  0.7818609E-02  0.8673172E-01
        2   -1    0    0  501    0  0.00000000000E+00  0.00000000000E+00  0.21170292436E+04  0.21170292436E+04  0.25500000920E-02 0.  1.
       -2   -1    0    0    0  501  0.00000000000E+00  0.00000000000E+00 -0.41014300609E+03  0.41014300610E+03  0.25500000920E-02 0. -1.
    10030    2    1    2    0    0  0.00000000000E+00  0.00000000000E+00  0.17068862375E+04  0.25271722497E+04  0.18636359494E+04 0.  0.
        1    1    3    3  502    0 -0.49662534790E+03  0.70075107180E+03  0.36339514509E+03  0.93260111104E+03  0.50400001928E-02 0. -1.
       -1    1    3    3    0  502  0.49662534790E+03 -0.70075107180E+03  0.13434910924E+04  0.15945711386E+04  0.50400001928E-02 0.  1.
</event>
<event>
 5   0  0.2376359E-04  0.1923194E+04  0.7818609E-02  0.8643397E-01
       -1   -1    0    0    0  501  0.00000000000E+00  0.00000000000E+00  0.88723357729E+03  0.88723357731E+03  0.50400001928E-02 0.  1.
        1   -1    0    0  501    0  0.00000000000E+00  0.00000000000E+00 -0.10421932355E+04  0.10421932355E+04  0.50400001928E-02 0. -1.
    10030    2    1    2    0    0  0.00000000000E+00  0.00000000000E+00 -0.15495965824E+03  0.19294268129E+04  0.19231940439E+04 0.  0.
        2    1    3    3  502    0 -0.39303431573E+03  0.42852145327E+03 -0.84583540800E+03  0.10264229862E+04  0.25500000920E-02 0. -1.
       -2    1    3    3    0  502  0.39303431573E+03 -0.42852145327E+03  0.69087574976E+03  0.90300382661E+03  0.25500000920E-02 0.  1.
</event>
<event>
 5   0  0.2317458E-04  0.1875249E+04  0.7818609E-02  0.8667275E-01
       -1   -1    0    0    0  501  0.00000000000E+00  0.00000000000E+00  0.88330285727E+03  0.88330285728E+03  0.50400001928E-02 0.  1.
        1   -1    0    0  501    0  0.00000000000E+00  0.00000000000E+00 -0.99528716642E+03  0.99528716643E+03  0.50400001928E-02 0. -1.
    10030    2    1    2    0    0  0.00000000000E+00  0.00000000000E+00 -0.11198430915E+03  0.18785900237E+04  0.18752493145E+04 0.  0.
        3    1    3    3  502    0  0.41503859713E+03  0.74749573596E+03 -0.44155840843E+03  0.96227893598E+03  0.10100000352E+00 0. -1.
       -3    1    3    3    0  502 -0.41503859713E+03 -0.74749573596E+03  0.32957409928E+03  0.91631108773E+03  0.10100000352E+00 0.  1.
</event>
<event>
 5   0  0.4973411E-04  0.1876135E+04  0.7818609E-02  0.8666828E-01
        2   -1    0    0  501    0  0.00000000000E+00  0.00000000000E+00  0.17110650978E+04  0.17110650978E+04  0.25500000920E-02 0.  1.
       -2   -1    0    0    0  501  0.00000000000E+00  0.00000000000E+00 -0.51428238947E+03  0.51428238948E+03  0.25500000920E-02 0. -1.
    10030    2    1    2    0    0  0.00000000000E+00  0.00000000000E+00  0.11967827083E+04  0.22253474873E+04  0.18761350133E+04 0.  0.
        1    1    3    3  502    0  0.23003635176E+03 -0.86561880169E+03  0.26763642350E+03  0.93479510492E+03  0.50400001928E-02 0. -1.
       -1    1    3    3    0  502 -0.23003635176E+03  0.86561880169E+03  0.92914628483E+03  0.12905523824E+04  0.50400001928E-02 0.  1.
</event>
<event>
 5   0  0.2510069E-04  0.1868769E+04  0.7818609E-02  0.8670560E-01
        1   -1    0    0  501    0  0.00000000000E+00  0.00000000000E+00  0.19062120160E+04  0.19062120160E+04  0.50400001928E-02 0. -1.
       -1   -1    0    0    0  501  0.00000000000E+00  0.00000000000E+00 -0.45801542772E+03  0.45801542775E+03  0.50400001928E-02 0.  1.
    10030    2    1    2    0    0  0.00000000000E+00  0.00000000000E+00  0.14481965883E+04  0.23642274437E+04  0.18687691263E+04 0.  0.
        4    1    3    3  502    0 -0.77833602224E+03  0.62781656970E+02  0.13732992559E+04  0.15797787690E+04  0.12699999809E+01 0. -1.
       -4    1    3    3    0  502  0.77833602224E+03 -0.62781656970E+02  0.74897332387E+02  0.78444867472E+03  0.12699999809E+01 0.  1.
</event>
<event>
 5   0  0.4829134E-04  0.1781602E+04  0.7818609E-02  0.8716145E-01
       -2   -1    0    0    0  501  0.00000000000E+00  0.00000000000E+00  0.59044004746E+03  0.59044004746E+03  0.25500000920E-02 0.  1.
        2   -1    0    0  501    0  0.00000000000E+00  0.00000000000E+00 -0.13439579838E+04  0.13439579838E+04  0.25500000920E-02 0. -1.
    10030    2    1    2    0    0  0.00000000000E+00  0.00000000000E+00 -0.75351793632E+03  0.19343980312E+04  0.17816022179E+04 0.  0.
        2    1    3    3  502    0  0.61971249063E+03  0.53294555343E+03 -0.76132775572E+03  0.11170024555E+04  0.25500000920E-02 0. -1.
       -2    1    3    3    0  502 -0.61971249063E+03 -0.53294555343E+03  0.78098194069E+01  0.81739557574E+03  0.25500000920E-02 0.  1.
</event>
<event>
 5   0  0.2355414E-04  0.1905192E+04  0.7818609E-02  0.8652276E-01
       -1   -1    0    0    0  501  0.00000000000E+00  0.00000000000E+00  0.77416419544E+03  0.77416419545E+03  0.50400001928E-02 0.  1.
        1   -1    0    0  501    0  0.00000000000E+00  0.00000000000E+00 -0.11721535160E+04  0.11721535160E+04  0.50400001928E-02 0. -1.
    10030    2    1    2    0    0  0.00000000000E+00  0.00000000000E+00 -0.39798932056E+03  0.19463177115E+04  0.19051921516E+04 0.  0.
        5    1    3    3  502    0 -0.29149152883E+03  0.29744504005E+03 -0.10742121312E+04  0.11521261459E+04  0.46999998093E+01 0. -1.
       -5    1    3    3    0  502  0.29149152883E+03 -0.29744504005E+03  0.67622281063E+03  0.79419156558E+03  0.46999998093E+01 0.  1.
</event>
<event>
 5   0  0.4802635E-04  0.1804918E+04  0.7818609E-02  0.8703689E-01
       -2   -1    0    0    0  501  0.00000000000E+00  0.00000000000E+00  0.92791733508E+03  0.92791733509E+03  0.25500000920E-02 0.  1.
        2   -1    0    0  501    0  0.00000000000E+00  0.00000000000E+00 -0.87769889133E+03  0.87769889134E+03  0.25500000920E-02 0. -1.
    10030    2    1    2    0    0  0.00000000000E+00  0.00000000000E+00  0.50218443750E+02  0.18056162264E+04  0.18049177447E+04 0.  0.
        3    1    3    3  502    0  0.24845963975E+03  0.63356897083E+03  0.61803595895E+03  0.91929880351E+03  0.10100000352E+00 0.  1.
       -3    1    3    3    0  502 -0.24845963975E+03 -0.63356897083E+03 -0.56781751520E+03  0.88631742291E+03  0.10100000352E+00 0. -1.
</event>
<event>
 5   0  0.2376359E-04  0.1584975E+04  0.7818609E-02  0.8829832E-01
        1   -1    0    0  501    0  0.00000000000E+00  0.00000000000E+00  0.10275113706E+04  0.10275113706E+04  0.50400001928E-02 0.  1.
       -1   -1    0    0    0  501  0.00000000000E+00  0.00000000000E+00 -0.61122065525E+03  0.61122065527E+03  0.50400001928E-02 0. -1.
    10030    2    1    2    0    0  0.00000000000E+00  0.00000000000E+00  0.41629071536E+03  0.16387320259E+04  0.15849746664E+04 0.  0.
        2    1    3    3  502    0 -0.11687239165E+03  0.14279615163E+03  0.10049903024E+04  0.10217902939E+04  0.25500000920E-02 0.  1.
       -2    1    3    3    0  502  0.11687239165E+03 -0.14279615163E+03 -0.58869958703E+03  0.61694173196E+03  0.25500000920E-02 0. -1.
</event>
<event>
 5   0  0.4829134E-04  0.1903549E+04  0.7818609E-02  0.8653092E-01
       -2   -1    0    0    0  501  0.00000000000E+00  0.00000000000E+00  0.10170733353E+04  0.10170733353E+04  0.25500000920E-02 0. -1.
        2   -1    0    0  501    0  0.00000000000E+00  0.00000000000E+00 -0.89066793988E+03  0.89066793988E+03  0.25500000920E-02 0.  1.
    10030    2    1    2    0    0  0.00000000000E+00  0.00000000000E+00  0.12640539540E+03  0.19077412752E+04  0.19035489090E+04 0.  0.
        2    1    3    3  502    0  0.81651516126E+03 -0.38123874692E+03  0.37020171794E+03  0.97421214460E+03  0.25500000920E-02 0. -1.
       -2    1    3    3    0  502 -0.81651516126E+03  0.38123874692E+03 -0.24379632254E+03  0.93352913056E+03  0.25500000920E-02 0.  1.
</event>
<event>
 5   0  0.4973411E-04  0.2472540E+04  0.7818609E-02  0.8412834E-01
        2   -1    0    0  501    0  0.00000000000E+00  0.00000000000E+00  0.15462134273E+04  0.15462134273E+04  0.25500000920E-02 0.  1.
       -2   -1    0    0    0  501  0.00000000000E+00  0.00000000000E+00 -0.98845561958E+03  0.98845561959E+03  0.25500000920E-02 0. -1.
    10030    2    1    2    0    0  0.00000000000E+00  0.00000000000E+00  0.55775780770E+03  0.25346690469E+04  0.24725398693E+04 0.  0.
        1    1    3    3  502    0 -0.51012679842E+03 -0.37618480629E+03  0.13669730959E+04  0.15067713177E+04  0.50400001928E-02 0.  1.
       -1    1    3    3    0  502  0.51012679842E+03  0.37618480629E+03 -0.80921528819E+03  0.10278977292E+04  0.50400001928E-02 0. -1.
</event>
<event>
 5   0  0.2317458E-04  0.1893730E+04  0.7818609E-02  0.8657984E-01
       -1   -1    0    0    0  501  0.00000000000E+00  0.00000000000E+00  0.67196018637E+03  0.67196018639E+03  0.50400001928E-02 0. -1.
        1   -1    0    0  501    0  0.00000000000E+00  0.00000000000E+00 -0.13342357861E+04  0.13342357861E+04  0.50400001928E-02 0.  1.
    10030    2    1    2    0    0  0.00000000000E+00  0.00000000000E+00 -0.66227559969E+03  0.20061959725E+04  0.18937299992E+04 0.  0.
        3    1    3    3  502    0 -0.52091768524E+03  0.50993632426E+03 -0.97131277726E+03  0.12144294179E+04  0.10100000352E+00 0.  1.
       -3    1    3    3    0  502  0.52091768524E+03 -0.50993632426E+03  0.30903717757E+03  0.79176655456E+03  0.10100000352E+00 0. -1.
</event>
<event>
 5   0  0.2510069E-04  0.2226502E+04  0.7818609E-02  0.8507478E-01
        1   -1    0    0  501    0  0.00000000000E+00  0.00000000000E+00  0.13991395219E+04  0.13991395219E+04  0.50400001928E-02 0. -1.
       -1   -1    0    0    0  501  0.00000000000E+00  0.00000000000E+00 -0.88577854064E+03  0.88577854065E+03  0.50400001928E-02 0.  1.
    10030    2    1    2    0    0  0.00000000000E+00  0.00000000000E+00  0.51336098129E+03  0.22849180626E+04  0.22265019775E+04 0.  0.
        4    1    3    3  502    0  0.23742091939E+03 -0.57522892394E+03  0.12039748791E+04  0.13552911607E+04  0.12699999809E+01 0. -1.
       -4    1    3    3    0  502 -0.23742091939E+03  0.57522892394E+03 -0.69061389783E+03  0.92962690187E+03  0.12699999809E+01 0.  1.
</event>
<event>
 5   0  0.4829134E-04  0.1889541E+04  0.7818609E-02  0.8660080E-01
       -2   -1    0    0    0  501  0.00000000000E+00  0.00000000000E+00  0.18867581297E+04  0.18867581297E+04  0.25500000920E-02 0.  1.
        2   -1    0    0  501    0  0.00000000000E+00  0.00000000000E+00 -0.47308177199E+03  0.47308177200E+03  0.25500000920E-02 0. -1.
    10030    2    1    2    0    0  0.00000000000E+00  0.00000000000E+00  0.14136763577E+04  0.23598399017E+04  0.18895405572E+04 0.  0.
        2    1    3    3  502    0  0.19192857143E+03  0.88203924760E+03  0.35857510264E+03  0.97129084989E+03  0.25500000920E-02 0. -1.
       -2    1    3    3    0  502 -0.19192857143E+03 -0.88203924760E+03  0.10551012551E+04  0.13885490518E+04  0.25500000920E-02 0.  1.
</event>
<event>
 5   0  0.4761944E-04  0.1900172E+04  0.7818609E-02  0.8654771E-01
       -2   -1    0    0    0  501  0.00000000000E+00  0.00000000000E+00  0.61258413456E+03  0.61258413456E+03  0.25500000920E-02 0.  1.
        2   -1    0    0  501    0  0.00000000000E+00  0.00000000000E+00 -0.14735338636E+04  0.14735338636E+04  0.25500000920E-02 0. -1.
    10030    2    1    2    0    0  0.00000000000E+00  0.00000000000E+00 -0.86094972906E+03  0.20861179982E+04  0.19001720623E+04 0.  0.
        4    1    3    3  502    0  0.79620793023E+03 -0.51822940353E+03 -0.41689197450E+03  0.10374532829E+04  0.12699999809E+01 0.  1.
       -4    1    3    3    0  502 -0.79620793023E+03  0.51822940353E+03 -0.44405775457E+03  0.10486647153E+04  0.12699999809E+01 0. -1.
</event>
<event>
 5   0  0.4802635E-04  0.1889398E+04  0.7818609E-02  0.8660152E-01
       -2   -1    0    0    0  501  0.00000000000E+00  0.00000000000E+00  0.59607876826E+03  0.59607876827E+03  0.25500000920E-02 0.  1.
        2   -1    0    0  501    0  0.00000000000E+00  0.00000000000E+00 -0.14972124268E+04  0.14972124268E+04  0.25500000920E-02 0. -1.
    10030    2    1    2    0    0  0.00000000000E+00  0.00000000000E+00 -0.90113365852E+03  0.20932911950E+04  0.18893983584E+04 0.  0.
        3    1    3    3  502    0  0.73017633130E+02 -0.81569166436E+03 -0.97231331337E+03  0.12712504299E+04  0.10100000352E+00 0. -1.
       -3    1    3    3    0  502 -0.73017633130E+02  0.81569166436E+03  0.71179654851E+02  0.82204076512E+03  0.10100000352E+00 0.  1.
</event>
<event>
 5   0  0.4839293E-04  0.1925382E+04  0.7818609E-02  0.8642324E-01
        2   -1    0    0  501    0  0.00000000000E+00  0.00000000000E+00  0.89021976706E+03  0.89021976707E+03  0.25500000920E-02 0. -1.
       -2   -1    0    0    0  501  0.00000000000E+00  0.00000000000E+00 -0.10410624295E+04  0.10410624295E+04  0.25500000920E-02 0.  1.
    10030    2    1    2    0    0  0.00000000000E+00  0.00000000000E+00 -0.15084266248E+03  0.19312821966E+04  0.19253824072E+04 0.  0.
        5    1    3    3  502    0 -0.60123593438E+03 -0.21008940607E+03  0.64868408953E+03  0.90908489447E+03  0.46999998093E+01 0. -1.
       -5    1    3    3    0  502  0.60123593438E+03  0.21008940607E+03 -0.79952675202E+03  0.10221973021E+04  0.46999998093E+01 0.  1.
</event>
<event>
 5   0  0.2510069E-04  0.1870935E+04  0.7818609E-02  0.8669461E-01
        1   -1    0    0  501    0  0.00000000000E+00  0.00000000000E+00  0.81345709969E+03  0.81345709971E+03  0.50400001928E-02 0. -1.
       -1   -1    0    0    0  501  0.00000000000E+00  0.00000000000E+00 -0.10757777323E+04  0.10757777323E+04  0.50400001928E-02 0.  1.
    10030    2    1    2    0    0  0.00000000000E+00  0.00000000000E+00 -0.26232063257E+03  0.18892348320E+04  0.18709345622E+04 0.  0.
        4    1    3    3  502    0  0.73191401349E+03  0.34931184698E+03  0.33964100109E+03  0.87924655934E+03  0.12699999809E+01 0. -1.
       -4    1    3    3    0  502 -0.73191401349E+03 -0.34931184698E+03 -0.60196163366E+03  0.10099882726E+04  0.12699999809E+01 0.  1.
</event>
<event>
 5   0  0.2355414E-04  0.1846130E+04  0.7818609E-02  0.8682145E-01
        1   -1    0    0  501    0  0.00000000000E+00  0.00000000000E+00  0.10233422017E+04  0.10233422017E+04  0.50400001928E-02 0. -1.
       -1   -1    0    0    0  501  0.00000000000E+00  0.00000000000E+00 -0.83261425393E+03  0.83261425395E+03  0.50400001928E-02 0.  1.
    10030    2    1    2    0    0  0.00000000000E+00  0.00000000000E+00  0.19072794774E+03  0.18559564556E+04  0.18461303354E+04 0.  0.
        5    1    3    3  502    0  0.87986801932E+03 -0.23345400784E+03  0.24901300933E+03  0.94376801917E+03  0.46999998093E+01 0. -1.
       -5    1    3    3    0  502 -0.87986801932E+03  0.23345400784E+03 -0.58285061595E+02  0.91218843646E+03  0.46999998093E+01 0.  1.
</event>
<event>
 5   0  0.2261755E-04  0.1946055E+04  0.7818609E-02  0.8632266E-01
       -1   -1    0    0    0  501  0.00000000000E+00  0.00000000000E+00  0.71771005858E+03  0.71771005859E+03  0.50400001928E-02 0.  1.
        1   -1    0    0  501    0  0.00000000000E+00  0.00000000000E+00 -0.13191710400E+04  0.13191710400E+04  0.50400001928E-02 0. -1.
    10030    2    1    2    0    0  0.00000000000E+00  0.00000000000E+00 -0.60146098146E+03  0.20368810986E+04  0.19460548034E+04 0.  0.
        1    1    3    3  502    0 -0.67090155822E+02  0.13280485835E+03  0.70573274226E+03  0.72124678365E+03  0.50400001928E-02 0.  1.
       -1    1    3    3    0  502  0.67090155822E+02 -0.13280485835E+03 -0.13071937237E+04  0.13156343150E+04  0.50400001928E-02 0. -1.
</event>
<event>
 5   0  0.4761944E-04  0.1785994E+04  0.7818609E-02  0.8713783E-01
        2   -1    0    0  501    0  0.00000000000E+00  0.00000000000E+00  0.81596100354E+03  0.81596100355E+03  0.25500000920E-02 0.  1.
       -2   -1    0    0    0  501  0.00000000000E+00  0.00000000000E+00 -0.97730629814E+03  0.97730629814E+03  0.25500000920E-02 0. -1.
    10030    2    1    2    0    0  0.00000000000E+00  0.00000000000E+00 -0.16134529460E+03  0.17932673017E+04  0.17859942081E+04 0.  0.
        4    1    3    3  502    0  0.80673892171E+03 -0.37835851064E+03 -0.13972852761E+03  0.90194707422E+03  0.12699999809E+01 0.  1.
       -4    1    3    3    0  502 -0.80673892171E+03  0.37835851064E+03 -0.21616766989E+02  0.89132022746E+03  0.12699999809E+01 0. -1.
</event>
<event>
 5   0  0.4761944E-04  0.1843322E+04  0.7818609E-02  0.8683595E-01
       -2   -1    0    0    0  501  0.00000000000E+00  0.00000000000E+00  0.90458250512E+03  0.90458250512E+03  0.25500000920E-02 0. -1.
        2   -1    0    0  501    0  0.00000000000E+00  0.00000000000E+00 -0.93906184613E+03  0.93906184613E+03  0.25500000920E-02 0.  1.
    10030    2    1    2    0    0  0.00000000000E+00  0.00000000000E+00 -0.34479341007E+02  0.18436443513E+04  0.18433219114E+04 0.  0.
        4    1    3    3  502    0  0.30539700318E+03  0.93681889427E+02  0.84744245683E+03  0.90565112295E+03  0.12699999809E+01 0. -1.
       -4    1    3    3    0  502 -0.30539700318E+03 -0.93681889427E+02 -0.88192179783E+03  0.93799322831E+03  0.12699999809E+01 0.  1.
</event>
<event>
 5   0  0.1729375E-04  0.1886209E+04  0.7818609E-02  0.8661751E-01
        3   -1    0    0  501    0  0.00000000000E+00  0.00000000000E+00  0.99918789053E+03  0.99918789563E+03  0.10100000352E+00 0. -1.
       -3   -1    0    0    0  501  0.00000000000E+00  0.00000000000E+00 -0.89016937761E+03  0.89016938334E+03  0.10100000352E+00 0.  1.
    10030    2    1    2    0    0  0.00000000000E+00  0.00000000000E+00  0.10901851292E+03  0.18893572790E+04  0.18862093976E+04 0.  0.
        4    1    3    3  502    0 -0.73216283289E+03 -0.14780622121E+03 -0.52224310445E+03  0.91139923521E+03  0.12699999809E+01 0.  1.
       -4    1    3    3    0  502  0.73216283289E+03  0.14780622121E+03  0.63126161737E+03  0.97795804376E+03  0.12699999809E+01 0. -1.
</event>
<event>
 5   0  0.4829134E-04  0.1645785E+04  0.7818609E-02  0.8792904E-01
       -2   -1    0    0    0  501  0.00000000000E+00  0.00000000000E+00  0.13751802485E+04  0.13751802485E+04  0.25500000920E-02 0. -1.
        2   -1    0    0  501    0  0.00000000000E+00  0.00000000000E+00 -0.49240980066E+03  0.49240980067E+03  0.25500000920E-02 0.  1.
    10030    2    1    2    0    0  0.00000000000E+00  0.00000000000E+00  0.88277044780E+03  0.18675900491E+04  0.16457852011E+04 0.  0.
        2    1    3    3  502    0  0.36633074282E+03 -0.41658791271E+03  0.11310878159E+04  0.12598029010E+04  0.25500000920E-02 0. -1.
       -2    1    3    3    0  502 -0.36633074282E+03  0.41658791271E+03 -0.24831736807E+03  0.60778714814E+03  0.25500000920E-02 0.  1.
</event>
<event>
 5   0  0.2376359E-04  0.1631071E+04  0.7818609E-02  0.8801684E-01
        1   -1    0    0  501    0  0.00000000000E+00  0.00000000000E+00  0.93646673719E+03  0.93646673720E+03  0.50400001928E-02 0. -1.
       -1   -1    0    0    0  501  0.00000000000E+00  0.00000000000E+00 -0.71022085309E+03  0.71022085311E+03  0.50400001928E-02 0.  1.
    10030    2    1    2    0    0  0.00000000000E+00  0.00000000000E+00  0.22624588409E+03  0.16466875903E+04  0.16310710653E+04 0.  0.
        2    1    3    3  502    0 -0.99277353974E+02  0.80361470637E+03  0.15003862637E+02  0.80986276937E+03  0.25500000920E-02 0.  1.
       -2    1    3    3    0  502  0.99277353974E+02 -0.80361470637E+03  0.21124202146E+03  0.83682482094E+03  0.25500000920E-02 0. -1.
</event>
<event>
 5   0  0.2317458E-04  0.1197905E+04  0.7818609E-02  0.9114692E-01
       -1   -1    0    0    0  501  0.00000000000E+00  0.00000000000E+00  0.79705988940E+03  0.79705988942E+03  0.50400001928E-02 0. -1.
        1   -1    0    0  501    0  0.00000000000E+00  0.00000000000E+00 -0.45008433303E+03  0.45008433306E+03  0.50400001928E-02 0.  1.
    10030    2    1    2    0    0  0.00000000000E+00  0.00000000000E+00  0.34697555637E+03  0.12471442225E+04  0.11979051193E+04 0.  0.
        3    1    3    3  502    0  0.99909512989E+02  0.26802839190E+03 -0.37437752217E+03  0.47114718397E+03  0.10100000352E+00 0.  1.
       -3    1    3    3    0  502 -0.99909512989E+02 -0.26802839190E+03  0.72135307854E+03  0.77599703851E+03  0.10100000352E+00 0. -1.
</event>
<event>
 5   0  0.4839293E-04  0.1832512E+04  0.7818609E-02  0.8689198E-01
       -2   -1    0    0    0  501  0.00000000000E+00  0.00000000000E+00  0.67914004159E+03  0.67914004160E+03  0.25500000920E-02 0. -1.
        2   -1    0    0  501    0  0.00000000000E+00  0.00000000000E+00 -0.12361595617E+04  0.12361595617E+04  0.25500000920E-02 0.  1.
    10030    2    1    2    0    0  0.00000000000E+00  0.00000000000E+00 -0.55701952014E+03  0.19152996033E+04  0.18325124351E+04 0.  0.
        5    1    3    3  502    0 -0.36031866042E+01 -0.93935174660E+02  0.67407395716E+03  0.68061339225E+03  0.46999998093E+01 0. -1.
       -5    1    3    3    0  502  0.36031866042E+01  0.93935174660E+02 -0.12310934773E+04  0.12346862111E+04  0.46999998093E+01 0.  1.
</event>
<event>
 5   0  0.4973411E-04  0.1915742E+04  0.7818609E-02  0.8647060E-01
        2   -1    0    0  501    0  0.00000000000E+00  0.00000000000E+00  0.19312196970E+04  0.19312196970E+04  0.25500000920E-02 0. -1.
       -2   -1    0    0    0  501  0.00000000000E+00  0.00000000000E+00 -0.47509725472E+03  0.47509725473E+03  0.25500000920E-02 0.  1.
    10030    2    1    2    0    0  0.00000000000E+00  0.00000000000E+00  0.14561224422E+04  0.24063169517E+04  0.19157423379E+04 0.  0.
        1    1    3    3  502    0 -0.65407906778E+02 -0.10704376634E+03 -0.46473479718E+03  0.48136783640E+03  0.50400001928E-02 0.  1.
       -1    1    3    3    0  502  0.65407906778E+02  0.10704376634E+03  0.19208572394E+04  0.19249491153E+04  0.50400001928E-02 0. -1.
</event>
<event>
 5   0  0.2510069E-04  0.2015438E+04  0.7818609E-02  0.8599437E-01
       -1   -1    0    0    0  501  0.00000000000E+00  0.00000000000E+00  0.54125013659E+03  0.54125013662E+03  0.50400001928E-02 0. -1.
        1   -1    0    0  501    0  0.00000000000E+00  0.00000000000E+00 -0.18762066966E+04  0.18762066966E+04  0.50400001928E-02 0.  1.
    10030    2    1    2    0    0  0.00000000000E+00  0.00000000000E+00 -0.13349565600E+04  0.24174568332E+04  0.20154375513E+04 0.  0.
        4    1    3    3  502    0 -0.25695703910E+03 -0.45127691011E+02  0.50003929544E+03  0.56400739208E+03  0.12699999809E+01 0. -1.
       -4    1    3    3    0  502  0.25695703910E+03  0.45127691011E+02 -0.18349958554E+04  0.18534494411E+04  0.12699999809E+01 0.  1.
</event>
<event>
 5   0  0.2510069E-04  0.1890937E+04  0.7818609E-02  0.8659381E-01
       -1   -1    0    0    0  501  0.00000000000E+00  0.00000000000E+00  0.93919576061E+03  0.93919576063E+03  0.50400001928E-02 0.  1.
        1   -1    0    0  501    0  0.00000000000E+00  0.00000000000E+00 -0.95178325377E+03  0.95178325379E+03  0.50400001928E-02 0. -1.
    10030    2    1    2    0    0  0.00000000000E+00  0.00000000000E+00 -0.12587493158E+02  0.18909790144E+04  0.18909371190E+04 0.  0.
        4    1    3    3  502    0  0.61373711218E+03  0.20440406464E+03  0.68325392261E+03  0.94089946337E+03  0.12699999809E+01 0.  1.
       -4    1    3    3    0  502 -0.61373711218E+03 -0.20440406464E+03 -0.69584141577E+03  0.95007955104E+03  0.12699999809E+01 0. -1.
</event>
<event>
 5   0  0.2355414E-04  0.1899173E+04  0.7818609E-02  0.8655268E-01
       -1   -1    0    0    0  501  0.00000000000E+00  0.00000000000E+00  0.54000696458E+03  0.54000696460E+03  0.50400001928E-02 0. -1.
        1   -1    0    0  501    0  0.00000000000E+00  0.00000000000E+00 -0.16698201254E+04  0.16698201254E+04  0.50400001928E-02 0.  1.
    10030    2    1    2    0    0  0.00000000000E+00  0.00000000000E+00 -0.11298131608E+04  0.22098270900E+04  0.18991729751E+04 0.  0.
        5    1    3    3  502    0  0.73762509418E+03  0.48742868798E+03 -0.96800524438E+03  0.13110048621E+04  0.46999998093E+01 0.  1.
       -5    1    3    3    0  502 -0.73762509418E+03 -0.48742868798E+03 -0.16180791641E+03  0.89882222782E+03  0.46999998093E+01 0. -1.
</event>
<event>
 5   0  0.4761944E-04  0.1903101E+04  0.7818609E-02  0.8653315E-01
       -2   -1    0    0    0  501  0.00000000000E+00  0.00000000000E+00  0.67589658148E+03  0.67589658148E+03  0.25500000920E-02 0.  1.
        2   -1    0    0  501    0  0.00000000000E+00  0.00000000000E+00 -0.13396249928E+04  0.13396249928E+04  0.25500000920E-02 0. -1.
    10030    2    1    2    0    0  0.00000000000E+00  0.00000000000E+00 -0.66372841131E+03  0.20155215743E+04  0.19031005786E+04 0.  0.
        4    1    3    3  502    0 -0.26962497450E+03 -0.80691125939E+03 -0.78323656699E+03  0.11564015480E+04  0.12699999809E+01 0. -1.
       -4    1    3    3    0  502  0.26962497450E+03  0.80691125939E+03  0.11950815568E+03  0.85912002630E+03  0.12699999809E+01 0.  1.
</event>
<event>
 5   0  0.2355414E-04  0.1826952E+04  0.7818609E-02  0.8692097E-01
        1   -1    0    0  501    0  0.00000000000E+00  0.00000000000E+00  0.91320346849E+03  0.91320346851E+03  0.50400001928E-02 0. -1.
       -1   -1    0    0    0  501  0.00000000000E+00  0.00000000000E+00 -0.91374870482E+03  0.91374870483E+03  0.50400001928E-02 0.  1.
    10030    2    1    2    0    0  0.00000000000E+00  0.00000000000E+00 -0.54523632339E+00  0.18269521733E+04  0.18269520920E+04 0.  0.
        5    1    3    3  502    0  0.49216399504E+03 -0.26644026099E+03  0.72166964569E+03  0.91326062994E+03  0.46999998093E+01 0. -1.
       -5    1    3    3    0  502 -0.49216399504E+03  0.26644026099E+03 -0.72221488201E+03  0.91369154340E+03  0.46999998093E+01 0.  1.
</event>
<event>
 5   0  0.4802635E-04  0.1938464E+04  0.7818609E-02  0.8635944E-01
       -2   -1    0    0    0  501  0.00000000000E+00  0.00000000000E+00  0.19934239172E+04  0.19934239172E+04  0.25500000920E-02 0.  1.
        2   -1    0    0  501    0  0.00000000000E+00  0.00000000000E+00 -0.47125484055E+03  0.47125484055E+03  0.25500000920E-02 0. -1.
    10030    2    1    2    0    0  0.00000000000E+00  0.00000000000E+00  0.15221690766E+04  0.24646787577E+04  0.19384640004E+04 0.  0.
        3    1    3    3  502    0 -0.21243938576E+03 -0.36024799063E+03  0.18727951928E+04  0.19189244257E+04  0.10100000352E+00 0.  1.
       -3    1    3    3    0  502  0.21243938576E+03  0.36024799063E+03 -0.35062611615E+03  0.54575433200E+03  0.10100000352E+00 0. -1.
</event>
<event>
 5   0  0.4802635E-04  0.1844256E+04  0.7818609E-02  0.8683112E-01
       -2   -1    0    0    0  501  0.00000000000E+00  0.00000000000E+00  0.11025157411E+04  0.11025157411E+04  0.25500000920E-02 0. -1.
        2   -1    0    0  501    0  0.00000000000E+00  0.00000000000E+00 -0.77125433942E+03  0.77125433942E+03  0.25500000920E-02 0.  1.
    10030    2    1    2    0    0  0.00000000000E+00  0.00000000000E+00  0.33126140167E+03  0.18737700805E+04  0.18442560013E+04 0.  0.
        3    1    3    3  502    0 -0.61536761039E+03  0.26293722831E+03  0.81021790894E+03  0.10508407834E+04  0.10100000352E+00 0. -1.
       -3    1    3    3    0  502  0.61536761039E+03 -0.26293722831E+03 -0.47895650727E+03  0.82292929709E+03  0.10100000352E+00 0.  1.
</event>
<event>
 5   0  0.1729375E-04  0.1920853E+04  0.7818609E-02  0.8644545E-01
       -3   -1    0    0    0  501  0.00000000000E+00  0.00000000000E+00  0.13253954511E+04  0.13253954550E+04  0.10100000352E+00 0. -1.
        3   -1    0    0  501    0  0.00000000000E+00  0.00000000000E+00 -0.69595783784E+03  0.69595784517E+03  0.10100000352E+00 0.  1.
    10030    2    1    2    0    0  0.00000000000E+00  0.00000000000E+00  0.62943761327E+03  0.20213533001E+04  0.19208533143E+04 0.  0.
        3    1    3    3  502    0 -0.11531723968E+03 -0.53036883902E+03 -0.51909507601E+03  0.75103187636E+03  0.10100000352E+00 0.  1.
       -3    1    3    3    0  502  0.11531723968E+03  0.53036883902E+03  0.11485326893E+04  0.12703214238E+04  0.10100000352E+00 0. -1.
</event>
<event>
 5   0  0.2355414E-04  0.1869545E+04  0.7818609E-02  0.8670166E-01
        1   -1    0    0  501    0  0.00000000000E+00  0.00000000000E+00  0.10252594858E+04  0.10252594858E+04  0.50400001928E-02 0.  1.
       -1   -1    0    0    0  501  0.00000000000E+00  0.00000000000E+00 -0.85227131092E+03  0.85227131094E+03  0.50400001928E-02 0. -1.
    10030    2    1    2    0    0  0.00000000000E+00  0.00000000000E+00  0.17298817488E+03  0.18775307968E+04  0.18695445927E+04 0.  0.
        5    1    3    3  502    0 -0.81006224762E+03  0.17785808717E+03 -0.34655879929E+03  0.89886563821E+03  0.46999998093E+01 0. -1.
       -5    1    3    3    0  502  0.81006224762E+03 -0.17785808717E+03  0.51954697417E+03  0.97866515855E+03  0.46999998093E+01 0.  1.
</event>
<event>
 5   0  0.4802635E-04  0.1902581E+04  0.7818609E-02  0.8653573E-01
       -2   -1    0    0    0  501  0.00000000000E+00  0.00000000000E+00  0.13789495990E+04  0.13789495990E+04  0.25500000920E-02 0.  1.
        2   -1    0    0  501    0  0.00000000000E+00  0.00000000000E+00 -0.65626270225E+03  0.65626270225E+03  0.25500000920E-02 0. -1.
    10030    2    1    2    0    0  0.00000000000E+00  0.00000000000E+00  0.72268689675E+03  0.20352123013E+04  0.19025805529E+04 0.  0.
        3    1    3    3  502    0  0.17669886808E+03 -0.61723393905E+03 -0.38955513335E+03  0.75096833330E+03  0.10100000352E+00 0. -1.
       -3    1    3    3    0  502 -0.17669886808E+03  0.61723393905E+03  0.11122420301E+04  0.12842439680E+04  0.10100000352E+00 0.  1.
</event>
<event>
 5   0  0.1729375E-04  0.1925960E+04  0.7818609E-02  0.8642041E-01
       -3   -1    0    0    0  501  0.00000000000E+00  0.00000000000E+00  0.11452430539E+04  0.11452430584E+04  0.10100000352E+00 0.  1.
        3   -1    0    0  501    0  0.00000000000E+00  0.00000000000E+00 -0.80972375041E+03  0.80972375671E+03  0.10100000352E+00 0. -1.
    10030    2    1    2    0    0  0.00000000000E+00  0.00000000000E+00  0.33551930351E+03  0.19549668151E+04  0.19259600321E+04 0.  0.
        5    1    3    3  502    0 -0.10028127419E+03 -0.32675307180E+03  0.10815876941E+04  0.11343182683E+04  0.46999998093E+01 0.  1.
       -5    1    3    3    0  502  0.10028127419E+03  0.32675307180E+03 -0.74606839057E+03  0.82064854676E+03  0.46999998093E+01 0. -1.
</event>
<event>
 5   0  0.4829134E-04  0.1890339E+04  0.7818609E-02  0.8659680E-01
       -2   -1    0    0    0  501  0.00000000000E+00  0.00000000000E+00  0.85641948009E+03  0.85641948009E+03  0.25500000920E-02 0.  1.
        2   -1    0    0  501    0  0.00000000000E+00  0.00000000000E+00 -0.10431170948E+04  0.10431170948E+04  0.25500000920E-02 0. -1.
    10030    2    1    2    0    0  0.00000000000E+00  0.00000000000E+00 -0.18669761469E+03  0.18995365749E+04  0.18903394404E+04 0.  0.
        2    1    3    3  502    0 -0.78002127206E+03  0.18862729116E+03 -0.59511013815E+03  0.99908433896E+03  0.25500000920E-02 0. -1.
       -2    1    3    3    0  502  0.78002127206E+03 -0.18862729116E+03  0.40841252346E+03  0.90045223591E+03  0.25500000920E-02 0.  1.
</event>
<event>
 5   0  0.4973411E-04  0.1904532E+04  0.7818609E-02  0.8652604E-01
        2   -1    0    0  501    0  0.00000000000E+00  0.00000000000E+00  0.22538241770E+04  0.22538241770E+04  0.25500000920E-02 0. -1.
       -2   -1    0    0    0  501  0.00000000000E+00  0.00000000000E+00 -0.40234313761E+03  0.40234313762E+03  0.25500000920E-02 0.  1.
    10030    2    1    2    0    0  0.00000000000E+00  0.00000000000E+00  0.18514810394E+04  0.26561673146E+04  0.19045321641E+04 0.  0.
        1    1    3    3  502    0  0.10548426893E+03 -0.91598746273E+03  0.59379266612E+03  0.10966994544E+04  0.50400001928E-02 0.  1.
       -1    1    3    3    0  502 -0.10548426893E+03  0.91598746273E+03  0.12576883733E+04  0.15594678603E+04  0.50400001928E-02 0. -1.
</event>
<event>
 5   0  0.2261755E-04  0.1908673E+04  0.7818609E-02  0.8650551E-01
        1   -1    0    0  501    0  0.00000000000E+00  0.00000000000E+00  0.19374982463E+04  0.19374982463E+04  0.50400001928E-02 0. -1.
       -1   -1    0    0    0  501  0.00000000000E+00  0.00000000000E+00 -0.47006896481E+03  0.47006896484E+03  0.50400001928E-02 0.  1.
    10030    2    1    2    0    0  0.00000000000E+00  0.00000000000E+00  0.14674292814E+04  0.24075672111E+04  0.19086726225E+04 0.  0.
        1    1    3    3  502    0 -0.27795391917E+02  0.93426311491E+03  0.49063188789E+03  0.10556229446E+04  0.50400001928E-02 0.  1.
       -1    1    3    3    0  502  0.27795391917E+02 -0.93426311491E+03  0.97679739355E+03  0.13519442665E+04  0.50400001928E-02 0. -1.
</event>
<event>
 5   0  0.4761944E-04  0.1869337E+04  0.7818609E-02  0.8670271E-01
        2   -1    0    0  501    0  0.00000000000E+00  0.00000000000E+00  0.88324257183E+03  0.88324257183E+03  0.25500000920E-02 0. -1.
       -2   -1    0    0    0  501  0.00000000000E+00  0.00000000000E+00 -0.98908917762E+03  0.98908917762E+03  0.25500000920E-02 0.  1.
    10030    2    1    2    0    0  0.00000000000E+00  0.00000000000E+00 -0.10584660579E+03  0.18723317495E+04  0.18693374966E+04 0.  0.
        4    1    3    3  502    0  0.65966821755E+03  0.35195618306E+03 -0.61468596285E+03  0.96792342562E+03  0.12699999809E+01 0.  1.
       -4    1    3    3    0  502 -0.65966821755E+03 -0.35195618306E+03  0.50883935706E+03  0.90440832384E+03  0.12699999809E+01 0. -1.
</event>
<event>
 5   0  0.4761944E-04  0.1909311E+04  0.7818609E-02  0.8650235E-01
       -2   -1    0    0    0  501  0.00000000000E+00  0.00000000000E+00  0.66524962234E+03  0.66524962235E+03  0.25500000920E-02 0. -1.
        2   -1    0    0  501    0  0.00000000000E+00  0.00000000000E+00 -0.13699630266E+04  0.13699630266E+04  0.25500000920E-02 0.  1.
    10030    2    1    2    0    0  0.00000000000E+00  0.00000000000E+00 -0.70471340428E+03  0.20352126490E+04  0.19093112749E+04 0.  0.
        4    1    3    3  502    0  0.37195439678E+03  0.60774869507E+03  0.32487833787E+03  0.78310669577E+03  0.12699999809E+01 0. -1.
       -4    1    3    3    0  502 -0.37195439678E+03 -0.60774869507E+03 -0.10295917422E+04  0.12521059532E+04  0.12699999809E+01 0.  1.
</event>
<event>
 5   0  0.4839293E-04  0.1830198E+04  0.7818609E-02  0.8690403E-01
        2   -1    0    0  501    0  0.00000000000E+00  0.00000000000E+00  0.10189418273E+04  0.10189418273E+04  0.25500000920E-02 0.  1.
       -2   -1    0    0    0  501  0.00000000000E+00  0.00000000000E+00 -0.82183902831E+03  0.82183902831E+03  0.25500000920E-02 0. -1.
    10030    2    1    2    0    0  0.00000000000E+00  0.00000000000E+00  0.19710279900E+03  0.18407808556E+04  0.18301979797E+04 0.  0.
        5    1    3    3  502    0 -0.64579307135E+02  0.54812005762E+03 -0.63558566946E+03  0.84178222700E+03  0.46999998093E+01 0. -1.
       -5    1    3    3    0  502  0.64579307135E+02 -0.54812005762E+03  0.83268846845E+03  0.99899862861E+03  0.46999998093E+01 0.  1.
</event>
<event>
 5   0  0.2510069E-04  0.1563163E+04  0.7818609E-02  0.8843503E-01
       -1   -1    0    0    0  501  0.00000000000E+00  0.00000000000E+00  0.40477696259E+03  0.40477696262E+03  0.50400001928E-02 0. -1.
        1   -1    0    0  501    0  0.00000000000E+00  0.00000000000E+00 -0.15091521382E+04  0.15091521382E+04  0.50400001928E-02 0.  1.
    10030    2    1    2    0    0  0.00000000000E+00  0.00000000000E+00 -0.11043751756E+04  0.19139291008E+04  0.15631634830E+04 0.  0.
        4    1    3    3  502    0 -0.20299813757E+03 -0.33502276068E+03  0.27590515333E+03  0.47913856093E+03  0.12699999809E+01 0. -1.
       -4    1    3    3    0  502  0.20299813757E+03  0.33502276068E+03 -0.13802803289E+04  0.14347905399E+04  0.12699999809E+01 0.  1.
</event>
<event>
 5   0  0.2376359E-04  0.1953051E+04  0.7818609E-02  0.8628891E-01
       -1   -1    0    0    0  501  0.00000000000E+00  0.00000000000E+00  0.53067578785E+03  0.53067578788E+03  0.50400001928E-02 0.  1.
        1   -1    0    0  501    0  0.00000000000E+00  0.00000000000E+00 -0.17969588146E+04  0.17969588146E+04  0.50400001928E-02 0. -1.
    10030    2    1    2    0    0  0.00000000000E+00  0.00000000000E+00 -0.12662830267E+04  0.23276346024E+04  0.19530514941E+04 0.  0.
        2    1    3    3  502    0  0.65880078188E+03  0.96149558625E+02  0.21825257227E+03  0.70064070188E+03  0.25500000920E-02 0.  1.
       -2    1    3    3    0  502 -0.65880078188E+03 -0.96149558625E+02 -0.14845355990E+04  0.16269939006E+04  0.25500000920E-02 0. -1.
</event>
<event>
 5   0  0.4802635E-04  0.1877598E+04  0.7818609E-02  0.8666089E-01
        2   -1    0    0  501    0  0.00000000000E+00  0.00000000000E+00  0.75127675335E+03  0.75127675336E+03  0.25500000920E-02 0.  1.
       -2   -1    0    0    0  501  0.00000000000E+00  0.00000000000E+00 -0.11731271158E+04  0.11731271158E+04  0.25500000920E-02 0. -1.
    10030    2    1    2    0    0  0.00000000000E+00  0.00000000000E+00 -0.42185036247E+03  0.19244038692E+04  0.18775975403E+04 0.  0.
        3    1    3    3  502    0  0.17359496764E+03  0.14673699510E+03 -0.11444976159E+04  0.11668512165E+04  0.10100000352E+00 0. -1.
       -3    1    3    3    0  502 -0.17359496764E+03 -0.14673699510E+03  0.72264725341E+03  0.75755265268E+03  0.10100000352E+00 0.  1.
</event>
<event>
 5   0  0.4761944E-04  0.1920940E+04  0.7818609E-02  0.8644503E-01
       -2   -1    0    0    0  501  0.00000000000E+00  0.00000000000E+00  0.11943170033E+04  0.11943170033E+04  0.25500000920E-02 0. -1.
        2   -1    0    0  501    0  0.00000000000E+00  0.00000000000E+00 -0.77241035522E+03  0.77241035523E+03  0.25500000920E-02 0.  1.
    10030    2    1    2    0    0  0.00000000000E+00  0.00000000000E+00  0.42190664808E+03  0.19667273585E+04  0.19209402081E+04 0.  0.
        4    1    3    3  502    0 -0.88268959384E+03 -0.18943799996E+03 -0.12469236605E+03  0.91136023281E+03  0.12699999809E+01 0.  1.
       -4    1    3    3    0  502  0.88268959384E+03  0.18943799996E+03  0.54659901413E+03  0.10553671257E+04  0.12699999809E+01 0. -1.
</event>
<event>
 5   0  0.4761944E-04  0.1859980E+04  0.7818609E-02  0.8675037E-01
        2   -1    0    0  501    0  0.00000000000E+00  0.00000000000E+00  0.12275086897E+04  0.12275086897E+04  0.25500000920E-02 0.  1.
       -2   -1    0    0    0  501  0.00000000000E+00  0.00000000000E+00 -0.70458277185E+03  0.70458277185E+03  0.25500000920E-02 0. -1.
    10030    2    1    2    0    0  0.00000000000E+00  0.00000000000E+00  0.52292591781E+03  0.19320914615E+04  0.18599800806E+04 0.  0.
        4    1    3    3  502    0  0.69180597899E+03 -0.28417091890E+03  0.83564181833E+03  0.11214488331E+04  0.12699999809E+01 0.  1.
       -4    1    3    3    0  502 -0.69180597899E+03  0.28417091890E+03 -0.31271590053E+03  0.81064262845E+03  0.12699999809E+01 0. -1.
</event>
<event>
 5   0  0.2317458E-04  0.1912287E+04  0.7818609E-02  0.8648764E-01
        1   -1    0    0  501    0  0.00000000000E+00  0.00000000000E+00  0.17080016158E+04  0.17080016158E+04  0.50400001928E-02 0.  1.
       -1   -1    0    0    0  501  0.00000000000E+00  0.00000000000E+00 -0.53525146960E+03  0.53525146963E+03  0.50400001928E-02 0. -1.
    10030    2    1    2    0    0  0.00000000000E+00  0.00000000000E+00  0.11727501462E+04  0.22432530855E+04  0.19122869816E+04 0.  0.
        3    1    3    3  502    0 -0.12833552980E+03  0.71489280776E+03 -0.14307349334E+03  0.74027817035E+03  0.10100000352E+00 0. -1.
       -3    1    3    3    0  502  0.12833552980E+03 -0.71489280776E+03  0.13158236396E+04  0.15029749151E+04  0.10100000352E+00 0.  1.
</event>
<event>
 5   0  0.2261755E-04  0.1894927E+04  0.7818609E-02  0.8657386E-01
        1   -1    0    0  501    0  0.00000000000E+00  0.00000000000E+00  0.70632940426E+03  0.70632940428E+03  0.50400001928E-02 0.  1.
       -1   -1    0    0    0  501  0.00000000000E+00  0.00000000000E+00 -0.12709184728E+04  0.12709184728E+04  0.50400001928E-02 0. -1.
    10030    2    1    2    0    0  0.00000000000E+00  0.00000000000E+00 -0.56458906855E+03  0.19772478771E+04  0.18949270042E+04 0.  0.
        1    1    3    3  502    0 -0.91523746394E+03  0.12182485350E+03 -0.60489481745E+02  0.92528908334E+03  0.50400001928E-02 0. -1.
       -1    1    3    3    0  502  0.91523746394E+03 -0.12182485350E+03 -0.50409958681E+03  0.10519587938E+04  0.50400001928E-02 0.  1.
</event>
<event>
 5   0  0.2510069E-04  0.1932734E+04  0.7818609E-02  0.8638732E-01
        1   -1    0    0  501    0  0.00000000000E+00  0.00000000000E+00  0.13467135947E+04  0.13467135947E+04  0.50400001928E-02 0. -1.
       -1   -1    0    0    0  501  0.00000000000E+00  0.00000000000E+00 -0.69343999309E+03  0.69343999311E+03  0.50400001928E-02 0.  1.
    10030    2    1    2    0    0  0.00000000000E+00  0.00000000000E+00  0.65327360160E+03  0.20401535878E+04  0.19327338832E+04 0.  0.
        4    1    3    3  502    0 -0.71885323070E+03 -0.25216859158E+03 -0.30098866022E+03  0.81910606905E+03  0.12699999809E+01 0.  1.
       -4    1    3    3    0  502  0.71885323070E+03  0.25216859158E+03  0.95426226181E+03  0.12210475188E+04  0.12699999809E+01 0. -1.
</event>
<event>
 5   0  0.4973411E-04  0.1805040E+04  0.7818609E-02  0.8703624E-01
       -2   -1    0    0    0  501  0.00000000000E+00  0.00000000000E+00  0.95947013520E+03  0.95947013520E+03  0.25500000920E-02 0. -1.
        2   -1    0    0  501    0  0.00000000000E+00  0.00000000000E+00 -0.84895039531E+03  0.84895039531E+03  0.25500000920E-02 0.  1.
    10030    2    1    2    0    0  0.00000000000E+00  0.00000000000E+00  0.11051973989E+03  0.18084205305E+04  0.18050402218E+04 0.  0.
        1    1    3    3  502    0  0.53712500309E+02 -0.89073616187E+03 -0.80073100257E+02  0.89593953153E+03  0.50400001928E-02 0.  1.
       -1    1    3    3    0  502 -0.53712500309E+02  0.89073616187E+03  0.19059284015E+03  0.91248099898E+03  0.50400001928E-02 0. -1.
</event>
<event>
 5   0  0.4761944E-04  0.1874752E+04  0.7818609E-02  0.8667527E-01
       -2   -1    0    0    0  501  0.00000000000E+00  0.00000000000E+00  0.67404091746E+03  0.67404091747E+03  0.25500000920E-02 0.  1.
        2   -1    0    0  501    0  0.00000000000E+00  0.00000000000E+00 -0.13035911061E+04  0.13035911061E+04  0.25500000920E-02 0. -1.
    10030    2    1    2    0    0  0.00000000000E+00  0.00000000000E+00 -0.62955018866E+03  0.19776320236E+04  0.18747519784E+04 0.  0.
        4    1    3    3  502    0  0.25362703964E+02  0.93572247914E+03 -0.26253678254E+03  0.97218671036E+03  0.12699999809E+01 0.  1.
       -4    1    3    3    0  502 -0.25362703964E+02 -0.93572247914E+03 -0.36701340612E+03  0.10054453132E+04  0.12699999809E+01 0. -1.
</event>
<event>
 5   0  0.2355414E-04  0.1831549E+04  0.7818609E-02  0.8689700E-01
       -1   -1    0    0    0  501  0.00000000000E+00  0.00000000000E+00  0.42881911722E+03  0.42881911725E+03  0.50400001928E-02 0.  1.
        1   -1    0    0  501    0  0.00000000000E+00  0.00000000000E+00 -0.19557023726E+04  0.19557023727E+04  0.50400001928E-02 0. -1.
    10030    2    1    2    0    0  0.00000000000E+00  0.00000000000E+00 -0.15268832554E+04  0.23845214899E+04  0.18315485962E+04 0.  0.
        5    1    3    3  502    0 -0.17541140647E+03 -0.61120898808E+03 -0.16213978973E+04  0.17416368221E+04  0.46999998093E+01 0. -1.
       -5    1    3    3    0  502  0.17541140647E+03  0.61120898808E+03  0.94514641863E+02  0.64288466785E+03  0.46999998093E+01 0.  1.
</event>
<event>
 5   0  0.4973411E-04  0.1965338E+04  0.7818609E-02  0.8623000E-01
       -2   -1    0    0    0  501  0.00000000000E+00  0.00000000000E+00  0.11716202910E+04  0.11716202910E+04  0.25500000920E-02 0.  1.
        2   -1    0    0  501    0  0.00000000000E+00  0.00000000000E+00 -0.82419085478E+03  0.82419085478E+03  0.25500000920E-02 0. -1.
    10030    2    1    2    0    0  0.00000000000E+00  0.00000000000E+00  0.34742943624E+03  0.19958111458E+04  0.19653383720E+04 0.  0.
        1    1    3    3  502    0  0.90492840492E+03  0.34886386639E+03  0.33439995464E+03  0.10258775487E+04  0.50400001928E-02 0. -1.
       -1    1    3    3    0  502 -0.90492840492E+03 -0.34886386639E+03  0.13029481602E+02  0.96993359707E+03  0.50400001928E-02 0.  1.
</event>
<event>
 5   0  0.2317458E-04  0.1896281E+04  0.7818609E-02  0.8656710E-01
        1   -1    0    0  501    0  0.00000000000E+00  0.00000000000E+00  0.14136099610E+04  0.14136099610E+04  0.50400001928E-02 0. -1.
       -1   -1    0    0    0  501  0.00000000000E+00  0.00000000000E+00 -0.63593951162E+03  0.63593951164E+03  0.50400001928E-02 0.  1.
    10030    2    1    2    0    0  0.00000000000E+00  0.00000000000E+00  0.77767044935E+03  0.20495494726E+04  0.18962810216E+04 0.  0.
        3    1    3    3  502    0 -0.37275632809E+03 -0.86872587804E+03  0.30986474230E+03  0.99481058500E+03  0.10100000352E+00 0. -1.
       -3    1    3    3    0  502  0.37275632809E+03  0.86872587804E+03  0.46780570705E+03  0.10547388876E+04  0.10100000352E+00 0.  1.
</event>
<event>
 5   0  0.1729375E-04  0.2072935E+04  0.7818609E-02  0.8573260E-01
       -3   -1    0    0    0  501  0.00000000000E+00  0.00000000000E+00  0.79598530009E+03  0.79598530650E+03  0.10100000352E+00 0. -1.
        3   -1    0    0  501    0  0.00000000000E+00  0.00000000000E+00 -0.13496042814E+04  0.13496042851E+04  0.10100000352E+00 0.  1.
    10030    2    1    2    0    0  0.00000000000E+00  0.00000000000E+00 -0.55361898128E+03  0.21455895916E+04  0.20729352907E+04 0.  0.
        2    1    3    3  502    0  0.53390466025E+03 -0.84983546559E+03 -0.89123455681E+01  0.10036702321E+04  0.25500000920E-02 0. -1.
       -2    1    3    3    0  502 -0.53390466025E+03  0.84983546559E+03 -0.54470663571E+03  0.11419193596E+04  0.25500000920E-02 0.  1.
</event>
<event>
 5   0  0.2355414E-04  0.1830887E+04  0.7818609E-02  0.8690045E-01
       -1   -1    0    0    0  501  0.00000000000E+00  0.00000000000E+00  0.15923456952E+04  0.15923456952E+04  0.50400001928E-02 0.  1.
        1   -1    0    0  501    0  0.00000000000E+00  0.00000000000E+00 -0.52629051214E+03  0.52629051217E+03  0.50400001928E-02 0. -1.
    10030    2    1    2    0    0  0.00000000000E+00  0.00000000000E+00  0.10660551831E+04  0.21186362074E+04  0.18308865956E+04 0.  0.
        5    1    3    3  502    0 -0.84666880515E+03  0.24127822691E+03  0.24269447044E+03  0.91322830901E+03  0.46999998093E+01 0. -1.
       -5    1    3    3    0  502  0.84666880515E+03 -0.24127822691E+03  0.82336071266E+03  0.12054078984E+04  0.46999998093E+01 0.  1.
</event>
<event>
 5   0  0.1729375E-04  0.1914362E+04  0.7818609E-02  0.8647740E-01
       -4   -1    0    0    0  501  0.00000000000E+00  0.00000000000E+00  0.16217918474E+04  0.16217923447E+04  0.12699999809E+01 0. -1.
        4   -1    0    0  501    0  0.00000000000E+00  0.00000000000E+00 -0.56492647147E+03  0.56492789900E+03  0.12699999809E+01 0.  1.
    10030    2    1    2    0    0  0.00000000000E+00  0.00000000000E+00  0.10568653759E+04  0.21867202437E+04  0.19143617739E+04 0.  0.
        1    1    3    3  502    0  0.42060176515E+03  0.56809169494E+03  0.12656722563E+04  0.14496759221E+04  0.50400001928E-02 0. -1.
       -1    1    3    3    0  502 -0.42060176515E+03 -0.56809169494E+03 -0.20880688032E+03  0.73704432160E+03  0.50400001928E-02 0.  1.
</event>
<event>
 5   0  0.4839293E-04  0.1463142E+04  0.7818609E-02  0.8909340E-01
       -2   -1    0    0    0  501  0.00000000000E+00  0.00000000000E+00  0.21252347955E+03  0.21252347957E+03  0.25500000920E-02 0.  1.
        2   -1    0    0  501    0  0.00000000000E+00  0.00000000000E+00 -0.25182903965E+04  0.25182903965E+04  0.25500000920E-02 0. -1.
    10030    2    1    2    0    0  0.00000000000E+00  0.00000000000E+00 -0.23057669170E+04  0.27308138761E+04  0.14631416030E+04 0.  0.
        5    1    3    3  502    0  0.10545672158E+03 -0.43647625636E+03 -0.74978614926E+02  0.45527631740E+03  0.46999998093E+01 0.  1.
       -5    1    3    3    0  502 -0.10545672158E+03  0.43647625636E+03 -0.22307883020E+04  0.22755375587E+04  0.46999998093E+01 0. -1.
</event>
<event>
 5   0  0.4761944E-04  0.1847535E+04  0.7818609E-02  0.8681421E-01
       -2   -1    0    0    0  501  0.00000000000E+00  0.00000000000E+00  0.84029874784E+03  0.84029874785E+03  0.25500000920E-02 0. -1.
        2   -1    0    0  501    0  0.00000000000E+00  0.00000000000E+00 -0.10155276952E+04  0.10155276952E+04  0.25500000920E-02 0.  1.
    10030    2    1    2    0    0  0.00000000000E+00  0.00000000000E+00 -0.17522894739E+03  0.18558264431E+04  0.18475352778E+04 0.  0.
        4    1    3    3  502    0  0.51266481896E+03 -0.28812402227E+03  0.62797593582E+03  0.86034647537E+03  0.12699999809E+01 0. -1.
       -4    1    3    3    0  502 -0.51266481896E+03  0.28812402227E+03 -0.80320488321E+03  0.99547996772E+03  0.12699999809E+01 0.  1.
</event>
<event>
 5   0  0.2261755E-04  0.1930497E+04  0.7818609E-02  0.8639823E-01
        1   -1    0    0  501    0  0.00000000000E+00  0.00000000000E+00  0.31477847227E+04  0.31477847227E+04  0.50400001928E-02 0. -1.
       -1   -1    0    0    0  501  0.00000000000E+00  0.00000000000E+00 -0.29598738570E+03  0.29598738574E+03  0.50400001928E-02 0.  1.
    10030    2    1    2    0    0  0.00000000000E+00  0.00000000000E+00  0.28517973370E+04  0.34437721084E+04  0.19304969007E+04 0.  0.
        1    1    3    3  502    0 -0.89421539759E+03  0.20202521520E+03  0.19648225533E+04  0.21681704340E+04  0.50400001928E-02 0. -1.
       -1    1    3    3    0  502  0.89421539759E+03 -0.20202521520E+03  0.88697478365E+03  0.12756016744E+04  0.50400001928E-02 0.  1.
</event>
<event>
 5   0  0.4839293E-04  0.1878326E+04  0.7818609E-02  0.8665721E-01
        2   -1    0    0  501    0  0.00000000000E+00  0.00000000000E+00  0.85553879020E+03  0.85553879021E+03  0.25500000920E-02 0.  1.
       -2   -1    0    0    0  501  0.00000000000E+00  0.00000000000E+00 -0.10309608839E+04  0.10309608839E+04  0.25500000920E-02 0. -1.
    10030    2    1    2    0    0  0.00000000000E+00  0.00000000000E+00 -0.17542209370E+03  0.18864996741E+04  0.18783258795E+04 0.  0.
        5    1    3    3  502    0  0.91728708095E+03  0.16003169347E+03 -0.21063320675E+03  0.95468013993E+03  0.46999998093E+01 0. -1.
       -5    1    3    3    0  502 -0.91728708095E+03 -0.16003169347E+03  0.35211113054E+02  0.93181953418E+03  0.46999998093E+01 0.  1.
</event>
<event>
 5   0  0.2355414E-04  0.1818933E+04  0.7818609E-02  0.8696295E-01
       -1   -1    0    0    0  501  0.00000000000E+00  0.00000000000E+00  0.11058783152E+04  0.11058783152E+04  0.50400001928E-02 0. -1.
        1   -1    0    0  501    0  0.00000000000E+00  0.00000000000E+00 -0.74793875474E+03  0.74793875476E+03  0.50400001928E-02 0.  1.
    10030    2    1    2    0    0  0.00000000000E+00  0.00000000000E+00  0.35793956043E+03  0.18538170699E+04  0.18189329289E+04 0.  0.
        5    1    3    3  502    0  0.40877506737E+03 -0.32119530544E+02  0.10063131570E+04  0.10866540295E+04  0.46999998093E+01 0. -1.
       -5    1    3    3    0  502 -0.40877506737E+03  0.32119530544E+02 -0.64837359653E+03  0.76716304045E+03  0.46999998093E+01 0.  1.
</event>
<event>
 5   0  0.4802635E-04  0.2064481E+04  0.7818609E-02  0.8577053E-01
        2   -1    0    0  501    0  0.00000000000E+00  0.00000000000E+00  0.22957983833E+04  0.22957983833E+04  0.25500000920E-02 0. -1.
       -2   -1    0    0    0  501  0.00000000000E+00  0.00000000000E+00 -0.46411767388E+03  0.46411767389E+03  0.25500000920E-02 0.  1.
    10030    2    1    2    0    0  0.00000000000E+00  0.00000000000E+00  0.18316807094E+04  0.27599160571E+04  0.20644811507E+04 0.  0.
        3    1    3    3  502    0  0.50590364147E+03  0.63576974528E+03  0.64671864040E+02  0.81506080980E+03  0.10100000352E+00 0.  1.
       -3    1    3    3    0  502 -0.50590364147E+03 -0.63576974528E+03  0.17670088453E+04  0.19448552473E+04  0.10100000352E+00 0. -1.
</event>
<event>
 5   0  0.4839293E-04  0.1872643E+04  0.7818609E-02  0.8668595E-01
       -2   -1    0    0    0  501  0.00000000000E+00  0.00000000000E+00  0.12638990388E+04  0.12638990388E+04  0.25500000920E-02 0.  1.
        2   -1    0    0  501    0  0.00000000000E+00  0.00000000000E+00 -0.69364550556E+03  0.69364550557E+03  0.25500000920E-02 0. -1.
    10030    2    1    2    0    0  0.00000000000E+00  0.00000000000E+00  0.57025353325E+03  0.19575445444E+04  0.18726429321E+04 0.  0.
        5    1    3    3  502    0 -0.87455475056E+03 -0.31410839853E+03  0.16518273148E+03  0.94383129982E+03  0.46999998093E+01 0. -1.
       -5    1    3    3    0  502  0.87455475056E+03  0.31410839853E+03  0.40507080177E+03  0.10137132446E+04  0.46999998093E+01 0.  1.
</event>
<event>
 5   0  0.2510069E-04  0.1885381E+04  0.7818609E-02  0.8662168E-01
       -1   -1    0    0    0  501  0.00000000000E+00  0.00000000000E+00  0.37344473820E+03  0.37344473823E+03  0.50400001928E-02 0.  1.
        1   -1    0    0  501    0  0.00000000000E+00  0.00000000000E+00 -0.23796427146E+04  0.23796427146E+04  0.50400001928E-02 0. -1.
    10030    2    1    2    0    0  0.00000000000E+00  0.00000000000E+00 -0.20061979764E+04  0.27530874528E+04  0.18853806519E+04 0.  0.
        4    1    3    3  502    0 -0.32950074757E+03 -0.12027206814E+03  0.27460330285E+03  0.44547132328E+03  0.12699999809E+01 0.  1.
       -4    1    3    3    0  502  0.32950074757E+03  0.12027206814E+03 -0.22808012793E+04  0.23076161296E+04  0.12699999809E+01 0. -1.
</event>
<event>
 5   0  0.4802635E-04  0.2043046E+04  0.7818609E-02  0.8586756E-01
       -2   -1    0    0    0  501  0.00000000000E+00  0.00000000000E+00  0.55266429267E+03  0.55266429267E+03  0.25500000920E-02 0.  1.
        2   -1    0    0  501    0  0.00000000000E+00  0.00000000000E+00 -0.18881428678E+04  0.18881428678E+04  0.25500000920E-02 0. -1.
    10030    2    1    2    0    0  0.00000000000E+00  0.00000000000E+00 -0.13354785752E+04  0.24408071605E+04  0.20430459050E+04 0.  0.
        3    1    3    3  502    0  0.81628130921E+02 -0.61715385297E+03 -0.16353404325E+04  0.17498229540E+04  0.10100000352E+00 0. -1.
       -3    1    3    3    0  502 -0.81628130921E+02  0.61715385297E+03  0.29986185731E+03  0.69098420652E+03  0.10100000352E+00 0.  1.
</event>
<event>
 5   0  0.4829134E-04  0.1791535E+04  0.7818609E-02  0.8710814E-01
       -2   -1    0    0    0  501  0.00000000000E+00  0.00000000000E+00  0.56681036550E+03  0.56681036551E+03  0.25500000920E-02 0. -1.
        2   -1    0    0  501    0  0.00000000000E+00  0.00000000000E+00 -0.14156402845E+04  0.14156402845E+04  0.25500000920E-02 0.  1.
    10030    2    1    2    0    0  0.00000000000E+00  0.00000000000E+00 -0.84882991904E+03  0.19824506501E+04  0.17915351932E+04 0.  0.
        2    1    3    3  502    0 -0.82198323599E+02  0.10162746915E+03  0.55620099392E+03  0.57135300168E+03  0.25500000920E-02 0. -1.
       -2    1    3    3    0  502  0.82198323599E+02 -0.10162746915E+03 -0.14050309130E+04  0.14110976484E+04  0.25500000920E-02 0.  1.
</event>
<event>
 5   0  0.4761944E-04  0.1110197E+04  0.7818609E-02  0.9195310E-01
        2   -1    0    0  501    0  0.00000000000E+00  0.00000000000E+00  0.10000101418E+04  0.10000101418E+04  0.25500000920E-02 0. -1.
       -2   -1    0    0    0  501  0.00000000000E+00  0.00000000000E+00 -0.30813111709E+03  0.30813111710E+03  0.25500000920E-02 0.  1.
    10030    2    1    2    0    0  0.00000000000E+00  0.00000000000E+00  0.69187902475E+03  0.13081412589E+04  0.11101968152E+04 0.  0.
        4    1    3    3  502    0 -0.21422089443E+03  0.21539952127E+03 -0.20148689955E+03  0.36453549753E+03  0.12699999809E+01 0.  1.
       -4    1    3    3    0  502  0.21422089443E+03 -0.21539952127E+03  0.89336592430E+03  0.94360576141E+03  0.12699999809E+01 0. -1.
</event>
<event>
 5   0  0.4839293E-04  0.1900642E+04  0.7818609E-02  0.8654537E-01
        2   -1    0    0  501    0  0.00000000000E+00  0.00000000000E+00  0.14831179354E+04  0.14831179354E+04  0.25500000920E-02 0.  1.
       -2   -1    0    0    0  501  0.00000000000E+00  0.00000000000E+00 -0.60892682527E+03  0.60892682528E+03  0.25500000920E-02 0. -1.
    10030    2    1    2    0    0  0.00000000000E+00  0.00000000000E+00  0.87419111018E+03  0.20920447607E+04  0.19006423082E+04 0.  0.
        5    1    3    3  502    0 -0.14989945164E+01 -0.91625869634E+03  0.15960466974E+03  0.93006880724E+03  0.46999998093E+01 0.  1.
       -5    1    3    3    0  502  0.14989945164E+01  0.91625869634E+03  0.71458644044E+03  0.11619759535E+04  0.46999998093E+01 0. -1.
</event>
<event>
 5   0  0.4973411E-04  0.1931962E+04  0.7818609E-02  0.8639108E-01
        2   -1    0    0  501    0  0.00000000000E+00  0.00000000000E+00  0.65837858604E+03  0.65837858605E+03  0.25500000920E-02 0. -1.
       -2   -1    0    0    0  501  0.00000000000E+00  0.00000000000E+00 -0.14172989300E+04  0.14172989300E+04  0.25500000920E-02 0.  1.
    10030    2    1    2    0    0  0.00000000000E+00  0.00000000000E+00 -0.75892034396E+03  0.20756775161E+04  0.19319619722E+04 0.  0.
        1    1    3    3  502    0 -0.52535947153E+03  0.40891312418E+03 -0.11314604793E+04  0.13127891429E+04  0.50400001928E-02 0.  1.
       -1    1    3    3    0  502  0.52535947153E+03 -0.40891312418E+03  0.37254013533E+03  0.76288837317E+03  0.50400001928E-02 0. -1.
</event>
<event>
 5   0  0.4973411E-04  0.1686276E+04  0.7818609E-02  0.8769231E-01
       -2   -1    0    0    0  501  0.00000000000E+00  0.00000000000E+00  0.60097447514E+03  0.60097447515E+03  0.25500000920E-02 0.  1.
        2   -1    0    0  501    0  0.00000000000E+00  0.00000000000E+00 -0.11828813581E+04  0.11828813581E+04  0.25500000920E-02 0. -1.
    10030    2    1    2    0    0  0.00000000000E+00  0.00000000000E+00 -0.58190688298E+03  0.17838558333E+04  0.16862757822E+04 0.  0.
        1    1    3    3  502    0 -0.35205952525E+03 -0.74033395728E+03 -0.49943978534E+03  0.95993769424E+03  0.50400001928E-02 0. -1.
       -1    1    3    3    0  502  0.35205952525E+03  0.74033395728E+03 -0.82467097643E+02  0.82391813904E+03  0.50400001928E-02 0.  1.
</event>
<event>
 5   0  0.2261755E-04  0.1878465E+04  0.7818609E-02  0.8665651E-01
       -1   -1    0    0    0  501  0.00000000000E+00  0.00000000000E+00  0.87632173544E+03  0.87632173545E+03  0.50400001928E-02 0.  1.
        1   -1    0    0  501    0  0.00000000000E+00  0.00000000000E+00 -0.10066596019E+04  0.10066596019E+04  0.50400001928E-02 0. -1.
    10030    2    1    2    0    0  0.00000000000E+00  0.00000000000E+00 -0.13033786641E+03  0.18829813373E+04  0.18784650003E+04 0.  0.
        1    1    3    3  502    0 -0.19654276370E+03 -0.67916414589E+02  0.85295676757E+03  0.87793903245E+03  0.50400001928E-02 0.  1.
       -1    1    3    3    0  502  0.19654276370E+03  0.67916414589E+02 -0.98329463398E+03  0.10050423049E+04  0.50400001928E-02 0. -1.
</event>
<event>
 5   0  0.2376359E-04  0.1901676E+04  0.7818609E-02  0.8654023E-01
        1   -1    0    0  501    0  0.00000000000E+00  0.00000000000E+00  0.19109561328E+04  0.19109561329E+04  0.50400001928E-02 0. -1.
       -1   -1    0    0    0  501  0.00000000000E+00  0.00000000000E+00 -0.47311006692E+03  0.47311006695E+03  0.50400001928E-02 0.  1.
    10030    2    1    2    0    0  0.00000000000E+00  0.00000000000E+00  0.14378460659E+04  0.23840661998E+04  0.19016756652E+04 0.  0.
        2    1    3    3  502    0  0.79315595655E+03 -0.50935935260E+03  0.56259503784E+03  0.10977506539E+04  0.25500000920E-02 0. -1.
       -2    1    3    3    0  502 -0.79315595655E+03  0.50935935260E+03  0.87525102808E+03  0.12863155459E+04  0.25500000920E-02 0.  1.
</event>
<event>
 5   0  0.4973411E-04  0.1891889E+04  0.7818609E-02  0.8658904E-01
        2   -1    0    0  501    0  0.00000000000E+00  0.00000000000E+00  0.15631411943E+04  0.15631411943E+04  0.25500000920E-02 0.  1.
       -2   -1    0    0    0  501  0.00000000000E+00  0.00000000000E+00 -0.57244430116E+03  0.57244430116E+03  0.25500000920E-02 0. -1.
    10030    2    1    2    0    0  0.00000000000E+00  0.00000000000E+00  0.99069689318E+03  0.21355854955E+04  0.18918892871E+04 0.  0.
        1    1    3    3  502    0  0.50204811403E+03 -0.25993685521E+03  0.13514545322E+04  0.14649398725E+04  0.50400001928E-02 0.  1.
       -1    1    3    3    0  502 -0.50204811403E+03  0.25993685521E+03 -0.36075763901E+03  0.67064562298E+03  0.50400001928E-02 0. -1.
</event>
<event>
 5   0  0.2355414E-04  0.1883350E+04  0.7818609E-02  0.8663189E-01
        1   -1    0    0  501    0  0.00000000000E+00  0.00000000000E+00  0.25494425449E+04  0.25494425449E+04  0.50400001928E-02 0. -1.
       -1   -1    0    0    0  501  0.00000000000E+00  0.00000000000E+00 -0.34782181009E+03  0.34782181013E+03  0.50400001928E-02 0.  1.
    10030    2    1    2    0    0  0.00000000000E+00  0.00000000000E+00  0.22016207348E+04  0.28972643551E+04  0.18833499099E+04 0.  0.
        5    1    3    3  502    0 -0.27041822215E+02  0.87596379527E+03  0.57083401906E+03  0.10459050617E+04  0.46999998093E+01 0.  1.
       -5    1    3    3    0  502  0.27041822215E+02 -0.87596379527E+03  0.16307867158E+04  0.18513592934E+04  0.46999998093E+01 0. -1.
</event>
<event>
 5   0  0.4839293E-04  0.1909619E+04  0.7818609E-02  0.8650083E-01
        2   -1    0    0  501    0  0.00000000000E+00  0.00000000000E+00  0.66149804299E+03  0.66149804299E+03  0.25500000920E-02 0.  1.
       -2   -1    0    0    0  501  0.00000000000E+00  0.00000000000E+00 -0.13781769402E+04  0.13781769402E+04  0.25500000920E-02 0. -1.
    10030    2    1    2    0    0  0.00000000000E+00  0.00000000000E+00 -0.71667889719E+03  0.20396749832E+04  0.19096191755E+04 0.  0.
        5    1    3    3  502    0 -0.29906345252E+03  0.82872553407E+03 -0.75138824055E+03  0.11579427177E+04  0.46999998093E+01 0. -1.
       -5    1    3    3    0  502  0.29906345252E+03 -0.82872553407E+03  0.34709343365E+02  0.88173226546E+03  0.46999998093E+01 0.  1.
</event>
<event>
 5   0  0.2317458E-04  0.1788271E+04  0.7818609E-02  0.8712562E-01
        1   -1    0    0  501    0  0.00000000000E+00  0.00000000000E+00  0.91402349675E+03  0.91402349676E+03  0.50400001928E-02 0. -1.
       -1   -1    0    0    0  501  0.00000000000E+00  0.00000000000E+00 -0.87468004706E+03  0.87468004707E+03  0.50400001928E-02 0.  1.
    10030    2    1    2    0    0  0.00000000000E+00  0.00000000000E+00  0.39343449690E+02  0.17887035438E+04  0.17882708018E+04 0.  0.
        3    1    3    3  502    0  0.21164132610E+03 -0.33351401579E+03 -0.78267851720E+03  0.87670366780E+03  0.10100000352E+00 0.  1.
       -3    1    3    3    0  502 -0.21164132610E+03  0.33351401579E+03  0.82202196689E+03  0.91199987604E+03  0.10100000352E+00 0. -1.
</event>
<event>
 5   0  0.4829134E-04  0.1874704E+04  0.7818609E-02  0.8667551E-01
       -2   -1    0    0    0  501  0.00000000000E+00  0.00000000000E+00  0.67651741784E+03  0.67651741785E+03  0.25500000920E-02 0.  1.
        2   -1    0    0  501    0  0.00000000000E+00  0.00000000000E+00 -0.12987532885E+04  0.12987532885E+04  0.25500000920E-02 0. -1.
    10030    2    1    2    0    0  0.00000000000E+00  0.00000000000E+00 -0.62223587061E+03  0.19752707063E+04  0.18747044792E+04 0.  0.
        2    1    3    3  502    0 -0.87541080023E+03 -0.33418678301E+03 -0.28521573588E+03  0.97947582466E+03  0.25500000920E-02 0.  1.
       -2    1    3    3    0  502  0.87541080023E+03  0.33418678301E+03 -0.33702013473E+03  0.99579488165E+03  0.25500000920E-02 0. -1.
</event>
<event>
 5   0  0.2510069E-04  0.1897812E+04  0.7818609E-02  0.8655946E-01
       -1   -1    0    0    0  501  0.00000000000E+00  0.00000000000E+00  0.58277721970E+03  0.58277721972E+03  0.50400001928E-02 0.  1.
        1   -1    0    0  501    0  0.00000000000E+00  0.00000000000E+00 -0.15450542354E+04  0.15450542354E+04  0.50400001928E-02 0. -1.
    10030    2    1    2    0    0  0.00000000000E+00  0.00000000000E+00 -0.96227701573E+03  0.21278314552E+04  0.18978118048E+04 0.  0.
        4    1    3    3  502    0  0.88487936535E+03  0.21701358786E+03 -0.77844627144E+03  0.11983683069E+04  0.12699999809E+01 0. -1.
       -4    1    3    3    0  502 -0.88487936535E+03 -0.21701358786E+03 -0.18383074429E+03  0.92946314827E+03  0.12699999809E+01 0.  1.
</event>
<event>
 5   0  0.2355414E-04  0.1837353E+04  0.7818609E-02  0.8686684E-01
        1   -1    0    0  501    0  0.00000000000E+00  0.00000000000E+00  0.13751694526E+04  0.13751694526E+04  0.50400001928E-02 0. -1.
       -1   -1    0    0    0  501  0.00000000000E+00  0.00000000000E+00 -0.61371815023E+03  0.61371815025E+03  0.50400001928E-02 0.  1.
    10030    2    1    2    0    0  0.00000000000E+00  0.00000000000E+00  0.76145130236E+03  0.19888876029E+04  0.18373529359E+04 0.  0.
        5    1    3    3  502    0  0.31898463099E+03 -0.14942418028E+03  0.12991499344E+04  0.13460651628E+04  0.46999998093E+01 0. -1.
       -5    1    3    3    0  502 -0.31898463099E+03  0.14942418028E+03 -0.53769863207E+03  0.64282244002E+03  0.46999998093E+01 0.  1.
</event>
<event>
 5   0  0.2261755E-04  0.1439181E+04  0.7818609E-02  0.8925935E-01
       -1   -1    0    0    0  501  0.00000000000E+00  0.00000000000E+00  0.66075546538E+03  0.66075546540E+03  0.50400001928E-02 0. -1.
        1   -1    0    0  501    0  0.00000000000E+00  0.00000000000E+00 -0.78366476548E+03  0.78366476549E+03  0.50400001928E-02 0.  1.
    10030    2    1    2    0    0  0.00000000000E+00  0.00000000000E+00 -0.12290930010E+03  0.14444202309E+04  0.14391814018E+04 0.  0.
        1    1    3    3  502    0 -0.40102147101E+03 -0.62615858305E+02  0.53490677941E+03  0.67146424224E+03  0.50400001928E-02 0. -1.
       -1    1    3    3    0  502  0.40102147101E+03  0.62615858305E+02 -0.65781607950E+03  0.77295598866E+03  0.50400001928E-02 0.  1.
</event>
<event>
 5   0  0.2376359E-04  0.1814500E+04  0.7818609E-02  0.8698627E-01
        1   -1    0    0  501    0  0.00000000000E+00  0.00000000000E+00  0.11176107150E+04  0.11176107151E+04  0.50400001928E-02 0.  1.
       -1   -1    0    0    0  501  0.00000000000E+00  0.00000000000E+00 -0.73648385145E+03  0.73648385147E+03  0.50400001928E-02 0. -1.
    10030    2    1    2    0    0  0.00000000000E+00  0.00000000000E+00  0.38112686360E+03  0.18540945665E+04  0.18144996488E+04 0.  0.
        2    1    3    3  502    0 -0.21836347813E+03  0.70779901424E+02  0.10874466616E+04  0.11114102055E+04  0.25500000920E-02 0.  1.
       -2    1    3    3    0  502  0.21836347813E+03 -0.70779901424E+02 -0.70631979802E+03  0.74268436102E+03  0.25500000920E-02 0. -1.
</event>
<event>
 5   0  0.4802635E-04  0.1874426E+04  0.7818609E-02  0.8667692E-01
        2   -1    0    0  501    0  0.00000000000E+00  0.00000000000E+00  0.85729852370E+03  0.85729852371E+03  0.25500000920E-02 0.  1.
       -2   -1    0    0    0  501  0.00000000000E+00  0.00000000000E+00 -0.10245765239E+04  0.10245765239E+04  0.25500000920E-02 0. -1.
    10030    2    1    2    0    0  0.00000000000E+00  0.00000000000E+00 -0.16727800018E+03  0.18818750476E+04  0.18744257162E+04 0.  0.
        3    1    3    3  502    0 -0.32621366180E+03  0.75385464991E+03  0.36943681727E+03  0.90066406528E+03  0.10100000352E+00 0.  1.
       -3    1    3    3    0  502  0.32621366180E+03 -0.75385464991E+03 -0.53671481745E+03  0.98121098231E+03  0.10100000352E+00 0. -1.
</event>
<event>
 5   0  0.4973411E-04  0.1812794E+04  0.7818609E-02  0.8699525E-01
        2   -1    0    0  501    0  0.00000000000E+00  0.00000000000E+00  0.63762005766E+03  0.63762005767E+03  0.25500000920E-02 0. -1.
       -2   -1    0    0    0  501  0.00000000000E+00  0.00000000000E+00 -0.12884722384E+04  0.12884722384E+04  0.25500000920E-02 0.  1.
    10030    2    1    2    0    0  0.00000000000E+00  0.00000000000E+00 -0.65085218075E+03  0.19260922961E+04  0.18127942442E+04 0.  0.
        1    1    3    3  502    0 -0.73920409654E+03 -0.43456060839E+03 -0.13315052610E+02  0.85757968105E+03  0.50400001928E-02 0. -1.
       -1    1    3    3    0  502  0.73920409654E+03  0.43456060839E+03 -0.63753712814E+03  0.10685126150E+04  0.50400001928E-02 0.  1.
</event>
<event>
 5   0  0.2376359E-04  0.1927983E+04  0.7818609E-02  0.8641051E-01
       -1   -1    0    0    0  501  0.00000000000E+00  0.00000000000E+00  0.83754036004E+03  0.83754036005E+03  0.50400001928E-02 0. -1.
        1   -1    0    0  501    0  0.00000000000E+00  0.00000000000E+00 -0.11095344450E+04  0.11095344450E+04  0.50400001928E-02 0.  1.
    10030    2    1    2    0    0  0.00000000000E+00  0.00000000000E+00 -0.27199408491E+03  0.19470748050E+04  0.19279832764E+04 0.  0.
        2    1    3    3  502    0 -0.57029185146E+03  0.64414967301E+03  0.30318657438E+03  0.91218621782E+03  0.25500000920E-02 0. -1.
       -2    1    3    3    0  502  0.57029185146E+03 -0.64414967301E+03 -0.57518065929E+03  0.10348885872E+04  0.25500000920E-02 0.  1.
</event>
<event>
 5   0  0.2510069E-04  0.1935657E+04  0.7818609E-02  0.8637308E-01
       -1   -1    0    0    0  501  0.00000000000E+00  0.00000000000E+00  0.18471749727E+04  0.18471749727E+04  0.50400001928E-02 0.  1.
        1   -1    0    0  501    0  0.00000000000E+00  0.00000000000E+00 -0.50709459055E+03  0.50709459057E+03  0.50400001928E-02 0. -1.
    10030    2    1    2    0    0  0.00000000000E+00  0.00000000000E+00  0.13400803822E+04  0.23542695633E+04  0.19356574454E+04 0.  0.
        4    1    3    3  502    0  0.45270178560E+02  0.25232695676E+03 -0.46504881500E+03  0.53102758441E+03  0.12699999809E+01 0. -1.
       -4    1    3    3    0  502 -0.45270178560E+02 -0.25232695676E+03  0.18051291972E+04  0.18232419789E+04  0.12699999809E+01 0.  1.
</event>
<event>
 5   0  0.2317458E-04  0.1883273E+04  0.7818609E-02  0.8663227E-01
       -1   -1    0    0    0  501  0.00000000000E+00  0.00000000000E+00  0.37871762919E+03  0.37871762922E+03  0.50400001928E-02 0. -1.
        1   -1    0    0  501    0  0.00000000000E+00  0.00000000000E+00 -0.23412684862E+04  0.23412684862E+04  0.50400001928E-02 0.  1.
    10030    2    1    2    0    0  0.00000000000E+00  0.00000000000E+00 -0.19625508570E+04  0.27199861154E+04  0.18832733742E+04 0.  0.
        3    1    3    3  502    0 -0.49237568609E+03 -0.68941427770E+03 -0.38761613058E+03  0.93165022269E+03  0.10100000352E+00 0. -1.
       -3    1    3    3    0  502  0.49237568609E+03  0.68941427770E+03 -0.15749347265E+04  0.17883358928E+04  0.10100000352E+00 0.  1.
</event>
<event>
 5   0  0.2510069E-04  0.1936576E+04  0.7818609E-02  0.8636861E-01
       -1   -1    0    0    0  501  0.00000000000E+00  0.00000000000E+00  0.64488239246E+03  0.64488239248E+03  0.50400001928E-02 0. -1.
        1   -1    0    0  501    0  0.00000000000E+00  0.00000000000E+00 -0.14538805971E+04  0.14538805971E+04  0.50400001928E-02 0.  1.
    10030    2    1    2    0    0  0.00000000000E+00  0.00000000000E+00 -0.80899820467E+03  0.20987629896E+04  0.19365763583E+04 0.  0.
        4    1    3    3  502    0  0.74071800364E+03  0.44201875304E+03 -0.88127070110E+03  0.12331599249E+04  0.12699999809E+01 0. -1.
       -4    1    3    3    0  502 -0.74071800364E+03 -0.44201875304E+03  0.72272496425E+02  0.86560306469E+03  0.12699999809E+01 0.  1.
</event>
<event>
 5   0  0.4829134E-04  0.1892980E+04  0.7818609E-02  0.8658359E-01
        2   -1    0    0  501    0  0.00000000000E+00  0.00000000000E+00  0.10500091055E+04  0.10500091055E+04  0.25500000920E-02 0. -1.
       -2   -1    0    0    0  501  0.00000000000E+00  0.00000000000E+00 -0.85317682381E+03  0.85317682382E+03  0.25500000920E-02 0.  1.
    10030    2    1    2    0    0  0.00000000000E+00  0.00000000000E+00  0.19683228172E+03  0.19031859294E+04  0.18929801200E+04 0.  0.
        2    1    3    3  502    0 -0.52594255581E+03  0.62784291828E+03  0.57535874281E+03  0.10009195697E+04  0.25500000920E-02 0. -1.
       -2    1    3    3    0  502  0.52594255581E+03 -0.62784291828E+03 -0.37852646108E+03  0.90226635967E+03  0.25500000920E-02 0.  1.
</event>
<event>
 5   0  0.4973411E-04  0.2055107E+04  0.7818609E-02  0.8581281E-01
       -2   -1    0    0    0  501  0.00000000000E+00  0.00000000000E+00  0.97186217062E+03  0.97186217063E+03  0.25500000920E-02 0. -1.
        2   -1    0    0  501    0  0.00000000000E+00  0.00000000000E+00 -0.10864364790E+04  0.10864364790E+04  0.25500000920E-02 0.  1.
    10030    2    1    2    0    0  0.00000000000E+00  0.00000000000E+00 -0.11457430839E+03  0.20582986497E+04  0.20551073108E+04 0.  0.
        1    1    3    3  502    0  0.74061926237E+03 -0.27578904821E+03  0.60045941459E+03  0.99253614518E+03  0.50400001928E-02 0. -1.
       -1    1    3    3    0  502 -0.74061926237E+03  0.27578904821E+03 -0.71503372298E+03  0.10657625045E+04  0.50400001928E-02 0.  1.
</event>
<event>
 5   0  0.2261755E-04  0.1929330E+04  0.7818609E-02  0.8640393E-01
        1   -1    0    0  501    0  0.00000000000E+00  0.00000000000E+00  0.49837297807E+03  0.49837297809E+03  0.50400001928E-02 0.  1.
       -1   -1    0    0    0  501  0.00000000000E+00  0.00000000000E+00 -0.18672332291E+04  0.18672332291E+04  0.50400001928E-02 0. -1.
    10030    2    1    2    0    0  0.00000000000E+00  0.00000000000E+00 -0.13688602510E+04  0.23656062072E+04  0.19293300238E+04 0.  0.
        1    1    3    3  502    0  0.10986455825E+02  0.82350505146E+03 -0.68555599435E+02  0.82642673131E+03  0.50400001928E-02 0.  1.
       -1    1    3    3    0  502 -0.10986455825E+02 -0.82350505146E+03 -0.13003046516E+04  0.15391794758E+04  0.50400001928E-02 0. -1.
</event>
<event>
 5   0  0.4829134E-04  0.1906650E+04  0.7818609E-02  0.8651553E-01
        2   -1    0    0  501    0  0.00000000000E+00  0.00000000000E+00  0.11714813025E+04  0.11714813025E+04  0.25500000920E-02 0. -1.
       -2   -1    0    0    0  501  0.00000000000E+00  0.00000000000E+00 -0.77579436894E+03  0.77579436894E+03  0.25500000920E-02 0.  1.
    10030    2    1    2    0    0  0.00000000000E+00  0.00000000000E+00  0.39568693359E+03  0.19472756715E+04  0.19066500443E+04 0.  0.
        2    1    3    3  502    0 -0.13932688961E+03 -0.89417300618E+03  0.50401643385E+03  0.10358522640E+04  0.25500000920E-02 0. -1.
       -2    1    3    3    0  502  0.13932688961E+03  0.89417300618E+03 -0.10832950026E+03  0.91142340752E+03  0.25500000920E-02 0.  1.
</event>
<event>
 5   0  0.2317458E-04  0.1657498E+04  0.7818609E-02  0.8785983E-01
        1   -1    0    0  501    0  0.00000000000E+00  0.00000000000E+00  0.14069974440E+04  0.14069974440E+04  0.50400001928E-02 0. -1.
       -1   -1    0    0    0  501  0.00000000000E+00  0.00000000000E+00 -0.48814926836E+03  0.48814926838E+03  0.50400001928E-02 0.  1.
    10030    2    1    2    0    0  0.00000000000E+00  0.00000000000E+00  0.91884817564E+03  0.18951467124E+04  0.16574978406E+04 0.  0.
        3    1    3    3  502    0 -0.76344941146E+03  0.25369740413E+03  0.23187350328E+03  0.83724710119E+03  0.10100000352E+00 0.  1.
       -3    1    3    3    0  502  0.76344941146E+03 -0.25369740413E+03  0.68697467237E+03  0.10578996112E+04  0.10100000352E+00 0. -1.
</event>
<event>
 5   0  0.4973411E-04  0.2261067E+04  0.7818609E-02  0.8493432E-01
        2   -1    0    0  501    0  0.00000000000E+00  0.00000000000E+00  0.94523425646E+03  0.94523425646E+03  0.25500000920E-02 0. -1.
       -2   -1    0    0    0  501  0.00000000000E+00  0.00000000000E+00 -0.13521577636E+04  0.13521577636E+04  0.25500000920E-02 0.  1.
    10030    2    1    2    0    0  0.00000000000E+00  0.00000000000E+00 -0.40692350713E+03  0.22973920200E+04  0.22610668617E+04 0.  0.
        1    1    3    3  502    0 -0.11465849704E+03 -0.86853644382E+03 -0.92950700198E+03  0.12772961254E+04  0.50400001928E-02 0.  1.
       -1    1    3    3    0  502  0.11465849704E+03  0.86853644382E+03  0.52258349485E+03  0.10200958947E+04  0.50400001928E-02 0. -1.
</event>
<event>
 5   0  0.2317458E-04  0.1840227E+04  0.7818609E-02  0.8685195E-01
        1   -1    0    0  501    0  0.00000000000E+00  0.00000000000E+00  0.49542847781E+03  0.49542847784E+03  0.50400001928E-02 0. -1.
       -1   -1    0    0    0  501  0.00000000000E+00  0.00000000000E+00 -0.17088415506E+04  0.17088415507E+04  0.50400001928E-02 0.  1.
    10030    2    1    2    0    0  0.00000000000E+00  0.00000000000E+00 -0.12134130728E+04  0.22042700285E+04  0.18402269081E+04 0.  0.
        3    1    3    3  502    0 -0.72962574047E+03  0.35242716554E+03 -0.11288952781E+04  0.13895910144E+04  0.10100000352E+00 0.  1.
       -3    1    3    3    0  502  0.72962574047E+03 -0.35242716554E+03 -0.84517794706E+02  0.81467901408E+03  0.10100000352E+00 0. -1.
</event>
<event>
 5   0  0.4839293E-04  0.1702176E+04  0.7818609E-02  0.8760124E-01
       -2   -1    0    0    0  501  0.00000000000E+00  0.00000000000E+00  0.50934311977E+03  0.50934311977E+03  0.25500000920E-02 0.  1.
        2   -1    0    0  501    0  0.00000000000E+00  0.00000000000E+00 -0.14221274188E+04  0.14221274188E+04  0.25500000920E-02 0. -1.
    10030    2    1    2    0    0  0.00000000000E+00  0.00000000000E+00 -0.91278429904E+03  0.19314705386E+04  0.17021760381E+04 0.  0.
        5    1    3    3  502    0 -0.24130538165E+03 -0.30129966786E+03  0.40428040606E+03  0.55899419835E+03  0.46999998093E+01 0.  1.
       -5    1    3    3    0  502  0.24130538165E+03  0.30129966786E+03 -0.13170647051E+04  0.13724763402E+04  0.46999998093E+01 0. -1.
</event>
<event>
 5   0  0.4973411E-04  0.1993303E+04  0.7818609E-02  0.8609758E-01
        2   -1    0    0  501    0  0.00000000000E+00  0.00000000000E+00  0.12003001083E+04  0.12003001083E+04  0.25500000920E-02 0. -1.
       -2   -1    0    0    0  501  0.00000000000E+00  0.00000000000E+00 -0.82755498538E+03  0.82755498538E+03  0.25500000920E-02 0.  1.
    10030    2    1    2    0    0  0.00000000000E+00  0.00000000000E+00  0.37274512294E+03  0.20278550937E+04  0.19933031266E+04 0.  0.
        1    1    3    3  502    0 -0.13194843048E+03  0.56845675001E+03 -0.63556840653E+03  0.86284451922E+03  0.50400001928E-02 0.  1.
       -1    1    3    3    0  502  0.13194843048E+03 -0.56845675001E+03  0.10083135295E+04  0.11650105745E+04  0.50400001928E-02 0. -1.
</event>
<event>
 5   0  0.2376359E-04  0.1897398E+04  0.7818609E-02  0.8656153E-01
        1   -1    0    0  501    0  0.00000000000E+00  0.00000000000E+00  0.16518934765E+04  0.16518934765E+04  0.50400001928E-02 0.  1.
       -1   -1    0    0    0  501  0.00000000000E+00  0.00000000000E+00 -0.54484736579E+03  0.54484736581E+03  0.50400001928E-02 0. -1.
    10030    2    1    2    0    0  0.00000000000E+00  0.00000000000E+00  0.11070461107E+04  0.21967408423E+04  0.18973980176E+04 0.  0.
        2    1    3    3  502    0 -0.88111785365E+03  0.20226934233E+03  0.22048045248E+03  0.93053381927E+03  0.25500000920E-02 0.  1.
       -2    1    3    3    0  502  0.88111785365E+03 -0.20226934233E+03  0.88656565824E+03  0.12662070231E+04  0.25500000920E-02 0. -1.
</event>
<event>
 5   0  0.4829134E-04  0.1914409E+04  0.7818609E-02  0.8647717E-01
        2   -1    0    0  501    0  0.00000000000E+00  0.00000000000E+00  0.10741074784E+04  0.10741074784E+04  0.25500000920E-02 0.  1.
       -2   -1    0    0    0  501  0.00000000000E+00  0.00000000000E+00 -0.85302468402E+03  0.85302468402E+03  0.25500000920E-02 0. -1.
    10030    2    1    2    0    0  0.00000000000E+00  0.00000000000E+00  0.22108279442E+03  0.19271321625E+04  0.19144087259E+04 0.  0.
        2    1    3    3  502    0 -0.15553622830E+03 -0.33977203386E+03 -0.77656670348E+03  0.86179603055E+03  0.25500000920E-02 0. -1.
       -2    1    3    3    0  502  0.15553622830E+03  0.33977203386E+03  0.99764949790E+03  0.10653361319E+04  0.25500000920E-02 0.  1.
</event>
<event>
 5   0  0.4973411E-04  0.1236165E+04  0.7818609E-02  0.9081777E-01
        2   -1    0    0  501    0  0.00000000000E+00  0.00000000000E+00  0.87421276775E+03  0.87421276775E+03  0.25500000920E-02 0.  1.
       -2   -1    0    0    0  501  0.00000000000E+00  0.00000000000E+00 -0.43699428523E+03  0.43699428524E+03  0.25500000920E-02 0. -1.
    10030    2    1    2    0    0  0.00000000000E+00  0.00000000000E+00  0.43721848252E+03  0.13112070530E+04  0.12361650110E+04 0.  0.
        1    1    3    3  502    0 -0.36307145617E+03 -0.28776812843E+03 -0.21536660513E+03  0.51089544200E+03  0.50400001928E-02 0. -1.
       -1    1    3    3    0  502  0.36307145617E+03  0.28776812843E+03  0.65258508765E+03  0.80031161098E+03  0.50400001928E-02 0.  1.
</event>
<event>
 5   0  0.2376359E-04  0.1950935E+04  0.7818609E-02  0.8629910E-01
        1   -1    0    0  501    0  0.00000000000E+00  0.00000000000E+00  0.12090190849E+04  0.12090190849E+04  0.50400001928E-02 0.  1.
       -1   -1    0    0    0  501  0.00000000000E+00  0.00000000000E+00 -0.78703214300E+03  0.78703214301E+03  0.50400001928E-02 0. -1.
    10030    2    1    2    0    0  0.00000000000E+00  0.00000000000E+00  0.42198694186E+03  0.19960512279E+04  0.19509350387E+04 0.  0.
        2    1    3    3  502    0 -0.46405527893E+03 -0.83958187198E+03  0.30007646214E+02  0.95976324190E+03  0.25500000920E-02 0. -1.
       -2    1    3    3    0  502  0.46405527893E+03  0.83958187198E+03  0.39197929565E+03  0.10362879860E+04  0.25500000920E-02 0.  1.
</event>
<event>
 5   0  0.2510069E-04  0.1881890E+04  0.7818609E-02  0.8663924E-01
       -1   -1    0    0    0  501  0.00000000000E+00  0.00000000000E+00  0.11164516708E+04  0.11164516708E+04  0.50400001928E-02 0. -1.
        1   -1    0    0  501    0  0.00000000000E+00  0.00000000000E+00 -0.79302766170E+03  0.79302766172E+03  0.50400001928E-02 0.  1.
    10030    2    1    2    0    0  0.00000000000E+00  0.00000000000E+00  0.32342400912E+03  0.19094793325E+04  0.18818895376E+04 0.  0.
        4    1    3    3  502    0  0.37396664726E+03  0.69357861023E+03  0.68352103391E+03  0.10431226958E+04  0.12699999809E+01 0. -1.
       -4    1    3    3    0  502 -0.37396664726E+03 -0.69357861023E+03 -0.36009702480E+03  0.86635663673E+03  0.12699999809E+01 0.  1.
</event>
<event>
 5   0  0.4839293E-04  0.1886686E+04  0.7818609E-02  0.8661512E-01
       -2   -1    0    0    0  501  0.00000000000E+00  0.00000000000E+00  0.46583801970E+03  0.46583801970E+03  0.25500000920E-02 0.  1.
        2   -1    0    0  501    0  0.00000000000E+00  0.00000000000E+00 -0.19103118625E+04  0.19103118625E+04  0.25500000920E-02 0. -1.
    10030    2    1    2    0    0  0.00000000000E+00  0.00000000000E+00 -0.14444738428E+04  0.23761498822E+04  0.18866858722E+04 0.  0.
        5    1    3    3  502    0 -0.55430040592E+03  0.66220867220E+03 -0.12003306701E+04  0.14787106117E+04  0.46999998093E+01 0.  1.
       -5    1    3    3    0  502  0.55430040592E+03 -0.66220867220E+03 -0.24414317275E+03  0.89743927055E+03  0.46999998093E+01 0. -1.
</event>
<event>
 5   0  0.2355414E-04  0.1905193E+04  0.7818609E-02  0.8652276E-01
       -1   -1    0    0    0  501  0.00000000000E+00  0.00000000000E+00  0.63395928622E+03  0.63395928624E+03  0.50400001928E-02 0. -1.
        1   -1    0    0  501    0  0.00000000000E+00  0.00000000000E+00 -0.14313855322E+04  0.14313855322E+04  0.50400001928E-02 0.  1.
    10030    2    1    2    0    0  0.00000000000E+00  0.00000000000E+00 -0.79742624597E+03  0.20653448184E+04  0.19051930614E+04 0.  0.
        5    1    3    3  502    0  0.77295168314E+02  0.94635092798E+03 -0.31570324778E+03  0.10006224326E+04  0.46999998093E+01 0. -1.
       -5    1    3    3    0  502 -0.77295168314E+02 -0.94635092798E+03 -0.48172299819E+03  0.10647223858E+04  0.46999998093E+01 0.  1.
</event>
<event>
 5   0  0.2317458E-04  0.2012011E+04  0.7818609E-02  0.8601026E-01
        1   -1    0    0  501    0  0.00000000000E+00  0.00000000000E+00  0.75025718855E+03  0.75025718857E+03  0.50400001928E-02 0. -1.
       -1   -1    0    0    0  501  0.00000000000E+00  0.00000000000E+00 -0.13489338595E+04  0.13489338595E+04  0.50400001928E-02 0.  1.
    10030    2    1    2    0    0  0.00000000000E+00  0.00000000000E+00 -0.59867667098E+03  0.20991910481E+04  0.20120112574E+04 0.  0.
        3    1    3    3  502    0  0.10030483577E+04 -0.75826599413E+02 -0.28489532994E+03  0.10454764657E+04  0.10100000352E+00 0. -1.
       -3    1    3    3    0  502 -0.10030483577E+04  0.75826599413E+02 -0.31378134104E+03  0.10537145824E+04  0.10100000352E+00 0.  1.
</event>
<event>
 5   0  0.4802635E-04  0.1895030E+04  0.7818609E-02  0.8657334E-01
        2   -1    0    0  501    0  0.00000000000E+00  0.00000000000E+00  0.10759011901E+04  0.10759011901E+04  0.25500000920E-02 0. -1.
       -2   -1    0    0    0  501  0.00000000000E+00  0.00000000000E+00 -0.83444926474E+03  0.83444926474E+03  0.25500000920E-02 0.  1.
    10030    2    1    2    0    0  0.00000000000E+00  0.00000000000E+00  0.24145192536E+03  0.19103504548E+04  0.18950302974E+04 0.  0.
        3    1    3    3  502    0  0.75926450546E+03 -0.36850940144E+02  0.69093503339E+03  0.10272447671E+04  0.10100000352E+00 0. -1.
       -3    1    3    3    0  502 -0.75926450546E+03  0.36850940144E+02 -0.44948310803E+03  0.88310568770E+03  0.10100000352E+00 0.  1.
</event>
<event>
 5   0  0.4839293E-04  0.1726936E+04  0.7818609E-02  0.8746149E-01
        2   -1    0    0  501    0  0.00000000000E+00  0.00000000000E+00  0.11774362309E+04  0.11774362309E+04  0.25500000920E-02 0. -1.
       -2   -1    0    0    0  501  0.00000000000E+00  0.00000000000E+00 -0.63322037805E+03  0.63322037805E+03  0.25500000920E-02 0.  1.
    10030    2    1    2    0    0  0.00000000000E+00  0.00000000000E+00  0.54421585289E+03  0.18106566090E+04  0.17269355695E+04 0.  0.
        5    1    3    3  502    0 -0.44228373347E+03  0.68491942668E+03  0.57018791790E+03  0.99492003380E+03  0.46999998093E+01 0. -1.
       -5    1    3    3    0  502  0.44228373347E+03 -0.68491942668E+03 -0.25972065010E+02  0.81573657519E+03  0.46999998093E+01 0.  1.
</event>
<event>
 5   0  0.2355414E-04  0.1841974E+04  0.7818609E-02  0.8684291E-01
        1   -1    0    0  501    0  0.00000000000E+00  0.00000000000E+00  0.19639312301E+04  0.19639312301E+04  0.50400001928E-02 0. -1.
       -1   -1    0    0    0  501  0.00000000000E+00  0.00000000000E+00 -0.43189769084E+03  0.43189769087E+03  0.50400001928E-02 0.  1.
    10030    2    1    2    0    0  0.00000000000E+00  0.00000000000E+00  0.15320335393E+04  0.23958289210E+04  0.18419743357E+04 0.  0.
        5    1    3    3  502    0  0.63598282751E+03 -0.45748801821E+03  0.13957766053E+04  0.16006198380E+04  0.46999998093E+01 0. -1.
       -5    1    3    3    0  502 -0.63598282751E+03  0.45748801821E+03  0.13625693394E+03  0.79520908303E+03  0.46999998093E+01 0.  1.
</event>
<event>
 5   0  0.2376359E-04  0.1880730E+04  0.7818609E-02  0.8664508E-01
       -1   -1    0    0    0  501  0.00000000000E+00  0.00000000000E+00  0.66855960105E+03  0.66855960107E+03  0.50400001928E-02 0. -1.
        1   -1    0    0  501    0  0.00000000000E+00  0.00000000000E+00 -0.13226733761E+04  0.13226733761E+04  0.50400001928E-02 0.  1.
    10030    2    1    2    0    0  0.00000000000E+00  0.00000000000E+00 -0.65411377506E+03  0.19912329772E+04  0.18807296293E+04 0.  0.
        2    1    3    3  502    0  0.26155684444E+03 -0.73027097135E+03 -0.88987118485E+03  0.11804992165E+04  0.25500000920E-02 0.  1.
       -2    1    3    3    0  502 -0.26155684444E+03  0.73027097135E+03  0.23575740979E+03  0.81073376071E+03  0.25500000920E-02 0. -1.
</event>
<event>
 5   0  0.4761944E-04  0.1848135E+04  0.7818609E-02  0.8681113E-01
        2   -1    0    0  501    0  0.00000000000E+00  0.00000000000E+00  0.13462051149E+04  0.13462051149E+04  0.25500000920E-02 0. -1.
       -2   -1    0    0    0  501  0.00000000000E+00  0.00000000000E+00 -0.63430203670E+03  0.63430203670E+03  0.25500000920E-02 0.  1.
    10030    2    1    2    0    0  0.00000000000E+00  0.00000000000E+00  0.71190307820E+03  0.19805071516E+04  0.18481348936E+04 0.  0.
        4    1    3    3  502    0 -0.11452961102E+03  0.63330161680E+03 -0.35465049246E+03  0.73482416560E+03  0.12699999809E+01 0.  1.
       -4    1    3    3    0  502  0.11452961102E+03 -0.63330161680E+03  0.10665535707E+04  0.12456829860E+04  0.12699999809E+01 0. -1.
</event>
<event>
 5   0  0.4839293E-04  0.1951294E+04  0.7818609E-02  0.8629737E-01
       -2   -1    0    0    0  501  0.00000000000E+00  0.00000000000E+00  0.56704541294E+03  0.56704541295E+03  0.25500000920E-02 0.  1.
        2   -1    0    0  501    0  0.00000000000E+00  0.00000000000E+00 -0.16786789810E+04  0.16786789810E+04  0.25500000920E-02 0. -1.
    10030    2    1    2    0    0  0.00000000000E+00  0.00000000000E+00 -0.11116335680E+04  0.22457243939E+04  0.19512941510E+04 0.  0.
        5    1    3    3  502    0  0.83806758391E+03  0.22276496534E+03 -0.10703605465E+04  0.13775613578E+04  0.46999998093E+01 0. -1.
       -5    1    3    3    0  502 -0.83806758391E+03 -0.22276496534E+03 -0.41273021532E+02  0.86816303612E+03  0.46999998093E+01 0.  1.
</event>
<event>
 5   0  0.2261755E-04  0.1859594E+04  0.7818609E-02  0.8675234E-01
        1   -1    0    0  501    0  0.00000000000E+00  0.00000000000E+00  0.17348683206E+04  0.17348683206E+04  0.50400001928E-02 0. -1.
       -1   -1    0    0    0  501  0.00000000000E+00  0.00000000000E+00 -0.49832184520E+03  0.49832184523E+03  0.50400001928E-02 0.  1.
    10030    2    1    2    0    0  0.00000000000E+00  0.00000000000E+00  0.12365464754E+04  0.22331901659E+04  0.18595943458E+04 0.  0.
        1    1    3    3  502    0 -0.57390102091E+02  0.30478834203E+03 -0.43437264644E+03  0.53373134933E+03  0.50400001928E-02 0.  1.
       -1    1    3    3    0  502  0.57390102091E+02 -0.30478834203E+03  0.16709191219E+04  0.16994588165E+04  0.50400001928E-02 0. -1.
</event>
<event>
 5   0  0.4829134E-04  0.1854616E+04  0.7818609E-02  0.8677783E-01
       -2   -1    0    0    0  501  0.00000000000E+00  0.00000000000E+00  0.40169679019E+03  0.40169679019E+03  0.25500000920E-02 0. -1.
        2   -1    0    0  501    0  0.00000000000E+00  0.00000000000E+00 -0.21406701195E+04  0.21406701195E+04  0.25500000920E-02 0.  1.
    10030    2    1    2    0    0  0.00000000000E+00  0.00000000000E+00 -0.17389733293E+04  0.25423669097E+04  0.18546162038E+04 0.  0.
        2    1    3    3  502    0  0.21472785949E+03 -0.84377729047E+03 -0.13069348569E+04  0.15703970485E+04  0.25500000920E-02 0.  1.
       -2    1    3    3    0  502 -0.21472785949E+03  0.84377729047E+03 -0.43203847241E+03  0.97196986126E+03  0.25500000920E-02 0. -1.
</event>
<event>
 5   0  0.2376359E-04  0.1900496E+04  0.7818609E-02  0.8654610E-01
        1   -1    0    0  501    0  0.00000000000E+00  0.00000000000E+00  0.23605247371E+04  0.23605247371E+04  0.50400001928E-02 0.  1.
       -1   -1    0    0    0  501  0.00000000000E+00  0.00000000000E+00 -0.38252986672E+03  0.38252986675E+03  0.50400001928E-02 0. -1.
    10030    2    1    2    0    0  0.00000000000E+00  0.00000000000E+00  0.19779948703E+04  0.27430546038E+04  0.19004959491E+04 0.  0.
        2    1    3    3  502    0 -0.38955422006E+03 -0.23912501092E+03 -0.21343065784E+03  0.50446596211E+03  0.25500000920E-02 0. -1.
       -2    1    3    3    0  502  0.38955422006E+03  0.23912501092E+03  0.21914255282E+04  0.22385886417E+04  0.25500000920E-02 0.  1.
</event>
<event>
 5   0  0.4973411E-04  0.1396828E+04  0.7818609E-02  0.8956118E-01
       -2   -1    0    0    0  501  0.00000000000E+00  0.00000000000E+00  0.94330890323E+03  0.94330890323E+03  0.25500000920E-02 0.  1.
        2   -1    0    0  501    0  0.00000000000E+00  0.00000000000E+00 -0.51709678232E+03  0.51709678233E+03  0.25500000920E-02 0. -1.
    10030    2    1    2    0    0  0.00000000000E+00  0.00000000000E+00  0.42621212091E+03  0.14604056856E+04  0.13968278328E+04 0.  0.
        1    1    3    3  502    0  0.24431330228E+03 -0.24830850386E+03  0.84599811009E+03  0.91490923324E+03  0.50400001928E-02 0.  1.
       -1    1    3    3    0  502 -0.24431330228E+03  0.24830850386E+03 -0.41978598918E+03  0.54549645232E+03  0.50400001928E-02 0. -1.
</event>
<event>
 5   0  0.2317458E-04  0.1869727E+04  0.7818609E-02  0.8670074E-01
        1   -1    0    0  501    0  0.00000000000E+00  0.00000000000E+00  0.91615169863E+03  0.91615169864E+03  0.50400001928E-02 0.  1.
       -1   -1    0    0    0  501  0.00000000000E+00  0.00000000000E+00 -0.95395730996E+03  0.95395730998E+03  0.50400001928E-02 0. -1.
    10030    2    1    2    0    0  0.00000000000E+00  0.00000000000E+00 -0.37805611332E+02  0.18701090086E+04  0.18697268356E+04 0.  0.
        3    1    3    3  502    0 -0.31017680809E+03 -0.35190351827E+03 -0.82772368404E+03  0.95140540558E+03  0.10100000352E+00 0. -1.
       -3    1    3    3    0  502  0.31017680809E+03  0.35190351827E+03  0.78991807271E+03  0.91870360304E+03  0.10100000352E+00 0.  1.
</event>
<event>
 5   0  0.2317458E-04  0.1914195E+04  0.7818609E-02  0.8647823E-01
       -1   -1    0    0    0  501  0.00000000000E+00  0.00000000000E+00  0.89055158221E+03  0.89055158223E+03  0.50400001928E-02 0. -1.
        1   -1    0    0  501    0  0.00000000000E+00  0.00000000000E+00 -0.10286155473E+04  0.10286155473E+04  0.50400001928E-02 0.  1.
    10030    2    1    2    0    0  0.00000000000E+00  0.00000000000E+00 -0.13806396509E+03  0.19191671295E+04  0.19141945598E+04 0.  0.
        3    1    3    3  502    0  0.61204469733E+03 -0.36400842556E+02 -0.80586387485E+03  0.10125908986E+04  0.10100000352E+00 0.  1.
       -3    1    3    3    0  502 -0.61204469733E+03  0.36400842556E+02  0.66779990977E+03  0.90657623097E+03  0.10100000352E+00 0. -1.
</event>
<event>
 5   0  0.4761944E-04  0.1888902E+04  0.7818609E-02  0.8660400E-01
        2   -1    0    0  501    0  0.00000000000E+00  0.00000000000E+00  0.14187068338E+04  0.14187068338E+04  0.25500000920E-02 0.  1.
       -2   -1    0    0    0  501  0.00000000000E+00  0.00000000000E+00 -0.62873317939E+03  0.62873317939E+03  0.25500000920E-02 0. -1.
    10030    2    1    2    0    0  0.00000000000E+00  0.00000000000E+00  0.78997365440E+03  0.20474400132E+04  0.18889023884E+04 0.  0.
        4    1    3    3  502    0  0.90472144017E+03  0.16206470789E+03  0.15949524305E+03  0.93285915298E+03  0.12699999809E+01 0. -1.
       -4    1    3    3    0  502 -0.90472144017E+03 -0.16206470789E+03  0.63047841135E+03  0.11145808602E+04  0.12699999809E+01 0.  1.
</event>
<event>
 5   0  0.4973411E-04  0.1774772E+04  0.7818609E-02  0.8719832E-01
       -2   -1    0    0    0  501  0.00000000000E+00  0.00000000000E+00  0.55459711029E+03  0.55459711030E+03  0.25500000920E-02 0. -1.
        2   -1    0    0  501    0  0.00000000000E+00  0.00000000000E+00 -0.14198665546E+04  0.14198665546E+04  0.25500000920E-02 0.  1.
    10030    2    1    2    0    0  0.00000000000E+00  0.00000000000E+00 -0.86526944428E+03  0.19744636649E+04  0.17747719720E+04 0.  0.
        1    1    3    3  502    0  0.32729102193E+03  0.38333440054E+03  0.37987524745E+03  0.63116549282E+03  0.50400001928E-02 0. -1.
       -1    1    3    3    0  502 -0.32729102193E+03 -0.38333440054E+03 -0.12451446917E+04  0.13432981721E+04  0.50400001928E-02 0.  1.
</event>
<event>
 5   0  0.1729375E-04  0.1831785E+04  0.7818609E-02  0.8689577E-01
        4   -1    0    0  501    0  0.00000000000E+00  0.00000000000E+00  0.79340841055E+03  0.79340942699E+03  0.12699999809E+01 0.  1.
       -4   -1    0    0    0  501  0.00000000000E+00  0.00000000000E+00 -0.10572832290E+04  0.10572839918E+04  0.12699999809E+01 0. -1.
    10030    2    1    2    0    0  0.00000000000E+00  0.00000000000E+00 -0.26387481846E+03  0.18506934187E+04  0.18317849793E+04 0.  0.
        5    1    3    3  502    0 -0.27635041036E+03  0.11993382249E+03  0.74190871537E+03  0.80075233564E+03  0.46999998093E+01 0.  1.
       -5    1    3    3    0  502  0.27635041036E+03 -0.11993382249E+03 -0.10057835338E+04  0.10499410831E+04  0.46999998093E+01 0. -1.
</event>
<event>
 5   0  0.2510069E-04  0.1915122E+04  0.7818609E-02  0.8647365E-01
       -1   -1    0    0    0  501  0.00000000000E+00  0.00000000000E+00  0.55349611728E+03  0.55349611731E+03  0.50400001928E-02 0. -1.
        1   -1    0    0  501    0  0.00000000000E+00  0.00000000000E+00 -0.16566030166E+04  0.16566030166E+04  0.50400001928E-02 0.  1.
    10030    2    1    2    0    0  0.00000000000E+00  0.00000000000E+00 -0.11031068993E+04  0.22100991339E+04  0.19151222808E+04 0.  0.
        4    1    3    3  502    0 -0.91468858830E+03  0.27553161459E+03 -0.62765648632E+03  0.11430341911E+04  0.12699999809E+01 0.  1.
       -4    1    3    3    0  502  0.91468858830E+03 -0.27553161459E+03 -0.47545041303E+03  0.10670649429E+04  0.12699999809E+01 0. -1.
</event>
<event>
 5   0  0.2355414E-04  0.1760546E+04  0.7818609E-02  0.8727567E-01
        1   -1    0    0  501    0  0.00000000000E+00  0.00000000000E+00  0.10060109388E+04  0.10060109388E+04  0.50400001928E-02 0. -1.
       -1   -1    0    0    0  501  0.00000000000E+00  0.00000000000E+00 -0.77025066927E+03  0.77025066928E+03  0.50400001928E-02 0.  1.
    10030    2    1    2    0    0  0.00000000000E+00  0.00000000000E+00  0.23576026949E+03  0.17762616081E+04  0.17605460504E+04 0.  0.
        5    1    3    3  502    0  0.69874148109E+02 -0.63149326876E+03 -0.49681398190E+03  0.80654346918E+03  0.46999998093E+01 0.  1.
       -5    1    3    3    0  502 -0.69874148109E+02  0.63149326876E+03  0.73257425140E+03  0.96971813888E+03  0.46999998093E+01 0. -1.
</event>
<event>
 5   0  0.4829134E-04  0.1973901E+04  0.7818609E-02  0.8618921E-01
        2   -1    0    0  501    0  0.00000000000E+00  0.00000000000E+00  0.66337935408E+03  0.66337935408E+03  0.25500000920E-02 0. -1.
       -2   -1    0    0    0  501  0.00000000000E+00  0.00000000000E+00 -0.14683471163E+04  0.14683471163E+04  0.25500000920E-02 0.  1.
    10030    2    1    2    0    0  0.00000000000E+00  0.00000000000E+00 -0.80496776224E+03  0.21317264704E+04  0.19739008704E+04 0.  0.
        2    1    3    3  502    0  0.46691074055E+03 -0.28489272433E+03  0.48472603435E+03  0.73084118138E+03  0.25500000920E-02 0. -1.
       -2    1    3    3    0  502 -0.46691074055E+03  0.28489272433E+03 -0.12896937966E+04  0.14008852890E+04  0.25500000920E-02 0.  1.
</event>
<event>
 5   0  0.2510069E-04  0.1836539E+04  0.7818609E-02  0.8687106E-01
        1   -1    0    0  501    0  0.00000000000E+00  0.00000000000E+00  0.14895523039E+04  0.14895523039E+04  0.50400001928E-02 0. -1.
       -1   -1    0    0    0  501  0.00000000000E+00  0.00000000000E+00 -0.56608850103E+03  0.56608850105E+03  0.50400001928E-02 0.  1.
    10030    2    1    2    0    0  0.00000000000E+00  0.00000000000E+00  0.92346380285E+03  0.20556408049E+04  0.18365385168E+04 0.  0.
        4    1    3    3  502    0 -0.18886158429E+03  0.34908245841E+03  0.13885851077E+04  0.14441944035E+04  0.12699999809E+01 0. -1.
       -4    1    3    3    0  502  0.18886158429E+03 -0.34908245841E+03 -0.46512130483E+03  0.61144640149E+03  0.12699999809E+01 0.  1.
</event>
<event>
 5   0  0.4839293E-04  0.1898437E+04  0.7818609E-02  0.8655635E-01
       -2   -1    0    0    0  501  0.00000000000E+00  0.00000000000E+00  0.91474802023E+03  0.91474802024E+03  0.25500000920E-02 0.  1.
        2   -1    0    0  501    0  0.00000000000E+00  0.00000000000E+00 -0.98498743498E+03  0.98498743498E+03  0.25500000920E-02 0. -1.
    10030    2    1    2    0    0  0.00000000000E+00  0.00000000000E+00 -0.70239414744E+02  0.18997354552E+04  0.18984365210E+04 0.  0.
        5    1    3    3  502    0  0.34595222380E+03 -0.81906796162E+03 -0.36766914276E+03  0.96216316467E+03  0.46999998093E+01 0. -1.
       -5    1    3    3    0  502 -0.34595222380E+03  0.81906796162E+03  0.29742972802E+03  0.93757229055E+03  0.46999998093E+01 0.  1.
</event>
<event>
 5   0  0.2355414E-04  0.1872902E+04  0.7818609E-02  0.8668464E-01
        1   -1    0    0  501    0  0.00000000000E+00  0.00000000000E+00  0.13941131894E+04  0.13941131894E+04  0.50400001928E-02 0.  1.
       -1   -1    0    0    0  501  0.00000000000E+00  0.00000000000E+00 -0.62903076754E+03  0.62903076756E+03  0.50400001928E-02 0. -1.
    10030    2    1    2    0    0  0.00000000000E+00  0.00000000000E+00  0.76508242184E+03  0.20231439569E+04  0.18729015880E+04 0.  0.
        5    1    3    3  502    0 -0.35916931555E+03  0.40432256801E+03 -0.44327099495E+03  0.69927862916E+03  0.46999998093E+01 0. -1.
       -5    1    3    3    0  502  0.35916931555E+03 -0.40432256801E+03  0.12083534168E+04  0.13238653278E+04  0.46999998093E+01 0.  1.
</event>
<event>
 5   0  0.2261755E-04  0.1880215E+04  0.7818609E-02  0.8664768E-01
        1   -1    0    0  501    0  0.00000000000E+00  0.00000000000E+00  0.71321377686E+03  0.71321377688E+03  0.50400001928E-02 0. -1.
       -1   -1    0    0    0  501  0.00000000000E+00  0.00000000000E+00 -0.12391828974E+04  0.12391828974E+04  0.50400001928E-02 0.  1.
    10030    2    1    2    0    0  0.00000000000E+00  0.00000000000E+00 -0.52596912051E+03  0.19523966743E+04  0.18802152158E+04 0.  0.
        1    1    3    3  502    0 -0.58671674058E+03  0.55376781044E+03 -0.76411612714E+03  0.11112015017E+04  0.50400001928E-02 0.  1.
       -1    1    3    3    0  502  0.58671674058E+03 -0.55376781044E+03  0.23814700664E+03  0.84119517257E+03  0.50400001928E-02 0. -1.
</event>
<event>
 5   0  0.4829134E-04  0.1868582E+04  0.7818609E-02  0.8670655E-01
        2   -1    0    0  501    0  0.00000000000E+00  0.00000000000E+00  0.13062281876E+04  0.13062281876E+04  0.25500000920E-02 0. -1.
       -2   -1    0    0    0  501  0.00000000000E+00  0.00000000000E+00 -0.66825971873E+03  0.66825971874E+03  0.25500000920E-02 0.  1.
    10030    2    1    2    0    0  0.00000000000E+00  0.00000000000E+00  0.63796846890E+03  0.19744879064E+04  0.18685820092E+04 0.  0.
        2    1    3    3  502    0 -0.52155307201E+03  0.45060024091E+03 -0.34751147079E+03  0.77189533382E+03  0.25500000920E-02 0.  1.
       -2    1    3    3    0  502  0.52155307201E+03 -0.45060024091E+03  0.98547993969E+03  0.12025925726E+04  0.25500000920E-02 0. -1.
</event>
<event>
 5   0  0.2355414E-04  0.1921378E+04  0.7818609E-02  0.8644288E-01
        1   -1    0    0  501    0  0.00000000000E+00  0.00000000000E+00  0.15505470134E+04  0.15505470134E+04  0.50400001928E-02 0.  1.
       -1   -1    0    0    0  501  0.00000000000E+00  0.00000000000E+00 -0.59522449150E+03  0.59522449152E+03  0.50400001928E-02 0. -1.
    10030    2    1    2    0    0  0.00000000000E+00  0.00000000000E+00  0.95532252190E+03  0.21457715049E+04  0.19213782112E+04 0.  0.
        5    1    3    3  502    0 -0.15217599971E+03 -0.68985026497E+03 -0.24941001094E+03  0.74918513501E+03  0.46999998093E+01 0. -1.
       -5    1    3    3    0  502  0.15217599971E+03  0.68985026497E+03  0.12047325328E+04  0.13965863699E+04  0.46999998093E+01 0.  1.
</event>
<event>
 5   0  0.4973411E-04  0.1851905E+04  0.7818609E-02  0.8679174E-01
        2   -1    0    0  501    0  0.00000000000E+00  0.00000000000E+00  0.24183400830E+04  0.24183400830E+04  0.25500000920E-02 0. -1.
       -2   -1    0    0    0  501  0.00000000000E+00  0.00000000000E+00 -0.35453566424E+03  0.35453566425E+03  0.25500000920E-02 0.  1.
    10030    2    1    2    0    0  0.00000000000E+00  0.00000000000E+00  0.20638044188E+04  0.27728757473E+04  0.18519047575E+04 0.  0.
        1    1    3    3  502    0  0.65675990358E+03 -0.62235750425E+03  0.13265543294E+04  0.16057424522E+04  0.50400001928E-02 0. -1.
       -1    1    3    3    0  502 -0.65675990358E+03  0.62235750425E+03  0.73725008939E+03  0.11671332950E+04  0.50400001928E-02 0.  1.
</event>
<event>
 5   0  0.2261755E-04  0.1313197E+04  0.7818609E-02  0.9019165E-01
       -1   -1    0    0    0  501  0.00000000000E+00  0.00000000000E+00  0.60047380546E+03  0.60047380548E+03  0.50400001928E-02 0. -1.
        1   -1    0    0  501    0  0.00000000000E+00  0.00000000000E+00 -0.71796892552E+03  0.71796892554E+03  0.50400001928E-02 0.  1.
    10030    2    1    2    0    0  0.00000000000E+00  0.00000000000E+00 -0.11749512006E+03  0.13184427310E+04  0.13131969128E+04 0.  0.
        1    1    3    3  502    0 -0.39646431929E+03 -0.35552774792E+03 -0.44438817769E+03  0.69358834225E+03  0.50400001928E-02 0.  1.
       -1    1    3    3    0  502  0.39646431929E+03  0.35552774792E+03  0.32689305764E+03  0.62485438877E+03  0.50400001928E-02 0. -1.
</event>
<event>
 5   0  0.2376359E-04  0.1090731E+04  0.7818609E-02  0.9214273E-01
        1   -1    0    0  501    0  0.00000000000E+00  0.00000000000E+00  0.22994385386E+04  0.22994385386E+04  0.50400001928E-02 0.  1.
       -1   -1    0    0    0  501  0.00000000000E+00  0.00000000000E+00 -0.12934618286E+03  0.12934618296E+03  0.50400001928E-02 0. -1.
    10030    2    1    2    0    0  0.00000000000E+00  0.00000000000E+00  0.21700923557E+04  0.24287847215E+04  0.10907311269E+04 0.  0.
        2    1    3    3  502    0  0.25978949214E+03 -0.47559765170E+03  0.12212222503E+04  0.13360641793E+04  0.25500000920E-02 0. -1.
       -2    1    3    3    0  502 -0.25978949214E+03  0.47559765170E+03  0.94887010542E+03  0.10927205423E+04  0.25500000920E-02 0.  1.
</event>
<event>
 5   0  0.4761944E-04  0.1909182E+04  0.7818609E-02  0.8650299E-01
        2   -1    0    0  501    0  0.00000000000E+00  0.00000000000E+00  0.17447198014E+04  0.17447198014E+04  0.25500000920E-02 0. -1.
       -2   -1    0    0    0  501  0.00000000000E+00  0.00000000000E+00 -0.52228664721E+03  0.52228664722E+03  0.25500000920E-02 0.  1.
    10030    2    1    2    0    0  0.00000000000E+00  0.00000000000E+00  0.12224331542E+04  0.22670064486E+04  0.19091818723E+04 0.  0.
        4    1    3    3  502    0  0.37482193034E+03  0.45824685618E+03  0.15004058039E+04  0.16129788746E+04  0.12699999809E+01 0. -1.
       -4    1    3    3    0  502 -0.37482193034E+03 -0.45824685618E+03 -0.27797264972E+03  0.65402757400E+03  0.12699999809E+01 0.  1.
</event>
<event>
 5   0  0.4829134E-04  0.1917785E+04  0.7818609E-02  0.8646054E-01
       -2   -1    0    0    0  501  0.00000000000E+00  0.00000000000E+00  0.54086457326E+03  0.54086457326E+03  0.25500000920E-02 0.  1.
        2   -1    0    0  501    0  0.00000000000E+00  0.00000000000E+00 -0.17000093482E+04  0.17000093482E+04  0.25500000920E-02 0. -1.
    10030    2    1    2    0    0  0.00000000000E+00  0.00000000000E+00 -0.11591447749E+04  0.22408739214E+04  0.19177850043E+04 0.  0.
        2    1    3    3  502    0  0.23126632588E+03  0.85645136223E+03 -0.10048725840E+04  0.13404334968E+04  0.25500000920E-02 0. -1.
       -2    1    3    3    0  502 -0.23126632588E+03 -0.85645136223E+03 -0.15427219092E+03  0.90044042460E+03  0.25500000920E-02 0.  1.
</event>
<event>
 5   0  0.4761944E-04  0.1270125E+04  0.7818609E-02  0.9053597E-01
       -2   -1    0    0    0  501  0.00000000000E+00  0.00000000000E+00  0.49260575742E+03  0.49260575743E+03  0.25500000920E-02 0.  1.
        2   -1    0    0  501    0  0.00000000000E+00  0.00000000000E+00 -0.81871687525E+03  0.81871687526E+03  0.25500000920E-02 0. -1.
    10030    2    1    2    0    0  0.00000000000E+00  0.00000000000E+00 -0.32611111783E+03  0.13113226327E+04  0.12701254213E+04 0.  0.
        4    1    3    3  502    0 -0.52089743314E+03  0.36236982344E+03 -0.18951913496E+03  0.66224250861E+03  0.12699999809E+01 0.  1.
       -4    1    3    3    0  502  0.52089743314E+03 -0.36236982344E+03 -0.13659198287E+03  0.64908012408E+03  0.12699999809E+01 0. -1.
</event>
<event>
 5   0  0.2376359E-04  0.1937954E+04  0.7818609E-02  0.8636192E-01
       -1   -1    0    0    0  501  0.00000000000E+00  0.00000000000E+00  0.42580199107E+03  0.42580199110E+03  0.50400001928E-02 0. -1.
        1   -1    0    0  501    0  0.00000000000E+00  0.00000000000E+00 -0.22050539266E+04  0.22050539267E+04  0.50400001928E-02 0.  1.
    10030    2    1    2    0    0  0.00000000000E+00  0.00000000000E+00 -0.17792519356E+04  0.26308559178E+04  0.19379539235E+04 0.  0.
        2    1    3    3  502    0  0.90725457806E+03  0.24618576221E+03 -0.57068118793E+03  0.10997251098E+04  0.25500000920E-02 0.  1.
       -2    1    3    3    0  502 -0.90725457806E+03 -0.24618576221E+03 -0.12085707476E+04  0.15311308079E+04  0.25500000920E-02 0. -1.
</event>
<event>
 5   0  0.4973411E-04  0.1872148E+04  0.7818609E-02  0.8668846E-01
        2   -1    0    0  501    0  0.00000000000E+00  0.00000000000E+00  0.20304726748E+04  0.20304726749E+04  0.25500000920E-02 0. -1.
       -2   -1    0    0    0  501  0.00000000000E+00  0.00000000000E+00 -0.43154206951E+03  0.43154206952E+03  0.25500000920E-02 0.  1.
    10030    2    1    2    0    0  0.00000000000E+00  0.00000000000E+00  0.15989306053E+04  0.24620147444E+04  0.18721478363E+04 0.  0.
        1    1    3    3  502    0 -0.28359733854E+03 -0.53011428230E+02  0.19705443323E+04  0.19915528181E+04  0.50400001928E-02 0. -1.
       -1    1    3    3    0  502  0.28359733854E+03  0.53011428230E+02 -0.37161372694E+03  0.47046192622E+03  0.50400001928E-02 0.  1.
</event>
<event>
 5   0  0.2510069E-04  0.1906556E+04  0.7818609E-02  0.8651600E-01
        1   -1    0    0  501    0  0.00000000000E+00  0.00000000000E+00  0.12306144295E+04  0.12306144295E+04  0.50400001928E-02 0.  1.
       -1   -1    0    0    0  501  0.00000000000E+00  0.00000000000E+00 -0.73844315021E+03  0.73844315022E+03  0.50400001928E-02 0. -1.
    10030    2    1    2    0    0  0.00000000000E+00  0.00000000000E+00  0.49217127931E+03  0.19690575798E+04  0.19065558435E+04 0.  0.
        4    1    3    3  502    0 -0.23611558271E+03 -0.75789245723E+03 -0.29902950429E+03  0.84827578208E+03  0.12699999809E+01 0. -1.
       -4    1    3    3    0  502  0.23611558271E+03  0.75789245723E+03  0.79120078360E+03  0.11207817977E+04  0.12699999809E+01 0.  1.
</event>
<event>
 5   0  0.2376359E-04  0.1938596E+04  0.7818609E-02  0.8635880E-01
        1   -1    0    0  501    0  0.00000000000E+00  0.00000000000E+00  0.27877511445E+04  0.27877511445E+04  0.50400001928E-02 0.  1.
       -1   -1    0    0    0  501  0.00000000000E+00  0.00000000000E+00 -0.33702379265E+03  0.33702379269E+03  0.50400001928E-02 0. -1.
    10030    2    1    2    0    0  0.00000000000E+00  0.00000000000E+00  0.24507273519E+04  0.31247749372E+04  0.19385958462E+04 0.  0.
        2    1    3    3  502    0  0.43310631846E+03 -0.52041328742E+03  0.23434143967E+04  0.24392626155E+04  0.25500000920E-02 0.  1.
       -2    1    3    3    0  502 -0.43310631846E+03  0.52041328742E+03  0.10731295515E+03  0.68551232167E+03  0.25500000920E-02 0. -1.
</event>
<event>
 5   0  0.2261755E-04  0.1959413E+04  0.7818609E-02  0.8625835E-01
        1   -1    0    0  501    0  0.00000000000E+00  0.00000000000E+00  0.11742220966E+04  0.11742220966E+04  0.50400001928E-02 0. -1.
       -1   -1    0    0    0  501  0.00000000000E+00  0.00000000000E+00 -0.81741335182E+03  0.81741335183E+03  0.50400001928E-02 0.  1.
    10030    2    1    2    0    0  0.00000000000E+00  0.00000000000E+00  0.35680874478E+03  0.19916354484E+04  0.19594129935E+04 0.  0.
        1    1    3    3  502    0  0.67369875356E+03  0.63140965806E+03  0.51132175479E+03  0.10554610859E+04  0.50400001928E-02 0. -1.
       -1    1    3    3    0  502 -0.67369875356E+03 -0.63140965806E+03 -0.15451301001E+03  0.93617436257E+03  0.50400001928E-02 0.  1.
</event>
<event>
 5   0  0.4973411E-04  0.1872412E+04  0.7818609E-02  0.8668712E-01
        2   -1    0    0  501    0  0.00000000000E+00  0.00000000000E+00  0.15365189806E+04  0.15365189806E+04  0.25500000920E-02 0.  1.
       -2   -1    0    0    0  501  0.00000000000E+00  0.00000000000E+00 -0.57043332279E+03  0.57043332279E+03  0.25500000920E-02 0. -1.
    10030    2    1    2    0    0  0.00000000000E+00  0.00000000000E+00  0.96608565780E+03  0.21069523034E+04  0.18724119500E+04 0.  0.
        1    1    3    3  502    0 -0.51803642847E+03  0.59723644557E+03 -0.81192875861E+02  0.79476121965E+03  0.50400001928E-02 0. -1.
       -1    1    3    3    0  502  0.51803642847E+03 -0.59723644557E+03  0.10472785337E+04  0.13121910837E+04  0.50400001928E-02 0.  1.
</event>
<event>
 5   0  0.2317458E-04  0.1932504E+04  0.7818609E-02  0.8638844E-01
        1   -1    0    0  501    0  0.00000000000E+00  0.00000000000E+00  0.18058283491E+04  0.18058283491E+04  0.50400001928E-02 0.  1.
       -1   -1    0    0    0  501  0.00000000000E+00  0.00000000000E+00 -0.51701655677E+03  0.51701655679E+03  0.50400001928E-02 0. -1.
    10030    2    1    2    0    0  0.00000000000E+00  0.00000000000E+00  0.12888117923E+04  0.23228449059E+04  0.19325042357E+04 0.  0.
        3    1    3    3  502    0 -0.21557805163E+02 -0.80521973321E+03  0.12858656846E+04  0.15173312515E+04  0.10100000352E+00 0.  1.
       -3    1    3    3    0  502  0.21557805163E+02  0.80521973321E+03  0.29461077491E+01  0.80551365442E+03  0.10100000352E+00 0. -1.
</event>
<event>
 5   0  0.2355414E-04  0.1946226E+04  0.7818609E-02  0.8632183E-01
       -1   -1    0    0    0  501  0.00000000000E+00  0.00000000000E+00  0.68439366361E+03  0.68439366363E+03  0.50400001928E-02 0.  1.
        1   -1    0    0  501    0  0.00000000000E+00  0.00000000000E+00 -0.13836314899E+04  0.13836314899E+04  0.50400001928E-02 0. -1.
    10030    2    1    2    0    0  0.00000000000E+00  0.00000000000E+00 -0.69923782629E+03  0.20680251535E+04  0.19462257058E+04 0.  0.
        5    1    3    3  502    0 -0.50470440853E+03  0.50634916951E+03 -0.10510927274E+04  0.12711939400E+04  0.46999998093E+01 0. -1.
       -5    1    3    3    0  502  0.50470440853E+03 -0.50634916951E+03  0.35185490112E+03  0.79683121355E+03  0.46999998093E+01 0.  1.
</event>
<event>
 5   0  0.2317458E-04  0.1823738E+04  0.7818609E-02  0.8693777E-01
       -1   -1    0    0    0  501  0.00000000000E+00  0.00000000000E+00  0.42240573218E+03  0.42240573221E+03  0.50400001928E-02 0. -1.
        1   -1    0    0  501    0  0.00000000000E+00  0.00000000000E+00 -0.19684991601E+04  0.19684991601E+04  0.50400001928E-02 0.  1.
    10030    2    1    2    0    0  0.00000000000E+00  0.00000000000E+00 -0.15460934279E+04  0.23909048923E+04  0.18237382806E+04 0.  0.
        3    1    3    3  502    0  0.35092572419E+03  0.70573833876E+03 -0.17186059503E+03  0.80669172614E+03  0.10100000352E+00 0. -1.
       -3    1    3    3    0  502 -0.35092572419E+03 -0.70573833876E+03 -0.13742328329E+04  0.15842131662E+04  0.10100000352E+00 0.  1.
</event>
<event>
 5   0  0.4829134E-04  0.1006265E+04  0.7818609E-02  0.9301700E-01
       -2   -1    0    0    0  501  0.00000000000E+00  0.00000000000E+00  0.95544348217E+03  0.95544348218E+03  0.25500000920E-02 0.  1.
        2   -1    0    0  501    0  0.00000000000E+00  0.00000000000E+00 -0.26494754455E+03  0.26494754457E+03  0.25500000920E-02 0. -1.
    10030    2    1    2    0    0  0.00000000000E+00  0.00000000000E+00  0.69049593762E+03  0.12203910267E+04  0.10062651829E+04 0.  0.
        2    1    3    3  502    0  0.25179597994E+03 -0.82324490955E+02  0.86401124594E+03  0.90371122071E+03  0.25500000920E-02 0.  1.
       -2    1    3    3    0  502 -0.25179597994E+03  0.82324490955E+02 -0.17351530832E+03  0.31667980603E+03  0.25500000920E-02 0. -1.
</event>
<event>
 5   0  0.4829134E-04  0.1800880E+04  0.7818609E-02  0.8705831E-01
       -2   -1    0    0    0  501  0.00000000000E+00  0.00000000000E+00  0.30059858590E+03  0.30059858591E+03  0.25500000920E-02 0.  1.
        2   -1    0    0  501    0  0.00000000000E+00  0.00000000000E+00 -0.26972597381E+04  0.26972597381E+04  0.25500000920E-02 0. -1.
    10030    2    1    2    0    0  0.00000000000E+00  0.00000000000E+00 -0.23966611522E+04  0.29978583240E+04  0.18008802993E+04 0.  0.
        2    1    3    3  502    0 -0.25868153368E+03  0.13549213155E+03 -0.26162462916E+04  0.26324929083E+04  0.25500000920E-02 0. -1.
       -2    1    3    3    0  502  0.25868153368E+03 -0.13549213155E+03  0.21958513942E+03  0.36536541577E+03  0.25500000920E-02 0.  1.
</event>
<event>
 5   0  0.4761944E-04  0.1717248E+04  0.7818609E-02  0.8751588E-01
       -2   -1    0    0    0  501  0.00000000000E+00  0.00000000000E+00  0.31350919373E+03  0.31350919374E+03  0.25500000920E-02 0. -1.
        2   -1    0    0  501    0  0.00000000000E+00  0.00000000000E+00 -0.23515584166E+04  0.23515584166E+04  0.25500000920E-02 0.  1.
    10030    2    1    2    0    0  0.00000000000E+00  0.00000000000E+00 -0.20380492228E+04  0.26650676103E+04  0.17172480115E+04 0.  0.
        4    1    3    3  502    0  0.55260261225E+02 -0.44730766608E+03 -0.21532118598E+04  0.21998774444E+04  0.12699999809E+01 0.  1.
       -4    1    3    3    0  502 -0.55260261225E+02  0.44730766608E+03  0.11516263691E+03  0.46519016590E+03  0.12699999809E+01 0. -1.
</event>
<event>
 5   0  0.1729375E-04  0.1891584E+04  0.7818609E-02  0.8659057E-01
        3   -1    0    0  501    0  0.00000000000E+00  0.00000000000E+00  0.33818552156E+03  0.33818553665E+03  0.10100000352E+00 0.  1.
       -3   -1    0    0    0  501  0.00000000000E+00  0.00000000000E+00 -0.26450651294E+04  0.26450651313E+04  0.10100000352E+00 0. -1.
    10030    2    1    2    0    0  0.00000000000E+00  0.00000000000E+00 -0.23068796078E+04  0.29832506680E+04  0.18915842627E+04 0.  0.
        1    1    3    3  502    0  0.68090170343E+03  0.36832785400E+03 -0.20103680493E+04  0.21542683749E+04  0.50400001928E-02 0. -1.
       -1    1    3    3    0  502 -0.68090170343E+03 -0.36832785400E+03 -0.29651155857E+03  0.82898229303E+03  0.50400001928E-02 0.  1.
</event>
<event>
 5   0  0.2317458E-04  0.1909336E+04  0.7818609E-02  0.8650223E-01
       -1   -1    0    0    0  501  0.00000000000E+00  0.00000000000E+00  0.10230759559E+04  0.10230759560E+04  0.50400001928E-02 0. -1.
        1   -1    0    0  501    0  0.00000000000E+00  0.00000000000E+00 -0.89083378460E+03  0.89083378461E+03  0.50400001928E-02 0.  1.
    10030    2    1    2    0    0  0.00000000000E+00  0.00000000000E+00  0.13224217134E+03  0.19139097406E+04  0.19093356183E+04 0.  0.
        3    1    3    3  502    0  0.52499665239E+03 -0.36761401675E+03 -0.64312542596E+03  0.90794926843E+03  0.10100000352E+00 0.  1.
       -3    1    3    3    0  502 -0.52499665239E+03  0.36761401675E+03  0.77536759731E+03  0.10059604721E+04  0.10100000352E+00 0. -1.
</event>
<event>
 5   0  0.2510069E-04  0.1896328E+04  0.7818609E-02  0.8656686E-01
        1   -1    0    0  501    0  0.00000000000E+00  0.00000000000E+00  0.15557992443E+04  0.15557992444E+04  0.50400001928E-02 0. -1.
       -1   -1    0    0    0  501  0.00000000000E+00  0.00000000000E+00 -0.57784775228E+03  0.57784775230E+03  0.50400001928E-02 0.  1.
    10030    2    1    2    0    0  0.00000000000E+00  0.00000000000E+00  0.97795149207E+03  0.21336469967E+04  0.18963281323E+04 0.  0.
        4    1    3    3  502    0  0.60649471840E+03 -0.13676120593E+03  0.12944376502E+04  0.14360048448E+04  0.12699999809E+01 0. -1.
       -4    1    3    3    0  502 -0.60649471840E+03  0.13676120593E+03 -0.31648615817E+03  0.69764215190E+03  0.12699999809E+01 0.  1.
</event>
<event>
 5   0  0.4839293E-04  0.1880755E+04  0.7818609E-02  0.8664496E-01
       -2   -1    0    0    0  501  0.00000000000E+00  0.00000000000E+00  0.64169768752E+03  0.64169768752E+03  0.25500000920E-02 0. -1.
        2   -1    0    0  501    0  0.00000000000E+00  0.00000000000E+00 -0.13780787791E+04  0.13780787791E+04  0.25500000920E-02 0.  1.
    10030    2    1    2    0    0  0.00000000000E+00  0.00000000000E+00 -0.73638109158E+03  0.20197764666E+04  0.18807551311E+04 0.  0.
        5    1    3    3  502    0 -0.57941509933E+02 -0.44878840144E+03  0.51707192884E+03  0.68713442457E+03  0.46999998093E+01 0. -1.
       -5    1    3    3    0  502  0.57941509933E+02  0.44878840144E+03 -0.12534530204E+04  0.13326420421E+04  0.46999998093E+01 0.  1.
</event>
<event>
 5   0  0.2355414E-04  0.1841927E+04  0.7818609E-02  0.8684316E-01
        1   -1    0    0  501    0  0.00000000000E+00  0.00000000000E+00  0.18019346412E+04  0.18019346412E+04  0.50400001928E-02 0. -1.
       -1   -1    0    0    0  501  0.00000000000E+00  0.00000000000E+00 -0.47070177545E+03  0.47070177548E+03  0.50400001928E-02 0.  1.
    10030    2    1    2    0    0  0.00000000000E+00  0.00000000000E+00  0.13312328657E+04  0.22726364166E+04  0.18419270723E+04 0.  0.
        5    1    3    3  502    0  0.46695336606E+03 -0.46928461349E+03 -0.12430694544E+03  0.67360804717E+03  0.46999998093E+01 0.  1.
       -5    1    3    3    0  502 -0.46695336606E+03  0.46928461349E+03  0.14555398111E+04  0.15990283695E+04  0.46999998093E+01 0. -1.
</event>
<event>
 5   0  0.2376359E-04  0.1884173E+04  0.7818609E-02  0.8662775E-01
       -1   -1    0    0    0  501  0.00000000000E+00  0.00000000000E+00  0.86014969037E+03  0.86014969039E+03  0.50400001928E-02 0. -1.
        1   -1    0    0  501    0  0.00000000000E+00  0.00000000000E+00 -0.10318285073E+04  0.10318285074E+04  0.50400001928E-02 0.  1.
    10030    2    1    2    0    0  0.00000000000E+00  0.00000000000E+00 -0.17167881698E+03  0.18919781977E+04  0.18841729975E+04 0.  0.
        2    1    3    3  502    0  0.58013581364E+03 -0.67711593075E+03 -0.39121006645E+03  0.97369854783E+03  0.25500000920E-02 0.  1.
       -2    1    3    3    0  502 -0.58013581364E+03  0.67711593075E+03  0.21953124947E+03  0.91827964992E+03  0.25500000920E-02 0. -1.
</event>
<event>
 5   0  0.4839293E-04  0.1873400E+04  0.7818609E-02  0.8668212E-01
        2   -1    0    0  501    0  0.00000000000E+00  0.00000000000E+00  0.61214802515E+03  0.61214802516E+03  0.25500000920E-02 0.  1.
       -2   -1    0    0    0  501  0.00000000000E+00  0.00000000000E+00 -0.14333241150E+04  0.14333241150E+04  0.25500000920E-02 0. -1.
    10030    2    1    2    0    0  0.00000000000E+00  0.00000000000E+00 -0.82117608988E+03  0.20454721402E+04  0.18733996119E+04 0.  0.
        5    1    3    3  502    0 -0.83652107283E+03 -0.20919612610E+02  0.49000964756E+02  0.83822927652E+03  0.46999998093E+01 0.  1.
       -5    1    3    3    0  502  0.83652107283E+03  0.20919612610E+02 -0.87017705464E+03  0.12072428637E+04  0.46999998093E+01 0. -1.
</event>
<event>
 5   0  0.2317458E-04  0.1908039E+04  0.7818609E-02  0.8650865E-01
       -1   -1    0    0    0  501  0.00000000000E+00  0.00000000000E+00  0.83896244738E+03  0.83896244740E+03  0.50400001928E-02 0.  1.
        1   -1    0    0  501    0  0.00000000000E+00  0.00000000000E+00 -0.10848556325E+04  0.10848556325E+04  0.50400001928E-02 0. -1.
    10030    2    1    2    0    0  0.00000000000E+00  0.00000000000E+00 -0.24589318509E+03  0.19238180799E+04  0.19080389268E+04 0.  0.
        3    1    3    3  502    0 -0.19277185128E+03 -0.29105508690E+03  0.77224659931E+03  0.84748974660E+03  0.10100000352E+00 0.  1.
       -3    1    3    3    0  502  0.19277185128E+03  0.29105508690E+03 -0.10181397844E+04  0.10763283333E+04  0.10100000352E+00 0. -1.
</event>
<event>
 5   0  0.2317458E-04  0.1919321E+04  0.7818609E-02  0.8645298E-01
       -1   -1    0    0    0  501  0.00000000000E+00  0.00000000000E+00  0.83274426291E+03  0.83274426293E+03  0.50400001928E-02 0.  1.
        1   -1    0    0  501    0  0.00000000000E+00  0.00000000000E+00 -0.11059197322E+04  0.11059197322E+04  0.50400001928E-02 0. -1.
    10030    2    1    2    0    0  0.00000000000E+00  0.00000000000E+00 -0.27317546928E+03  0.19386639951E+04  0.19193210385E+04 0.  0.
        3    1    3    3  502    0 -0.79803012354E+03  0.49815588983E+03 -0.32806862057E+03  0.99631340383E+03  0.10100000352E+00 0. -1.
       -3    1    3    3    0  502  0.79803012354E+03 -0.49815588983E+03  0.54893151293E+02  0.94235059129E+03  0.10100000352E+00 0.  1.
</event>
<event>
 5   0  0.2317458E-04  0.1919614E+04  0.7818609E-02  0.8645154E-01
        1   -1    0    0  501    0  0.00000000000E+00  0.00000000000E+00  0.10683437288E+04  0.10683437288E+04  0.50400001928E-02 0.  1.
       -1   -1    0    0    0  501  0.00000000000E+00  0.00000000000E+00 -0.86229720292E+03  0.86229720294E+03  0.50400001928E-02 0. -1.
    10030    2    1    2    0    0  0.00000000000E+00  0.00000000000E+00  0.20604652586E+03  0.19306409317E+04  0.19196143458E+04 0.  0.
        3    1    3    3  502    0  0.84779713889E+03 -0.68367583730E+02  0.55032020350E+03  0.10130579706E+04  0.10100000352E+00 0.  1.
       -3    1    3    3    0  502 -0.84779713889E+03  0.68367583730E+02 -0.34427367765E+03  0.91758296112E+03  0.10100000352E+00 0. -1.
</event>
<event>
 5   0  0.2376359E-04  0.1899075E+04  0.7818609E-02  0.8655317E-01
        1   -1    0    0  501    0  0.00000000000E+00  0.00000000000E+00  0.13741197260E+04  0.13741197260E+04  0.50400001928E-02 0.  1.
       -1   -1    0    0    0  501  0.00000000000E+00  0.00000000000E+00 -0.65614477393E+03  0.65614477395E+03  0.50400001928E-02 0. -1.
    10030    2    1    2    0    0  0.00000000000E+00  0.00000000000E+00  0.71797495205E+03  0.20302644999E+04  0.18990750138E+04 0.  0.
        2    1    3    3  502    0 -0.67779755169E+03 -0.30849297216E+02 -0.35117532137E+03  0.76399300164E+03  0.25500000920E-02 0. -1.
       -2    1    3    3    0  502  0.67779755169E+03  0.30849297216E+02  0.10691502734E+04  0.12662714983E+04  0.25500000920E-02 0.  1.
</event>
<event>
 5   0  0.2510069E-04  0.1901092E+04  0.7818609E-02  0.8654313E-01
        1   -1    0    0  501    0  0.00000000000E+00  0.00000000000E+00  0.14185858139E+04  0.14185858139E+04  0.50400001928E-02 0.  1.
       -1   -1    0    0    0  501  0.00000000000E+00  0.00000000000E+00 -0.63692870431E+03  0.63692870433E+03  0.50400001928E-02 0. -1.
    10030    2    1    2    0    0  0.00000000000E+00  0.00000000000E+00  0.78165710955E+03  0.20555145182E+04  0.19010923433E+04 0.  0.
        4    1    3    3  502    0  0.38882921683E+03 -0.33941867009E+03  0.12538783785E+04  0.13559519883E+04  0.12699999809E+01 0.  1.
       -4    1    3    3    0  502 -0.38882921683E+03  0.33941867009E+03 -0.47222126899E+03  0.69956252991E+03  0.12699999809E+01 0. -1.
</event>
<event>
 5   0  0.2510069E-04  0.1913044E+04  0.7818609E-02  0.8648391E-01
        1   -1    0    0  501    0  0.00000000000E+00  0.00000000000E+00  0.14146799046E+04  0.14146799046E+04  0.50400001928E-02 0.  1.
       -1   -1    0    0    0  501  0.00000000000E+00  0.00000000000E+00 -0.64674286370E+03  0.64674286372E+03  0.50400001928E-02 0. -1.
    10030    2    1    2    0    0  0.00000000000E+00  0.00000000000E+00  0.76793704090E+03  0.20614227683E+04  0.19130437870E+04 0.  0.
        4    1    3    3  502    0  0.55515560406E+03  0.77237866843E+03  0.49261521571E+03  0.10711852855E+04  0.12699999809E+01 0. -1.
       -4    1    3    3    0  502 -0.55515560406E+03 -0.77237866843E+03  0.27532182519E+03  0.99023748287E+03  0.12699999809E+01 0.  1.
</event>
<event>
 5   0  0.4802635E-04  0.1668436E+04  0.7818609E-02  0.8779574E-01
       -2   -1    0    0    0  501  0.00000000000E+00  0.00000000000E+00  0.63532635907E+03  0.63532635908E+03  0.25500000920E-02 0. -1.
        2   -1    0    0  501    0  0.00000000000E+00  0.00000000000E+00 -0.10953729416E+04  0.10953729416E+04  0.25500000920E-02 0.  1.
    10030    2    1    2    0    0  0.00000000000E+00  0.00000000000E+00 -0.46004658253E+03  0.17306993007E+04  0.16684355580E+04 0.  0.
        3    1    3    3  502    0 -0.50194209932E+03 -0.30117820597E+02 -0.92049606625E+03  0.10488879694E+04  0.10100000352E+00 0. -1.
       -3    1    3    3    0  502  0.50194209932E+03  0.30117820597E+02  0.46044948372E+03  0.68181133127E+03  0.10100000352E+00 0.  1.
</event>
<event>
 5   0  0.4761944E-04  0.2276468E+04  0.7818609E-02  0.8487258E-01
       -2   -1    0    0    0  501  0.00000000000E+00  0.00000000000E+00  0.15692692265E+04  0.15692692265E+04  0.25500000920E-02 0. -1.
        2   -1    0    0  501    0  0.00000000000E+00  0.00000000000E+00 -0.82559208273E+03  0.82559208273E+03  0.25500000920E-02 0.  1.
    10030    2    1    2    0    0  0.00000000000E+00  0.00000000000E+00  0.74367714376E+03  0.23948613092E+04  0.22764676576E+04 0.  0.
        4    1    3    3  502    0  0.22326679546E+03 -0.64341542772E+03 -0.58759188867E+03  0.89949836860E+03  0.12699999809E+01 0.  1.
       -4    1    3    3    0  502 -0.22326679546E+03  0.64341542772E+03  0.13312690324E+04  0.14953629406E+04  0.12699999809E+01 0. -1.
</event>
<event>
 5   0  0.4761944E-04  0.1896118E+04  0.7818609E-02  0.8656791E-01
        2   -1    0    0  501    0  0.00000000000E+00  0.00000000000E+00  0.11155669728E+04  0.11155669728E+04  0.25500000920E-02 0. -1.
       -2   -1    0    0    0  501  0.00000000000E+00  0.00000000000E+00 -0.80570344320E+03  0.80570344320E+03  0.25500000920E-02 0.  1.
    10030    2    1    2    0    0  0.00000000000E+00  0.00000000000E+00  0.30986352963E+03  0.19212704160E+04  0.18961182992E+04 0.  0.
        4    1    3    3  502    0  0.36591550734E+03  0.26743291995E+03  0.99868410168E+03  0.10967160403E+04  0.12699999809E+01 0. -1.
       -4    1    3    3    0  502 -0.36591550734E+03 -0.26743291995E+03 -0.68882057205E+03  0.82455437574E+03  0.12699999809E+01 0.  1.
</event>
<event>
 5   0  0.2355414E-04  0.1922805E+04  0.7818609E-02  0.8643588E-01
        1   -1    0    0  501    0  0.00000000000E+00  0.00000000000E+00  0.11368456727E+04  0.11368456728E+04  0.50400001928E-02 0. -1.
       -1   -1    0    0    0  501  0.00000000000E+00  0.00000000000E+00 -0.81303418516E+03  0.81303418517E+03  0.50400001928E-02 0.  1.
    10030    2    1    2    0    0  0.00000000000E+00  0.00000000000E+00  0.32381148758E+03  0.19498798579E+04  0.19228046133E+04 0.  0.
        5    1    3    3  502    0 -0.55971653083E+03 -0.52125406410E+03  0.75258855140E+03  0.10730330899E+04  0.46999998093E+01 0. -1.
       -5    1    3    3    0  502  0.55971653083E+03  0.52125406410E+03 -0.42877706382E+03  0.87684676807E+03  0.46999998093E+01 0.  1.
</event>
<event>
 5   0  0.2317458E-04  0.1862092E+04  0.7818609E-02  0.8673959E-01
        1   -1    0    0  501    0  0.00000000000E+00  0.00000000000E+00  0.18008170889E+04  0.18008170889E+04  0.50400001928E-02 0. -1.
       -1   -1    0    0    0  501  0.00000000000E+00  0.00000000000E+00 -0.48136320153E+03  0.48136320156E+03  0.50400001928E-02 0.  1.
    10030    2    1    2    0    0  0.00000000000E+00  0.00000000000E+00  0.13194538874E+04  0.22821802905E+04  0.18620924567E+04 0.  0.
        3    1    3    3  502    0  0.55673440032E+03 -0.46708326411E+03  0.13730293387E+04  0.15534894731E+04  0.10100000352E+00 0. -1.
       -3    1    3    3    0  502 -0.55673440032E+03  0.46708326411E+03 -0.53575451284E+02  0.72869081735E+03  0.10100000352E+00 0.  1.
</event>
<event>
 5   0  0.4761944E-04  0.1934723E+04  0.7818609E-02  0.8637763E-01
        2   -1    0    0  501    0  0.00000000000E+00  0.00000000000E+00  0.19967090769E+04  0.19967090769E+04  0.25500000920E-02 0. -1.
       -2   -1    0    0    0  501  0.00000000000E+00  0.00000000000E+00 -0.46866519037E+03  0.46866519038E+03  0.25500000920E-02 0.  1.
    10030    2    1    2    0    0  0.00000000000E+00  0.00000000000E+00  0.15280438865E+04  0.24653742673E+04  0.19347227601E+04 0.  0.
        4    1    3    3  502    0  0.60247162565E+03 -0.28025838067E+03 -0.13185027931E+03  0.67742374383E+03  0.12699999809E+01 0.  1.
       -4    1    3    3    0  502 -0.60247162565E+03  0.28025838067E+03  0.16598941658E+04  0.17879505235E+04  0.12699999809E+01 0. -1.
</event>
<event>
 5   0  0.4839293E-04  0.1351700E+04  0.7818609E-02  0.8989542E-01
        2   -1    0    0  501    0  0.00000000000E+00  0.00000000000E+00  0.82738550584E+03  0.82738550584E+03  0.25500000920E-02 0.  1.
       -2   -1    0    0    0  501  0.00000000000E+00  0.00000000000E+00 -0.55206844117E+03  0.55206844117E+03  0.25500000920E-02 0. -1.
    10030    2    1    2    0    0  0.00000000000E+00  0.00000000000E+00  0.27531706467E+03  0.13794539470E+04  0.13517003018E+04 0.  0.
        5    1    3    3  502    0  0.26342834349E+03 -0.22555310502E+03  0.72964002240E+03  0.80787706220E+03  0.46999998093E+01 0.  1.
       -5    1    3    3    0  502 -0.26342834349E+03  0.22555310502E+03 -0.45432295773E+03  0.57157688482E+03  0.46999998093E+01 0. -1.
</event>
<event>
 5   0  0.2355414E-04  0.2031364E+04  0.7818609E-02  0.8592096E-01
       -1   -1    0    0    0  501  0.00000000000E+00  0.00000000000E+00  0.90584629604E+03  0.90584629606E+03  0.50400001928E-02 0. -1.
        1   -1    0    0  501    0  0.00000000000E+00  0.00000000000E+00 -0.11388352221E+04  0.11388352221E+04  0.50400001928E-02 0.  1.
    10030    2    1    2    0    0  0.00000000000E+00  0.00000000000E+00 -0.23298892602E+03  0.20446815181E+04  0.20313637466E+04 0.  0.
        5    1    3    3  502    0 -0.66540637393E+03 -0.59016314336E+03 -0.61014777776E+03  0.10785919427E+04  0.46999998093E+01 0.  1.
       -5    1    3    3    0  502  0.66540637393E+03  0.59016314336E+03  0.37715885173E+03  0.96608957539E+03  0.46999998093E+01 0. -1.
</event>
<event>
 5   0  0.2317458E-04  0.1950420E+04  0.7818609E-02  0.8630158E-01
        1   -1    0    0  501    0  0.00000000000E+00  0.00000000000E+00  0.73418568205E+03  0.73418568207E+03  0.50400001928E-02 0. -1.
       -1   -1    0    0    0  501  0.00000000000E+00  0.00000000000E+00 -0.12953595615E+04  0.12953595615E+04  0.50400001928E-02 0.  1.
    10030    2    1    2    0    0  0.00000000000E+00  0.00000000000E+00 -0.56117387944E+03  0.20295452436E+04  0.19504198965E+04 0.  0.
        3    1    3    3  502    0 -0.71893324827E+03  0.19260359918E+03  0.37511421045E+03  0.83346976128E+03  0.10100000352E+00 0. -1.
       -3    1    3    3    0  502  0.71893324827E+03 -0.19260359918E+03 -0.93628808989E+03  0.11960754823E+04  0.10100000352E+00 0.  1.
</event>
<event>
 5   0  0.4829134E-04  0.1901253E+04  0.7818609E-02  0.8654233E-01
        2   -1    0    0  501    0  0.00000000000E+00  0.00000000000E+00  0.21329177175E+04  0.21329177175E+04  0.25500000920E-02 0.  1.
       -2   -1    0    0    0  501  0.00000000000E+00  0.00000000000E+00 -0.42368737102E+03  0.42368737103E+03  0.25500000920E-02 0. -1.
    10030    2    1    2    0    0  0.00000000000E+00  0.00000000000E+00  0.17092303465E+04  0.25566050886E+04  0.19012525349E+04 0.  0.
        2    1    3    3  502    0 -0.42329346497E+03  0.39699333425E+03 -0.15785120209E+03  0.60141339105E+03  0.25500000920E-02 0. -1.
       -2    1    3    3    0  502  0.42329346497E+03 -0.39699333425E+03  0.18670815486E+04  0.19551916975E+04  0.25500000920E-02 0.  1.
</event>
<event>
 5   0  0.4839293E-04  0.1930177E+04  0.7818609E-02  0.8639980E-01
       -2   -1    0    0    0  501  0.00000000000E+00  0.00000000000E+00  0.95963801380E+03  0.95963801381E+03  0.25500000920E-02 0. -1.
        2   -1    0    0  501    0  0.00000000000E+00  0.00000000000E+00 -0.97056987303E+03  0.97056987303E+03  0.25500000920E-02 0.  1.
    10030    2    1    2    0    0  0.00000000000E+00  0.00000000000E+00 -0.10931859222E+02  0.19302078868E+04  0.19301769299E+04 0.  0.
        5    1    3    3  502    0  0.88182379880E+03  0.17553610610E+03  0.34517842346E+03  0.96311804608E+03  0.46999998093E+01 0. -1.
       -5    1    3    3    0  502 -0.88182379880E+03 -0.17553610610E+03 -0.35611028268E+03  0.96708984076E+03  0.46999998093E+01 0.  1.
</event>
<event>
 5   0  0.4973411E-04  0.1933651E+04  0.7818609E-02  0.8638285E-01
       -2   -1    0    0    0  501  0.00000000000E+00  0.00000000000E+00  0.53953784580E+03  0.53953784581E+03  0.25500000920E-02 0. -1.
        2   -1    0    0  501    0  0.00000000000E+00  0.00000000000E+00 -0.17325042492E+04  0.17325042493E+04  0.25500000920E-02 0.  1.
    10030    2    1    2    0    0  0.00000000000E+00  0.00000000000E+00 -0.11929664034E+04  0.22720420951E+04  0.19336510652E+04 0.  0.
        1    1    3    3  502    0 -0.20205030767E+03  0.64226153975E+03 -0.14117573436E+04  0.15640917523E+04  0.50400001928E-02 0. -1.
       -1    1    3    3    0  502  0.20205030767E+03 -0.64226153975E+03  0.21879094020E+03  0.70795034276E+03  0.50400001928E-02 0.  1.
</event>
<event>
 5   0  0.4761944E-04  0.1901348E+04  0.7818609E-02  0.8654186E-01
       -2   -1    0    0    0  501  0.00000000000E+00  0.00000000000E+00  0.52030530687E+03  0.52030530687E+03  0.25500000920E-02 0.  1.
        2   -1    0    0  501    0  0.00000000000E+00  0.00000000000E+00 -0.17370205069E+04  0.17370205069E+04  0.25500000920E-02 0. -1.
    10030    2    1    2    0    0  0.00000000000E+00  0.00000000000E+00 -0.12167152000E+04  0.22573258138E+04  0.19013479302E+04 0.  0.
        4    1    3    3  502    0 -0.22959998542E+02 -0.14956725428E+03 -0.17226302802E+04  0.17292640690E+04  0.12699999809E+01 0. -1.
       -4    1    3    3    0  502  0.22959998542E+02  0.14956725428E+03  0.50591508016E+03  0.52806174480E+03  0.12699999809E+01 0.  1.
</event>
<event>
 5   0  0.4839293E-04  0.2363619E+04  0.7818609E-02  0.8453251E-01
        2   -1    0    0  501    0  0.00000000000E+00  0.00000000000E+00  0.13621880108E+04  0.13621880108E+04  0.25500000920E-02 0.  1.
       -2   -1    0    0    0  501  0.00000000000E+00  0.00000000000E+00 -0.10253167735E+04  0.10253167735E+04  0.25500000920E-02 0. -1.
    10030    2    1    2    0    0  0.00000000000E+00  0.00000000000E+00  0.33687123724E+03  0.23875047843E+04  0.23636194415E+04 0.  0.
        5    1    3    3  502    0  0.26504352591E+03  0.78761645656E+03  0.10172033225E+04  0.13135114931E+04  0.46999998093E+01 0.  1.
       -5    1    3    3    0  502 -0.26504352591E+03 -0.78761645656E+03 -0.68033208523E+03  0.10739932912E+04  0.46999998093E+01 0. -1.
</event>
<event>
 5   0  0.4802635E-04  0.1901321E+04  0.7818609E-02  0.8654199E-01
        2   -1    0    0  501    0  0.00000000000E+00  0.00000000000E+00  0.15358740116E+04  0.15358740116E+04  0.25500000920E-02 0. -1.
       -2   -1    0    0    0  501  0.00000000000E+00  0.00000000000E+00 -0.58843045593E+03  0.58843045593E+03  0.25500000920E-02 0.  1.
    10030    2    1    2    0    0  0.00000000000E+00  0.00000000000E+00  0.94744355563E+03  0.21243044675E+04  0.19013206409E+04 0.  0.
        3    1    3    3  502    0 -0.61722737749E+03 -0.22765796027E+03  0.12404688812E+04  0.14041228001E+04  0.10100000352E+00 0. -1.
       -3    1    3    3    0  502  0.61722737749E+03  0.22765796027E+03 -0.29302532556E+03  0.72018166737E+03  0.10100000352E+00 0.  1.
</event>
<event>
 5   0  0.2510069E-04  0.1462147E+04  0.7818609E-02  0.8910022E-01
        1   -1    0    0  501    0  0.00000000000E+00  0.00000000000E+00  0.78609779953E+03  0.78609779954E+03  0.50400001928E-02 0. -1.
       -1   -1    0    0    0  501  0.00000000000E+00  0.00000000000E+00 -0.67990099054E+03  0.67990099056E+03  0.50400001928E-02 0.  1.
    10030    2    1    2    0    0  0.00000000000E+00  0.00000000000E+00  0.10619680898E+03  0.14659987901E+04  0.14621472875E+04 0.  0.
        4    1    3    3  502    0 -0.48901450822E+03  0.26181442958E+03 -0.42437559101E+03  0.69841122552E+03  0.12699999809E+01 0.  1.
       -4    1    3    3    0  502  0.48901450822E+03 -0.26181442958E+03  0.53057239999E+03  0.76758756459E+03  0.12699999809E+01 0. -1.
</event>
<event>
 5   0  0.4839293E-04  0.1145686E+04  0.7818609E-02  0.9161772E-01
       -2   -1    0    0    0  501  0.00000000000E+00  0.00000000000E+00  0.27929011025E+03  0.27929011027E+03  0.25500000920E-02 0.  1.
        2   -1    0    0  501    0  0.00000000000E+00  0.00000000000E+00 -0.11749406241E+04  0.11749406241E+04  0.25500000920E-02 0. -1.
    10030    2    1    2    0    0  0.00000000000E+00  0.00000000000E+00 -0.89565051389E+03  0.14542307344E+04  0.11456863383E+04 0.  0.
        5    1    3    3  502    0 -0.21570836869E+03 -0.21802867971E+03 -0.10619148571E+04  0.11053288466E+04  0.46999998093E+01 0. -1.
       -5    1    3    3    0  502  0.21570836869E+03  0.21802867971E+03  0.16626434318E+03  0.34890188780E+03  0.46999998093E+01 0.  1.
</event>
<event>
 5   0  0.2355414E-04  0.1903556E+04  0.7818609E-02  0.8653089E-01
        1   -1    0    0  501    0  0.00000000000E+00  0.00000000000E+00  0.13357264904E+04  0.13357264904E+04  0.50400001928E-02 0. -1.
       -1   -1    0    0    0  501  0.00000000000E+00  0.00000000000E+00 -0.67819341611E+03  0.67819341613E+03  0.50400001928E-02 0.  1.
    10030    2    1    2    0    0  0.00000000000E+00  0.00000000000E+00  0.65753307425E+03  0.20139199065E+04  0.19035555274E+04 0.  0.
        5    1    3    3  502    0 -0.27734339015E+03  0.14935147288E+03 -0.62143296786E+03  0.69672537061E+03  0.46999998093E+01 0.  1.
       -5    1    3    3    0  502  0.27734339015E+03 -0.14935147288E+03  0.12789660421E+04  0.13171945359E+04  0.46999998093E+01 0. -1.
</event>
<event>
 5   0  0.2355414E-04  0.1898407E+04  0.7818609E-02  0.8655650E-01
       -1   -1    0    0    0  501  0.00000000000E+00  0.00000000000E+00  0.86245103409E+03  0.86245103411E+03  0.50400001928E-02 0. -1.
        1   -1    0    0  501    0  0.00000000000E+00  0.00000000000E+00 -0.10446818118E+04  0.10446818118E+04  0.50400001928E-02 0.  1.
    10030    2    1    2    0    0  0.00000000000E+00  0.00000000000E+00 -0.18223077768E+03  0.19071328459E+04  0.18984066044E+04 0.  0.
        5    1    3    3  502    0 -0.41756620658E+03  0.49611582016E+02  0.76376148816E+03  0.87188103933E+03  0.46999998093E+01 0. -1.
       -5    1    3    3    0  502  0.41756620658E+03 -0.49611582016E+02 -0.94599226584E+03  0.10352518066E+04  0.46999998093E+01 0.  1.
</event>
<event>
 5   0  0.2355414E-04  0.1995865E+04  0.7818609E-02  0.8608556E-01
       -1   -1    0    0    0  501  0.00000000000E+00  0.00000000000E+00  0.13130914653E+04  0.13130914653E+04  0.50400001928E-02 0.  1.
        1   -1    0    0  501    0  0.00000000000E+00  0.00000000000E+00 -0.75841600726E+03  0.75841600727E+03  0.50400001928E-02 0. -1.
    10030    2    1    2    0    0  0.00000000000E+00  0.00000000000E+00  0.55467545804E+03  0.20715074726E+04  0.19958653124E+04 0.  0.
        5    1    3    3  502    0 -0.62362828772E+03  0.14257593919E+03  0.10722679840E+04  0.12486075682E+04  0.46999998093E+01 0.  1.
       -5    1    3    3    0  502  0.62362828772E+03 -0.14257593919E+03 -0.51759252601E+03  0.82289990440E+03  0.46999998093E+01 0. -1.
</event>
<event>
 5   0  0.2261755E-04  0.1957687E+04  0.7818609E-02  0.8626663E-01
        1   -1    0    0  501    0  0.00000000000E+00  0.00000000000E+00  0.20886930194E+04  0.20886930194E+04  0.50400001928E-02 0. -1.
       -1   -1    0    0    0  501  0.00000000000E+00  0.00000000000E+00 -0.45872445016E+03  0.45872445019E+03  0.50400001928E-02 0.  1.
    10030    2    1    2    0    0  0.00000000000E+00  0.00000000000E+00  0.16299685692E+04  0.25474174696E+04  0.19576869586E+04 0.  0.
        1    1    3    3  502    0 -0.44512484988E+02 -0.35166872679E+03 -0.37227173399E+03  0.51404133946E+03  0.50400001928E-02 0.  1.
       -1    1    3    3    0  502  0.44512484988E+02  0.35166872679E+03  0.20022403032E+04  0.20333761301E+04  0.50400001928E-02 0. -1.
</event>
<event>
 5   0  0.4802635E-04  0.1874884E+04  0.7818609E-02  0.8667460E-01
        2   -1    0    0  501    0  0.00000000000E+00  0.00000000000E+00  0.19591862319E+04  0.19591862319E+04  0.25500000920E-02 0. -1.
       -2   -1    0    0    0  501  0.00000000000E+00  0.00000000000E+00 -0.44855209924E+03  0.44855209925E+03  0.25500000920E-02 0.  1.
    10030    2    1    2    0    0  0.00000000000E+00  0.00000000000E+00  0.15106341326E+04  0.24077383311E+04  0.18748835666E+04 0.  0.
        3    1    3    3  502    0  0.62842141518E+02  0.64800443732E+03  0.16215031209E+04  0.17473211688E+04  0.10100000352E+00 0. -1.
       -3    1    3    3    0  502 -0.62842141518E+02 -0.64800443732E+03 -0.11086898829E+03  0.66041716233E+03  0.10100000352E+00 0.  1.
</event>
<event>
 5   0  0.1729375E-04  0.1859048E+04  0.7818609E-02  0.8675513E-01
       -4   -1    0    0    0  501  0.00000000000E+00  0.00000000000E+00  0.14222225766E+04  0.14222231436E+04  0.12699999809E+01 0. -1.
        4   -1    0    0  501    0  0.00000000000E+00  0.00000000000E+00 -0.60750916229E+03  0.60751048976E+03  0.12699999809E+01 0.  1.
    10030    2    1    2    0    0  0.00000000000E+00  0.00000000000E+00  0.81471341428E+03  0.20297336334E+04  0.18590483251E+04 0.  0.
        5    1    3    3  502    0  0.54389616862E+03  0.42291539941E+02  0.12290370249E+04  0.13446805253E+04  0.46999998093E+01 0. -1.
       -5    1    3    3    0  502 -0.54389616862E+03 -0.42291539941E+02 -0.41432361059E+03  0.68505310808E+03  0.46999998093E+01 0.  1.
</event>
<event>
 5   0  0.2510069E-04  0.1493453E+04  0.7818609E-02  0.8888818E-01
       -1   -1    0    0    0  501  0.00000000000E+00  0.00000000000E+00  0.10978794379E+04  0.10978794379E+04  0.50400001928E-02 0.  1.
        1   -1    0    0  501    0  0.00000000000E+00  0.00000000000E+00 -0.50788860674E+03  0.50788860677E+03  0.50400001928E-02 0. -1.
    10030    2    1    2    0    0  0.00000000000E+00  0.00000000000E+00  0.58999083118E+03  0.16057680447E+04  0.14934529897E+04 0.  0.
        4    1    3    3  502    0  0.47716204059E+03  0.32986959759E+03 -0.21058108979E+03  0.61712524877E+03  0.12699999809E+01 0. -1.
       -4    1    3    3    0  502 -0.47716204059E+03 -0.32986959759E+03  0.80057192098E+03  0.98864279593E+03  0.12699999809E+01 0.  1.
</event>
<event>
 5   0  0.4761944E-04  0.2006816E+04  0.7818609E-02  0.8603440E-01
        2   -1    0    0  501    0  0.00000000000E+00  0.00000000000E+00  0.13660444260E+04  0.13660444260E+04  0.25500000920E-02 0.  1.
       -2   -1    0    0    0  501  0.00000000000E+00  0.00000000000E+00 -0.73703890312E+03  0.73703890313E+03  0.25500000920E-02 0. -1.
    10030    2    1    2    0    0  0.00000000000E+00  0.00000000000E+00  0.62900552292E+03  0.21030833292E+04  0.20068162700E+04 0.  0.
        4    1    3    3  502    0 -0.24273380411E+03  0.93898225433E+03  0.44828284636E+02  0.97088545236E+03  0.12699999809E+01 0.  1.
       -4    1    3    3    0  502  0.24273380411E+03 -0.93898225433E+03  0.58417723828E+03  0.11321978768E+04  0.12699999809E+01 0. -1.
</event>
<event>
 5   0  0.4829134E-04  0.1852382E+04  0.7818609E-02  0.8678929E-01
        2   -1    0    0  501    0  0.00000000000E+00  0.00000000000E+00  0.89990687748E+03  0.89990687748E+03  0.25500000920E-02 0. -1.
       -2   -1    0    0    0  501  0.00000000000E+00  0.00000000000E+00 -0.95324265581E+03  0.95324265581E+03  0.25500000920E-02 0.  1.
    10030    2    1    2    0    0  0.00000000000E+00  0.00000000000E+00 -0.53335778328E+02  0.18531495333E+04  0.18523818417E+04 0.  0.
        2    1    3    3  502    0  0.39089900554E+03  0.46547851237E+03  0.67244741773E+03  0.90645342276E+03  0.25500000920E-02 0. -1.
       -2    1    3    3    0  502 -0.39089900554E+03 -0.46547851237E+03 -0.72578319606E+03  0.94669611053E+03  0.25500000920E-02 0.  1.
</event>
<event>
 5   0  0.2261755E-04  0.1792454E+04  0.7818609E-02  0.8710323E-01
       -1   -1    0    0    0  501  0.00000000000E+00  0.00000000000E+00  0.51580441309E+03  0.51580441312E+03  0.50400001928E-02 0. -1.
        1   -1    0    0  501    0  0.00000000000E+00  0.00000000000E+00 -0.15572229144E+04  0.15572229144E+04  0.50400001928E-02 0.  1.
    10030    2    1    2    0    0  0.00000000000E+00  0.00000000000E+00 -0.10414185013E+04  0.20730273275E+04  0.17924535714E+04 0.  0.
        1    1    3    3  502    0  0.85356076065E+02  0.65714421481E+02 -0.15497084901E+04  0.15534479229E+04  0.50400001928E-02 0.  1.
       -1    1    3    3    0  502 -0.85356076065E+02 -0.65714421481E+02  0.50828998881E+03  0.51957940458E+03  0.50400001928E-02 0. -1.
</event>
<event>
 5   0  0.4839293E-04  0.1911701E+04  0.7818609E-02  0.8649054E-01
        2   -1    0    0  501    0  0.00000000000E+00  0.00000000000E+00  0.20903020608E+04  0.20903020608E+04  0.25500000920E-02 0. -1.
       -2   -1    0    0    0  501  0.00000000000E+00  0.00000000000E+00 -0.43708987508E+03  0.43708987508E+03  0.25500000920E-02 0.  1.
    10030    2    1    2    0    0  0.00000000000E+00  0.00000000000E+00  0.16532121858E+04  0.25273919359E+04  0.19117006739E+04 0.  0.
        5    1    3    3  502    0  0.36962380602E+03 -0.80084609067E+03  0.33967770472E+03  0.94518741633E+03  0.46999998093E+01 0. -1.
       -5    1    3    3    0  502 -0.36962380602E+03  0.80084609067E+03  0.13135344811E+04  0.15822045196E+04  0.46999998093E+01 0.  1.
</event>
<event>
 5   0  0.2317458E-04  0.1878424E+04  0.7818609E-02  0.8665671E-01
       -1   -1    0    0    0  501  0.00000000000E+00  0.00000000000E+00  0.48647935021E+03  0.48647935024E+03  0.50400001928E-02 0. -1.
        1   -1    0    0  501    0  0.00000000000E+00  0.00000000000E+00 -0.18132714976E+04  0.18132714976E+04  0.50400001928E-02 0.  1.
    10030    2    1    2    0    0  0.00000000000E+00  0.00000000000E+00 -0.13267921473E+04  0.22997508478E+04  0.18784239563E+04 0.  0.
        3    1    3    3  502    0  0.29259505862E+03 -0.79709556691E+02  0.42488968002E+03  0.52201219539E+03  0.10100000352E+00 0. -1.
       -3    1    3    3    0  502 -0.29259505862E+03  0.79709556691E+02 -0.17516818274E+04  0.17777386524E+04  0.10100000352E+00 0.  1.
</event>
<event>
 5   0  0.4761944E-04  0.1888727E+04  0.7818609E-02  0.8660488E-01
        2   -1    0    0  501    0  0.00000000000E+00  0.00000000000E+00  0.11389816727E+04  0.11389816727E+04  0.25500000920E-02 0. -1.
       -2   -1    0    0    0  501  0.00000000000E+00  0.00000000000E+00 -0.78299959688E+03  0.78299959688E+03  0.25500000920E-02 0.  1.
    10030    2    1    2    0    0  0.00000000000E+00  0.00000000000E+00  0.35598207585E+03  0.19219812696E+04  0.18887267570E+04 0.  0.
        4    1    3    3  502    0  0.71505205323E+03 -0.59713678936E+03  0.20512331291E+02  0.93182302648E+03  0.12699999809E+01 0.  1.
       -4    1    3    3    0  502 -0.71505205323E+03  0.59713678936E+03  0.33546974456E+03  0.99015824314E+03  0.12699999809E+01 0. -1.
</event>
<event>
 5   0  0.1729375E-04  0.1819999E+04  0.7818609E-02  0.8695736E-01
       -4   -1    0    0    0  501  0.00000000000E+00  0.00000000000E+00  0.69550907408E+03  0.69551023359E+03  0.12699999809E+01 0. -1.
        4   -1    0    0  501    0  0.00000000000E+00  0.00000000000E+00 -0.11906344621E+04  0.11906351394E+04  0.12699999809E+01 0.  1.
    10030    2    1    2    0    0  0.00000000000E+00  0.00000000000E+00 -0.49512538800E+03  0.18861453730E+04  0.18199986863E+04 0.  0.
        5    1    3    3  502    0 -0.84309367771E+02  0.90607037496E+03 -0.24521755708E+03  0.94245707285E+03  0.46999998093E+01 0. -1.
       -5    1    3    3    0  502  0.84309367771E+02 -0.90607037496E+03 -0.24990783093E+03  0.94368830014E+03  0.46999998093E+01 0.  1.
</event>
<event>
 5   0  0.2261755E-04  0.1914855E+04  0.7818609E-02  0.8647497E-01
       -1   -1    0    0    0  501  0.00000000000E+00  0.00000000000E+00  0.36089148053E+03  0.36089148057E+03  0.50400001928E-02 0.  1.
        1   -1    0    0  501    0  0.00000000000E+00  0.00000000000E+00 -0.25400094788E+04  0.25400094788E+04  0.50400001928E-02 0. -1.
    10030    2    1    2    0    0  0.00000000000E+00  0.00000000000E+00 -0.21791179983E+04  0.29009009594E+04  0.19148553799E+04 0.  0.
        1    1    3    3  502    0 -0.86784560639E+03 -0.20200898085E+03 -0.16202314710E+04  0.18490845423E+04  0.50400001928E-02 0.  1.
       -1    1    3    3    0  502  0.86784560639E+03  0.20200898085E+03 -0.55888652727E+03  0.10518164171E+04  0.50400001928E-02 0. -1.
</event>
<event>
 5   0  0.2261755E-04  0.1738114E+04  0.7818609E-02  0.8739920E-01
        1   -1    0    0  501    0  0.00000000000E+00  0.00000000000E+00  0.81765649679E+03  0.81765649680E+03  0.50400001928E-02 0. -1.
       -1   -1    0    0    0  501  0.00000000000E+00  0.00000000000E+00 -0.92368903015E+03  0.92368903017E+03  0.50400001928E-02 0.  1.
    10030    2    1    2    0    0  0.00000000000E+00  0.00000000000E+00 -0.10603253337E+03  0.17413455270E+04  0.17381143076E+04 0.  0.
        1    1    3    3  502    0 -0.27725089660E+03 -0.79194409329E+03 -0.27974834416E+03  0.88447874064E+03  0.50400001928E-02 0. -1.
       -1    1    3    3    0  502  0.27725089660E+03  0.79194409329E+03  0.17371581079E+03  0.85686678633E+03  0.50400001928E-02 0.  1.
</event>
<event>
 5   0  0.2317458E-04  0.1931808E+04  0.7818609E-02  0.8639183E-01
        1   -1    0    0  501    0  0.00000000000E+00  0.00000000000E+00  0.57267910546E+03  0.57267910548E+03  0.50400001928E-02 0.  1.
       -1   -1    0    0    0  501  0.00000000000E+00  0.00000000000E+00 -0.16291334479E+04  0.16291334479E+04  0.50400001928E-02 0. -1.
    10030    2    1    2    0    0  0.00000000000E+00  0.00000000000E+00 -0.10564543425E+04  0.22018125534E+04  0.19318081537E+04 0.  0.
        3    1    3    3  502    0 -0.93972270870E+03 -0.44864231128E+02 -0.77762310564E+03  0.12205692414E+04  0.10100000352E+00 0. -1.
       -3    1    3    3    0  502  0.93972270870E+03  0.44864231128E+02 -0.27883123683E+03  0.98124331199E+03  0.10100000352E+00 0.  1.
</event>
<event>
 5   0  0.4761944E-04  0.1957660E+04  0.7818609E-02  0.8626676E-01
       -2   -1    0    0    0  501  0.00000000000E+00  0.00000000000E+00  0.15289097142E+04  0.15289097142E+04  0.25500000920E-02 0.  1.
        2   -1    0    0  501    0  0.00000000000E+00  0.00000000000E+00 -0.62666122867E+03  0.62666122867E+03  0.25500000920E-02 0. -1.
    10030    2    1    2    0    0  0.00000000000E+00  0.00000000000E+00  0.90224848554E+03  0.21555709429E+04  0.19576602770E+04 0.  0.
        4    1    3    3  502    0 -0.47780021540E+03  0.56357276400E+03 -0.25580953562E+03  0.78188710028E+03  0.12699999809E+01 0.  1.
       -4    1    3    3    0  502  0.47780021540E+03 -0.56357276400E+03  0.11580580212E+04  0.13736838426E+04  0.12699999809E+01 0. -1.
</event>
<event>
 5   0  0.4973411E-04  0.1923578E+04  0.7818609E-02  0.8643208E-01
       -2   -1    0    0    0  501  0.00000000000E+00  0.00000000000E+00  0.44840914531E+03  0.44840914532E+03  0.25500000920E-02 0. -1.
        2   -1    0    0  501    0  0.00000000000E+00  0.00000000000E+00 -0.20629325303E+04  0.20629325303E+04  0.25500000920E-02 0.  1.
    10030    2    1    2    0    0  0.00000000000E+00  0.00000000000E+00 -0.16145233850E+04  0.25113416757E+04  0.19235777216E+04 0.  0.
        1    1    3    3  502    0 -0.78039362575E+03  0.49020357765E+03 -0.44799827750E+03  0.10247029888E+04  0.50400001928E-02 0.  1.
       -1    1    3    3    0  502  0.78039362575E+03 -0.49020357765E+03 -0.11665251075E+04  0.14866386868E+04  0.50400001928E-02 0. -1.
</event>
<event>
 5   0  0.1729375E-04  0.1878159E+04  0.7818609E-02  0.8665805E-01
       -4   -1    0    0    0  501  0.00000000000E+00  0.00000000000E+00  0.11511647838E+04  0.11511654843E+04  0.12699999809E+01 0. -1.
        4   -1    0    0  501    0  0.00000000000E+00  0.00000000000E+00 -0.76606608744E+03  0.76606714016E+03  0.12699999809E+01 0.  1.
    10030    2    1    2    0    0  0.00000000000E+00  0.00000000000E+00  0.38509869633E+03  0.19172326245E+04  0.18781586542E+04 0.  0.
        5    1    3    3  502    0 -0.24030595978E+03  0.42935658600E+03  0.10090358180E+04  0.11226172118E+04  0.46999998093E+01 0. -1.
       -5    1    3    3    0  502  0.24030595978E+03 -0.42935658600E+03 -0.62393712168E+03  0.79461541267E+03  0.46999998093E+01 0.  1.
</event>
<event>
 5   0  0.2376359E-04  0.1904131E+04  0.7818609E-02  0.8652803E-01
       -1   -1    0    0    0  501  0.00000000000E+00  0.00000000000E+00  0.13472736863E+04  0.13472736863E+04  0.50400001928E-02 0.  1.
        1   -1    0    0  501    0  0.00000000000E+00  0.00000000000E+00 -0.67278713099E+03  0.67278713101E+03  0.50400001928E-02 0. -1.
    10030    2    1    2    0    0  0.00000000000E+00  0.00000000000E+00  0.67448655533E+03  0.20200608173E+04  0.19041306658E+04 0.  0.
        2    1    3    3  502    0  0.56496169734E+03 -0.76030062962E+03  0.23554426426E+03  0.97607369973E+03  0.25500000920E-02 0.  1.
       -2    1    3    3    0  502 -0.56496169734E+03  0.76030062962E+03  0.43894229106E+03  0.10439871176E+04  0.25500000920E-02 0. -1.
</event>
<event>
 5   0  0.1729375E-04  0.1862465E+04  0.7818609E-02  0.8673769E-01
        3   -1    0    0  501    0  0.00000000000E+00  0.00000000000E+00  0.11606527549E+04  0.11606527593E+04  0.10100000352E+00 0.  1.
       -3   -1    0    0    0  501  0.00000000000E+00  0.00000000000E+00 -0.74716056385E+03  0.74716057067E+03  0.10100000352E+00 0. -1.
    10030    2    1    2    0    0  0.00000000000E+00  0.00000000000E+00  0.41349219108E+03  0.19078133300E+04  0.18624650091E+04 0.  0.
        2    1    3    3  502    0  0.83933815110E+03 -0.73739479791E+02 -0.19948002794E+03  0.86586276299E+03  0.25500000920E-02 0. -1.
       -2    1    3    3    0  502 -0.83933815110E+03  0.73739479791E+02  0.61297221902E+03  0.10419505670E+04  0.25500000920E-02 0.  1.
</event>
<event>
 5   0  0.4761944E-04  0.1992417E+04  0.7818609E-02  0.8610174E-01
       -2   -1    0    0    0  501  0.00000000000E+00  0.00000000000E+00  0.76362548975E+03  0.76362548976E+03  0.25500000920E-02 0.  1.
        2   -1    0    0  501    0  0.00000000000E+00  0.00000000000E+00 -0.12996306189E+04  0.12996306189E+04  0.25500000920E-02 0. -1.
    10030    2    1    2    0    0  0.00000000000E+00  0.00000000000E+00 -0.53600512912E+03  0.20632561086E+04  0.19924166912E+04 0.  0.
        4    1    3    3  502    0 -0.21326006148E+03  0.37682346173E+03 -0.11970939072E+04  0.12729930128E+04  0.12699999809E+01 0. -1.
       -4    1    3    3    0  502  0.21326006148E+03 -0.37682346173E+03  0.66108877810E+03  0.79026309579E+03  0.12699999809E+01 0.  1.
</event>
<event>
 5   0  0.2317458E-04  0.1835441E+04  0.7818609E-02  0.8687676E-01
       -1   -1    0    0    0  501  0.00000000000E+00  0.00000000000E+00  0.55726499656E+03  0.55726499659E+03  0.50400001928E-02 0. -1.
        1   -1    0    0  501    0  0.00000000000E+00  0.00000000000E+00 -0.15113284825E+04  0.15113284825E+04  0.50400001928E-02 0.  1.
    10030    2    1    2    0    0  0.00000000000E+00  0.00000000000E+00 -0.95406348593E+03  0.20685934791E+04  0.18354405048E+04 0.  0.
        3    1    3    3  502    0  0.15236678704E+03 -0.80128960682E+03 -0.95109392160E+03  0.12529406729E+04  0.10100000352E+00 0.  1.
       -3    1    3    3    0  502 -0.15236678704E+03  0.80128960682E+03 -0.29695643329E+01  0.81565280623E+03  0.10100000352E+00 0. -1.
</event>
<event>
 5   0  0.4761944E-04  0.1889640E+04  0.7818609E-02  0.8660030E-01
       -2   -1    0    0    0  501  0.00000000000E+00  0.00000000000E+00  0.13148312360E+04  0.13148312360E+04  0.25500000920E-02 0.  1.
        2   -1    0    0  501    0  0.00000000000E+00  0.00000000000E+00 -0.67893494787E+03  0.67893494787E+03  0.25500000920E-02 0. -1.
    10030    2    1    2    0    0  0.00000000000E+00  0.00000000000E+00  0.63589628815E+03  0.19937661839E+04  0.18896400469E+04 0.  0.
        4    1    3    3  502    0 -0.15261499458E+03  0.11526067157E+03 -0.65829757234E+03  0.68551707902E+03  0.12699999809E+01 0. -1.
       -4    1    3    3    0  502  0.15261499458E+03 -0.11526067157E+03  0.12941938605E+04  0.13082491049E+04  0.12699999809E+01 0.  1.
</event>
<event>
 5   0  0.2317458E-04  0.1905492E+04  0.7818609E-02  0.8652128E-01
        1   -1    0    0  501    0  0.00000000000E+00  0.00000000000E+00  0.21799980186E+04  0.21799980186E+04  0.50400001928E-02 0. -1.
       -1   -1    0    0    0  501  0.00000000000E+00  0.00000000000E+00 -0.41638779248E+03  0.41638779251E+03  0.50400001928E-02 0.  1.
    10030    2    1    2    0    0  0.00000000000E+00  0.00000000000E+00  0.17636102261E+04  0.25963858111E+04  0.19054916034E+04 0.  0.
        3    1    3    3  502    0 -0.23265882566E+03  0.57642568311E+03  0.18656296570E+04  0.19664614730E+04  0.10100000352E+00 0. -1.
       -3    1    3    3    0  502  0.23265882566E+03 -0.57642568311E+03 -0.10201943090E+03  0.62992433815E+03  0.10100000352E+00 0.  1.
</event>
<event>
 5   0  0.2317458E-04  0.1882257E+04  0.7818609E-02  0.8663739E-01
        1   -1    0    0  501    0  0.00000000000E+00  0.00000000000E+00  0.11710049521E+04  0.11710049521E+04  0.50400001928E-02 0.  1.
       -1   -1    0    0    0  501  0.00000000000E+00  0.00000000000E+00 -0.75637874163E+03  0.75637874164E+03  0.50400001928E-02 0. -1.
    10030    2    1    2    0    0  0.00000000000E+00  0.00000000000E+00  0.41462621050E+03  0.19273836938E+04  0.18822574236E+04 0.  0.
        3    1    3    3  502    0 -0.42406534021E+03  0.58344228820E+03 -0.41173597770E+03  0.83051962166E+03  0.10100000352E+00 0. -1.
       -3    1    3    3    0  502  0.42406534021E+03 -0.58344228820E+03  0.82636218820E+03  0.10968640721E+04  0.10100000352E+00 0.  1.
</event>
<event>
 5   0  0.4761944E-04  0.2000695E+04  0.7818609E-02  0.8606296E-01
       -2   -1    0    0    0  501  0.00000000000E+00  0.00000000000E+00  0.93099397894E+03  0.93099397894E+03  0.25500000920E-02 0.  1.
        2   -1    0    0  501    0  0.00000000000E+00  0.00000000000E+00 -0.10748677067E+04  0.10748677067E+04  0.25500000920E-02 0. -1.
    10030    2    1    2    0    0  0.00000000000E+00  0.00000000000E+00 -0.14387372774E+03  0.20058616856E+04  0.20006952422E+04 0.  0.
        4    1    3    3  502    0  0.41401104909E+03 -0.90681843218E+03  0.11758841114E+02  0.99692763075E+03  0.12699999809E+01 0.  1.
       -4    1    3    3    0  502 -0.41401104909E+03  0.90681843218E+03 -0.15563256885E+03  0.10089340549E+04  0.12699999809E+01 0. -1.
</event>
<event>
 5   0  0.4973411E-04  0.1872432E+04  0.7818609E-02  0.8668702E-01
        2   -1    0    0  501    0  0.00000000000E+00  0.00000000000E+00  0.28328811517E+04  0.28328811517E+04  0.25500000920E-02 0.  1.
       -2   -1    0    0    0  501  0.00000000000E+00  0.00000000000E+00 -0.30940246110E+03  0.30940246111E+03  0.25500000920E-02 0. -1.
    10030    2    1    2    0    0  0.00000000000E+00  0.00000000000E+00  0.25234786906E+04  0.31422836128E+04  0.18724320018E+04 0.  0.
        1    1    3    3  502    0 -0.21657108674E+03  0.91064987638E+03  0.12914847481E+04  0.15950294942E+04  0.50400001928E-02 0. -1.
       -1    1    3    3    0  502  0.21657108674E+03 -0.91064987638E+03  0.12319939425E+04  0.15472541186E+04  0.50400001928E-02 0.  1.
</event>
<event>
 5   0  0.4761944E-04  0.1876344E+04  0.7818609E-02  0.8666722E-01
       -2   -1    0    0    0  501  0.00000000000E+00  0.00000000000E+00  0.11351061900E+04  0.11351061900E+04  0.25500000920E-02 0. -1.
        2   -1    0    0  501    0  0.00000000000E+00  0.00000000000E+00 -0.77540445441E+03  0.77540445442E+03  0.25500000920E-02 0.  1.
    10030    2    1    2    0    0  0.00000000000E+00  0.00000000000E+00  0.35970173559E+03  0.19105106444E+04  0.18763436742E+04 0.  0.
        4    1    3    3  502    0  0.21879017508E+03  0.55123504722E+03 -0.56032188496E+03  0.81589916391E+03  0.12699999809E+01 0.  1.
       -4    1    3    3    0  502 -0.21879017508E+03 -0.55123504722E+03  0.92002362056E+03  0.10946114805E+04  0.12699999809E+01 0. -1.
</event>
<event>
 5   0  0.4761944E-04  0.1843339E+04  0.7818609E-02  0.8683586E-01
       -2   -1    0    0    0  501  0.00000000000E+00  0.00000000000E+00  0.11349076729E+04  0.11349076729E+04  0.25500000920E-02 0.  1.
        2   -1    0    0  501    0  0.00000000000E+00  0.00000000000E+00 -0.74849688073E+03  0.74849688073E+03  0.25500000920E-02 0. -1.
    10030    2    1    2    0    0  0.00000000000E+00  0.00000000000E+00  0.38641079216E+03  0.18834045536E+04  0.18433392016E+04 0.  0.
        4    1    3    3  502    0 -0.26169205813E+03  0.65715586010E+03 -0.41051534622E+03  0.81783923856E+03  0.12699999809E+01 0. -1.
       -4    1    3    3    0  502  0.26169205813E+03 -0.65715586010E+03  0.79692613838E+03  0.10655653151E+04  0.12699999809E+01 0.  1.
</event>
<event>
 5   0  0.2261755E-04  0.1979599E+04  0.7818609E-02  0.8616219E-01
        1   -1    0    0  501    0  0.00000000000E+00  0.00000000000E+00  0.63632252550E+03  0.63632252552E+03  0.50400001928E-02 0.  1.
       -1   -1    0    0    0  501  0.00000000000E+00  0.00000000000E+00 -0.15396324946E+04  0.15396324946E+04  0.50400001928E-02 0. -1.
    10030    2    1    2    0    0  0.00000000000E+00  0.00000000000E+00 -0.90330996907E+03  0.21759550201E+04  0.19795987849E+04 0.  0.
        1    1    3    3  502    0  0.16856949050E+03 -0.20148328951E+03  0.59730377019E+03  0.65252048472E+03  0.50400001928E-02 0.  1.
       -1    1    3    3    0  502 -0.16856949050E+03  0.20148328951E+03 -0.15006137393E+04  0.15234345354E+04  0.50400001928E-02 0. -1.
</event>
<event>
 5   0  0.2317458E-04  0.1930799E+04  0.7818609E-02  0.8639676E-01
        1   -1    0    0  501    0  0.00000000000E+00  0.00000000000E+00  0.23117737765E+04  0.23117737765E+04  0.50400001928E-02 0.  1.
       -1   -1    0    0    0  501  0.00000000000E+00  0.00000000000E+00 -0.40315212300E+03  0.40315212303E+03  0.50400001928E-02 0. -1.
    10030    2    1    2    0    0  0.00000000000E+00  0.00000000000E+00  0.19086216535E+04  0.27149258995E+04  0.19307993225E+04 0.  0.
        3    1    3    3  502    0 -0.16309005763E+03 -0.88540522082E+03  0.46427273951E+03  0.10129609858E+04  0.10100000352E+00 0. -1.
       -3    1    3    3    0  502  0.16309005763E+03  0.88540522082E+03  0.14443489140E+04  0.17019649137E+04  0.10100000352E+00 0.  1.
</event>
<event>
 5   0  0.4829134E-04  0.1942221E+04  0.7818609E-02  0.8634121E-01
        2   -1    0    0  501    0  0.00000000000E+00  0.00000000000E+00  0.13403111663E+04  0.13403111663E+04  0.25500000920E-02 0.  1.
       -2   -1    0    0    0  501  0.00000000000E+00  0.00000000000E+00 -0.70360935279E+03  0.70360935280E+03  0.25500000920E-02 0. -1.
    10030    2    1    2    0    0  0.00000000000E+00  0.00000000000E+00  0.63670181348E+03  0.20439205191E+04  0.19422208651E+04 0.  0.
        2    1    3    3  502    0 -0.30448728864E+03 -0.68724151314E+03 -0.32869553327E+03  0.82039878104E+03  0.25500000920E-02 0. -1.
       -2    1    3    3    0  502  0.30448728864E+03  0.68724151314E+03  0.96539734676E+03  0.12235217380E+04  0.25500000920E-02 0.  1.
</event>
<event>
 5   0  0.2376359E-04  0.1917327E+04  0.7818609E-02  0.8646279E-01
        1   -1    0    0  501    0  0.00000000000E+00  0.00000000000E+00  0.71950558815E+03  0.71950558816E+03  0.50400001928E-02 0.  1.
       -1   -1    0    0    0  501  0.00000000000E+00  0.00000000000E+00 -0.12773159409E+04  0.12773159409E+04  0.50400001928E-02 0. -1.
    10030    2    1    2    0    0  0.00000000000E+00  0.00000000000E+00 -0.55781035272E+03  0.19968215290E+04  0.19173272619E+04 0.  0.
        2    1    3    3  502    0  0.65658185239E+03 -0.67095690303E+03 -0.76547773114E+02  0.94188240040E+03  0.25500000920E-02 0.  1.
       -2    1    3    3    0  502 -0.65658185239E+03  0.67095690303E+03 -0.48126257961E+03  0.10549391286E+04  0.25500000920E-02 0. -1.
</event>
<event>
 5   0  0.2510069E-04  0.1971145E+04  0.7818609E-02  0.8620232E-01
        1   -1    0    0  501    0  0.00000000000E+00  0.00000000000E+00  0.16292983418E+04  0.16292983418E+04  0.50400001928E-02 0.  1.
       -1   -1    0    0    0  501  0.00000000000E+00  0.00000000000E+00 -0.59617854395E+03  0.59617854397E+03  0.50400001928E-02 0. -1.
    10030    2    1    2    0    0  0.00000000000E+00  0.00000000000E+00  0.10331197979E+04  0.22254768858E+04  0.19711445539E+04 0.  0.
        4    1    3    3  502    0  0.58642365304E+03  0.23138551924E+03 -0.33876274182E+03  0.71567713915E+03  0.12699999809E+01 0. -1.
       -4    1    3    3    0  502 -0.58642365304E+03 -0.23138551924E+03  0.13718825397E+04  0.15097997466E+04  0.12699999809E+01 0.  1.
</event>
<event>
 5   0  0.2510069E-04  0.2095749E+04  0.7818609E-02  0.8563118E-01
        1   -1    0    0  501    0  0.00000000000E+00  0.00000000000E+00  0.22075006362E+04  0.22075006362E+04  0.50400001928E-02 0.  1.
       -1   -1    0    0    0  501  0.00000000000E+00  0.00000000000E+00 -0.49741360630E+03  0.49741360633E+03  0.50400001928E-02 0. -1.
    10030    2    1    2    0    0  0.00000000000E+00  0.00000000000E+00  0.17100870299E+04  0.27049142425E+04  0.20957488899E+04 0.  0.
        4    1    3    3  502    0 -0.43220519044E+03 -0.75170014363E+03  0.16144394321E+04  0.18325585190E+04  0.12699999809E+01 0.  1.
       -4    1    3    3    0  502  0.43220519044E+03  0.75170014363E+03  0.95647597775E+02  0.87235572356E+03  0.12699999809E+01 0. -1.
</event>
<event>
 5   0  0.4829134E-04  0.1806334E+04  0.7818609E-02  0.8702939E-01
        2   -1    0    0  501    0  0.00000000000E+00  0.00000000000E+00  0.26602386529E+04  0.26602386529E+04  0.25500000920E-02 0. -1.
       -2   -1    0    0    0  501  0.00000000000E+00  0.00000000000E+00 -0.30663048162E+03  0.30663048163E+03  0.25500000920E-02 0.  1.
    10030    2    1    2    0    0  0.00000000000E+00  0.00000000000E+00  0.23536081713E+04  0.29668691345E+04  0.18063335898E+04 0.  0.
        2    1    3    3  502    0  0.88455150309E+03  0.10514055605E+03  0.93194564676E+03  0.12891891198E+04  0.25500000920E-02 0.  1.
       -2    1    3    3    0  502 -0.88455150309E+03 -0.10514055605E+03  0.14216625245E+04  0.16776800147E+04  0.25500000920E-02 0. -1.
</event>
<event>
 5   0  0.2261755E-04  0.1386417E+04  0.7818609E-02  0.8963710E-01
       -1   -1    0    0    0  501  0.00000000000E+00  0.00000000000E+00  0.33656585896E+03  0.33656585900E+03  0.50400001928E-02 0. -1.
        1   -1    0    0  501    0  0.00000000000E+00  0.00000000000E+00 -0.14277681918E+04  0.14277681918E+04  0.50400001928E-02 0.  1.
    10030    2    1    2    0    0  0.00000000000E+00  0.00000000000E+00 -0.10912023328E+04  0.17643340508E+04  0.13864170049E+04 0.  0.
        1    1    3    3  502    0 -0.29971141763E+03  0.36128419501E+02 -0.13397248798E+04  0.13733153134E+04  0.50400001928E-02 0.  1.
       -1    1    3    3    0  502  0.29971141763E+03 -0.36128419501E+02  0.24852254700E+03  0.39101873733E+03  0.50400001928E-02 0. -1.
</event>
<event>
 5   0  0.4829134E-04  0.1913251E+04  0.7818609E-02  0.8648289E-01
        2   -1    0    0  501    0  0.00000000000E+00  0.00000000000E+00  0.99617030843E+03  0.99617030844E+03  0.25500000920E-02 0. -1.
       -2   -1    0    0    0  501  0.00000000000E+00  0.00000000000E+00 -0.91865039945E+03  0.91865039946E+03  0.25500000920E-02 0.  1.
    10030    2    1    2    0    0  0.00000000000E+00  0.00000000000E+00  0.77519908979E+02  0.19148207079E+04  0.19132509002E+04 0.  0.
        2    1    3    3  502    0  0.76860706610E+03 -0.11404764133E+03  0.59722188325E+03  0.98001921634E+03  0.25500000920E-02 0. -1.
       -2    1    3    3    0  502 -0.76860706610E+03  0.11404764133E+03 -0.51970197427E+03  0.93480149156E+03  0.25500000920E-02 0.  1.
</event>
<event>
 5   0  0.4829134E-04  0.2108784E+04  0.7818609E-02  0.8557384E-01
        2   -1    0    0  501    0  0.00000000000E+00  0.00000000000E+00  0.12052261102E+04  0.12052261102E+04  0.25500000920E-02 0. -1.
       -2   -1    0    0    0  501  0.00000000000E+00  0.00000000000E+00 -0.92243517121E+03  0.92243517121E+03  0.25500000920E-02 0.  1.
    10030    2    1    2    0    0  0.00000000000E+00  0.00000000000E+00  0.28279093902E+03  0.21276612814E+04  0.21087844398E+04 0.  0.
        2    1    3    3  502    0  0.50446644594E+03 -0.89474704350E+03  0.38161131076E+03  0.10957581209E+04  0.25500000920E-02 0.  1.
       -2    1    3    3    0  502 -0.50446644594E+03  0.89474704350E+03 -0.98820371738E+02  0.10319031606E+04  0.25500000920E-02 0. -1.
</event>
<event>
 5   0  0.4829134E-04  0.1878679E+04  0.7818609E-02  0.8665543E-01
       -2   -1    0    0    0  501  0.00000000000E+00  0.00000000000E+00  0.72169402449E+03  0.72169402449E+03  0.25500000920E-02 0. -1.
        2   -1    0    0  501    0  0.00000000000E+00  0.00000000000E+00 -0.12226210051E+04  0.12226210051E+04  0.25500000920E-02 0.  1.
    10030    2    1    2    0    0  0.00000000000E+00  0.00000000000E+00 -0.50092698060E+03  0.19443150296E+04  0.18786785500E+04 0.  0.
        2    1    3    3  502    0 -0.66261600632E+03  0.65566924729E+03 -0.37024891958E+03  0.10030186420E+04  0.25500000920E-02 0.  1.
       -2    1    3    3    0  502  0.66261600632E+03 -0.65566924729E+03 -0.13067806101E+03  0.94129638760E+03  0.25500000920E-02 0. -1.
</event>
<event>
 5   0  0.4973411E-04  0.1915313E+04  0.7818609E-02  0.8647272E-01
        2   -1    0    0  501    0  0.00000000000E+00  0.00000000000E+00  0.14516213275E+04  0.14516213275E+04  0.25500000920E-02 0.  1.
       -2   -1    0    0    0  501  0.00000000000E+00  0.00000000000E+00 -0.63178025536E+03  0.63178025536E+03  0.25500000920E-02 0. -1.
    10030    2    1    2    0    0  0.00000000000E+00  0.00000000000E+00  0.81984107216E+03  0.20834015829E+04  0.19153127087E+04 0.  0.
        1    1    3    3  502    0  0.86630194680E+03 -0.39439430234E+03  0.29542236264E+03  0.99664452095E+03  0.50400001928E-02 0. -1.
       -1    1    3    3    0  502 -0.86630194680E+03  0.39439430234E+03  0.52441870952E+03  0.10867570619E+04  0.50400001928E-02 0.  1.
</event>
<event>
 5   0  0.2376359E-04  0.2115247E+04  0.7818609E-02  0.8554556E-01
       -1   -1    0    0    0  501  0.00000000000E+00  0.00000000000E+00  0.14102829844E+04  0.14102829844E+04  0.50400001928E-02 0. -1.
        1   -1    0    0  501    0  0.00000000000E+00  0.00000000000E+00 -0.79315116665E+03  0.79315116667E+03  0.50400001928E-02 0.  1.
    10030    2    1    2    0    0  0.00000000000E+00  0.00000000000E+00  0.61713181771E+03  0.22034341510E+04  0.21152471197E+04 0.  0.
        2    1    3    3  502    0 -0.37599327875E+03  0.44083432601E+03 -0.61311692705E+03  0.84357466468E+03  0.25500000920E-02 0.  1.
       -2    1    3    3    0  502  0.37599327875E+03 -0.44083432601E+03  0.12302487448E+04  0.13598594864E+04  0.25500000920E-02 0. -1.
</event>
<event>
 5   0  0.4761944E-04  0.2047232E+04  0.7818609E-02  0.8584851E-01
       -2   -1    0    0    0  501  0.00000000000E+00  0.00000000000E+00  0.72205999800E+03  0.72205999800E+03  0.25500000920E-02 0.  1.
        2   -1    0    0  501    0  0.00000000000E+00  0.00000000000E+00 -0.14511110835E+04  0.14511110835E+04  0.25500000920E-02 0. -1.
    10030    2    1    2    0    0  0.00000000000E+00  0.00000000000E+00 -0.72905108549E+03  0.21731710815E+04  0.20472315610E+04 0.  0.
        4    1    3    3  502    0 -0.46259076230E+03  0.83371203383E+03  0.30840281511E+02  0.95394900523E+03  0.12699999809E+01 0.  1.
       -4    1    3    3    0  502  0.46259076230E+03 -0.83371203383E+03 -0.75989136700E+03  0.12192220763E+04  0.12699999809E+01 0. -1.
</event>
<event>
 5   0  0.4839293E-04  0.1946057E+04  0.7818609E-02  0.8632265E-01
       -2   -1    0    0    0  501  0.00000000000E+00  0.00000000000E+00  0.60254510298E+03  0.60254510299E+03  0.25500000920E-02 0.  1.
        2   -1    0    0  501    0  0.00000000000E+00  0.00000000000E+00 -0.15713082252E+04  0.15713082252E+04  0.25500000920E-02 0. -1.
    10030    2    1    2    0    0  0.00000000000E+00  0.00000000000E+00 -0.96876312224E+03  0.21738533282E+04  0.19460566039E+04 0.  0.
        5    1    3    3  502    0  0.54100539721E+03 -0.75053483676E+03 -0.14782956495E+03  0.93694452945E+03  0.46999998093E+01 0.  1.
       -5    1    3    3    0  502 -0.54100539721E+03  0.75053483676E+03 -0.82093355728E+03  0.12369087988E+04  0.46999998093E+01 0. -1.
</event>
<event>
 5   0  0.2317458E-04  0.1939818E+04  0.7818609E-02  0.8635286E-01
        1   -1    0    0  501    0  0.00000000000E+00  0.00000000000E+00  0.19228611026E+04  0.19228611026E+04  0.50400001928E-02 0. -1.
       -1   -1    0    0    0  501  0.00000000000E+00  0.00000000000E+00 -0.48923124169E+03  0.48923124171E+03  0.50400001928E-02 0.  1.
    10030    2    1    2    0    0  0.00000000000E+00  0.00000000000E+00  0.14336298609E+04  0.24120923443E+04  0.19398182645E+04 0.  0.
        3    1    3    3  502    0  0.57024966697E+03 -0.47668919938E+03 -0.58039610139E+02  0.74551048418E+03  0.10100000352E+00 0.  1.
       -3    1    3    3    0  502 -0.57024966697E+03  0.47668919938E+03  0.14916694711E+04  0.16665818602E+04  0.10100000352E+00 0. -1.
</event>
<event>
 5   0  0.4839293E-04  0.1885801E+04  0.7818609E-02  0.8661957E-01
       -2   -1    0    0    0  501  0.00000000000E+00  0.00000000000E+00  0.74546199763E+03  0.74546199763E+03  0.25500000920E-02 0.  1.
        2   -1    0    0  501    0  0.00000000000E+00  0.00000000000E+00 -0.11926309889E+04  0.11926309889E+04  0.25500000920E-02 0. -1.
    10030    2    1    2    0    0  0.00000000000E+00  0.00000000000E+00 -0.44716899128E+03  0.19380929865E+04  0.18858007100E+04 0.  0.
        5    1    3    3  502    0 -0.73929954336E+03  0.57652676576E+03 -0.32682943915E+03  0.99286781535E+03  0.46999998093E+01 0.  1.
       -5    1    3    3    0  502  0.73929954336E+03 -0.57652676576E+03 -0.12033955213E+03  0.94522517119E+03  0.46999998093E+01 0. -1.
</event>
<event>
 5   0  0.2355414E-04  0.1894194E+04  0.7818609E-02  0.8657752E-01
        1   -1    0    0  501    0  0.00000000000E+00  0.00000000000E+00  0.21603962965E+04  0.21603962965E+04  0.50400001928E-02 0. -1.
       -1   -1    0    0    0  501  0.00000000000E+00  0.00000000000E+00 -0.41519841389E+03  0.41519841392E+03  0.50400001928E-02 0.  1.
    10030    2    1    2    0    0  0.00000000000E+00  0.00000000000E+00  0.17451978826E+04  0.25755947104E+04  0.18941944100E+04 0.  0.
        5    1    3    3  502    0  0.65560523641E+03 -0.37504072401E+03  0.16495483510E+04  0.18142507057E+04  0.46999998093E+01 0. -1.
       -5    1    3    3    0  502 -0.65560523641E+03  0.37504072401E+03  0.95649531573E+02  0.76134400474E+03  0.46999998093E+01 0.  1.
</event>
<event>
 5   0  0.4839293E-04  0.1840795E+04  0.7818609E-02  0.8684901E-01
       -2   -1    0    0    0  501  0.00000000000E+00  0.00000000000E+00  0.72126356684E+03  0.72126356684E+03  0.25500000920E-02 0. -1.
        2   -1    0    0  501    0  0.00000000000E+00  0.00000000000E+00 -0.11745101913E+04  0.11745101913E+04  0.25500000920E-02 0.  1.
    10030    2    1    2    0    0  0.00000000000E+00  0.00000000000E+00 -0.45324662444E+03  0.18957737581E+04  0.18407948390E+04 0.  0.
        5    1    3    3  502    0  0.62554446930E+03 -0.66602673331E+03 -0.11281566472E+03  0.92067744447E+03  0.46999998093E+01 0.  1.
       -5    1    3    3    0  502 -0.62554446930E+03  0.66602673331E+03 -0.34043095971E+03  0.97509631364E+03  0.46999998093E+01 0. -1.
</event>
<event>
 5   0  0.4829134E-04  0.1919632E+04  0.7818609E-02  0.8645146E-01
       -2   -1    0    0    0  501  0.00000000000E+00  0.00000000000E+00  0.37264465585E+03  0.37264465586E+03  0.25500000920E-02 0.  1.
        2   -1    0    0  501    0  0.00000000000E+00  0.00000000000E+00 -0.24721853884E+04  0.24721853884E+04  0.25500000920E-02 0. -1.
    10030    2    1    2    0    0  0.00000000000E+00  0.00000000000E+00 -0.20995407325E+04  0.28448300443E+04  0.19196319160E+04 0.  0.
        2    1    3    3  502    0  0.62701569301E+03 -0.41385388310E+03 -0.16452276599E+03  0.76908481742E+03  0.25500000920E-02 0.  1.
       -2    1    3    3    0  502 -0.62701569301E+03  0.41385388310E+03 -0.19350179666E+04  0.20757452268E+04  0.25500000920E-02 0. -1.
</event>
<event>
 5   0  0.2261755E-04  0.1711793E+04  0.7818609E-02  0.8754667E-01
       -1   -1    0    0    0  501  0.00000000000E+00  0.00000000000E+00  0.61742718965E+03  0.61742718967E+03  0.50400001928E-02 0.  1.
        1   -1    0    0  501    0  0.00000000000E+00  0.00000000000E+00 -0.11864701376E+04  0.11864701376E+04  0.50400001928E-02 0. -1.
    10030    2    1    2    0    0  0.00000000000E+00  0.00000000000E+00 -0.56904294791E+03  0.18038973273E+04  0.17117931215E+04 0.  0.
        1    1    3    3  502    0 -0.25142001680E+03  0.55550430780E+03  0.34843063022E+03  0.70228268164E+03  0.50400001928E-02 0.  1.
       -1    1    3    3    0  502  0.25142001680E+03 -0.55550430780E+03 -0.91747357813E+03  0.11016146456E+04  0.50400001928E-02 0. -1.
</event>
<event>
 5   0  0.2317458E-04  0.1900211E+04  0.7818609E-02  0.8654751E-01
        1   -1    0    0  501    0  0.00000000000E+00  0.00000000000E+00  0.23052048674E+04  0.23052048674E+04  0.50400001928E-02 0. -1.
       -1   -1    0    0    0  501  0.00000000000E+00  0.00000000000E+00 -0.39159247357E+03  0.39159247360E+03  0.50400001928E-02 0.  1.
    10030    2    1    2    0    0  0.00000000000E+00  0.00000000000E+00  0.19136123939E+04  0.26967973410E+04  0.19002114368E+04 0.  0.
        3    1    3    3  502    0 -0.73837411389E+03  0.40753538288E+03  0.15777315754E+04  0.17889992606E+04  0.10100000352E+00 0. -1.
       -3    1    3    3    0  502  0.73837411389E+03 -0.40753538288E+03  0.33588081845E+03  0.90779808039E+03  0.10100000352E+00 0.  1.
</event>
<event>
 5   0  0.4761944E-04  0.1776541E+04  0.7818609E-02  0.8718875E-01
       -2   -1    0    0    0  501  0.00000000000E+00  0.00000000000E+00  0.90569294837E+03  0.90569294837E+03  0.25500000920E-02 0.  1.
        2   -1    0    0  501    0  0.00000000000E+00  0.00000000000E+00 -0.87118295087E+03  0.87118295088E+03  0.25500000920E-02 0. -1.
    10030    2    1    2    0    0  0.00000000000E+00  0.00000000000E+00  0.34509997491E+02  0.17768758992E+04  0.17765407458E+04 0.  0.
        4    1    3    3  502    0  0.45955501048E+03  0.75007472727E+03 -0.10613657879E+03  0.88604147217E+03  0.12699999809E+01 0. -1.
       -4    1    3    3    0  502 -0.45955501048E+03 -0.75007472727E+03  0.14064657628E+03  0.89083442708E+03  0.12699999809E+01 0.  1.
</event>
<event>
 5   0  0.4761944E-04  0.1907103E+04  0.7818609E-02  0.8651329E-01
       -2   -1    0    0    0  501  0.00000000000E+00  0.00000000000E+00  0.18850217453E+04  0.18850217453E+04  0.25500000920E-02 0.  1.
        2   -1    0    0  501    0  0.00000000000E+00  0.00000000000E+00 -0.48236064131E+03  0.48236064132E+03  0.25500000920E-02 0. -1.
    10030    2    1    2    0    0  0.00000000000E+00  0.00000000000E+00  0.14026611040E+04  0.23673823866E+04  0.19071028267E+04 0.  0.
        4    1    3    3  502    0  0.41188716290E+03 -0.60784327233E+03 -0.53890197608E+02  0.73622703358E+03  0.12699999809E+01 0. -1.
       -4    1    3    3    0  502 -0.41188716290E+03  0.60784327233E+03  0.14565513016E+04  0.16311553530E+04  0.12699999809E+01 0.  1.
</event>
<event>
 5   0  0.4973411E-04  0.1920018E+04  0.7818609E-02  0.8644956E-01
       -2   -1    0    0    0  501  0.00000000000E+00  0.00000000000E+00  0.35503557219E+03  0.35503557219E+03  0.25500000920E-02 0. -1.
        2   -1    0    0  501    0  0.00000000000E+00  0.00000000000E+00 -0.25958435869E+04  0.25958435870E+04  0.25500000920E-02 0.  1.
    10030    2    1    2    0    0  0.00000000000E+00  0.00000000000E+00 -0.22408080148E+04  0.29508791591E+04  0.19200175137E+04 0.  0.
        1    1    3    3  502    0  0.34714666977E+03  0.75471248918E+03 -0.18599000597E+04  0.20369904231E+04  0.50400001928E-02 0.  1.
       -1    1    3    3    0  502 -0.34714666977E+03 -0.75471248918E+03 -0.38090795508E+03  0.91388873607E+03  0.50400001928E-02 0. -1.
</event>
<event>
 5   0  0.1729375E-04  0.1878719E+04  0.7818609E-02  0.8665523E-01
       -4   -1    0    0    0  501  0.00000000000E+00  0.00000000000E+00  0.90870585684E+03  0.90870674431E+03  0.12699999809E+01 0.  1.
        4   -1    0    0  501    0  0.00000000000E+00  0.00000000000E+00 -0.97104496157E+03  0.97104579207E+03  0.12699999809E+01 0. -1.
    10030    2    1    2    0    0  0.00000000000E+00  0.00000000000E+00 -0.62339104735E+02  0.18797525364E+04  0.18787185617E+04 0.  0.
        4    1    3    3  502    0 -0.50566585401E+03 -0.76387450964E+03  0.17677173447E+03  0.93298021490E+03  0.12699999809E+01 0.  1.
       -4    1    3    3    0  502  0.50566585401E+03  0.76387450964E+03 -0.23911083921E+03  0.94677232147E+03  0.12699999809E+01 0. -1.
</event>
<event>
 5   0  0.2317458E-04  0.1850503E+04  0.7818609E-02  0.8679894E-01
       -1   -1    0    0    0  501  0.00000000000E+00  0.00000000000E+00  0.63806130196E+03  0.63806130198E+03  0.50400001928E-02 0.  1.
        1   -1    0    0  501    0  0.00000000000E+00  0.00000000000E+00 -0.13417059908E+04  0.13417059908E+04  0.50400001928E-02 0. -1.
    10030    2    1    2    0    0  0.00000000000E+00  0.00000000000E+00 -0.70364468880E+03  0.19797672928E+04  0.18505033600E+04 0.  0.
        3    1    3    3  502    0  0.91019823552E+03 -0.89369495344E+02 -0.50176574737E+03  0.10431762124E+04  0.10100000352E+00 0. -1.
       -3    1    3    3    0  502 -0.91019823552E+03  0.89369495344E+02 -0.20187894144E+03  0.93659108038E+03  0.10100000352E+00 0.  1.
</event>
<event>
 5   0  0.2261755E-04  0.1935397E+04  0.7818609E-02  0.8637435E-01
        1   -1    0    0  501    0  0.00000000000E+00  0.00000000000E+00  0.17931281101E+04  0.17931281101E+04  0.50400001928E-02 0.  1.
       -1   -1    0    0    0  501  0.00000000000E+00  0.00000000000E+00 -0.52223846276E+03  0.52223846278E+03  0.50400001928E-02 0. -1.
    10030    2    1    2    0    0  0.00000000000E+00  0.00000000000E+00  0.12708896474E+04  0.23153665729E+04  0.19353970836E+04 0.  0.
        1    1    3    3  502    0  0.13154553622E+03  0.91963968266E+03  0.95955676016E+03  0.13355862196E+04  0.50400001928E-02 0.  1.
       -1    1    3    3    0  502 -0.13154553622E+03 -0.91963968266E+03  0.31133288719E+03  0.97978035329E+03  0.50400001928E-02 0. -1.
</event>
<event>
 5   0  0.4829134E-04  0.1911242E+04  0.7818609E-02  0.8649281E-01
       -2   -1    0    0    0  501  0.00000000000E+00  0.00000000000E+00  0.12757440800E+04  0.12757440800E+04  0.25500000920E-02 0. -1.
        2   -1    0    0  501    0  0.00000000000E+00  0.00000000000E+00 -0.71582634126E+03  0.71582634126E+03  0.25500000920E-02 0.  1.
    10030    2    1    2    0    0  0.00000000000E+00  0.00000000000E+00  0.55991773871E+03  0.19915704212E+04  0.19112417086E+04 0.  0.
        2    1    3    3  502    0 -0.60942375621E+03 -0.56140944776E+03  0.77602770856E+03  0.11352519047E+04  0.25500000920E-02 0. -1.
       -2    1    3    3    0  502  0.60942375621E+03  0.56140944776E+03 -0.21610996986E+03  0.85631851653E+03  0.25500000920E-02 0.  1.
</event>
<event>
 5   0  0.2355414E-04  0.1884314E+04  0.7818609E-02  0.8662704E-01
       -1   -1    0    0    0  501  0.00000000000E+00  0.00000000000E+00  0.70651808916E+03  0.70651808918E+03  0.50400001928E-02 0. -1.
        1   -1    0    0  501    0  0.00000000000E+00  0.00000000000E+00 -0.12563861323E+04  0.12563861323E+04  0.50400001928E-02 0.  1.
    10030    2    1    2    0    0  0.00000000000E+00  0.00000000000E+00 -0.54986804311E+03  0.19629042215E+04  0.18843136994E+04 0.  0.
        5    1    3    3  502    0 -0.58347237949E+03  0.73962383657E+03 -0.28786136754E+03  0.98507344608E+03  0.46999998093E+01 0. -1.
       -5    1    3    3    0  502  0.58347237949E+03 -0.73962383657E+03 -0.26200667557E+03  0.97783077539E+03  0.46999998093E+01 0.  1.
</event>
<event>
 5   0  0.2317458E-04  0.1914899E+04  0.7818609E-02  0.8647475E-01
        1   -1    0    0  501    0  0.00000000000E+00  0.00000000000E+00  0.69545764292E+03  0.69545764294E+03  0.50400001928E-02 0.  1.
       -1   -1    0    0    0  501  0.00000000000E+00  0.00000000000E+00 -0.13181391420E+04  0.13181391420E+04  0.50400001928E-02 0. -1.
    10030    2    1    2    0    0  0.00000000000E+00  0.00000000000E+00 -0.62268149904E+03  0.20135967849E+04  0.19148994133E+04 0.  0.
        3    1    3    3  502    0 -0.29511325684E+03  0.40416088073E+03 -0.11696669111E+04  0.12722258231E+04  0.10100000352E+00 0. -1.
       -3    1    3    3    0  502  0.29511325684E+03 -0.40416088073E+03  0.54698541203E+03  0.74137096183E+03  0.10100000352E+00 0.  1.
</event>
<event>
 5   0  0.2376359E-04  0.1964609E+04  0.7818609E-02  0.8623348E-01
       -1   -1    0    0    0  501  0.00000000000E+00  0.00000000000E+00  0.58325241841E+03  0.58325241843E+03  0.50400001928E-02 0. -1.
        1   -1    0    0  501    0  0.00000000000E+00  0.00000000000E+00 -0.16543813080E+04  0.16543813080E+04  0.50400001928E-02 0.  1.
    10030    2    1    2    0    0  0.00000000000E+00  0.00000000000E+00 -0.10711288896E+04  0.22376337264E+04  0.19646087640E+04 0.  0.
        2    1    3    3  502    0  0.30780948896E+03  0.61459679290E+03 -0.13348320830E+04  0.15014168606E+04  0.25500000920E-02 0.  1.
       -2    1    3    3    0  502 -0.30780948896E+03 -0.61459679290E+03  0.26370319344E+03  0.73621686586E+03  0.25500000920E-02 0. -1.
</event>
<event>
 5   0  0.4829134E-04  0.2033034E+04  0.7818609E-02  0.8591330E-01
       -2   -1    0    0    0  501  0.00000000000E+00  0.00000000000E+00  0.45793967074E+03  0.45793967074E+03  0.25500000920E-02 0.  1.
        2   -1    0    0  501    0  0.00000000000E+00  0.00000000000E+00 -0.22564249659E+04  0.22564249659E+04  0.25500000920E-02 0. -1.
    10030    2    1    2    0    0  0.00000000000E+00  0.00000000000E+00 -0.17984852952E+04  0.27143646366E+04  0.20330336996E+04 0.  0.
        2    1    3    3  502    0  0.94699116895E+03  0.36309953721E+03 -0.80797443464E+03  0.12967097729E+04  0.25500000920E-02 0. -1.
       -2    1    3    3    0  502 -0.94699116895E+03 -0.36309953721E+03 -0.99051086052E+03  0.14176548638E+04  0.25500000920E-02 0.  1.
</event>
<event>
 5   0  0.4802635E-04  0.1860083E+04  0.7818609E-02  0.8674985E-01
        2   -1    0    0  501    0  0.00000000000E+00  0.00000000000E+00  0.45994418736E+03  0.45994418737E+03  0.25500000920E-02 0.  1.
       -2   -1    0    0    0  501  0.00000000000E+00  0.00000000000E+00 -0.18806135024E+04  0.18806135024E+04  0.25500000920E-02 0. -1.
    10030    2    1    2    0    0  0.00000000000E+00  0.00000000000E+00 -0.14206693151E+04  0.23405576898E+04  0.18600830617E+04 0.  0.
        3    1    3    3  502    0 -0.38843942362E+03  0.68203962968E+03 -0.82548593059E+02  0.78922590093E+03  0.10100000352E+00 0.  1.
       -3    1    3    3    0  502  0.38843942362E+03 -0.68203962968E+03 -0.13381207220E+04  0.15513317889E+04  0.10100000352E+00 0. -1.
</event>
<event>
 5   0  0.2355414E-04  0.1921058E+04  0.7818609E-02  0.8644445E-01
       -1   -1    0    0    0  501  0.00000000000E+00  0.00000000000E+00  0.57968639338E+03  0.57968639340E+03  0.50400001928E-02 0.  1.
        1   -1    0    0  501    0  0.00000000000E+00  0.00000000000E+00 -0.15915773844E+04  0.15915773844E+04  0.50400001928E-02 0. -1.
    10030    2    1    2    0    0  0.00000000000E+00  0.00000000000E+00 -0.10118909910E+04  0.21712637778E+04  0.19210577855E+04 0.  0.
        5    1    3    3  502    0  0.11746186987E+03  0.93697953290E+03 -0.70451402511E+03  0.11781723293E+04  0.46999998093E+01 0.  1.
       -5    1    3    3    0  502 -0.11746186987E+03 -0.93697953290E+03 -0.30737696592E+03  0.99309144852E+03  0.46999998093E+01 0. -1.
</event>
<event>
 5   0  0.2261755E-04  0.1918829E+04  0.7818609E-02  0.8645540E-01
       -1   -1    0    0    0  501  0.00000000000E+00  0.00000000000E+00  0.15087597730E+04  0.15087597730E+04  0.50400001928E-02 0.  1.
        1   -1    0    0  501    0  0.00000000000E+00  0.00000000000E+00 -0.61008822536E+03  0.61008822538E+03  0.50400001928E-02 0. -1.
    10030    2    1    2    0    0  0.00000000000E+00  0.00000000000E+00  0.89867154760E+03  0.21188479983E+04  0.19188294061E+04 0.  0.
        1    1    3    3  502    0 -0.56197410279E+02 -0.68068332009E+02 -0.60559490753E+03  0.61199398591E+03  0.50400001928E-02 0. -1.
       -1    1    3    3    0  502  0.56197410279E+02  0.68068332009E+02  0.15042664551E+04  0.15068540124E+04  0.50400001928E-02 0.  1.
</event>
<event>
 5   0  0.2355414E-04  0.1944686E+04  0.7818609E-02  0.8632928E-01
       -1   -1    0    0    0  501  0.00000000000E+00  0.00000000000E+00  0.38483627686E+03  0.38483627689E+03  0.50400001928E-02 0.  1.
        1   -1    0    0  501    0  0.00000000000E+00  0.00000000000E+00 -0.24567603298E+04  0.24567603298E+04  0.50400001928E-02 0. -1.
    10030    2    1    2    0    0  0.00000000000E+00  0.00000000000E+00 -0.20719240529E+04  0.28415966067E+04  0.19446855772E+04 0.  0.
        5    1    3    3  502    0  0.52245965749E+03  0.64646798735E+03 -0.17731767504E+04  0.19583316447E+04  0.46999998093E+01 0.  1.
       -5    1    3    3    0  502 -0.52245965749E+03 -0.64646798735E+03 -0.29874730253E+03  0.88326496202E+03  0.46999998093E+01 0. -1.
</event>
<event>
 5   0  0.4839293E-04  0.1746394E+04  0.7818609E-02  0.8735337E-01
       -2   -1    0    0    0  501  0.00000000000E+00  0.00000000000E+00  0.12332790814E+04  0.12332790814E+04  0.25500000920E-02 0. -1.
        2   -1    0    0  501    0  0.00000000000E+00  0.00000000000E+00 -0.61824887945E+03  0.61824887946E+03  0.25500000920E-02 0.  1.
    10030    2    1    2    0    0  0.00000000000E+00  0.00000000000E+00  0.61503020190E+03  0.18515279608E+04  0.17463944687E+04 0.  0.
        5    1    3    3  502    0 -0.29843307316E+03  0.14200773366E+03  0.11643923328E+04  0.12103966665E+04  0.46999998093E+01 0. -1.
       -5    1    3    3    0  502  0.29843307316E+03 -0.14200773366E+03 -0.54936213095E+03  0.64113129427E+03  0.46999998093E+01 0.  1.
</event>
<event>
 5   0  0.1729375E-04  0.1818969E+04  0.7818609E-02  0.8696277E-01
       -3   -1    0    0    0  501  0.00000000000E+00  0.00000000000E+00  0.10346225332E+04  0.10346225381E+04  0.10100000352E+00 0. -1.
        3   -1    0    0  501    0  0.00000000000E+00  0.00000000000E+00 -0.79948161566E+03  0.79948162204E+03  0.10100000352E+00 0.  1.
    10030    2    1    2    0    0  0.00000000000E+00  0.00000000000E+00  0.23514091755E+03  0.18341041602E+04  0.18189686142E+04 0.  0.
        3    1    3    3  502    0  0.51427874391E+03  0.59128196576E+02  0.87157808948E+03  0.10137194613E+04  0.10100000352E+00 0. -1.
       -3    1    3    3    0  502 -0.51427874391E+03 -0.59128196576E+02 -0.63643717193E+03  0.82038469883E+03  0.10100000352E+00 0.  1.
</event>
<event>
 5   0  0.4829134E-04  0.1841598E+04  0.7818609E-02  0.8684486E-01
        2   -1    0    0  501    0  0.00000000000E+00  0.00000000000E+00  0.12421920846E+04  0.12421920846E+04  0.25500000920E-02 0. -1.
       -2   -1    0    0    0  501  0.00000000000E+00  0.00000000000E+00 -0.68256032135E+03  0.68256032136E+03  0.25500000920E-02 0.  1.
    10030    2    1    2    0    0  0.00000000000E+00  0.00000000000E+00  0.55963176322E+03  0.19247524059E+04  0.18415982498E+04 0.  0.
        2    1    3    3  502    0 -0.23738678028E+03 -0.49046430985E+03 -0.49596900643E+03  0.73681271571E+03  0.25500000920E-02 0.  1.
       -2    1    3    3    0  502  0.23738678028E+03  0.49046430985E+03  0.10556007696E+04  0.11879396902E+04  0.25500000920E-02 0. -1.
</event>
<event>
 5   0  0.4829134E-04  0.1895048E+04  0.7818609E-02  0.8657325E-01
       -2   -1    0    0    0  501  0.00000000000E+00  0.00000000000E+00  0.10637632898E+04  0.10637632898E+04  0.25500000920E-02 0. -1.
        2   -1    0    0  501    0  0.00000000000E+00  0.00000000000E+00 -0.84398622655E+03  0.84398622656E+03  0.25500000920E-02 0.  1.
    10030    2    1    2    0    0  0.00000000000E+00  0.00000000000E+00  0.21977706329E+03  0.19077495164E+04  0.18950478252E+04 0.  0.
        2    1    3    3  502    0  0.67598765724E+03  0.15120038964E+03  0.76073610356E+03  0.10288538720E+04  0.25500000920E-02 0. -1.
       -2    1    3    3    0  502 -0.67598765724E+03 -0.15120038964E+03 -0.54095904027E+03  0.87889564445E+03  0.25500000920E-02 0.  1.
</event>
<event>
 5   0  0.4839293E-04  0.1856174E+04  0.7818609E-02  0.8676984E-01
        2   -1    0    0  501    0  0.00000000000E+00  0.00000000000E+00  0.83966503604E+03  0.83966503604E+03  0.25500000920E-02 0. -1.
       -2   -1    0    0    0  501  0.00000000000E+00  0.00000000000E+00 -0.10258208371E+04  0.10258208371E+04  0.25500000920E-02 0.  1.
    10030    2    1    2    0    0  0.00000000000E+00  0.00000000000E+00 -0.18615580109E+03  0.18654858732E+04  0.18561744424E+04 0.  0.
        5    1    3    3  502    0  0.13121327743E+03  0.15769009069E+03 -0.10027375672E+04  0.10235173704E+04  0.46999998093E+01 0.  1.
       -5    1    3    3    0  502 -0.13121327743E+03 -0.15769009069E+03  0.81658176611E+03  0.84196850275E+03  0.46999998093E+01 0. -1.
</event>
<event>
 5   0  0.4973411E-04  0.1927582E+04  0.7818609E-02  0.8641247E-01
       -2   -1    0    0    0  501  0.00000000000E+00  0.00000000000E+00  0.97974354370E+03  0.97974354370E+03  0.25500000920E-02 0.  1.
        2   -1    0    0  501    0  0.00000000000E+00  0.00000000000E+00 -0.94809838768E+03  0.94809838769E+03  0.25500000920E-02 0. -1.
    10030    2    1    2    0    0  0.00000000000E+00  0.00000000000E+00  0.31645156019E+02  0.19278419314E+04  0.19275821893E+04 0.  0.
        1    1    3    3  502    0 -0.12355595284E+03 -0.40975193621E+03 -0.84785070491E+03  0.94974393420E+03  0.50400001928E-02 0. -1.
       -1    1    3    3    0  502  0.12355595284E+03  0.40975193621E+03  0.87949586093E+03  0.97809799719E+03  0.50400001928E-02 0.  1.
</event>
<event>
 5   0  0.4829134E-04  0.1908465E+04  0.7818609E-02  0.8650654E-01
       -2   -1    0    0    0  501  0.00000000000E+00  0.00000000000E+00  0.13829105363E+04  0.13829105363E+04  0.25500000920E-02 0.  1.
        2   -1    0    0  501    0  0.00000000000E+00  0.00000000000E+00 -0.65843710920E+03  0.65843710921E+03  0.25500000920E-02 0. -1.
    10030    2    1    2    0    0  0.00000000000E+00  0.00000000000E+00  0.72447342705E+03  0.20413476455E+04  0.19084649494E+04 0.  0.
        2    1    3    3  502    0  0.92855524148E+03 -0.10774511107E+03  0.56724780588E+03  0.10934321738E+04  0.25500000920E-02 0. -1.
       -2    1    3    3    0  502 -0.92855524148E+03  0.10774511107E+03  0.15722562118E+03  0.94791547166E+03  0.25500000920E-02 0.  1.
</event>
<event>
 5   0  0.4973411E-04  0.1980290E+04  0.7818609E-02  0.8615892E-01
       -2   -1    0    0    0  501  0.00000000000E+00  0.00000000000E+00  0.11987430507E+04  0.11987430507E+04  0.25500000920E-02 0.  1.
        2   -1    0    0  501    0  0.00000000000E+00  0.00000000000E+00 -0.81784597354E+03  0.81784597355E+03  0.25500000920E-02 0. -1.
    10030    2    1    2    0    0  0.00000000000E+00  0.00000000000E+00  0.38089707713E+03  0.20165890242E+04  0.19802900568E+04 0.  0.
        1    1    3    3  502    0  0.86934247952E+03  0.12402265035E+03 -0.27537401164E+03  0.92030908439E+03  0.50400001928E-02 0. -1.
       -1    1    3    3    0  502 -0.86934247952E+03 -0.12402265035E+03  0.65627108877E+03  0.10962799398E+04  0.50400001928E-02 0.  1.
</event>
<event>
 5   0  0.2510069E-04  0.1898895E+04  0.7818609E-02  0.8655407E-01
        1   -1    0    0  501    0  0.00000000000E+00  0.00000000000E+00  0.74394209911E+03  0.74394209913E+03  0.50400001928E-02 0.  1.
       -1   -1    0    0    0  501  0.00000000000E+00  0.00000000000E+00 -0.12117211128E+04  0.12117211129E+04  0.50400001928E-02 0. -1.
    10030    2    1    2    0    0  0.00000000000E+00  0.00000000000E+00 -0.46777901373E+03  0.19556632120E+04  0.18988947820E+04 0.  0.
        4    1    3    3  502    0  0.88603279879E+03 -0.33975920573E+03 -0.26577133503E+03  0.98545748454E+03  0.12699999809E+01 0. -1.
       -4    1    3    3    0  502 -0.88603279879E+03  0.33975920573E+03 -0.20200767870E+03  0.97020572744E+03  0.12699999809E+01 0.  1.
</event>
<event>
 5   0  0.2261755E-04  0.1911774E+04  0.7818609E-02  0.8649018E-01
        1   -1    0    0  501    0  0.00000000000E+00  0.00000000000E+00  0.14022575283E+04  0.14022575283E+04  0.50400001928E-02 0. -1.
       -1   -1    0    0    0  501  0.00000000000E+00  0.00000000000E+00 -0.65160624827E+03  0.65160624829E+03  0.50400001928E-02 0.  1.
    10030    2    1    2    0    0  0.00000000000E+00  0.00000000000E+00  0.75065127999E+03  0.20538637766E+04  0.19117738016E+04 0.  0.
        1    1    3    3  502    0  0.28761851340E+03 -0.36413545529E+03 -0.52249062995E+03  0.69879574803E+03  0.50400001928E-02 0.  1.
       -1    1    3    3    0  502 -0.28761851340E+03  0.36413545529E+03  0.12731419099E+04  0.13550680285E+04  0.50400001928E-02 0. -1.
</event>
<event>
 5   0  0.2510069E-04  0.1779054E+04  0.7818609E-02  0.8717518E-01
        1   -1    0    0  501    0  0.00000000000E+00  0.00000000000E+00  0.95584607884E+03  0.95584607885E+03  0.50400001928E-02 0.  1.
       -1   -1    0    0    0  501  0.00000000000E+00  0.00000000000E+00 -0.82780943113E+03  0.82780943114E+03  0.50400001928E-02 0. -1.
    10030    2    1    2    0    0  0.00000000000E+00  0.00000000000E+00  0.12803664771E+03  0.17836555100E+04  0.17790541294E+04 0.  0.
        4    1    3    3  502    0 -0.10797797337E+03 -0.80867875000E+03  0.41938708853E+03  0.91733729149E+03  0.12699999809E+01 0.  1.
       -4    1    3    3    0  502  0.10797797337E+03  0.80867875000E+03 -0.29135044083E+03  0.86631821850E+03  0.12699999809E+01 0. -1.
</event>
<event>
 5   0  0.4761944E-04  0.1680516E+04  0.7818609E-02  0.8772555E-01
       -2   -1    0    0    0  501  0.00000000000E+00  0.00000000000E+00  0.63246580497E+03  0.63246580498E+03  0.25500000920E-02 0. -1.
        2   -1    0    0  501    0  0.00000000000E+00  0.00000000000E+00 -0.11163189008E+04  0.11163189008E+04  0.25500000920E-02 0.  1.
    10030    2    1    2    0    0  0.00000000000E+00  0.00000000000E+00 -0.48385309578E+03  0.17487847057E+04  0.16805160305E+04 0.  0.
        4    1    3    3  502    0 -0.31528514662E+03 -0.38876032479E+02  0.56756617906E+03  0.65042220911E+03  0.12699999809E+01 0. -1.
       -4    1    3    3    0  502  0.31528514662E+03  0.38876032479E+02 -0.10514192748E+04  0.10983624966E+04  0.12699999809E+01 0.  1.
</event>
<event>
 5   0  0.2355414E-04  0.1865537E+04  0.7818609E-02  0.8672204E-01
       -1   -1    0    0    0  501  0.00000000000E+00  0.00000000000E+00  0.69372496272E+03  0.69372496274E+03  0.50400001928E-02 0. -1.
        1   -1    0    0  501    0  0.00000000000E+00  0.00000000000E+00 -0.12541816124E+04  0.12541816124E+04  0.50400001928E-02 0.  1.
    10030    2    1    2    0    0  0.00000000000E+00  0.00000000000E+00 -0.56045664964E+03  0.19479065751E+04  0.18655370190E+04 0.  0.
        5    1    3    3  502    0  0.51683031155E+03  0.42740170843E+03  0.39666106322E+03  0.77919694583E+03  0.46999998093E+01 0. -1.
       -5    1    3    3    0  502 -0.51683031155E+03 -0.42740170843E+03 -0.95711771286E+03  0.11687096293E+04  0.46999998093E+01 0.  1.
</event>
<event>
 5   0  0.2376359E-04  0.1915841E+04  0.7818609E-02  0.8647011E-01
        1   -1    0    0  501    0  0.00000000000E+00  0.00000000000E+00  0.17744576447E+04  0.17744576447E+04  0.50400001928E-02 0.  1.
       -1   -1    0    0    0  501  0.00000000000E+00  0.00000000000E+00 -0.51712249158E+03  0.51712249160E+03  0.50400001928E-02 0. -1.
    10030    2    1    2    0    0  0.00000000000E+00  0.00000000000E+00  0.12573351532E+04  0.22915801363E+04  0.19158412862E+04 0.  0.
        2    1    3    3  502    0  0.59026387044E+01 -0.52012497131E+03 -0.33348396313E+03  0.61788055528E+03  0.25500000920E-02 0. -1.
       -2    1    3    3    0  502 -0.59026387044E+01  0.52012497131E+03  0.15908191163E+04  0.16736995811E+04  0.25500000920E-02 0.  1.
</event>
<event>
 5   0  0.2510069E-04  0.1864540E+04  0.7818609E-02  0.8672711E-01
       -1   -1    0    0    0  501  0.00000000000E+00  0.00000000000E+00  0.36872017623E+03  0.36872017627E+03  0.50400001928E-02 0.  1.
        1   -1    0    0  501    0  0.00000000000E+00  0.00000000000E+00 -0.23571466233E+04  0.23571466233E+04  0.50400001928E-02 0. -1.
    10030    2    1    2    0    0  0.00000000000E+00  0.00000000000E+00 -0.19884264470E+04  0.27258667996E+04  0.18645401775E+04 0.  0.
        4    1    3    3  502    0 -0.49675142419E+03 -0.72675483937E+03 -0.54553152824E+03  0.10356354741E+04  0.12699999809E+01 0.  1.
       -4    1    3    3    0  502  0.49675142419E+03  0.72675483937E+03 -0.14428949188E+04  0.16902313255E+04  0.12699999809E+01 0. -1.
</event>
<event>
 5   0  0.2261755E-04  0.1876376E+04  0.7818609E-02  0.8666706E-01
        1   -1    0    0  501    0  0.00000000000E+00  0.00000000000E+00  0.58294477050E+03  0.58294477052E+03  0.50400001928E-02 0. -1.
       -1   -1    0    0    0  501  0.00000000000E+00  0.00000000000E+00 -0.15099140577E+04  0.15099140577E+04  0.50400001928E-02 0.  1.
    10030    2    1    2    0    0  0.00000000000E+00  0.00000000000E+00 -0.92696928724E+03  0.20928588283E+04  0.18763757661E+04 0.  0.
        1    1    3    3  502    0 -0.79151829474E+03 -0.13456914344E+03 -0.10048559860E+04  0.12862136751E+04  0.50400001928E-02 0.  1.
       -1    1    3    3    0  502  0.79151829474E+03  0.13456914344E+03  0.77886698800E+02  0.80664515318E+03  0.50400001928E-02 0. -1.
</event>
<event>
 5   0  0.4802635E-04  0.1894513E+04  0.7818609E-02  0.8657593E-01
        2   -1    0    0  501    0  0.00000000000E+00  0.00000000000E+00  0.25616520294E+04  0.25616520294E+04  0.25500000920E-02 0. -1.
       -2   -1    0    0    0  501  0.00000000000E+00  0.00000000000E+00 -0.35027962135E+03  0.35027962136E+03  0.25500000920E-02 0.  1.
    10030    2    1    2    0    0  0.00000000000E+00  0.00000000000E+00  0.22113724081E+04  0.29119316508E+04  0.18945126053E+04 0.  0.
        3    1    3    3  502    0  0.76373258173E+03  0.36431662807E+03  0.45126232154E+03  0.95898475218E+03  0.10100000352E+00 0.  1.
       -3    1    3    3    0  502 -0.76373258173E+03 -0.36431662807E+03  0.17601100865E+04  0.19529468986E+04  0.10100000352E+00 0. -1.
</event>
<event>
 5   0  0.2376359E-04  0.1006143E+04  0.7818609E-02  0.9301833E-01
       -1   -1    0    0    0  501  0.00000000000E+00  0.00000000000E+00  0.41604688715E+03  0.41604688718E+03  0.50400001928E-02 0.  1.
        1   -1    0    0  501    0  0.00000000000E+00  0.00000000000E+00 -0.60829883625E+03  0.60829883627E+03  0.50400001928E-02 0. -1.
    10030    2    1    2    0    0  0.00000000000E+00  0.00000000000E+00 -0.19225194910E+03  0.10243457234E+04  0.10061428076E+04 0.  0.
        2    1    3    3  502    0  0.99633915677E+02 -0.17234855369E+02 -0.59784681052E+03  0.60633717208E+03  0.25500000920E-02 0. -1.
       -2    1    3    3    0  502 -0.99633915677E+02  0.17234855369E+02  0.40559486142E+03  0.41800855136E+03  0.25500000920E-02 0.  1.
</event>
<event>
 5   0  0.4802635E-04  0.1896903E+04  0.7818609E-02  0.8656400E-01
        2   -1    0    0  501    0  0.00000000000E+00  0.00000000000E+00  0.15223917106E+04  0.15223917106E+04  0.25500000920E-02 0. -1.
       -2   -1    0    0    0  501  0.00000000000E+00  0.00000000000E+00 -0.59088601629E+03  0.59088601630E+03  0.25500000920E-02 0.  1.
    10030    2    1    2    0    0  0.00000000000E+00  0.00000000000E+00  0.93150569427E+03  0.21132777269E+04  0.18969027103E+04 0.  0.
        3    1    3    3  502    0  0.74082173200E+03 -0.52590864665E+03  0.16235967232E+03  0.92290704657E+03  0.10100000352E+00 0.  1.
       -3    1    3    3    0  502 -0.74082173200E+03  0.52590864665E+03  0.76914602195E+03  0.11903706803E+04  0.10100000352E+00 0. -1.
</event>
<event>
 5   0  0.2355414E-04  0.2000807E+04  0.7818609E-02  0.8606243E-01
       -1   -1    0    0    0  501  0.00000000000E+00  0.00000000000E+00  0.89751667603E+03  0.89751667604E+03  0.50400001928E-02 0.  1.
        1   -1    0    0  501    0  0.00000000000E+00  0.00000000000E+00 -0.11150852499E+04  0.11150852499E+04  0.50400001928E-02 0. -1.
    10030    2    1    2    0    0  0.00000000000E+00  0.00000000000E+00 -0.21756857388E+03  0.20126019260E+04  0.20008074440E+04 0.  0.
        5    1    3    3  502    0  0.28882685988E+03 -0.69696937462E+03  0.55204978764E+03  0.93486272906E+03  0.46999998093E+01 0.  1.
       -5    1    3    3    0  502 -0.28882685988E+03  0.69696937462E+03 -0.76961836152E+03  0.10777391969E+04  0.46999998093E+01 0. -1.
</event>
<event>
 5   0  0.4802635E-04  0.1749477E+04  0.7818609E-02  0.8733638E-01
       -2   -1    0    0    0  501  0.00000000000E+00  0.00000000000E+00  0.12907513283E+04  0.12907513283E+04  0.25500000920E-02 0. -1.
        2   -1    0    0  501    0  0.00000000000E+00  0.00000000000E+00 -0.59280782138E+03  0.59280782139E+03  0.25500000920E-02 0.  1.
    10030    2    1    2    0    0  0.00000000000E+00  0.00000000000E+00  0.69794350689E+03  0.18835591497E+04  0.17494770451E+04 0.  0.
        3    1    3    3  502    0  0.18127403057E+03  0.81805215145E+03  0.78527109618E+02  0.84156765254E+03  0.10100000352E+00 0. -1.
       -3    1    3    3    0  502 -0.18127403057E+03 -0.81805215145E+03  0.61941639727E+03  0.10419914971E+04  0.10100000352E+00 0.  1.
</event>
<event>
 5   0  0.2317458E-04  0.1875575E+04  0.7818609E-02  0.8667111E-01
       -1   -1    0    0    0  501  0.00000000000E+00  0.00000000000E+00  0.42549100403E+03  0.42549100406E+03  0.50400001928E-02 0.  1.
        1   -1    0    0  501    0  0.00000000000E+00  0.00000000000E+00 -0.20668950903E+04  0.20668950903E+04  0.50400001928E-02 0. -1.
    10030    2    1    2    0    0  0.00000000000E+00  0.00000000000E+00 -0.16414040862E+04  0.24923860943E+04  0.18755748636E+04 0.  0.
        3    1    3    3  502    0  0.46359243001E+03 -0.79172916497E+03 -0.56270963888E+03  0.10762876752E+04  0.10100000352E+00 0.  1.
       -3    1    3    3    0  502 -0.46359243001E+03  0.79172916497E+03 -0.10786944473E+04  0.14160984192E+04  0.10100000352E+00 0. -1.
</event>
<event>
 5   0  0.2355414E-04  0.1873996E+04  0.7818609E-02  0.8667910E-01
        1   -1    0    0  501    0  0.00000000000E+00  0.00000000000E+00  0.78691046494E+03  0.78691046496E+03  0.50400001928E-02 0. -1.
       -1   -1    0    0    0  501  0.00000000000E+00  0.00000000000E+00 -0.11157113004E+04  0.11157113004E+04  0.50400001928E-02 0.  1.
    10030    2    1    2    0    0  0.00000000000E+00  0.00000000000E+00 -0.32880083549E+03  0.19026217654E+04  0.18739956224E+04 0.  0.
        5    1    3    3  502    0 -0.66705908229E+03  0.26867154151E+03 -0.77423421652E+03  0.10566990719E+04  0.46999998093E+01 0.  1.
       -5    1    3    3    0  502  0.66705908229E+03 -0.26867154151E+03  0.44543338102E+03  0.84592269352E+03  0.46999998093E+01 0. -1.
</event>
<event>
 5   0  0.4839293E-04  0.1888081E+04  0.7818609E-02  0.8660812E-01
       -2   -1    0    0    0  501  0.00000000000E+00  0.00000000000E+00  0.14465060964E+04  0.14465060964E+04  0.25500000920E-02 0.  1.
        2   -1    0    0  501    0  0.00000000000E+00  0.00000000000E+00 -0.61611376228E+03  0.61611376229E+03  0.25500000920E-02 0. -1.
    10030    2    1    2    0    0  0.00000000000E+00  0.00000000000E+00  0.83039233415E+03  0.20626198587E+04  0.18880808386E+04 0.  0.
        5    1    3    3  502    0 -0.56191361432E+02  0.64089293213E+03 -0.33952985528E+03  0.72746397312E+03  0.46999998093E+01 0. -1.
       -5    1    3    3    0  502  0.56191361432E+02 -0.64089293213E+03  0.11699221894E+04  0.13351558856E+04  0.46999998093E+01 0.  1.
</event>
<event>
 5   0  0.2317458E-04  0.1738922E+04  0.7818609E-02  0.8739472E-01
        1   -1    0    0  501    0  0.00000000000E+00  0.00000000000E+00  0.36492105945E+03  0.36492105948E+03  0.50400001928E-02 0. -1.
       -1   -1    0    0    0  501  0.00000000000E+00  0.00000000000E+00 -0.20715781060E+04  0.20715781061E+04  0.50400001928E-02 0.  1.
    10030    2    1    2    0    0  0.00000000000E+00  0.00000000000E+00 -0.17066570466E+04  0.24364991655E+04  0.17389220537E+04 0.  0.
        3    1    3    3  502    0 -0.16464497058E+03  0.71443194452E+03 -0.15081964551E+04  0.16769548375E+04  0.10100000352E+00 0.  1.
       -3    1    3    3    0  502  0.16464497058E+03 -0.71443194452E+03 -0.19846059154E+03  0.75954432806E+03  0.10100000352E+00 0. -1.
</event>
<event>
 5   0  0.2376359E-04  0.1246655E+04  0.7818609E-02  0.9072972E-01
       -1   -1    0    0    0  501  0.00000000000E+00  0.00000000000E+00  0.35445462788E+03  0.35445462792E+03  0.50400001928E-02 0. -1.
        1   -1    0    0  501    0  0.00000000000E+00  0.00000000000E+00 -0.10961552438E+04  0.10961552438E+04  0.50400001928E-02 0.  1.
    10030    2    1    2    0    0  0.00000000000E+00  0.00000000000E+00 -0.74170061592E+03  0.14506098717E+04  0.12466552035E+04 0.  0.
        2    1    3    3  502    0  0.45786300550E+03  0.23709167119E+03  0.36719796747E+02  0.51691327690E+03  0.25500000920E-02 0. -1.
       -2    1    3    3    0  502 -0.45786300550E+03 -0.23709167119E+03 -0.77842041266E+03  0.93369659484E+03  0.25500000920E-02 0.  1.
</event>
<event>
 5   0  0.4829134E-04  0.1539370E+04  0.7818609E-02  0.8858686E-01
       -2   -1    0    0    0  501  0.00000000000E+00  0.00000000000E+00  0.31523349553E+03  0.31523349554E+03  0.25500000920E-02 0. -1.
        2   -1    0    0  501    0  0.00000000000E+00  0.00000000000E+00 -0.18792899876E+04  0.18792899876E+04  0.25500000920E-02 0.  1.
    10030    2    1    2    0    0  0.00000000000E+00  0.00000000000E+00 -0.15640564921E+04  0.21945234831E+04  0.15393701984E+04 0.  0.
        2    1    3    3  502    0  0.71007377363E+03 -0.13470364366E+03 -0.11593820231E+04  0.13662051497E+04  0.25500000920E-02 0.  1.
       -2    1    3    3    0  502 -0.71007377363E+03  0.13470364366E+03 -0.40467446894E+03  0.82831833339E+03  0.25500000920E-02 0. -1.
</event>
<event>
 5   0  0.4829134E-04  0.1855346E+04  0.7818609E-02  0.8677408E-01
       -2   -1    0    0    0  501  0.00000000000E+00  0.00000000000E+00  0.50120562541E+03  0.50120562541E+03  0.25500000920E-02 0.  1.
        2   -1    0    0  501    0  0.00000000000E+00  0.00000000000E+00 -0.17170143695E+04  0.17170143695E+04  0.25500000920E-02 0. -1.
    10030    2    1    2    0    0  0.00000000000E+00  0.00000000000E+00 -0.12158087441E+04  0.22182199949E+04  0.18553460711E+04 0.  0.
        2    1    3    3  502    0  0.38977617428E+03  0.96328792552E+02  0.39194362438E+03  0.56109224466E+03  0.25500000920E-02 0.  1.
       -2    1    3    3    0  502 -0.38977617428E+03 -0.96328792552E+02 -0.16077523685E+04  0.16571277502E+04  0.25500000920E-02 0. -1.
</event>
<event>
 5   0  0.4761944E-04  0.1708615E+04  0.7818609E-02  0.8756466E-01
       -2   -1    0    0    0  501  0.00000000000E+00  0.00000000000E+00  0.30949361386E+03  0.30949361387E+03  0.25500000920E-02 0.  1.
        2   -1    0    0  501    0  0.00000000000E+00  0.00000000000E+00 -0.23581786149E+04  0.23581786149E+04  0.25500000920E-02 0. -1.
    10030    2    1    2    0    0  0.00000000000E+00  0.00000000000E+00 -0.20486850011E+04  0.26676722288E+04  0.17086149030E+04 0.  0.
        4    1    3    3  502    0 -0.58394460177E+03 -0.51454858012E+03 -0.15743305991E+04  0.17562089817E+04  0.12699999809E+01 0.  1.
       -4    1    3    3    0  502  0.58394460177E+03  0.51454858012E+03 -0.47435440196E+03  0.91146324709E+03  0.12699999809E+01 0. -1.
</event>
<event>
 5   0  0.4973411E-04  0.1828125E+04  0.7818609E-02  0.8691484E-01
       -2   -1    0    0    0  501  0.00000000000E+00  0.00000000000E+00  0.55971615292E+03  0.55971615293E+03  0.25500000920E-02 0. -1.
        2   -1    0    0  501    0  0.00000000000E+00  0.00000000000E+00 -0.14927399083E+04  0.14927399083E+04  0.25500000920E-02 0.  1.
    10030    2    1    2    0    0  0.00000000000E+00  0.00000000000E+00 -0.93302375540E+03  0.20524560612E+04  0.18281254211E+04 0.  0.
        1    1    3    3  502    0  0.38550806179E+02 -0.10921329193E+03  0.55144503107E+03  0.56347611316E+03  0.50400001928E-02 0. -1.
       -1    1    3    3    0  502 -0.38550806179E+02  0.10921329193E+03 -0.14844687865E+04  0.14889799481E+04  0.50400001928E-02 0.  1.
</event>
<event>
 5   0  0.1729375E-04  0.1956208E+04  0.7818609E-02  0.8627373E-01
        4   -1    0    0  501    0  0.00000000000E+00  0.00000000000E+00  0.12263064594E+04  0.12263071170E+04  0.12699999809E+01 0.  1.
       -4   -1    0    0    0  501  0.00000000000E+00  0.00000000000E+00 -0.78013586675E+03  0.78013690048E+03  0.12699999809E+01 0. -1.
    10030    2    1    2    0    0  0.00000000000E+00  0.00000000000E+00  0.44617059264E+03  0.20064440175E+04  0.19562079127E+04 0.  0.
        5    1    3    3  502    0 -0.62616701921E+03 -0.23949969051E+03 -0.50739789941E+03  0.84078532101E+03  0.46999998093E+01 0. -1.
       -5    1    3    3    0  502  0.62616701921E+03  0.23949969051E+03  0.95356849204E+03  0.11656586965E+04  0.46999998093E+01 0.  1.
</event>
<event>
 5   0  0.4761944E-04  0.1900279E+04  0.7818609E-02  0.8654717E-01
       -2   -1    0    0    0  501  0.00000000000E+00  0.00000000000E+00  0.78316176103E+03  0.78316176104E+03  0.25500000920E-02 0. -1.
        2   -1    0    0  501    0  0.00000000000E+00  0.00000000000E+00 -0.11527188879E+04  0.11527188879E+04  0.25500000920E-02 0.  1.
    10030    2    1    2    0    0  0.00000000000E+00  0.00000000000E+00 -0.36955712688E+03  0.19358806490E+04  0.19002792997E+04 0.  0.
        4    1    3    3  502    0  0.64704708491E+03 -0.27178205838E+03  0.46771159041E+03  0.84338079303E+03  0.12699999809E+01 0. -1.
       -4    1    3    3    0  502 -0.64704708491E+03  0.27178205838E+03 -0.83726871729E+03  0.10924998559E+04  0.12699999809E+01 0.  1.
</event>
<event>
 5   0  0.4802635E-04  0.1457861E+04  0.7818609E-02  0.8912969E-01
        2   -1    0    0  501    0  0.00000000000E+00  0.00000000000E+00  0.10839911273E+04  0.10839911273E+04  0.25500000920E-02 0.  1.
       -2   -1    0    0    0  501  0.00000000000E+00  0.00000000000E+00 -0.49016945461E+03  0.49016945461E+03  0.25500000920E-02 0. -1.
    10030    2    1    2    0    0  0.00000000000E+00  0.00000000000E+00  0.59382167273E+03  0.15741605820E+04  0.14578605416E+04 0.  0.
        3    1    3    3  502    0 -0.68512447757E+02  0.24311676349E+02  0.10800669560E+04  0.10825108095E+04  0.10100000352E+00 0.  1.
       -3    1    3    3    0  502  0.68512447757E+02 -0.24311676349E+02 -0.48624528323E+03  0.49164977247E+03  0.10100000352E+00 0. -1.
</event>
<event>
 5   0  0.1729375E-04  0.1879536E+04  0.7818609E-02  0.8665110E-01
       -3   -1    0    0    0  501  0.00000000000E+00  0.00000000000E+00  0.23825322270E+04  0.23825322291E+04  0.10100000352E+00 0.  1.
        3   -1    0    0  501    0  0.00000000000E+00  0.00000000000E+00 -0.37068285641E+03  0.37068287017E+03  0.10100000352E+00 0. -1.
    10030    2    1    2    0    0  0.00000000000E+00  0.00000000000E+00  0.20118493705E+04  0.27532150993E+04  0.18795359781E+04 0.  0.
        5    1    3    3  502    0  0.23012095604E+03  0.31806000744E+03 -0.24479619542E+03  0.46267168709E+03  0.46999998093E+01 0. -1.
       -5    1    3    3    0  502 -0.23012095604E+03 -0.31806000744E+03  0.22566455660E+04  0.22905434122E+04  0.46999998093E+01 0.  1.
</event>
<event>
 5   0  0.1729375E-04  0.1960717E+04  0.7818609E-02  0.8625210E-01
       -3   -1    0    0    0  501  0.00000000000E+00  0.00000000000E+00  0.16864761913E+04  0.16864761943E+04  0.10100000352E+00 0.  1.
        3   -1    0    0  501    0  0.00000000000E+00  0.00000000000E+00 -0.56988836584E+03  0.56988837479E+03  0.10100000352E+00 0. -1.
    10030    2    1    2    0    0  0.00000000000E+00  0.00000000000E+00  0.11165878254E+04  0.22563645691E+04  0.19607173934E+04 0.  0.
        5    1    3    3  502    0 -0.52250282087E+01 -0.74654629606E+03 -0.17290527323E+03  0.76634000065E+03  0.46999998093E+01 0. -1.
       -5    1    3    3    0  502  0.52250282087E+01  0.74654629606E+03  0.12894930987E+04  0.14900245685E+04  0.46999998093E+01 0.  1.
</event>
<event>
 5   0  0.2317458E-04  0.1918795E+04  0.7818609E-02  0.8645557E-01
       -1   -1    0    0    0  501  0.00000000000E+00  0.00000000000E+00  0.49076612947E+03  0.49076612950E+03  0.50400001928E-02 0. -1.
        1   -1    0    0  501    0  0.00000000000E+00  0.00000000000E+00 -0.18755234773E+04  0.18755234773E+04  0.50400001928E-02 0.  1.
    10030    2    1    2    0    0  0.00000000000E+00  0.00000000000E+00 -0.13847573478E+04  0.23662896068E+04  0.19187948277E+04 0.  0.
        3    1    3    3  502    0 -0.87890397439E+03  0.36885930570E+03 -0.55777149375E+03  0.11043724159E+04  0.10100000352E+00 0. -1.
       -3    1    3    3    0  502  0.87890397439E+03 -0.36885930570E+03 -0.82698585408E+03  0.12619171909E+04  0.10100000352E+00 0.  1.
</event>
<event>
 5   0  0.4839293E-04  0.1687107E+04  0.7818609E-02  0.8768752E-01
       -2   -1    0    0    0  501  0.00000000000E+00  0.00000000000E+00  0.83982303714E+03  0.83982303714E+03  0.25500000920E-02 0. -1.
        2   -1    0    0  501    0  0.00000000000E+00  0.00000000000E+00 -0.84730066540E+03  0.84730066541E+03  0.25500000920E-02 0.  1.
    10030    2    1    2    0    0  0.00000000000E+00  0.00000000000E+00 -0.74776282667E+01  0.16871237025E+04  0.16871071314E+04 0.  0.
        5    1    3    3  502    0 -0.39605216060E+03  0.38528781506E+03  0.63364999545E+03  0.84073683224E+03  0.46999998093E+01 0. -1.
       -5    1    3    3    0  502  0.39605216060E+03 -0.38528781506E+03 -0.64112762371E+03  0.84638687031E+03  0.46999998093E+01 0.  1.
</event>
<event>
 5   0  0.2510069E-04  0.1884377E+04  0.7818609E-02  0.8662672E-01
       -1   -1    0    0    0  501  0.00000000000E+00  0.00000000000E+00  0.17297884376E+04  0.17297884376E+04  0.50400001928E-02 0.  1.
        1   -1    0    0  501    0  0.00000000000E+00  0.00000000000E+00 -0.51319510320E+03  0.51319510323E+03  0.50400001928E-02 0. -1.
    10030    2    1    2    0    0  0.00000000000E+00  0.00000000000E+00  0.12165933344E+04  0.22429835409E+04  0.18843767732E+04 0.  0.
        4    1    3    3  502    0 -0.33130895927E+03  0.36639017019E+03  0.15632968585E+04  0.16394834747E+04  0.12699999809E+01 0.  1.
       -4    1    3    3    0  502  0.33130895927E+03 -0.36639017019E+03 -0.34670352406E+03  0.60350006612E+03  0.12699999809E+01 0. -1.
</event>
<event>
 5   0  0.4973411E-04  0.1861095E+04  0.7818609E-02  0.8674468E-01
        2   -1    0    0  501    0  0.00000000000E+00  0.00000000000E+00  0.10376114571E+04  0.10376114571E+04  0.25500000920E-02 0. -1.
       -2   -1    0    0    0  501  0.00000000000E+00  0.00000000000E+00 -0.83453076905E+03  0.83453076905E+03  0.25500000920E-02 0.  1.
    10030    2    1    2    0    0  0.00000000000E+00  0.00000000000E+00  0.20308068801E+03  0.18721422261E+04  0.18610950403E+04 0.  0.
        1    1    3    3  502    0  0.21651360194E+02  0.77791454997E+03 -0.41168302017E+03  0.88039919217E+03  0.50400001928E-02 0.  1.
       -1    1    3    3    0  502 -0.21651360194E+02 -0.77791454997E+03  0.61476370817E+03  0.99174303394E+03  0.50400001928E-02 0. -1.
</event>
<event>
 5   0  0.4829134E-04  0.1904200E+04  0.7818609E-02  0.8652769E-01
       -2   -1    0    0    0  501  0.00000000000E+00  0.00000000000E+00  0.87425605291E+03  0.87425605291E+03  0.25500000920E-02 0.  1.
        2   -1    0    0  501    0  0.00000000000E+00  0.00000000000E+00 -0.10368746799E+04  0.10368746799E+04  0.25500000920E-02 0. -1.
    10030    2    1    2    0    0  0.00000000000E+00  0.00000000000E+00 -0.16261862703E+03  0.19111307329E+04  0.19041995327E+04 0.  0.
        2    1    3    3  502    0 -0.65018516518E+03  0.66851767698E+03 -0.27393847043E+03  0.97195623309E+03  0.25500000920E-02 0. -1.
       -2    1    3    3    0  502  0.65018516518E+03 -0.66851767698E+03  0.11131984339E+03  0.93917449976E+03  0.25500000920E-02 0.  1.
</event>
<event>
 5   0  0.2355414E-04  0.1325979E+04  0.7818609E-02  0.9009213E-01
        1   -1    0    0  501    0  0.00000000000E+00  0.00000000000E+00  0.64712062005E+03  0.64712062007E+03  0.50400001928E-02 0. -1.
       -1   -1    0    0    0  501  0.00000000000E+00  0.00000000000E+00 -0.67924782967E+03  0.67924782969E+03  0.50400001928E-02 0.  1.
    10030    2    1    2    0    0  0.00000000000E+00  0.00000000000E+00 -0.32127209622E+02  0.13263684498E+04  0.13259793011E+04 0.  0.
        5    1    3    3  502    0  0.39821802840E+02 -0.58140875206E+03 -0.33224381664E+03  0.67084272124E+03  0.46999998093E+01 0.  1.
       -5    1    3    3    0  502 -0.39821802840E+02  0.58140875206E+03  0.30011660702E+03  0.65552572852E+03  0.46999998093E+01 0. -1.
</event>
<event>
 5   0  0.4761944E-04  0.1924919E+04  0.7818609E-02  0.8642551E-01
        2   -1    0    0  501    0  0.00000000000E+00  0.00000000000E+00  0.11869619709E+04  0.11869619709E+04  0.25500000920E-02 0.  1.
       -2   -1    0    0    0  501  0.00000000000E+00  0.00000000000E+00 -0.78041941357E+03  0.78041941357E+03  0.25500000920E-02 0. -1.
    10030    2    1    2    0    0  0.00000000000E+00  0.00000000000E+00  0.40654255734E+03  0.19673813845E+04  0.19249188713E+04 0.  0.
        4    1    3    3  502    0 -0.76685226525E+03  0.57023297009E+03  0.86297864391E+02  0.95951913539E+03  0.12699999809E+01 0.  1.
       -4    1    3    3    0  502  0.76685226525E+03 -0.57023297009E+03  0.32024469295E+03  0.10078622491E+04  0.12699999809E+01 0. -1.
</event>
<event>
 5   0  0.4839293E-04  0.1928645E+04  0.7818609E-02  0.8640728E-01
        2   -1    0    0  501    0  0.00000000000E+00  0.00000000000E+00  0.13755336733E+04  0.13755336733E+04  0.25500000920E-02 0. -1.
       -2   -1    0    0    0  501  0.00000000000E+00  0.00000000000E+00 -0.67604156648E+03  0.67604156649E+03  0.25500000920E-02 0.  1.
    10030    2    1    2    0    0  0.00000000000E+00  0.00000000000E+00  0.69949210682E+03  0.20515752398E+04  0.19286450573E+04 0.  0.
        5    1    3    3  502    0 -0.57597022847E+03 -0.34349642512E+03 -0.38736020255E+03  0.77446853691E+03  0.46999998093E+01 0.  1.
       -5    1    3    3    0  502  0.57597022847E+03  0.34349642512E+03  0.10868523094E+04  0.12771067029E+04  0.46999998093E+01 0. -1.
</event>
<event>
 5   0  0.2510069E-04  0.1227274E+04  0.7818609E-02  0.9089313E-01
        1   -1    0    0  501    0  0.00000000000E+00  0.00000000000E+00  0.43907648109E+03  0.43907648112E+03  0.50400001928E-02 0.  1.
       -1   -1    0    0    0  501  0.00000000000E+00  0.00000000000E+00 -0.85759670768E+03  0.85759670770E+03  0.50400001928E-02 0. -1.
    10030    2    1    2    0    0  0.00000000000E+00  0.00000000000E+00 -0.41852022659E+03  0.12966731888E+04  0.12272742882E+04 0.  0.
        4    1    3    3  502    0 -0.58130463176E+03 -0.11839635503E+03 -0.37502748358E+03  0.70184043637E+03  0.12699999809E+01 0. -1.
       -4    1    3    3    0  502  0.58130463176E+03  0.11839635503E+03 -0.43492743004E+02  0.59483275244E+03  0.12699999809E+01 0.  1.
</event>
<event>
 5   0  0.4802635E-04  0.1921887E+04  0.7818609E-02  0.8644038E-01
        2   -1    0    0  501    0  0.00000000000E+00  0.00000000000E+00  0.13568247504E+04  0.13568247504E+04  0.25500000920E-02 0. -1.
       -2   -1    0    0    0  501  0.00000000000E+00  0.00000000000E+00 -0.68056857920E+03  0.68056857920E+03  0.25500000920E-02 0.  1.
    10030    2    1    2    0    0  0.00000000000E+00  0.00000000000E+00  0.67625617123E+03  0.20373933296E+04  0.19218868777E+04 0.  0.
        3    1    3    3  502    0  0.55154883887E+03  0.74009125144E+03  0.62153620781E+03  0.11127661254E+04  0.10100000352E+00 0.  1.
       -3    1    3    3    0  502 -0.55154883887E+03 -0.74009125144E+03  0.54719963416E+02  0.92462720418E+03  0.10100000352E+00 0. -1.
</event>
<event>
 5   0  0.1729375E-04  0.1515724E+04  0.7818609E-02  0.8874063E-01
       -3   -1    0    0    0  501  0.00000000000E+00  0.00000000000E+00  0.73744264525E+03  0.73744265217E+03  0.10100000352E+00 0. -1.
        3   -1    0    0  501    0  0.00000000000E+00  0.00000000000E+00 -0.77884685396E+03  0.77884686051E+03  0.10100000352E+00 0.  1.
    10030    2    1    2    0    0  0.00000000000E+00  0.00000000000E+00 -0.41404208707E+02  0.15162895127E+04  0.15157241100E+04 0.  0.
        2    1    3    3  502    0  0.68600519957E+03  0.21319425287E+03 -0.26224604222E+03  0.76474041998E+03  0.25500000920E-02 0. -1.
       -2    1    3    3    0  502 -0.68600519957E+03 -0.21319425287E+03  0.22084183351E+03  0.75154909269E+03  0.25500000920E-02 0.  1.
</event>
<event>
 5   0  0.2317458E-04  0.1882832E+04  0.7818609E-02  0.8663450E-01
       -1   -1    0    0    0  501  0.00000000000E+00  0.00000000000E+00  0.61561989314E+03  0.61561989316E+03  0.50400001928E-02 0. -1.
        1   -1    0    0  501    0  0.00000000000E+00  0.00000000000E+00 -0.14396280592E+04  0.14396280592E+04  0.50400001928E-02 0.  1.
    10030    2    1    2    0    0  0.00000000000E+00  0.00000000000E+00 -0.82400816610E+03  0.20552479524E+04  0.18828315613E+04 0.  0.
        3    1    3    3  502    0 -0.10499720666E+03  0.64819544537E+03  0.32436838438E+03  0.73239102110E+03  0.10100000352E+00 0. -1.
       -3    1    3    3    0  502  0.10499720666E+03 -0.64819544537E+03 -0.11483765505E+04  0.13228569313E+04  0.10100000352E+00 0.  1.
</event>
<event>
 5   0  0.2317458E-04  0.1850296E+04  0.7818609E-02  0.8680001E-01
       -1   -1    0    0    0  501  0.00000000000E+00  0.00000000000E+00  0.10619558675E+04  0.10619558675E+04  0.50400001928E-02 0.  1.
        1   -1    0    0  501    0  0.00000000000E+00  0.00000000000E+00 -0.80596416469E+03  0.80596416470E+03  0.50400001928E-02 0. -1.
    10030    2    1    2    0    0  0.00000000000E+00  0.00000000000E+00  0.25599170284E+03  0.18679200322E+04  0.18502955156E+04 0.  0.
        3    1    3    3  502    0 -0.71740118309E+03 -0.58226334418E+03  0.80609376839E+02  0.92746587070E+03  0.10100000352E+00 0. -1.
       -3    1    3    3    0  502  0.71740118309E+03  0.58226334418E+03  0.17538232600E+03  0.94045416154E+03  0.10100000352E+00 0.  1.
</event>
<event>
 5   0  0.2261755E-04  0.1968188E+04  0.7818609E-02  0.8621640E-01
       -1   -1    0    0    0  501  0.00000000000E+00  0.00000000000E+00  0.53450096146E+03  0.53450096148E+03  0.50400001928E-02 0. -1.
        1   -1    0    0  501    0  0.00000000000E+00  0.00000000000E+00 -0.18118601430E+04  0.18118601430E+04  0.50400001928E-02 0.  1.
    10030    2    1    2    0    0  0.00000000000E+00  0.00000000000E+00 -0.12773591816E+04  0.23463611045E+04  0.19681879875E+04 0.  0.
        1    1    3    3  502    0  0.61396819775E+03 -0.72285463242E+03 -0.95175095101E+03  0.13436166270E+04  0.50400001928E-02 0.  1.
       -1    1    3    3    0  502 -0.61396819775E+03  0.72285463242E+03 -0.32560823057E+03  0.10027444776E+04  0.50400001928E-02 0. -1.
</event>
<event>
 5   0  0.4802635E-04  0.1909151E+04  0.7818609E-02  0.8650315E-01
        2   -1    0    0  501    0  0.00000000000E+00  0.00000000000E+00  0.11224831579E+04  0.11224831579E+04  0.25500000920E-02 0.  1.
       -2   -1    0    0    0  501  0.00000000000E+00  0.00000000000E+00 -0.81178480906E+03  0.81178480906E+03  0.25500000920E-02 0. -1.
    10030    2    1    2    0    0  0.00000000000E+00  0.00000000000E+00  0.31069834881E+03  0.19342679669E+04  0.19091514094E+04 0.  0.
        3    1    3    3  502    0  0.25277359823E+03  0.86128083271E+03 -0.17375592052E+03  0.91427036202E+03  0.10100000352E+00 0. -1.
       -3    1    3    3    0  502 -0.25277359823E+03 -0.86128083271E+03  0.48445426932E+03  0.10199976049E+04  0.10100000352E+00 0.  1.
</event>
<event>
 5   0  0.1729375E-04  0.1023069E+04  0.7818609E-02  0.9283598E-01
       -3   -1    0    0    0  501  0.00000000000E+00  0.00000000000E+00  0.41040104660E+03  0.41040105903E+03  0.10100000352E+00 0. -1.
        3   -1    0    0  501    0  0.00000000000E+00  0.00000000000E+00 -0.63759037053E+03  0.63759037853E+03  0.10100000352E+00 0.  1.
    10030    2    1    2    0    0  0.00000000000E+00  0.00000000000E+00 -0.22718932393E+03  0.10479914376E+04  0.10230694328E+04 0.  0.
        1    1    3    3  502    0 -0.32450738500E+02 -0.34032800432E+03 -0.50337888501E+03  0.60849527759E+03  0.50400001928E-02 0.  1.
       -1    1    3    3    0  502  0.32450738500E+02  0.34032800432E+03  0.27618956109E+03  0.43949615997E+03  0.50400001928E-02 0. -1.
</event>
<event>
 5   0  0.4802635E-04  0.1898004E+04  0.7818609E-02  0.8655851E-01
        2   -1    0    0  501    0  0.00000000000E+00  0.00000000000E+00  0.13308849266E+04  0.13308849266E+04  0.25500000920E-02 0. -1.
       -2   -1    0    0    0  501  0.00000000000E+00  0.00000000000E+00 -0.67669604172E+03  0.67669604172E+03  0.25500000920E-02 0.  1.
    10030    2    1    2    0    0  0.00000000000E+00  0.00000000000E+00  0.65418888491E+03  0.20075809684E+04  0.18980037533E+04 0.  0.
        3    1    3    3  502    0 -0.60976409444E+01  0.16715965652E+03 -0.66098038106E+03  0.68181713556E+03  0.10100000352E+00 0.  1.
       -3    1    3    3    0  502  0.60976409444E+01 -0.16715965652E+03  0.13151692660E+04  0.13257638328E+04  0.10100000352E+00 0. -1.
</event>
<event>
 5   0  0.4839293E-04  0.1899152E+04  0.7818609E-02  0.8655279E-01
        2   -1    0    0  501    0  0.00000000000E+00  0.00000000000E+00  0.89082912894E+03  0.89082912894E+03  0.25500000920E-02 0.  1.
       -2   -1    0    0    0  501  0.00000000000E+00  0.00000000000E+00 -0.10121965296E+04  0.10121965296E+04  0.25500000920E-02 0. -1.
    10030    2    1    2    0    0  0.00000000000E+00  0.00000000000E+00 -0.12136740068E+03  0.19030256586E+04  0.18991515504E+04 0.  0.
        5    1    3    3  502    0 -0.22157601098E+03  0.85275289334E+03  0.29414121878E+03  0.92888350848E+03  0.46999998093E+01 0.  1.
       -5    1    3    3    0  502  0.22157601098E+03 -0.85275289334E+03 -0.41550861946E+03  0.97414215009E+03  0.46999998093E+01 0. -1.
</event>
<event>
 5   0  0.2376359E-04  0.1908279E+04  0.7818609E-02  0.8650746E-01
       -1   -1    0    0    0  501  0.00000000000E+00  0.00000000000E+00  0.87730885367E+03  0.87730885369E+03  0.50400001928E-02 0. -1.
        1   -1    0    0  501    0  0.00000000000E+00  0.00000000000E+00 -0.10376986725E+04  0.10376986725E+04  0.50400001928E-02 0.  1.
    10030    2    1    2    0    0  0.00000000000E+00  0.00000000000E+00 -0.16038981886E+03  0.19150075262E+04  0.19082790497E+04 0.  0.
        2    1    3    3  502    0  0.49809397518E+03  0.71571940964E+03 -0.46889815424E+03  0.99005927121E+03  0.25500000920E-02 0.  1.
       -2    1    3    3    0  502 -0.49809397518E+03 -0.71571940964E+03  0.30850833539E+03  0.92494825502E+03  0.25500000920E-02 0. -1.
</event>
<event>
 5   0  0.2510069E-04  0.1916057E+04  0.7818609E-02  0.8646905E-01
       -1   -1    0    0    0  501  0.00000000000E+00  0.00000000000E+00  0.77544209841E+03  0.77544209843E+03  0.50400001928E-02 0.  1.
        1   -1    0    0  501    0  0.00000000000E+00  0.00000000000E+00 -0.11836072645E+04  0.11836072645E+04  0.50400001928E-02 0. -1.
    10030    2    1    2    0    0  0.00000000000E+00  0.00000000000E+00 -0.40816516611E+03  0.19590493630E+04  0.19160573070E+04 0.  0.
        4    1    3    3  502    0  0.91882866516E+03 -0.13733104644E+03  0.35070301532E+02  0.92969751596E+03  0.12699999809E+01 0.  1.
       -4    1    3    3    0  502 -0.91882866516E+03  0.13733104644E+03 -0.44323546764E+03  0.10293518470E+04  0.12699999809E+01 0. -1.
</event>
<event>
 5   0  0.4829134E-04  0.1994729E+04  0.7818609E-02  0.8609089E-01
       -2   -1    0    0    0  501  0.00000000000E+00  0.00000000000E+00  0.15511505154E+04  0.15511505154E+04  0.25500000920E-02 0.  1.
        2   -1    0    0  501    0  0.00000000000E+00  0.00000000000E+00 -0.64128907610E+03  0.64128907611E+03  0.25500000920E-02 0. -1.
    10030    2    1    2    0    0  0.00000000000E+00  0.00000000000E+00  0.90986143928E+03  0.21924395915E+04  0.19947289349E+04 0.  0.
        2    1    3    3  502    0  0.49266098211E+02 -0.37705542803E+03 -0.55848689087E+03  0.67565194555E+03  0.25500000920E-02 0. -1.
       -2    1    3    3    0  502 -0.49266098211E+02  0.37705542803E+03  0.14683483302E+04  0.15167876460E+04  0.25500000920E-02 0.  1.
</event>
<event>
 5   0  0.4802635E-04  0.1862037E+04  0.7818609E-02  0.8673987E-01
       -2   -1    0    0    0  501  0.00000000000E+00  0.00000000000E+00  0.15694817840E+04  0.15694817840E+04  0.25500000920E-02 0. -1.
        2   -1    0    0  501    0  0.00000000000E+00  0.00000000000E+00 -0.55228116558E+03  0.55228116558E+03  0.25500000920E-02 0.  1.
    10030    2    1    2    0    0  0.00000000000E+00  0.00000000000E+00  0.10172006185E+04  0.21217629496E+04  0.18620367655E+04 0.  0.
        3    1    3    3  502    0  0.20792939737E+03 -0.14852497052E+03 -0.51154167547E+03  0.57181220440E+03  0.10100000352E+00 0.  1.
       -3    1    3    3    0  502 -0.20792939737E+03  0.14852497052E+03  0.15287422939E+04  0.15499507452E+04  0.10100000352E+00 0. -1.
</event>
<event>
 5   0  0.2261755E-04  0.1908625E+04  0.7818609E-02  0.8650575E-01
        1   -1    0    0  501    0  0.00000000000E+00  0.00000000000E+00  0.97617189291E+03  0.97617189293E+03  0.50400001928E-02 0.  1.
       -1   -1    0    0    0  501  0.00000000000E+00  0.00000000000E+00 -0.93294232549E+03  0.93294232551E+03  0.50400001928E-02 0. -1.
    10030    2    1    2    0    0  0.00000000000E+00  0.00000000000E+00  0.43229567419E+02  0.19091142184E+04  0.19086247152E+04 0.  0.
        1    1    3    3  502    0 -0.29513293891E+03  0.76356704263E+03  0.51222400809E+03  0.96566635786E+03  0.50400001928E-02 0.  1.
       -1    1    3    3    0  502  0.29513293891E+03 -0.76356704263E+03 -0.46899444067E+03  0.94344786057E+03  0.50400001928E-02 0. -1.
</event>
<event>
 5   0  0.4839293E-04  0.1882541E+04  0.7818609E-02  0.8663596E-01
        2   -1    0    0  501    0  0.00000000000E+00  0.00000000000E+00  0.19017833518E+04  0.19017833518E+04  0.25500000920E-02 0.  1.
       -2   -1    0    0    0  501  0.00000000000E+00  0.00000000000E+00 -0.46587335098E+03  0.46587335098E+03  0.25500000920E-02 0. -1.
    10030    2    1    2    0    0  0.00000000000E+00  0.00000000000E+00  0.14359100008E+04  0.23676567027E+04  0.18825410306E+04 0.  0.
        5    1    3    3  502    0 -0.72477806953E+03  0.40894415746E+03  0.12710957547E+04  0.15192909799E+04  0.46999998093E+01 0. -1.
       -5    1    3    3    0  502  0.72477806953E+03 -0.40894415746E+03  0.16481424609E+03  0.84836572285E+03  0.46999998093E+01 0.  1.
</event>
<event>
 5   0  0.2261755E-04  0.1916729E+04  0.7818609E-02  0.8646574E-01
        1   -1    0    0  501    0  0.00000000000E+00  0.00000000000E+00  0.95620388828E+03  0.95620388829E+03  0.50400001928E-02 0.  1.
       -1   -1    0    0    0  501  0.00000000000E+00  0.00000000000E+00 -0.96053009209E+03  0.96053009210E+03  0.50400001928E-02 0. -1.
    10030    2    1    2    0    0  0.00000000000E+00  0.00000000000E+00 -0.43262038103E+01  0.19167339804E+04  0.19167290981E+04 0.  0.
        1    1    3    3  502    0  0.26880343764E+03 -0.40237406816E+03  0.82506474830E+03  0.95649987858E+03  0.50400001928E-02 0.  1.
       -1    1    3    3    0  502 -0.26880343764E+03  0.40237406816E+03 -0.82939095211E+03  0.96023410181E+03  0.50400001928E-02 0. -1.
</event>
<event>
 5   0  0.2355414E-04  0.1816895E+04  0.7818609E-02  0.8697366E-01
        1   -1    0    0  501    0  0.00000000000E+00  0.00000000000E+00  0.14619013157E+04  0.14619013158E+04  0.50400001928E-02 0.  1.
       -1   -1    0    0    0  501  0.00000000000E+00  0.00000000000E+00 -0.56452315781E+03  0.56452315783E+03  0.50400001928E-02 0. -1.
    10030    2    1    2    0    0  0.00000000000E+00  0.00000000000E+00  0.89737815794E+03  0.20264244736E+04  0.18168953159E+04 0.  0.
        5    1    3    3  502    0  0.56554611961E+03 -0.60316149941E+03  0.28982561070E+02  0.82735015962E+03  0.46999998093E+01 0. -1.
       -5    1    3    3    0  502 -0.56554611961E+03  0.60316149941E+03  0.86839559687E+03  0.11990743140E+04  0.46999998093E+01 0.  1.
</event>
<event>
 5   0  0.4829134E-04  0.1885999E+04  0.7818609E-02  0.8661857E-01
        2   -1    0    0  501    0  0.00000000000E+00  0.00000000000E+00  0.15402232810E+04  0.15402232810E+04  0.25500000920E-02 0.  1.
       -2   -1    0    0    0  501  0.00000000000E+00  0.00000000000E+00 -0.57735027210E+03  0.57735027210E+03  0.25500000920E-02 0. -1.
    10030    2    1    2    0    0  0.00000000000E+00  0.00000000000E+00  0.96287300887E+03  0.21175735531E+04  0.18859992899E+04 0.  0.
        2    1    3    3  502    0  0.73165603817E+03  0.98328163216E+00  0.11494015052E+04  0.13625143468E+04  0.25500000920E-02 0.  1.
       -2    1    3    3    0  502 -0.73165603817E+03 -0.98328163216E+00 -0.18652849633E+03  0.75505920628E+03  0.25500000920E-02 0. -1.
</event>
<event>
 5   0  0.2261755E-04  0.1910823E+04  0.7818609E-02  0.8649488E-01
       -1   -1    0    0    0  501  0.00000000000E+00  0.00000000000E+00  0.61459298876E+03  0.61459298878E+03  0.50400001928E-02 0. -1.
        1   -1    0    0  501    0  0.00000000000E+00  0.00000000000E+00 -0.14852282151E+04  0.14852282151E+04  0.50400001928E-02 0.  1.
    10030    2    1    2    0    0  0.00000000000E+00  0.00000000000E+00 -0.87063522632E+03  0.20998212039E+04  0.19108227000E+04 0.  0.
        1    1    3    3  502    0  0.86391357593E-02  0.91732271524E+03 -0.72881056958E+03  0.11715996801E+04  0.50400001928E-02 0.  1.
       -1    1    3    3    0  502 -0.86391357593E-02 -0.91732271524E+03 -0.14182465674E+03  0.92822152381E+03  0.50400001928E-02 0. -1.
</event>
<event>
 5   0  0.2376359E-04  0.1822782E+04  0.7818609E-02  0.8694277E-01
        1   -1    0    0  501    0  0.00000000000E+00  0.00000000000E+00  0.23709251588E+04  0.23709251588E+04  0.50400001928E-02 0.  1.
       -1   -1    0    0    0  501  0.00000000000E+00  0.00000000000E+00 -0.35034163570E+03  0.35034163574E+03  0.50400001928E-02 0. -1.
    10030    2    1    2    0    0  0.00000000000E+00  0.00000000000E+00  0.20205835231E+04  0.27212667945E+04  0.18227822671E+04 0.  0.
        2    1    3    3  502    0  0.18067853299E+02 -0.45061360608E+03 -0.17209157233E+03  0.48269511970E+03  0.25500000920E-02 0. -1.
       -2    1    3    3    0  502 -0.18067853299E+02  0.45061360608E+03  0.21926750954E+04  0.22385716749E+04  0.25500000920E-02 0.  1.
</event>
<event>
 5   0  0.4839293E-04  0.1853466E+04  0.7818609E-02  0.8678373E-01
        2   -1    0    0  501    0  0.00000000000E+00  0.00000000000E+00  0.19407356162E+04  0.19407356162E+04  0.25500000920E-02 0. -1.
       -2   -1    0    0    0  501  0.00000000000E+00  0.00000000000E+00 -0.44253008506E+03  0.44253008507E+03  0.25500000920E-02 0.  1.
    10030    2    1    2    0    0  0.00000000000E+00  0.00000000000E+00  0.14982055311E+04  0.23832657013E+04  0.18534658317E+04 0.  0.
        5    1    3    3  502    0 -0.78144113394E+03  0.52048580135E+02  0.11205556065E+03  0.79116233428E+03  0.46999998093E+01 0.  1.
       -5    1    3    3    0  502  0.78144113394E+03 -0.52048580135E+02  0.13861499705E+04  0.15921033670E+04  0.46999998093E+01 0. -1.
</event>
<event>
 5   0  0.4761944E-04  0.1869649E+04  0.7818609E-02  0.8670113E-01
        2   -1    0    0  501    0  0.00000000000E+00  0.00000000000E+00  0.20217921871E+04  0.20217921871E+04  0.25500000920E-02 0. -1.
       -2   -1    0    0    0  501  0.00000000000E+00  0.00000000000E+00 -0.43223883147E+03  0.43223883148E+03  0.25500000920E-02 0.  1.
    10030    2    1    2    0    0  0.00000000000E+00  0.00000000000E+00  0.15895533556E+04  0.24540310186E+04  0.18696492638E+04 0.  0.
        4    1    3    3  502    0 -0.34387146542E+03 -0.74324659654E+02 -0.34202932989E+03  0.49067037323E+03  0.12699999809E+01 0.  1.
       -4    1    3    3    0  502  0.34387146542E+03  0.74324659654E+02  0.19315826855E+04  0.19633606454E+04  0.12699999809E+01 0. -1.
</event>
<event>
 5   0  0.2376359E-04  0.1907928E+04  0.7818609E-02  0.8650920E-01
       -1   -1    0    0    0  501  0.00000000000E+00  0.00000000000E+00  0.11400150095E+04  0.11400150095E+04  0.50400001928E-02 0. -1.
        1   -1    0    0  501    0  0.00000000000E+00  0.00000000000E+00 -0.79827625835E+03  0.79827625837E+03  0.50400001928E-02 0.  1.
    10030    2    1    2    0    0  0.00000000000E+00  0.00000000000E+00  0.34173875117E+03  0.19382912679E+04  0.19079275838E+04 0.  0.
        2    1    3    3  502    0  0.27432370951E+03  0.11032802576E+03 -0.75054946206E+03  0.80669093578E+03  0.25500000920E-02 0.  1.
       -2    1    3    3    0  502 -0.27432370951E+03 -0.11032802576E+03  0.10922882132E+04  0.11316003321E+04  0.25500000920E-02 0. -1.
</event>
<event>
 5   0  0.2317458E-04  0.1429265E+04  0.7818609E-02  0.8932903E-01
        1   -1    0    0  501    0  0.00000000000E+00  0.00000000000E+00  0.79679731895E+03  0.79679731896E+03  0.50400001928E-02 0.  1.
       -1   -1    0    0    0  501  0.00000000000E+00  0.00000000000E+00 -0.64094080080E+03  0.64094080082E+03  0.50400001928E-02 0. -1.
    10030    2    1    2    0    0  0.00000000000E+00  0.00000000000E+00  0.15585651815E+03  0.14377381198E+04  0.14292654221E+04 0.  0.
        3    1    3    3  502    0  0.59626526400E+03 -0.39391323018E+03  0.77988091280E+02  0.71887554594E+03  0.10100000352E+00 0.  1.
       -3    1    3    3    0  502 -0.59626526400E+03  0.39391323018E+03  0.77868426867E+02  0.71886257384E+03  0.10100000352E+00 0. -1.
</event>
<event>
 5   0  0.2376359E-04  0.1901017E+04  0.7818609E-02  0.8654350E-01
        1   -1    0    0  501    0  0.00000000000E+00  0.00000000000E+00  0.83391695302E+03  0.83391695303E+03  0.50400001928E-02 0.  1.
       -1   -1    0    0    0  501  0.00000000000E+00  0.00000000000E+00 -0.10834005910E+04  0.10834005910E+04  0.50400001928E-02 0. -1.
    10030    2    1    2    0    0  0.00000000000E+00  0.00000000000E+00 -0.24948363796E+03  0.19173175440E+04  0.19010166961E+04 0.  0.
        2    1    3    3  502    0  0.91445196615E+03  0.25649178194E+03 -0.16322244582E+03  0.96366591692E+03  0.25500000920E-02 0. -1.
       -2    1    3    3    0  502 -0.91445196615E+03 -0.25649178194E+03 -0.86261192133E+02  0.95365162710E+03  0.25500000920E-02 0.  1.
</event>
<event>
 5   0  0.4802635E-04  0.1835314E+04  0.7818609E-02  0.8687742E-01
       -2   -1    0    0    0  501  0.00000000000E+00  0.00000000000E+00  0.96017991148E+03  0.96017991148E+03  0.25500000920E-02 0. -1.
        2   -1    0    0  501    0  0.00000000000E+00  0.00000000000E+00 -0.87701706347E+03  0.87701706348E+03  0.25500000920E-02 0.  1.
    10030    2    1    2    0    0  0.00000000000E+00  0.00000000000E+00  0.83162848004E+02  0.18371969750E+04  0.18353137785E+04 0.  0.
        3    1    3    3  502    0 -0.30161270460E+03  0.99277794588E+01 -0.82592500320E+03  0.87932980473E+03  0.10100000352E+00 0.  1.
       -3    1    3    3    0  502  0.30161270460E+03 -0.99277794588E+01  0.90908785121E+03  0.95786717022E+03  0.10100000352E+00 0. -1.
</event>
<event>
 5   0  0.1729375E-04  0.1882118E+04  0.7818609E-02  0.8663809E-01
       -3   -1    0    0    0  501  0.00000000000E+00  0.00000000000E+00  0.77598128206E+03  0.77598128863E+03  0.10100000352E+00 0. -1.
        3   -1    0    0  501    0  0.00000000000E+00  0.00000000000E+00 -0.11412548043E+04  0.11412548088E+04  0.10100000352E+00 0.  1.
    10030    2    1    2    0    0  0.00000000000E+00  0.00000000000E+00 -0.36527352228E+03  0.19172360974E+04  0.18821183563E+04 0.  0.
        2    1    3    3  502    0 -0.90559427029E+03 -0.23976889244E+03 -0.27376129901E+03  0.97597917652E+03  0.25500000920E-02 0. -1.
       -2    1    3    3    0  502  0.90559427029E+03  0.23976889244E+03 -0.91512223270E+02  0.94125692092E+03  0.25500000920E-02 0.  1.
</event>
<event>
 5   0  0.2510069E-04  0.1855046E+04  0.7818609E-02  0.8677562E-01
       -1   -1    0    0    0  501  0.00000000000E+00  0.00000000000E+00  0.78818615587E+03  0.78818615589E+03  0.50400001928E-02 0. -1.
        1   -1    0    0  501    0  0.00000000000E+00  0.00000000000E+00 -0.10914919777E+04  0.10914919777E+04  0.50400001928E-02 0.  1.
    10030    2    1    2    0    0  0.00000000000E+00  0.00000000000E+00 -0.30330582182E+03  0.18796781336E+04  0.18550459467E+04 0.  0.
        4    1    3    3  502    0  0.81780120006E+03 -0.24268484320E+03 -0.52063450487E+03  0.99937812488E+03  0.12699999809E+01 0.  1.
       -4    1    3    3    0  502 -0.81780120006E+03  0.24268484320E+03  0.21732868306E+03  0.88030000870E+03  0.12699999809E+01 0. -1.
</event>
<event>
 5   0  0.2317458E-04  0.1801340E+04  0.7818609E-02  0.8705587E-01
       -1   -1    0    0    0  501  0.00000000000E+00  0.00000000000E+00  0.91485060373E+03  0.91485060375E+03  0.50400001928E-02 0. -1.
        1   -1    0    0  501    0  0.00000000000E+00  0.00000000000E+00 -0.88670913167E+03  0.88670913168E+03  0.50400001928E-02 0.  1.
    10030    2    1    2    0    0  0.00000000000E+00  0.00000000000E+00  0.28141472068E+02  0.18015597354E+04  0.18013399285E+04 0.  0.
        3    1    3    3  502    0  0.67076783006E+02  0.77885179460E+03 -0.43330583665E+03  0.89379157025E+03  0.10100000352E+00 0.  1.
       -3    1    3    3    0  502 -0.67076783006E+02 -0.77885179460E+03  0.46144730872E+03  0.90776816517E+03  0.10100000352E+00 0. -1.
</event>
<event>
 5   0  0.4973411E-04  0.1954931E+04  0.7818609E-02  0.8627987E-01
        2   -1    0    0  501    0  0.00000000000E+00  0.00000000000E+00  0.21715226871E+04  0.21715226871E+04  0.25500000920E-02 0. -1.
       -2   -1    0    0    0  501  0.00000000000E+00  0.00000000000E+00 -0.43998553587E+03  0.43998553588E+03  0.25500000920E-02 0.  1.
    10030    2    1    2    0    0  0.00000000000E+00  0.00000000000E+00  0.17315371513E+04  0.26115082230E+04  0.19549307642E+04 0.  0.
        1    1    3    3  502    0 -0.50567736748E+03  0.77381631379E+03  0.44135836132E+03  0.10243527179E+04  0.50400001928E-02 0.  1.
       -1    1    3    3    0  502  0.50567736748E+03 -0.77381631379E+03  0.12901787899E+04  0.15871555052E+04  0.50400001928E-02 0. -1.
</event>
<event>
 5   0  0.2261755E-04  0.1882431E+04  0.7818609E-02  0.8663652E-01
       -1   -1    0    0    0  501  0.00000000000E+00  0.00000000000E+00  0.65288324474E+03  0.65288324476E+03  0.50400001928E-02 0.  1.
        1   -1    0    0  501    0  0.00000000000E+00  0.00000000000E+00 -0.13568831466E+04  0.13568831466E+04  0.50400001928E-02 0. -1.
    10030    2    1    2    0    0  0.00000000000E+00  0.00000000000E+00 -0.70399990189E+03  0.20097663914E+04  0.18824306325E+04 0.  0.
        1    1    3    3  502    0  0.46018481265E+03  0.77499053045E+03 -0.62540548930E+02  0.90348862990E+03  0.50400001928E-02 0. -1.
       -1    1    3    3    0  502 -0.46018481265E+03 -0.77499053045E+03 -0.64145935296E+03  0.11062777615E+04  0.50400001928E-02 0.  1.
</event>
<event>
 5   0  0.4802635E-04  0.1871085E+04  0.7818609E-02  0.8669385E-01
       -2   -1    0    0    0  501  0.00000000000E+00  0.00000000000E+00  0.13601235717E+04  0.13601235717E+04  0.25500000920E-02 0.  1.
        2   -1    0    0  501    0  0.00000000000E+00  0.00000000000E+00 -0.64349992851E+03  0.64349992852E+03  0.25500000920E-02 0. -1.
    10030    2    1    2    0    0  0.00000000000E+00  0.00000000000E+00  0.71662364317E+03  0.20036235002E+04  0.18710846279E+04 0.  0.
        3    1    3    3  502    0  0.80268767775E+03 -0.45800991948E+03  0.51407628134E+03  0.10575230624E+04  0.10100000352E+00 0.  1.
       -3    1    3    3    0  502 -0.80268767775E+03  0.45800991948E+03  0.20254736182E+03  0.94610043776E+03  0.10100000352E+00 0. -1.
</event>
<event>
 5   0  0.4802635E-04  0.1909577E+04  0.7818609E-02  0.8650104E-01
        2   -1    0    0  501    0  0.00000000000E+00  0.00000000000E+00  0.16438507043E+04  0.16438507043E+04  0.25500000920E-02 0.  1.
       -2   -1    0    0    0  501  0.00000000000E+00  0.00000000000E+00 -0.55456452458E+03  0.55456452459E+03  0.25500000920E-02 0. -1.
    10030    2    1    2    0    0  0.00000000000E+00  0.00000000000E+00  0.10892861797E+04  0.21984152289E+04  0.19095772143E+04 0.  0.
        3    1    3    3  502    0  0.27152767200E+02 -0.87711386899E+03  0.11149589201E+03  0.88458880622E+03  0.10100000352E+00 0. -1.
       -3    1    3    3    0  502 -0.27152767200E+02  0.87711386899E+03  0.97779028767E+03  0.13138264226E+04  0.10100000352E+00 0.  1.
</event>
<event>
 5   0  0.4761944E-04  0.1856568E+04  0.7818609E-02  0.8676782E-01
        2   -1    0    0  501    0  0.00000000000E+00  0.00000000000E+00  0.16972742238E+04  0.16972742238E+04  0.25500000920E-02 0. -1.
       -2   -1    0    0    0  501  0.00000000000E+00  0.00000000000E+00 -0.50770318944E+03  0.50770318945E+03  0.25500000920E-02 0.  1.
    10030    2    1    2    0    0  0.00000000000E+00  0.00000000000E+00  0.11895710344E+04  0.22049774133E+04  0.18565683794E+04 0.  0.
        4    1    3    3  502    0  0.44839579145E+03  0.42844267815E+03 -0.22555175956E+03  0.65992205858E+03  0.12699999809E+01 0.  1.
       -4    1    3    3    0  502 -0.44839579145E+03 -0.42844267815E+03  0.14151227939E+04  0.15450553547E+04  0.12699999809E+01 0. -1.
</event>
<event>
 5   0  0.2317458E-04  0.1930343E+04  0.7818609E-02  0.8639898E-01
        1   -1    0    0  501    0  0.00000000000E+00  0.00000000000E+00  0.11233945736E+04  0.11233945736E+04  0.50400001928E-02 0. -1.
       -1   -1    0    0    0  501  0.00000000000E+00  0.00000000000E+00 -0.82923354803E+03  0.82923354804E+03  0.50400001928E-02 0.  1.
    10030    2    1    2    0    0  0.00000000000E+00  0.00000000000E+00  0.29416102553E+03  0.19526281216E+04  0.19303434597E+04 0.  0.
        3    1    3    3  502    0  0.67172464897E+03 -0.12517569448E+03 -0.54245859690E+03  0.87243584181E+03  0.10100000352E+00 0.  1.
       -3    1    3    3    0  502 -0.67172464897E+03  0.12517569448E+03  0.83661962243E+03  0.10801922798E+04  0.10100000352E+00 0. -1.
</event>
<event>
 5   0  0.4761944E-04  0.1867947E+04  0.7818609E-02  0.8670978E-01
        2   -1    0    0  501    0  0.00000000000E+00  0.00000000000E+00  0.97435805831E+03  0.97435805832E+03  0.25500000920E-02 0.  1.
       -2   -1    0    0    0  501  0.00000000000E+00  0.00000000000E+00 -0.89526233903E+03  0.89526233903E+03  0.25500000920E-02 0. -1.
    10030    2    1    2    0    0  0.00000000000E+00  0.00000000000E+00  0.79095719286E+02  0.18696203974E+04  0.18679465456E+04 0.  0.
        4    1    3    3  502    0 -0.88674561799E+03  0.23998902811E+03  0.20819792093E+03  0.94194506837E+03  0.12699999809E+01 0.  1.
       -4    1    3    3    0  502  0.88674561799E+03 -0.23998902811E+03 -0.12910220165E+03  0.92767532899E+03  0.12699999809E+01 0. -1.
</event>
<event>
 5   0  0.2355414E-04  0.1918056E+04  0.7818609E-02  0.8645920E-01
       -1   -1    0    0    0  501  0.00000000000E+00  0.00000000000E+00  0.17317149291E+04  0.17317149291E+04  0.50400001928E-02 0. -1.
        1   -1    0    0  501    0  0.00000000000E+00  0.00000000000E+00 -0.53111233921E+03  0.53111233923E+03  0.50400001928E-02 0.  1.
    10030    2    1    2    0    0  0.00000000000E+00  0.00000000000E+00  0.12006025899E+04  0.22628272684E+04  0.19180564819E+04 0.  0.
        5    1    3    3  502    0  0.21875313113E+03 -0.56470052195E+03  0.14775892317E+04  0.15968818490E+04  0.46999998093E+01 0. -1.
       -5    1    3    3    0  502 -0.21875313113E+03  0.56470052195E+03 -0.27698664181E+03  0.66594541939E+03  0.46999998093E+01 0.  1.
</event>
<event>
 5   0  0.4973411E-04  0.1847942E+04  0.7818609E-02  0.8681212E-01
       -2   -1    0    0    0  501  0.00000000000E+00  0.00000000000E+00  0.65603191163E+03  0.65603191163E+03  0.25500000920E-02 0. -1.
        2   -1    0    0  501    0  0.00000000000E+00  0.00000000000E+00 -0.13013424870E+04  0.13013424870E+04  0.25500000920E-02 0.  1.
    10030    2    1    2    0    0  0.00000000000E+00  0.00000000000E+00 -0.64531057533E+03  0.19573743986E+04  0.18479417733E+04 0.  0.
        1    1    3    3  502    0  0.16983841921E+03 -0.65575798144E+03  0.34293413352E+03  0.75925452835E+03  0.50400001928E-02 0. -1.
       -1    1    3    3    0  502 -0.16983841921E+03  0.65575798144E+03 -0.98824470885E+03  0.11981198702E+04  0.50400001928E-02 0.  1.
</event>
<event>
 5   0  0.2376359E-04  0.1904130E+04  0.7818609E-02  0.8652803E-01
        1   -1    0    0  501    0  0.00000000000E+00  0.00000000000E+00  0.81200320959E+03  0.81200320961E+03  0.50400001928E-02 0.  1.
       -1   -1    0    0    0  501  0.00000000000E+00  0.00000000000E+00 -0.11162859370E+04  0.11162859370E+04  0.50400001928E-02 0. -1.
    10030    2    1    2    0    0  0.00000000000E+00  0.00000000000E+00 -0.30428272737E+03  0.19282891466E+04  0.19041299994E+04 0.  0.
        2    1    3    3  502    0 -0.81624671835E+03  0.14899721729E+02 -0.64820029696E+03  0.10424223385E+04  0.25500000920E-02 0. -1.
       -2    1    3    3    0  502  0.81624671835E+03 -0.14899721729E+02  0.34391756958E+03  0.88586680804E+03  0.25500000920E-02 0.  1.
</event>
<event>
 5   0  0.4839293E-04  0.1878565E+04  0.7818609E-02  0.8665600E-01
        2   -1    0    0  501    0  0.00000000000E+00  0.00000000000E+00  0.18580648579E+04  0.18580648579E+04  0.25500000920E-02 0.  1.
       -2   -1    0    0    0  501  0.00000000000E+00  0.00000000000E+00 -0.47482264077E+03  0.47482264077E+03  0.25500000920E-02 0. -1.
    10030    2    1    2    0    0  0.00000000000E+00  0.00000000000E+00  0.13832422172E+04  0.23328874987E+04  0.18785646250E+04 0.  0.
        5    1    3    3  502    0 -0.56707950873E+03 -0.72227599443E+03  0.44647877171E+03  0.10210911639E+04  0.46999998093E+01 0.  1.
       -5    1    3    3    0  502  0.56707950873E+03  0.72227599443E+03  0.93676344545E+03  0.13117963348E+04  0.46999998093E+01 0. -1.
</event>
<event>
 5   0  0.2317458E-04  0.1933893E+04  0.7818609E-02  0.8638167E-01
        1   -1    0    0  501    0  0.00000000000E+00  0.00000000000E+00  0.17043600333E+04  0.17043600333E+04  0.50400001928E-02 0. -1.
       -1   -1    0    0    0  501  0.00000000000E+00  0.00000000000E+00 -0.54858456403E+03  0.54858456405E+03  0.50400001928E-02 0.  1.
    10030    2    1    2    0    0  0.00000000000E+00  0.00000000000E+00  0.11557754693E+04  0.22529445974E+04  0.19338930745E+04 0.  0.
        3    1    3    3  502    0 -0.38681506178E+03 -0.18786779216E+03 -0.43105755920E+03  0.60887669433E+03  0.10100000352E+00 0.  1.
       -3    1    3    3    0  502  0.38681506178E+03  0.18786779216E+03  0.15868330285E+04  0.16440679031E+04  0.10100000352E+00 0. -1.
</event>
<event>
 5   0  0.2317458E-04  0.1319296E+04  0.7818609E-02  0.9014401E-01
       -1   -1    0    0    0  501  0.00000000000E+00  0.00000000000E+00  0.88897334629E+03  0.88897334630E+03  0.50400001928E-02 0.  1.
        1   -1    0    0  501    0  0.00000000000E+00  0.00000000000E+00 -0.48948120566E+03  0.48948120569E+03  0.50400001928E-02 0. -1.
    10030    2    1    2    0    0  0.00000000000E+00  0.00000000000E+00  0.39949214063E+03  0.13784545520E+04  0.13192963964E+04 0.  0.
        3    1    3    3  502    0  0.53719642047E+03 -0.22709377460E+03  0.52176074644E+03  0.78255086950E+03  0.10100000352E+00 0.  1.
       -3    1    3    3    0  502 -0.53719642047E+03  0.22709377460E+03 -0.12226860582E+03  0.59590368249E+03  0.10100000352E+00 0. -1.
</event>
<event>
 5   0  0.1729375E-04  0.1370126E+04  0.7818609E-02  0.8975731E-01
       -3   -1    0    0    0  501  0.00000000000E+00  0.00000000000E+00  0.62566224269E+03  0.62566225084E+03  0.10100000352E+00 0. -1.
        3   -1    0    0  501    0  0.00000000000E+00  0.00000000000E+00 -0.75010329490E+03  0.75010330170E+03  0.10100000352E+00 0.  1.
    10030    2    1    2    0    0  0.00000000000E+00  0.00000000000E+00 -0.12444105221E+03  0.13757655525E+04  0.13701260088E+04 0.  0.
        3    1    3    3  502    0 -0.25597878506E+03  0.51882443867E+03  0.30617839126E+03  0.65456027534E+03  0.10100000352E+00 0. -1.
       -3    1    3    3    0  502  0.25597878506E+03 -0.51882443867E+03 -0.43061944347E+03  0.72120527720E+03  0.10100000352E+00 0.  1.
</event>
<event>
 5   0  0.2317458E-04  0.1919958E+04  0.7818609E-02  0.8644985E-01
       -1   -1    0    0    0  501  0.00000000000E+00  0.00000000000E+00  0.99606998857E+03  0.99606998858E+03  0.50400001928E-02 0.  1.
        1   -1    0    0  501    0  0.00000000000E+00  0.00000000000E+00 -0.92519533025E+03  0.92519533026E+03  0.50400001928E-02 0. -1.
    10030    2    1    2    0    0  0.00000000000E+00  0.00000000000E+00  0.70874658318E+02  0.19212653188E+04  0.19199576058E+04 0.  0.
        3    1    3    3  502    0 -0.33041150510E+03  0.60035115091E+03 -0.63730475858E+03  0.93581549068E+03  0.10100000352E+00 0. -1.
       -3    1    3    3    0  502  0.33041150510E+03 -0.60035115091E+03  0.70817941690E+03  0.98544982816E+03  0.10100000352E+00 0.  1.
</event>
<event>
 5   0  0.2376359E-04  0.1931097E+04  0.7818609E-02  0.8639530E-01
        1   -1    0    0  501    0  0.00000000000E+00  0.00000000000E+00  0.72648398133E+03  0.72648398134E+03  0.50400001928E-02 0.  1.
       -1   -1    0    0    0  501  0.00000000000E+00  0.00000000000E+00 -0.12832827176E+04  0.12832827176E+04  0.50400001928E-02 0. -1.
    10030    2    1    2    0    0  0.00000000000E+00  0.00000000000E+00 -0.55679873629E+03  0.20097666990E+04  0.19310974475E+04 0.  0.
        2    1    3    3  502    0 -0.56042219003E+03  0.48204743325E+03  0.36806704928E+03  0.82578212124E+03  0.25500000920E-02 0.  1.
       -2    1    3    3    0  502  0.56042219003E+03 -0.48204743325E+03 -0.92486578558E+03  0.11839845777E+04  0.25500000920E-02 0. -1.
</event>
<event>
 5   0  0.2355414E-04  0.1893658E+04  0.7818609E-02  0.8658020E-01
       -1   -1    0    0    0  501  0.00000000000E+00  0.00000000000E+00  0.58930722306E+03  0.58930722308E+03  0.50400001928E-02 0. -1.
        1   -1    0    0  501    0  0.00000000000E+00  0.00000000000E+00 -0.15212524304E+04  0.15212524304E+04  0.50400001928E-02 0.  1.
    10030    2    1    2    0    0  0.00000000000E+00  0.00000000000E+00 -0.93194520730E+03  0.21105596534E+04  0.18936578839E+04 0.  0.
        5    1    3    3  502    0  0.19277906479E+03 -0.67895482336E+03  0.23744286523E+03  0.74467753036E+03  0.46999998093E+01 0. -1.
       -5    1    3    3    0  502 -0.19277906479E+03  0.67895482336E+03 -0.11693880725E+04  0.13658821231E+04  0.46999998093E+01 0.  1.
</event>
<event>
 5   0  0.4839293E-04  0.1918691E+04  0.7818609E-02  0.8645608E-01
        2   -1    0    0  501    0  0.00000000000E+00  0.00000000000E+00  0.11059775965E+04  0.11059775965E+04  0.25500000920E-02 0.  1.
       -2   -1    0    0    0  501  0.00000000000E+00  0.00000000000E+00 -0.83215373916E+03  0.83215373917E+03  0.25500000920E-02 0. -1.
    10030    2    1    2    0    0  0.00000000000E+00  0.00000000000E+00  0.27382385732E+03  0.19381313356E+04  0.19186905872E+04 0.  0.
        5    1    3    3  502    0 -0.41426671238E+03 -0.85791355612E+03  0.23126348919E+02  0.95298976740E+03  0.46999998093E+01 0. -1.
       -5    1    3    3    0  502  0.41426671238E+03  0.85791355612E+03  0.25069750840E+03  0.98514156824E+03  0.46999998093E+01 0.  1.
</event>
<event>
 5   0  0.1729375E-04  0.1868962E+04  0.7818609E-02  0.8670462E-01
       -3   -1    0    0    0  501  0.00000000000E+00  0.00000000000E+00  0.12821492498E+04  0.12821492537E+04  0.10100000352E+00 0. -1.
        3   -1    0    0  501    0  0.00000000000E+00  0.00000000000E+00 -0.68108693913E+03  0.68108694662E+03  0.10100000352E+00 0.  1.
    10030    2    1    2    0    0  0.00000000000E+00  0.00000000000E+00  0.60106231062E+03  0.19632362004E+04  0.18689624066E+04 0.  0.
        2    1    3    3  502    0  0.93300158093E+02  0.77455147309E+03  0.84089153341E+03  0.11470542598E+04  0.25500000920E-02 0. -1.
       -2    1    3    3    0  502 -0.93300158093E+02 -0.77455147309E+03 -0.23982922279E+03  0.81618194055E+03  0.25500000920E-02 0.  1.
</event>
<event>
 5   0  0.4973411E-04  0.1908915E+04  0.7818609E-02  0.8650432E-01
       -2   -1    0    0    0  501  0.00000000000E+00  0.00000000000E+00  0.61147828748E+03  0.61147828748E+03  0.25500000920E-02 0. -1.
        2   -1    0    0  501    0  0.00000000000E+00  0.00000000000E+00 -0.14898140189E+04  0.14898140189E+04  0.25500000920E-02 0.  1.
    10030    2    1    2    0    0  0.00000000000E+00  0.00000000000E+00 -0.87833573138E+03  0.21012923063E+04  0.19089147963E+04 0.  0.
        1    1    3    3  502    0 -0.71863366964E+03  0.25743096108E+03  0.19153485009E+03  0.78701375445E+03  0.50400001928E-02 0. -1.
       -1    1    3    3    0  502  0.71863366964E+03 -0.25743096108E+03 -0.10698705815E+04  0.13142785519E+04  0.50400001928E-02 0.  1.
</event>
<event>
 5   0  0.2261755E-04  0.1839644E+04  0.7818609E-02  0.8685497E-01
       -1   -1    0    0    0  501  0.00000000000E+00  0.00000000000E+00  0.39237954070E+03  0.39237954073E+03  0.50400001928E-02 0.  1.
        1   -1    0    0  501    0  0.00000000000E+00  0.00000000000E+00 -0.21562595385E+04  0.21562595385E+04  0.50400001928E-02 0. -1.
    10030    2    1    2    0    0  0.00000000000E+00  0.00000000000E+00 -0.17638799978E+04  0.25486390792E+04  0.18396435822E+04 0.  0.
        1    1    3    3  502    0  0.29424456879E+03  0.86857136630E+03 -0.98064457408E+03  0.13426316938E+04  0.50400001928E-02 0.  1.
       -1    1    3    3    0  502 -0.29424456879E+03 -0.86857136630E+03 -0.78323542373E+03  0.12060073854E+04  0.50400001928E-02 0. -1.
</event>
<event>
 5   0  0.4761944E-04  0.1911517E+04  0.7818609E-02  0.8649145E-01
       -2   -1    0    0    0  501  0.00000000000E+00  0.00000000000E+00  0.63390030408E+03  0.63390030408E+03  0.25500000920E-02 0.  1.
        2   -1    0    0  501    0  0.00000000000E+00  0.00000000000E+00 -0.14410372461E+04  0.14410372461E+04  0.25500000920E-02 0. -1.
    10030    2    1    2    0    0  0.00000000000E+00  0.00000000000E+00 -0.80713694200E+03  0.20749375502E+04  0.19115166214E+04 0.  0.
        4    1    3    3  502    0  0.91043626914E+03  0.27572601264E+03 -0.30317768870E+03  0.99841742675E+03  0.12699999809E+01 0.  1.
       -4    1    3    3    0  502 -0.91043626914E+03 -0.27572601264E+03 -0.50395925330E+03  0.10765201234E+04  0.12699999809E+01 0. -1.
</event>
<event>
 5   0  0.4802635E-04  0.1986139E+04  0.7818609E-02  0.8613129E-01
       -2   -1    0    0    0  501  0.00000000000E+00  0.00000000000E+00  0.23872010124E+04  0.23872010124E+04  0.25500000920E-02 0. -1.
        2   -1    0    0  501    0  0.00000000000E+00  0.00000000000E+00 -0.41311418822E+03  0.41311418823E+03  0.25500000920E-02 0.  1.
    10030    2    1    2    0    0  0.00000000000E+00  0.00000000000E+00  0.19740868242E+04  0.28003152007E+04  0.19861385736E+04 0.  0.
        3    1    3    3  502    0 -0.64514919272E+03 -0.69300809556E+02 -0.72907085820E+02  0.65294374677E+03  0.10100000352E+00 0.  1.
       -3    1    3    3    0  502  0.64514919272E+03  0.69300809556E+02  0.20469939100E+04  0.21473714539E+04  0.10100000352E+00 0. -1.
</event>
<event>
 5   0  0.2317458E-04  0.1895045E+04  0.7818609E-02  0.8657327E-01
        1   -1    0    0  501    0  0.00000000000E+00  0.00000000000E+00  0.77761844044E+03  0.77761844046E+03  0.50400001928E-02 0. -1.
       -1   -1    0    0    0  501  0.00000000000E+00  0.00000000000E+00 -0.11545499023E+04  0.11545499023E+04  0.50400001928E-02 0.  1.
    10030    2    1    2    0    0  0.00000000000E+00  0.00000000000E+00 -0.37693146184E+03  0.19321683427E+04  0.18950454290E+04 0.  0.
        3    1    3    3  502    0  0.24530518285E+03 -0.71588321778E+03  0.39291117880E+03  0.85266794173E+03  0.10100000352E+00 0. -1.
       -3    1    3    3    0  502 -0.24530518285E+03  0.71588321778E+03 -0.76984264064E+03  0.10795004010E+04  0.10100000352E+00 0.  1.
</event>
<event>
 5   0  0.2355414E-04  0.2034534E+04  0.7818609E-02  0.8590643E-01
        1   -1    0    0  501    0  0.00000000000E+00  0.00000000000E+00  0.18458359316E+04  0.18458359316E+04  0.50400001928E-02 0.  1.
       -1   -1    0    0    0  501  0.00000000000E+00  0.00000000000E+00 -0.56063047225E+03  0.56063047227E+03  0.50400001928E-02 0. -1.
    10030    2    1    2    0    0  0.00000000000E+00  0.00000000000E+00  0.12852054594E+04  0.24064664039E+04  0.20345337255E+04 0.  0.
        5    1    3    3  502    0 -0.71207431988E+03  0.27662311937E+03  0.14371477479E+04  0.16275705596E+04  0.46999998093E+01 0.  1.
       -5    1    3    3    0  502  0.71207431988E+03 -0.27662311937E+03 -0.15194228854E+03  0.77889584429E+03  0.46999998093E+01 0. -1.
</event>
<event>
 5   0  0.2510069E-04  0.1925334E+04  0.7818609E-02  0.8642348E-01
       -1   -1    0    0    0  501  0.00000000000E+00  0.00000000000E+00  0.54541776715E+03  0.54541776717E+03  0.50400001928E-02 0.  1.
        1   -1    0    0  501    0  0.00000000000E+00  0.00000000000E+00 -0.16991150146E+04  0.16991150146E+04  0.50400001928E-02 0. -1.
    10030    2    1    2    0    0  0.00000000000E+00  0.00000000000E+00 -0.11536972475E+04  0.22445327818E+04  0.19253337554E+04 0.  0.
        4    1    3    3  502    0 -0.57877870557E+03  0.73527205202E+03 -0.84042038907E+03  0.12577431470E+04  0.12699999809E+01 0. -1.
       -4    1    3    3    0  502  0.57877870557E+03 -0.73527205202E+03 -0.31327685841E+03  0.98678963483E+03  0.12699999809E+01 0.  1.
</event>
<event>
 5   0  0.4839293E-04  0.2013713E+04  0.7818609E-02  0.8600236E-01
       -2   -1    0    0    0  501  0.00000000000E+00  0.00000000000E+00  0.46865521532E+03  0.46865521533E+03  0.25500000920E-02 0. -1.
        2   -1    0    0  501    0  0.00000000000E+00  0.00000000000E+00 -0.21631256003E+04  0.21631256003E+04  0.25500000920E-02 0.  1.
    10030    2    1    2    0    0  0.00000000000E+00  0.00000000000E+00 -0.16944703850E+04  0.26317808156E+04  0.20137130818E+04 0.  0.
        5    1    3    3  502    0 -0.12875780628E+03  0.95913114980E+03 -0.12104272467E+04  0.15497313783E+04  0.46999998093E+01 0.  1.
       -5    1    3    3    0  502  0.12875780628E+03 -0.95913114980E+03 -0.48404313827E+03  0.10820494374E+04  0.46999998093E+01 0. -1.
</event>
<event>
 5   0  0.4829134E-04  0.1891841E+04  0.7818609E-02  0.8658928E-01
        2   -1    0    0  501    0  0.00000000000E+00  0.00000000000E+00  0.78872957818E+03  0.78872957818E+03  0.25500000920E-02 0.  1.
       -2   -1    0    0    0  501  0.00000000000E+00  0.00000000000E+00 -0.11344387093E+04  0.11344387093E+04  0.25500000920E-02 0. -1.
    10030    2    1    2    0    0  0.00000000000E+00  0.00000000000E+00 -0.34570913116E+03  0.19231682875E+04  0.18918407594E+04 0.  0.
        2    1    3    3  502    0  0.15556577292E+03  0.93246393274E+03 -0.13951406912E+03  0.95559084919E+03  0.25500000920E-02 0.  1.
       -2    1    3    3    0  502 -0.15556577292E+03 -0.93246393274E+03 -0.20619506204E+03  0.96757743834E+03  0.25500000920E-02 0. -1.
</event>
<event>
 5   0  0.4802635E-04  0.1870358E+04  0.7818609E-02  0.8669754E-01
        2   -1    0    0  501    0  0.00000000000E+00  0.00000000000E+00  0.14471669078E+04  0.14471669078E+04  0.25500000920E-02 0. -1.
       -2   -1    0    0    0  501  0.00000000000E+00  0.00000000000E+00 -0.60432522648E+03  0.60432522649E+03  0.25500000920E-02 0.  1.
    10030    2    1    2    0    0  0.00000000000E+00  0.00000000000E+00  0.84284168128E+03  0.20514921343E+04  0.18703576870E+04 0.  0.
        3    1    3    3  502    0 -0.21114444955E+03 -0.74520882986E+03 -0.15339416222E+03  0.78958720727E+03  0.10100000352E+00 0.  1.
       -3    1    3    3    0  502  0.21114444955E+03  0.74520882986E+03  0.99623584350E+03  0.12619049270E+04  0.10100000352E+00 0. -1.
</event>
<event>
 5   0  0.4829134E-04  0.1851619E+04  0.7818609E-02  0.8679321E-01
       -2   -1    0    0    0  501  0.00000000000E+00  0.00000000000E+00  0.10796873825E+04  0.10796873825E+04  0.25500000920E-02 0.  1.
        2   -1    0    0  501    0  0.00000000000E+00  0.00000000000E+00 -0.79386241619E+03  0.79386241619E+03  0.25500000920E-02 0. -1.
    10030    2    1    2    0    0  0.00000000000E+00  0.00000000000E+00  0.28582496632E+03  0.18735497987E+04  0.18516190042E+04 0.  0.
        2    1    3    3  502    0 -0.88530314881E+03 -0.14037133139E+03  0.37729685985E+03  0.97253210560E+03  0.25500000920E-02 0.  1.
       -2    1    3    3    0  502  0.88530314881E+03  0.14037133139E+03 -0.91471893532E+02  0.90101769310E+03  0.25500000920E-02 0. -1.
</event>
<event>
 5   0  0.4802635E-04  0.1921473E+04  0.7818609E-02  0.8644241E-01
        2   -1    0    0  501    0  0.00000000000E+00  0.00000000000E+00  0.10345381846E+04  0.10345381846E+04  0.25500000920E-02 0. -1.
       -2   -1    0    0    0  501  0.00000000000E+00  0.00000000000E+00 -0.89219948847E+03  0.89219948847E+03  0.25500000920E-02 0.  1.
    10030    2    1    2    0    0  0.00000000000E+00  0.00000000000E+00  0.14233869612E+03  0.19267376731E+04  0.19214728092E+04 0.  0.
        3    1    3    3  502    0  0.80091927515E+01 -0.27693601695E+03 -0.85127338161E+03  0.89522292481E+03  0.10100000352E+00 0.  1.
       -3    1    3    3    0  502 -0.80091927515E+01  0.27693601695E+03  0.99361207773E+03  0.10315147483E+04  0.10100000352E+00 0. -1.
</event>
<event>
 5   0  0.4839293E-04  0.1471783E+04  0.7818609E-02  0.8903436E-01
        2   -1    0    0  501    0  0.00000000000E+00  0.00000000000E+00  0.68714498246E+03  0.68714498247E+03  0.25500000920E-02 0.  1.
       -2   -1    0    0    0  501  0.00000000000E+00  0.00000000000E+00 -0.78809661701E+03  0.78809661701E+03  0.25500000920E-02 0. -1.
    10030    2    1    2    0    0  0.00000000000E+00  0.00000000000E+00 -0.10095163455E+03  0.14752415995E+04  0.14717834570E+04 0.  0.
        5    1    3    3  502    0  0.49697407105E+03  0.52344312831E+03  0.93173894742E+02  0.72779076700E+03  0.46999998093E+01 0.  1.
       -5    1    3    3    0  502 -0.49697407105E+03 -0.52344312831E+03 -0.19412552929E+03  0.74745083249E+03  0.46999998093E+01 0. -1.
</event>
<event>
 5   0  0.4761944E-04  0.1916644E+04  0.7818609E-02  0.8646616E-01
       -2   -1    0    0    0  501  0.00000000000E+00  0.00000000000E+00  0.65655959411E+03  0.65655959412E+03  0.25500000920E-02 0.  1.
        2   -1    0    0  501    0  0.00000000000E+00  0.00000000000E+00 -0.13987783908E+04  0.13987783908E+04  0.25500000920E-02 0. -1.
    10030    2    1    2    0    0  0.00000000000E+00  0.00000000000E+00 -0.74221879665E+03  0.20553379849E+04  0.19166443306E+04 0.  0.
        4    1    3    3  502    0 -0.41901728783E+03 -0.36173452765E+03 -0.12099907539E+04  0.13306038454E+04  0.12699999809E+01 0. -1.
       -4    1    3    3    0  502  0.41901728783E+03  0.36173452765E+03  0.46777195727E+03  0.72473413946E+03  0.12699999809E+01 0.  1.
</event>
<event>
 5   0  0.4761944E-04  0.1922265E+04  0.7818609E-02  0.8643852E-01
        2   -1    0    0  501    0  0.00000000000E+00  0.00000000000E+00  0.65109789099E+03  0.65109789100E+03  0.25500000920E-02 0.  1.
       -2   -1    0    0    0  501  0.00000000000E+00  0.00000000000E+00 -0.14187970863E+04  0.14187970863E+04  0.25500000920E-02 0. -1.
    10030    2    1    2    0    0  0.00000000000E+00  0.00000000000E+00 -0.76769919526E+03  0.20698949773E+04  0.19222651124E+04 0.  0.
        4    1    3    3  502    0 -0.75843888003E+03 -0.16142389820E+03  0.22764286944E+03  0.80815227436E+03  0.12699999809E+01 0.  1.
       -4    1    3    3    0  502  0.75843888003E+03  0.16142389820E+03 -0.99534206470E+03  0.12617427029E+04  0.12699999809E+01 0. -1.
</event>
<event>
 5   0  0.2261755E-04  0.1936349E+04  0.7818609E-02  0.8636972E-01
       -1   -1    0    0    0  501  0.00000000000E+00  0.00000000000E+00  0.98860225103E+03  0.98860225104E+03  0.50400001928E-02 0. -1.
        1   -1    0    0  501    0  0.00000000000E+00  0.00000000000E+00 -0.94816910580E+03  0.94816910581E+03  0.50400001928E-02 0.  1.
    10030    2    1    2    0    0  0.00000000000E+00  0.00000000000E+00  0.40433145232E+02  0.19367713569E+04  0.19363492581E+04 0.  0.
        1    1    3    3  502    0  0.12952727945E+03 -0.95518058355E+03 -0.70438989141E+02  0.96649310113E+03  0.50400001928E-02 0. -1.
       -1    1    3    3    0  502 -0.12952727945E+03  0.95518058355E+03  0.11087213437E+03  0.97027825572E+03  0.50400001928E-02 0.  1.
</event>
<event>
 5   0  0.4829134E-04  0.1915287E+04  0.7818609E-02  0.8647284E-01
       -2   -1    0    0    0  501  0.00000000000E+00  0.00000000000E+00  0.26167772578E+04  0.26167772578E+04  0.25500000920E-02 0.  1.
        2   -1    0    0  501    0  0.00000000000E+00  0.00000000000E+00 -0.35046204606E+03  0.35046204607E+03  0.25500000920E-02 0. -1.
    10030    2    1    2    0    0  0.00000000000E+00  0.00000000000E+00  0.22663152117E+04  0.29672393038E+04  0.19152870405E+04 0.  0.
        2    1    3    3  502    0  0.51593762110E+03  0.73717213370E+03  0.62528391409E+03  0.10957163669E+04  0.25500000920E-02 0. -1.
       -2    1    3    3    0  502 -0.51593762110E+03 -0.73717213370E+03  0.16410312976E+04  0.18715229369E+04  0.25500000920E-02 0.  1.
</event>
<event>
 5   0  0.2355414E-04  0.1919737E+04  0.7818609E-02  0.8645094E-01
        1   -1    0    0  501    0  0.00000000000E+00  0.00000000000E+00  0.10712382614E+04  0.10712382614E+04  0.50400001928E-02 0.  1.
       -1   -1    0    0    0  501  0.00000000000E+00  0.00000000000E+00 -0.86007675082E+03  0.86007675084E+03  0.50400001928E-02 0. -1.
    10030    2    1    2    0    0  0.00000000000E+00  0.00000000000E+00  0.21116151055E+03  0.19313150122E+04  0.19197365686E+04 0.  0.
        5    1    3    3  502    0 -0.54841926238E+03  0.54758643042E+03 -0.46414785900E+03  0.90336587889E+03  0.46999998093E+01 0. -1.
       -5    1    3    3    0  502  0.54841926238E+03 -0.54758643042E+03  0.67530936955E+03  0.10279491333E+04  0.46999998093E+01 0.  1.
</event>
<event>
 5   0  0.2261755E-04  0.1922091E+04  0.7818609E-02  0.8643938E-01
        1   -1    0    0  501    0  0.00000000000E+00  0.00000000000E+00  0.78009933608E+03  0.78009933610E+03  0.50400001928E-02 0. -1.
       -1   -1    0    0    0  501  0.00000000000E+00  0.00000000000E+00 -0.11839631169E+04  0.11839631169E+04  0.50400001928E-02 0.  1.
    10030    2    1    2    0    0  0.00000000000E+00  0.00000000000E+00 -0.40386378081E+03  0.19640624530E+04  0.19220914041E+04 0.  0.
        1    1    3    3  502    0  0.20646572050E+03 -0.49321357522E+02  0.75584431067E+03  0.78508681816E+03  0.50400001928E-02 0. -1.
       -1    1    3    3    0  502 -0.20646572050E+03  0.49321357522E+02 -0.11597080915E+04  0.11789756348E+04  0.50400001928E-02 0.  1.
</event>
<event>
 5   0  0.2355414E-04  0.1926577E+04  0.7818609E-02  0.8641739E-01
       -1   -1    0    0    0  501  0.00000000000E+00  0.00000000000E+00  0.60696112427E+03  0.60696112429E+03  0.50400001928E-02 0. -1.
        1   -1    0    0  501    0  0.00000000000E+00  0.00000000000E+00 -0.15288038207E+04  0.15288038207E+04  0.50400001928E-02 0.  1.
    10030    2    1    2    0    0  0.00000000000E+00  0.00000000000E+00 -0.92184269647E+03  0.21357649450E+04  0.19265767422E+04 0.  0.
        5    1    3    3  502    0  0.13026950840E+03  0.84501578653E+03 -0.95281200296E+03  0.12801931992E+04  0.46999998093E+01 0.  1.
       -5    1    3    3    0  502 -0.13026950840E+03 -0.84501578653E+03  0.30969306493E+02  0.85557174582E+03  0.46999998093E+01 0. -1.
</event>
<event>
 5   0  0.4973411E-04  0.1899068E+04  0.7818609E-02  0.8655321E-01
       -2   -1    0    0    0  501  0.00000000000E+00  0.00000000000E+00  0.94130411802E+03  0.94130411802E+03  0.25500000920E-02 0.  1.
        2   -1    0    0  501    0  0.00000000000E+00  0.00000000000E+00 -0.95783568619E+03  0.95783568619E+03  0.25500000920E-02 0. -1.
    10030    2    1    2    0    0  0.00000000000E+00  0.00000000000E+00 -0.16531568168E+02  0.18991398042E+04  0.18990678511E+04 0.  0.
        1    1    3    3  502    0  0.28203814103E+03  0.42242890985E+03  0.79402577877E+03  0.94258614155E+03  0.50400001928E-02 0.  1.
       -1    1    3    3    0  502 -0.28203814103E+03 -0.42242890985E+03 -0.81055734693E+03  0.95655366267E+03  0.50400001928E-02 0. -1.
</event>
<event>
 5   0  0.4802635E-04  0.1800689E+04  0.7818609E-02  0.8705933E-01
       -2   -1    0    0    0  501  0.00000000000E+00  0.00000000000E+00  0.91697338665E+03  0.91697338665E+03  0.25500000920E-02 0. -1.
        2   -1    0    0  501    0  0.00000000000E+00  0.00000000000E+00 -0.88401749210E+03  0.88401749211E+03  0.25500000920E-02 0.  1.
    10030    2    1    2    0    0  0.00000000000E+00  0.00000000000E+00  0.32955894545E+02  0.18009908788E+04  0.18006893276E+04 0.  0.
        3    1    3    3  502    0  0.73797928547E+03  0.45298564625E+03  0.26311827441E+03  0.90500865080E+03  0.10100000352E+00 0. -1.
       -3    1    3    3    0  502 -0.73797928547E+03 -0.45298564625E+03 -0.23016237987E+03  0.89598222795E+03  0.10100000352E+00 0.  1.
</event>
<event>
 5   0  0.4839293E-04  0.1856112E+04  0.7818609E-02  0.8677016E-01
       -2   -1    0    0    0  501  0.00000000000E+00  0.00000000000E+00  0.52159153555E+03  0.52159153556E+03  0.25500000920E-02 0. -1.
        2   -1    0    0  501    0  0.00000000000E+00  0.00000000000E+00 -0.16512698367E+04  0.16512698367E+04  0.25500000920E-02 0.  1.
    10030    2    1    2    0    0  0.00000000000E+00  0.00000000000E+00 -0.11296783011E+04  0.21728613722E+04  0.18561124640E+04 0.  0.
        5    1    3    3  502    0  0.87732408257E+03 -0.38528346181E+02 -0.91619912547E+03  0.12691039779E+04  0.46999998093E+01 0. -1.
       -5    1    3    3    0  502 -0.87732408257E+03  0.38528346181E+02 -0.21347917566E+03  0.90375739430E+03  0.46999998093E+01 0.  1.
</event>
<event>
 5   0  0.2355414E-04  0.1018725E+04  0.7818609E-02  0.9288243E-01
       -1   -1    0    0    0  501  0.00000000000E+00  0.00000000000E+00  0.38952260125E+03  0.38952260128E+03  0.50400001928E-02 0. -1.
        1   -1    0    0  501    0  0.00000000000E+00  0.00000000000E+00 -0.66607184694E+03  0.66607184696E+03  0.50400001928E-02 0.  1.
    10030    2    1    2    0    0  0.00000000000E+00  0.00000000000E+00 -0.27654924569E+03  0.10555944482E+04  0.10187247685E+04 0.  0.
        5    1    3    3  502    0  0.15175465646E+03 -0.44172104759E+03  0.72256001258E+02  0.47264149136E+03  0.46999998093E+01 0. -1.
       -5    1    3    3    0  502 -0.15175465646E+03  0.44172104759E+03 -0.34880524695E+03  0.58295295688E+03  0.46999998093E+01 0.  1.
</event>
<event>
 5   0  0.4802635E-04  0.1641030E+04  0.7818609E-02  0.8795731E-01
       -2   -1    0    0    0  501  0.00000000000E+00  0.00000000000E+00  0.69113023027E+03  0.69113023028E+03  0.25500000920E-02 0. -1.
        2   -1    0    0  501    0  0.00000000000E+00  0.00000000000E+00 -0.97412182088E+03  0.97412182088E+03  0.25500000920E-02 0.  1.
    10030    2    1    2    0    0  0.00000000000E+00  0.00000000000E+00 -0.28299159060E+03  0.16652520512E+04  0.16410302110E+04 0.  0.
        3    1    3    3  502    0  0.43762903268E+03 -0.57457271715E+03  0.25359927853E+03  0.76548388736E+03  0.10100000352E+00 0. -1.
       -3    1    3    3    0  502 -0.43762903268E+03  0.57457271715E+03 -0.53659086914E+03  0.89976816379E+03  0.10100000352E+00 0.  1.
</event>
<event>
 5   0  0.4761944E-04  0.1874444E+04  0.7818609E-02  0.8667683E-01
       -2   -1    0    0    0  501  0.00000000000E+00  0.00000000000E+00  0.39772673193E+03  0.39772673194E+03  0.25500000920E-02 0.  1.
        2   -1    0    0  501    0  0.00000000000E+00  0.00000000000E+00 -0.22085142753E+04  0.22085142753E+04  0.25500000920E-02 0. -1.
    10030    2    1    2    0    0  0.00000000000E+00  0.00000000000E+00 -0.18107875433E+04  0.26062410072E+04  0.18744440937E+04 0.  0.
        4    1    3    3  502    0 -0.26870074586E+01  0.74142491193E+03 -0.10828223197E+03  0.74929618623E+03  0.12699999809E+01 0.  1.
       -4    1    3    3    0  502  0.26870074586E+01 -0.74142491193E+03 -0.17025053114E+04  0.18569448210E+04  0.12699999809E+01 0. -1.
</event>
<event>
 5   0  0.4839293E-04  0.2419687E+04  0.7818609E-02  0.8432169E-01
        2   -1    0    0  501    0  0.00000000000E+00  0.00000000000E+00  0.15274132530E+04  0.15274132530E+04  0.25500000920E-02 0.  1.
       -2   -1    0    0    0  501  0.00000000000E+00  0.00000000000E+00 -0.95830112389E+03  0.95830112389E+03  0.25500000920E-02 0. -1.
    10030    2    1    2    0    0  0.00000000000E+00  0.00000000000E+00  0.56911212916E+03  0.24857143769E+04  0.24196874484E+04 0.  0.
        5    1    3    3  502    0  0.49464366374E+03 -0.85739054920E+03 -0.43006157161E+03  0.10792432318E+04  0.46999998093E+01 0. -1.
       -5    1    3    3    0  502 -0.49464366374E+03  0.85739054920E+03  0.99917370076E+03  0.14064711452E+04  0.46999998093E+01 0.  1.
</event>
<event>
 5   0  0.2355414E-04  0.1860059E+04  0.7818609E-02  0.8674997E-01
       -1   -1    0    0    0  501  0.00000000000E+00  0.00000000000E+00  0.59992461402E+03  0.59992461405E+03  0.50400001928E-02 0.  1.
        1   -1    0    0  501    0  0.00000000000E+00  0.00000000000E+00 -0.14417724653E+04  0.14417724653E+04  0.50400001928E-02 0. -1.
    10030    2    1    2    0    0  0.00000000000E+00  0.00000000000E+00 -0.84184785129E+03  0.20416970794E+04  0.18600589128E+04 0.  0.
        5    1    3    3  502    0 -0.29294679397E+02  0.59002238474E+03 -0.12093620563E+04  0.13459432625E+04  0.46999998093E+01 0. -1.
       -5    1    3    3    0  502  0.29294679397E+02 -0.59002238474E+03  0.36751420502E+03  0.69575381683E+03  0.46999998093E+01 0.  1.
</event>
<event>
 5   0  0.4802635E-04  0.1946719E+04  0.7818609E-02  0.8631945E-01
       -2   -1    0    0    0  501  0.00000000000E+00  0.00000000000E+00  0.41120216717E+03  0.41120216718E+03  0.25500000920E-02 0.  1.
        2   -1    0    0  501    0  0.00000000000E+00  0.00000000000E+00 -0.23040454192E+04  0.23040454192E+04  0.25500000920E-02 0. -1.
    10030    2    1    2    0    0  0.00000000000E+00  0.00000000000E+00 -0.18928432521E+04  0.27152475864E+04  0.19467187467E+04 0.  0.
        3    1    3    3  502    0 -0.96927771670E+03 -0.84914675921E+02 -0.98381283675E+03  0.13836898143E+04  0.10100000352E+00 0.  1.
       -3    1    3    3    0  502  0.96927771670E+03  0.84914675921E+02 -0.90903041531E+03  0.13315577721E+04  0.10100000352E+00 0. -1.
</event>
<event>
 5   0  0.4973411E-04  0.2011139E+04  0.7818609E-02  0.8601431E-01
        2   -1    0    0  501    0  0.00000000000E+00  0.00000000000E+00  0.11961079226E+04  0.11961079226E+04  0.25500000920E-02 0.  1.
       -2   -1    0    0    0  501  0.00000000000E+00  0.00000000000E+00 -0.84538331077E+03  0.84538331077E+03  0.25500000920E-02 0. -1.
    10030    2    1    2    0    0  0.00000000000E+00  0.00000000000E+00  0.35072461183E+03  0.20414912334E+04  0.20111386582E+04 0.  0.
        1    1    3    3  502    0 -0.27431016576E+02  0.85766496395E+03 -0.35679007956E+03  0.92932277060E+03  0.50400001928E-02 0. -1.
       -1    1    3    3    0  502  0.27431016576E+02 -0.85766496395E+03  0.70751469139E+03  0.11121684628E+04  0.50400001928E-02 0.  1.
</event>
<event>
 5   0  0.4761944E-04  0.1880176E+04  0.7818609E-02  0.8664787E-01
        2   -1    0    0  501    0  0.00000000000E+00  0.00000000000E+00  0.16305628445E+04  0.16305628445E+04  0.25500000920E-02 0.  1.
       -2   -1    0    0    0  501  0.00000000000E+00  0.00000000000E+00 -0.54200026792E+03  0.54200026793E+03  0.25500000920E-02 0. -1.
    10030    2    1    2    0    0  0.00000000000E+00  0.00000000000E+00  0.10885625765E+04  0.21725631124E+04  0.18801760541E+04 0.  0.
        4    1    3    3  502    0  0.65269091582E+03 -0.51932434116E+03  0.43183035468E+02  0.83520631605E+03  0.12699999809E+01 0. -1.
       -4    1    3    3    0  502 -0.65269091582E+03  0.51932434116E+03  0.10453795411E+04  0.13373567963E+04  0.12699999809E+01 0.  1.
</event>
<event>
 5   0  0.4973411E-04  0.1960883E+04  0.7818609E-02  0.8625131E-01
        2   -1    0    0  501    0  0.00000000000E+00  0.00000000000E+00  0.92302230585E+03  0.92302230586E+03  0.25500000920E-02 0. -1.
       -2   -1    0    0    0  501  0.00000000000E+00  0.00000000000E+00 -0.10414323955E+04  0.10414323955E+04  0.25500000920E-02 0.  1.
    10030    2    1    2    0    0  0.00000000000E+00  0.00000000000E+00 -0.11841008960E+03  0.19644547013E+04  0.19608827921E+04 0.  0.
        1    1    3    3  502    0  0.26404162428E+03  0.52766410505E+03 -0.84364985985E+03  0.10295107931E+04  0.50400001928E-02 0.  1.
       -1    1    3    3    0  502 -0.26404162428E+03 -0.52766410505E+03  0.72523977024E+03  0.93494390820E+03  0.50400001928E-02 0. -1.
</event>
<event>
 5   0  0.4802635E-04  0.1925100E+04  0.7818609E-02  0.8642463E-01
       -2   -1    0    0    0  501  0.00000000000E+00  0.00000000000E+00  0.70493275324E+03  0.70493275324E+03  0.25500000920E-02 0. -1.
        2   -1    0    0  501    0  0.00000000000E+00  0.00000000000E+00 -0.13143130436E+04  0.13143130436E+04  0.25500000920E-02 0.  1.
    10030    2    1    2    0    0  0.00000000000E+00  0.00000000000E+00 -0.60938029038E+03  0.20192457969E+04  0.19250998026E+04 0.  0.
        3    1    3    3  502    0 -0.39446066890E+03  0.54510855111E+02  0.61448277607E+03  0.73222929804E+03  0.10100000352E+00 0. -1.
       -3    1    3    3    0  502  0.39446066890E+03 -0.54510855111E+02 -0.12238630664E+04  0.12870164988E+04  0.10100000352E+00 0.  1.
</event>
<event>
 5   0  0.4829134E-04  0.1935070E+04  0.7818609E-02  0.8637594E-01
       -2   -1    0    0    0  501  0.00000000000E+00  0.00000000000E+00  0.12944134002E+04  0.12944134002E+04  0.25500000920E-02 0.  1.
        2   -1    0    0  501    0  0.00000000000E+00  0.00000000000E+00 -0.72320333539E+03  0.72320333539E+03  0.25500000920E-02 0. -1.
    10030    2    1    2    0    0  0.00000000000E+00  0.00000000000E+00  0.57121006485E+03  0.20176167356E+04  0.19350701160E+04 0.  0.
        2    1    3    3  502    0  0.19543542156E+03  0.35475664165E+03  0.12017669168E+04  0.12681841353E+04  0.25500000920E-02 0.  1.
       -2    1    3    3    0  502 -0.19543542156E+03 -0.35475664165E+03 -0.63055685196E+03  0.74943260028E+03  0.25500000920E-02 0. -1.
</event>
<event>
 5   0  0.4973411E-04  0.1809914E+04  0.7818609E-02  0.8701045E-01
       -2   -1    0    0    0  501  0.00000000000E+00  0.00000000000E+00  0.95179391709E+03  0.95179391709E+03  0.25500000920E-02 0.  1.
        2   -1    0    0  501    0  0.00000000000E+00  0.00000000000E+00 -0.86042472929E+03  0.86042472929E+03  0.25500000920E-02 0. -1.
    10030    2    1    2    0    0  0.00000000000E+00  0.00000000000E+00  0.91369187797E+02  0.18122186464E+04  0.18099138360E+04 0.  0.
        1    1    3    3  502    0 -0.38221403296E+03  0.41925713127E+03  0.75162349173E+03  0.94170164195E+03  0.50400001928E-02 0.  1.
       -1    1    3    3    0  502  0.38221403296E+03 -0.41925713127E+03 -0.66025430393E+03  0.87051700443E+03  0.50400001928E-02 0. -1.
</event>
<event>
 5   0  0.4829134E-04  0.1912300E+04  0.7818609E-02  0.8648758E-01
       -2   -1    0    0    0  501  0.00000000000E+00  0.00000000000E+00  0.12816550226E+04  0.12816550226E+04  0.25500000920E-02 0. -1.
        2   -1    0    0  501    0  0.00000000000E+00  0.00000000000E+00 -0.71331439166E+03  0.71331439166E+03  0.25500000920E-02 0.  1.
    10030    2    1    2    0    0  0.00000000000E+00  0.00000000000E+00  0.56834063098E+03  0.19949694143E+04  0.19123001572E+04 0.  0.
        2    1    3    3  502    0  0.60323808952E+03 -0.72643934755E+03  0.12729451524E+03  0.95279284839E+03  0.25500000920E-02 0. -1.
       -2    1    3    3    0  502 -0.60323808952E+03  0.72643934755E+03  0.44104611574E+03  0.10421765659E+04  0.25500000920E-02 0.  1.
</event>
<event>
 5   0  0.2261755E-04  0.1911801E+04  0.7818609E-02  0.8649005E-01
        1   -1    0    0  501    0  0.00000000000E+00  0.00000000000E+00  0.20529690795E+04  0.20529690795E+04  0.50400001928E-02 0. -1.
       -1   -1    0    0    0  501  0.00000000000E+00  0.00000000000E+00 -0.44508489008E+03  0.44508489011E+03  0.50400001928E-02 0.  1.
    10030    2    1    2    0    0  0.00000000000E+00  0.00000000000E+00  0.16078841894E+04  0.24980539696E+04  0.19118007398E+04 0.  0.
        1    1    3    3  502    0 -0.54467670680E+03  0.77839846893E+03  0.66585310221E+03  0.11601453552E+04  0.50400001928E-02 0. -1.
       -1    1    3    3    0  502  0.54467670680E+03 -0.77839846893E+03  0.94203108723E+03  0.13379086145E+04  0.50400001928E-02 0.  1.
</event>
<event>
 5   0  0.2376359E-04  0.1969845E+04  0.7818609E-02  0.8620850E-01
        1   -1    0    0  501    0  0.00000000000E+00  0.00000000000E+00  0.11602673392E+04  0.11602673392E+04  0.50400001928E-02 0. -1.
       -1   -1    0    0    0  501  0.00000000000E+00  0.00000000000E+00 -0.83607650337E+03  0.83607650338E+03  0.50400001928E-02 0.  1.
    10030    2    1    2    0    0  0.00000000000E+00  0.00000000000E+00  0.32419083587E+03  0.19963438426E+04  0.19698449279E+04 0.  0.
        2    1    3    3  502    0 -0.15024440476E+03  0.63783294629E+03 -0.58309737114E+03  0.87715836242E+03  0.25500000920E-02 0.  1.
       -2    1    3    3    0  502  0.15024440476E+03 -0.63783294629E+03  0.90728820701E+03  0.11191854802E+04  0.25500000920E-02 0. -1.
</event>
<event>
 5   0  0.2510069E-04  0.1761164E+04  0.7818609E-02  0.8727229E-01
       -1   -1    0    0    0  501  0.00000000000E+00  0.00000000000E+00  0.63275235618E+03  0.63275235620E+03  0.50400001928E-02 0. -1.
        1   -1    0    0  501    0  0.00000000000E+00  0.00000000000E+00 -0.12254791587E+04  0.12254791587E+04  0.50400001928E-02 0.  1.
    10030    2    1    2    0    0  0.00000000000E+00  0.00000000000E+00 -0.59272680252E+03  0.18582315149E+04  0.17611641890E+04 0.  0.
        4    1    3    3  502    0  0.75457905807E+03 -0.37738517406E+03 -0.56248285733E+03  0.10140008393E+04  0.12699999809E+01 0.  1.
       -4    1    3    3    0  502 -0.75457905807E+03  0.37738517406E+03 -0.30243945188E+02  0.84423067558E+03  0.12699999809E+01 0. -1.
</event>
<event>
 5   0  0.2355414E-04  0.1880382E+04  0.7818609E-02  0.8664683E-01
        1   -1    0    0  501    0  0.00000000000E+00  0.00000000000E+00  0.17476229290E+04  0.17476229290E+04  0.50400001928E-02 0. -1.
       -1   -1    0    0    0  501  0.00000000000E+00  0.00000000000E+00 -0.50580666409E+03  0.50580666411E+03  0.50400001928E-02 0.  1.
    10030    2    1    2    0    0  0.00000000000E+00  0.00000000000E+00  0.12418162649E+04  0.22534295931E+04  0.18803822206E+04 0.  0.
        5    1    3    3  502    0 -0.84795095861E+02  0.43043965232E+03 -0.37560753251E+03  0.57755658688E+03  0.46999998093E+01 0.  1.
       -5    1    3    3    0  502  0.84795095861E+02 -0.43043965232E+03  0.16174237974E+04  0.16758730063E+04  0.46999998093E+01 0. -1.
</event>
<event>
 5   0  0.4802635E-04  0.1868850E+04  0.7818609E-02  0.8670519E-01
        2   -1    0    0  501    0  0.00000000000E+00  0.00000000000E+00  0.13797011141E+04  0.13797011141E+04  0.25500000920E-02 0. -1.
       -2   -1    0    0    0  501  0.00000000000E+00  0.00000000000E+00 -0.63285418398E+03  0.63285418398E+03  0.25500000920E-02 0.  1.
    10030    2    1    2    0    0  0.00000000000E+00  0.00000000000E+00  0.74684693015E+03  0.20125552981E+04  0.18688495100E+04 0.  0.
        3    1    3    3  502    0 -0.86682852706E+02  0.73671039108E+03 -0.23850849923E+03  0.77919344947E+03  0.10100000352E+00 0.  1.
       -3    1    3    3    0  502  0.86682852706E+02 -0.73671039108E+03  0.98535542938E+03  0.12333618486E+04  0.10100000352E+00 0. -1.
</event>
<event>
 5   0  0.4802635E-04  0.1950392E+04  0.7818609E-02  0.8630172E-01
        2   -1    0    0  501    0  0.00000000000E+00  0.00000000000E+00  0.12607321384E+04  0.12607321384E+04  0.25500000920E-02 0. -1.
       -2   -1    0    0    0  501  0.00000000000E+00  0.00000000000E+00 -0.75432953629E+03  0.75432953629E+03  0.25500000920E-02 0.  1.
    10030    2    1    2    0    0  0.00000000000E+00  0.00000000000E+00  0.50640260215E+03  0.20150616747E+04  0.19503922573E+04 0.  0.
        3    1    3    3  502    0 -0.21766045487E+03  0.84313745120E+03  0.70679216407E+03  0.11215221837E+04  0.10100000352E+00 0. -1.
       -3    1    3    3    0  502  0.21766045487E+03 -0.84313745120E+03 -0.20038956192E+03  0.89353949099E+03  0.10100000352E+00 0.  1.
</event>
<event>
 5   0  0.2317458E-04  0.1902516E+04  0.7818609E-02  0.8653605E-01
        1   -1    0    0  501    0  0.00000000000E+00  0.00000000000E+00  0.13602436625E+04  0.13602436625E+04  0.50400001928E-02 0.  1.
       -1   -1    0    0    0  501  0.00000000000E+00  0.00000000000E+00 -0.66524255114E+03  0.66524255116E+03  0.50400001928E-02 0. -1.
    10030    2    1    2    0    0  0.00000000000E+00  0.00000000000E+00  0.69500111138E+03  0.20254862137E+04  0.19025161910E+04 0.  0.
        3    1    3    3  502    0  0.40593978964E+03 -0.15278164021E+03  0.12488404663E+04  0.13220181023E+04  0.10100000352E+00 0.  1.
       -3    1    3    3    0  502 -0.40593978964E+03  0.15278164021E+03 -0.55383935495E+03  0.70346811135E+03  0.10100000352E+00 0. -1.
</event>
<event>
 5   0  0.2510069E-04  0.1918324E+04  0.7818609E-02  0.8645789E-01
       -1   -1    0    0    0  501  0.00000000000E+00  0.00000000000E+00  0.13686872140E+04  0.13686872140E+04  0.50400001928E-02 0.  1.
        1   -1    0    0  501    0  0.00000000000E+00  0.00000000000E+00 -0.67217067613E+03  0.67217067615E+03  0.50400001928E-02 0. -1.
    10030    2    1    2    0    0  0.00000000000E+00  0.00000000000E+00  0.69651653786E+03  0.20408578901E+04  0.19183236537E+04 0.  0.
        4    1    3    3  502    0  0.29151390156E+03 -0.79557758895E+03 -0.12997218450E+03  0.85721551344E+03  0.12699999809E+01 0. -1.
       -4    1    3    3    0  502 -0.29151390156E+03  0.79557758895E+03  0.82648872236E+03  0.11836423767E+04  0.12699999809E+01 0.  1.
</event>
<event>
 5   0  0.2355414E-04  0.1217790E+04  0.7818609E-02  0.9097426E-01
       -1   -1    0    0    0  501  0.00000000000E+00  0.00000000000E+00  0.12405508841E+04  0.12405508841E+04  0.50400001928E-02 0.  1.
        1   -1    0    0  501    0  0.00000000000E+00  0.00000000000E+00 -0.29886161210E+03  0.29886161214E+03  0.50400001928E-02 0. -1.
    10030    2    1    2    0    0  0.00000000000E+00  0.00000000000E+00  0.94168927198E+03  0.15394124962E+04  0.12177898623E+04 0.  0.
        5    1    3    3  502    0  0.51010184817E+03 -0.11800884388E+03  0.86373681559E+03  0.10100462164E+04  0.46999998093E+01 0.  1.
       -5    1    3    3    0  502 -0.51010184817E+03  0.11800884388E+03  0.77952456395E+02  0.52936627980E+03  0.46999998093E+01 0. -1.
</event>
<event>
 5   0  0.4761944E-04  0.1953171E+04  0.7818609E-02  0.8628833E-01
       -2   -1    0    0    0  501  0.00000000000E+00  0.00000000000E+00  0.73024109649E+03  0.73024109649E+03  0.25500000920E-02 0. -1.
        2   -1    0    0  501    0  0.00000000000E+00  0.00000000000E+00 -0.13060339654E+04  0.13060339654E+04  0.25500000920E-02 0.  1.
    10030    2    1    2    0    0  0.00000000000E+00  0.00000000000E+00 -0.57579286887E+03  0.20362750619E+04  0.19531714466E+04 0.  0.
        4    1    3    3  502    0 -0.21429763945E+03 -0.77179300358E+03 -0.87035351856E+03  0.11828375961E+04  0.12699999809E+01 0.  1.
       -4    1    3    3    0  502  0.21429763945E+03  0.77179300358E+03  0.29456064969E+03  0.85343746572E+03  0.12699999809E+01 0. -1.
</event>
<event>
 5   0  0.4761944E-04  0.1840441E+04  0.7818609E-02  0.8685084E-01
       -2   -1    0    0    0  501  0.00000000000E+00  0.00000000000E+00  0.50757143286E+03  0.50757143286E+03  0.25500000920E-02 0.  1.
        2   -1    0    0  501    0  0.00000000000E+00  0.00000000000E+00 -0.16683476479E+04  0.16683476479E+04  0.25500000920E-02 0. -1.
    10030    2    1    2    0    0  0.00000000000E+00  0.00000000000E+00 -0.11607762151E+04  0.21759190808E+04  0.18404408235E+04 0.  0.
        4    1    3    3  502    0 -0.51478027123E+03  0.32451270389E+02  0.32059429199E+03  0.60731715401E+03  0.12699999809E+01 0.  1.
       -4    1    3    3    0  502  0.51478027123E+03 -0.32451270389E+02 -0.14813705071E+04  0.15686019268E+04  0.12699999809E+01 0. -1.
</event>
<event>
 5   0  0.4802635E-04  0.1856118E+04  0.7818609E-02  0.8677013E-01
       -2   -1    0    0    0  501  0.00000000000E+00  0.00000000000E+00  0.50583600061E+03  0.50583600061E+03  0.25500000920E-02 0.  1.
        2   -1    0    0  501    0  0.00000000000E+00  0.00000000000E+00 -0.17027122662E+04  0.17027122662E+04  0.25500000920E-02 0. -1.
    10030    2    1    2    0    0  0.00000000000E+00  0.00000000000E+00 -0.11968762656E+04  0.22085482668E+04  0.18561176288E+04 0.  0.
        3    1    3    3  502    0 -0.28521354128E+03  0.60952769130E+03  0.16198648208E+03  0.69217801263E+03  0.10100000352E+00 0.  1.
       -3    1    3    3    0  502  0.28521354128E+03 -0.60952769130E+03 -0.13588627477E+04  0.15163702542E+04  0.10100000352E+00 0. -1.
</event>
<event>
 5   0  0.2261755E-04  0.1882940E+04  0.7818609E-02  0.8663395E-01
       -1   -1    0    0    0  501  0.00000000000E+00  0.00000000000E+00  0.81837718359E+03  0.81837718360E+03  0.50400001928E-02 0.  1.
        1   -1    0    0  501    0  0.00000000000E+00  0.00000000000E+00 -0.10830768109E+04  0.10830768109E+04  0.50400001928E-02 0. -1.
    10030    2    1    2    0    0  0.00000000000E+00  0.00000000000E+00 -0.26469962731E+03  0.19014539945E+04  0.18829395637E+04 0.  0.
        1    1    3    3  502    0 -0.26011212221E+02  0.42274336937E+03 -0.98143648942E+03  0.10689275571E+04  0.50400001928E-02 0. -1.
       -1    1    3    3    0  502  0.26011212221E+02 -0.42274336937E+03  0.71673686210E+03  0.83252643743E+03  0.50400001928E-02 0.  1.
</event>
<event>
 5   0  0.4761944E-04  0.1728410E+04  0.7818609E-02  0.8745325E-01
        2   -1    0    0  501    0  0.00000000000E+00  0.00000000000E+00  0.51771177139E+03  0.51771177140E+03  0.25500000920E-02 0. -1.
       -2   -1    0    0    0  501  0.00000000000E+00  0.00000000000E+00 -0.14425980589E+04  0.14425980589E+04  0.25500000920E-02 0.  1.
    10030    2    1    2    0    0  0.00000000000E+00  0.00000000000E+00 -0.92488628751E+03  0.19603098303E+04  0.17284096696E+04 0.  0.
        4    1    3    3  502    0  0.78924055471E+03  0.12264253422E+03 -0.83673037296E+03  0.11567459420E+04  0.12699999809E+01 0. -1.
       -4    1    3    3    0  502 -0.78924055471E+03 -0.12264253422E+03 -0.88155914547E+02  0.80356388829E+03  0.12699999809E+01 0.  1.
</event>
<event>
 5   0  0.2510069E-04  0.1568939E+04  0.7818609E-02  0.8839860E-01
        1   -1    0    0  501    0  0.00000000000E+00  0.00000000000E+00  0.12228286737E+04  0.12228286737E+04  0.50400001928E-02 0.  1.
       -1   -1    0    0    0  501  0.00000000000E+00  0.00000000000E+00 -0.50325316583E+03  0.50325316585E+03  0.50400001928E-02 0. -1.
    10030    2    1    2    0    0  0.00000000000E+00  0.00000000000E+00  0.71957550782E+03  0.17260818395E+04  0.15689390062E+04 0.  0.
        4    1    3    3  502    0  0.86775478044E+02 -0.15636485260E+03  0.12001036308E+04  0.12133549721E+04  0.12699999809E+01 0.  1.
       -4    1    3    3    0  502 -0.86775478044E+02  0.15636485260E+03 -0.48052812297E+03  0.51272686743E+03  0.12699999809E+01 0. -1.
</event>
<event>
 5   0  0.4973411E-04  0.1836284E+04  0.7818609E-02  0.8687238E-01
        2   -1    0    0  501    0  0.00000000000E+00  0.00000000000E+00  0.77379471613E+03  0.77379471613E+03  0.25500000920E-02 0.  1.
       -2   -1    0    0    0  501  0.00000000000E+00  0.00000000000E+00 -0.10894167926E+04  0.10894167926E+04  0.25500000920E-02 0. -1.
    10030    2    1    2    0    0  0.00000000000E+00  0.00000000000E+00 -0.31562207651E+03  0.18632115088E+04  0.18362842458E+04 0.  0.
        1    1    3    3  502    0  0.81815678601E+03 -0.32406109372E+03  0.10792409390E+03  0.88659107204E+03  0.50400001928E-02 0.  1.
       -1    1    3    3    0  502 -0.81815678601E+03  0.32406109372E+03 -0.42354617042E+03  0.97662043674E+03  0.50400001928E-02 0. -1.
</event>
<event>
 5   0  0.4839293E-04  0.1902366E+04  0.7818609E-02  0.8653679E-01
        2   -1    0    0  501    0  0.00000000000E+00  0.00000000000E+00  0.15778171794E+04  0.15778171794E+04  0.25500000920E-02 0.  1.
       -2   -1    0    0    0  501  0.00000000000E+00  0.00000000000E+00 -0.57341840492E+03  0.57341840493E+03  0.25500000920E-02 0. -1.
    10030    2    1    2    0    0  0.00000000000E+00  0.00000000000E+00  0.10043987744E+04  0.21512355843E+04  0.19023663267E+04 0.  0.
        5    1    3    3  502    0  0.52143717122E+03  0.15734199910E+03 -0.37960463015E+03  0.66390887435E+03  0.46999998093E+01 0. -1.
       -5    1    3    3    0  502 -0.52143717122E+03 -0.15734199910E+03  0.13840034046E+04  0.14873267099E+04  0.46999998093E+01 0.  1.
</event>
<event>
 5   0  0.2261755E-04  0.1875886E+04  0.7818609E-02  0.8666953E-01
        1   -1    0    0  501    0  0.00000000000E+00  0.00000000000E+00  0.14543359489E+04  0.14543359489E+04  0.50400001928E-02 0.  1.
       -1   -1    0    0    0  501  0.00000000000E+00  0.00000000000E+00 -0.60490663563E+03  0.60490663565E+03  0.50400001928E-02 0. -1.
    10030    2    1    2    0    0  0.00000000000E+00  0.00000000000E+00  0.84942931325E+03  0.20592425845E+04  0.18758864208E+04 0.  0.
        1    1    3    3  502    0 -0.61013625857E+03 -0.67874754642E+03  0.66212437453E+03  0.11275518494E+04  0.50400001928E-02 0.  1.
       -1    1    3    3    0  502  0.61013625857E+03  0.67874754642E+03  0.18730493872E+03  0.93169073510E+03  0.50400001928E-02 0. -1.
</event>
<event>
 5   0  0.2261755E-04  0.1902104E+04  0.7818609E-02  0.8653810E-01
        1   -1    0    0  501    0  0.00000000000E+00  0.00000000000E+00  0.16363458817E+04  0.16363458817E+04  0.50400001928E-02 0.  1.
       -1   -1    0    0    0  501  0.00000000000E+00  0.00000000000E+00 -0.55275565508E+03  0.55275565511E+03  0.50400001928E-02 0. -1.
    10030    2    1    2    0    0  0.00000000000E+00  0.00000000000E+00  0.10835902266E+04  0.21891015368E+04  0.19021035091E+04 0.  0.
        1    1    3    3  502    0  0.55171692520E+03  0.58420534239E+03 -0.43700919748E+02  0.80473425306E+03  0.50400001928E-02 0. -1.
       -1    1    3    3    0  502 -0.55171692520E+03 -0.58420534239E+03  0.11272911463E+04  0.13843672837E+04  0.50400001928E-02 0.  1.
</event>
<event>
 5   0  0.2510069E-04  0.1792187E+04  0.7818609E-02  0.8710465E-01
        1   -1    0    0  501    0  0.00000000000E+00  0.00000000000E+00  0.10443987182E+04  0.10443987183E+04  0.50400001928E-02 0. -1.
       -1   -1    0    0    0  501  0.00000000000E+00  0.00000000000E+00 -0.76884755950E+03  0.76884755952E+03  0.50400001928E-02 0.  1.
    10030    2    1    2    0    0  0.00000000000E+00  0.00000000000E+00  0.27555115874E+03  0.18132462778E+04  0.17921868270E+04 0.  0.
        4    1    3    3  502    0  0.12460996942E+03 -0.53976376842E+03 -0.57485124214E+03  0.79832833701E+03  0.12699999809E+01 0.  1.
       -4    1    3    3    0  502 -0.12460996942E+03  0.53976376842E+03  0.85040240088E+03  0.10149179408E+04  0.12699999809E+01 0. -1.
</event>
<event>
 5   0  0.4761944E-04  0.1866700E+04  0.7818609E-02  0.8671612E-01
       -2   -1    0    0    0  501  0.00000000000E+00  0.00000000000E+00  0.20904752264E+04  0.20904752264E+04  0.25500000920E-02 0. -1.
        2   -1    0    0  501    0  0.00000000000E+00  0.00000000000E+00 -0.41671983204E+03  0.41671983204E+03  0.25500000920E-02 0.  1.
    10030    2    1    2    0    0  0.00000000000E+00  0.00000000000E+00  0.16737553943E+04  0.25071950584E+04  0.18667002815E+04 0.  0.
        4    1    3    3  502    0  0.37695197318E+03 -0.71870599467E+03  0.21771756198E+03  0.84025808330E+03  0.12699999809E+01 0.  1.
       -4    1    3    3    0  502 -0.37695197318E+03  0.71870599467E+03  0.14560378323E+04  0.16669369751E+04  0.12699999809E+01 0. -1.
</event>
<event>
 5   0  0.2261755E-04  0.1858167E+04  0.7818609E-02  0.8675964E-01
        1   -1    0    0  501    0  0.00000000000E+00  0.00000000000E+00  0.64454970122E+03  0.64454970124E+03  0.50400001928E-02 0. -1.
       -1   -1    0    0    0  501  0.00000000000E+00  0.00000000000E+00 -0.13392233080E+04  0.13392233080E+04  0.50400001928E-02 0.  1.
    10030    2    1    2    0    0  0.00000000000E+00  0.00000000000E+00 -0.69467360680E+03  0.19837730093E+04  0.18581668204E+04 0.  0.
        1    1    3    3  502    0 -0.73899373000E+03 -0.56299235895E+03 -0.33545555610E+03  0.98772595357E+03  0.50400001928E-02 0.  1.
       -1    1    3    3    0  502  0.73899373000E+03  0.56299235895E+03 -0.35921805070E+03  0.99604705571E+03  0.50400001928E-02 0. -1.
</event>
<event>
 5   0  0.4973411E-04  0.1880897E+04  0.7818609E-02  0.8664424E-01
        2   -1    0    0  501    0  0.00000000000E+00  0.00000000000E+00  0.10167185934E+04  0.10167185934E+04  0.25500000920E-02 0. -1.
       -2   -1    0    0    0  501  0.00000000000E+00  0.00000000000E+00 -0.86990026213E+03  0.86990026214E+03  0.25500000920E-02 0.  1.
    10030    2    1    2    0    0  0.00000000000E+00  0.00000000000E+00  0.14681833128E+03  0.18866188556E+04  0.18808974145E+04 0.  0.
        1    1    3    3  502    0  0.11852623897E+03 -0.66713610090E+03  0.72756222347E+03  0.99421619152E+03  0.50400001928E-02 0. -1.
       -1    1    3    3    0  502 -0.11852623897E+03  0.66713610090E+03 -0.58074389219E+03  0.89240266404E+03  0.50400001928E-02 0.  1.
</event>
<event>
 5   0  0.1729375E-04  0.1976775E+04  0.7818609E-02  0.8617557E-01
        3   -1    0    0  501    0  0.00000000000E+00  0.00000000000E+00  0.28989631506E+04  0.28989631524E+04  0.10100000352E+00 0.  1.
       -3   -1    0    0    0  501  0.00000000000E+00  0.00000000000E+00 -0.33698578508E+03  0.33698580021E+03  0.10100000352E+00 0. -1.
    10030    2    1    2    0    0  0.00000000000E+00  0.00000000000E+00  0.25619773655E+04  0.32359489526E+04  0.19767745451E+04 0.  0.
        5    1    3    3  502    0  0.59284544489E+03  0.77892121935E+03  0.10571145534E+04  0.14407280300E+04  0.46999998093E+01 0. -1.
       -5    1    3    3    0  502 -0.59284544489E+03 -0.77892121935E+03  0.15048628121E+04  0.17952209226E+04  0.46999998093E+01 0.  1.
</event>
<event>
 5   0  0.2355414E-04  0.1853084E+04  0.7818609E-02  0.8678568E-01
        1   -1    0    0  501    0  0.00000000000E+00  0.00000000000E+00  0.98646650926E+03  0.98646650928E+03  0.50400001928E-02 0. -1.
       -1   -1    0    0    0  501  0.00000000000E+00  0.00000000000E+00 -0.87025796118E+03  0.87025796119E+03  0.50400001928E-02 0.  1.
    10030    2    1    2    0    0  0.00000000000E+00  0.00000000000E+00  0.11620854809E+03  0.18567244705E+04  0.18530842756E+04 0.  0.
        5    1    3    3  502    0 -0.66867929737E+03 -0.19837037218E+03 -0.55299169778E+03  0.89011500105E+03  0.46999998093E+01 0.  1.
       -5    1    3    3    0  502  0.66867929737E+03  0.19837037218E+03  0.66920024587E+03  0.96660946941E+03  0.46999998093E+01 0. -1.
</event>
<event>
 5   0  0.4802635E-04  0.1918344E+04  0.7818609E-02  0.8645779E-01
       -2   -1    0    0    0  501  0.00000000000E+00  0.00000000000E+00  0.54260327733E+03  0.54260327733E+03  0.25500000920E-02 0. -1.
        2   -1    0    0  501    0  0.00000000000E+00  0.00000000000E+00 -0.16955505390E+04  0.16955505390E+04  0.25500000920E-02 0.  1.
    10030    2    1    2    0    0  0.00000000000E+00  0.00000000000E+00 -0.11529472617E+04  0.22381538164E+04  0.19183443688E+04 0.  0.
        3    1    3    3  502    0  0.39547540981E+03 -0.71844368813E+03  0.38982058627E+01  0.82010812640E+03  0.10100000352E+00 0. -1.
       -3    1    3    3    0  502 -0.39547540981E+03  0.71844368813E+03 -0.11568454676E+04  0.14180456900E+04  0.10100000352E+00 0.  1.
</event>
<event>
 5   0  0.2261755E-04  0.1799712E+04  0.7818609E-02  0.8706453E-01
       -1   -1    0    0    0  501  0.00000000000E+00  0.00000000000E+00  0.56289205745E+03  0.56289205747E+03  0.50400001928E-02 0. -1.
        1   -1    0    0  501    0  0.00000000000E+00  0.00000000000E+00 -0.14385358508E+04  0.14385358508E+04  0.50400001928E-02 0.  1.
    10030    2    1    2    0    0  0.00000000000E+00  0.00000000000E+00 -0.87564379334E+03  0.20014279083E+04  0.17997115378E+04 0.  0.
        1    1    3    3  502    0 -0.86930846045E+03 -0.21757884964E+03 -0.52886777851E+03  0.10405473956E+04  0.50400001928E-02 0.  1.
       -1    1    3    3    0  502  0.86930846045E+03  0.21757884964E+03 -0.34677601483E+03  0.96088051271E+03  0.50400001928E-02 0. -1.
</event>
<event>
 5   0  0.2355414E-04  0.1899568E+04  0.7818609E-02  0.8655072E-01
        1   -1    0    0  501    0  0.00000000000E+00  0.00000000000E+00  0.17059212652E+04  0.17059212652E+04  0.50400001928E-02 0. -1.
       -1   -1    0    0    0  501  0.00000000000E+00  0.00000000000E+00 -0.52879904077E+03  0.52879904079E+03  0.50400001928E-02 0.  1.
    10030    2    1    2    0    0  0.00000000000E+00  0.00000000000E+00  0.11771222245E+04  0.22347203060E+04  0.18995678758E+04 0.  0.
        5    1    3    3  502    0  0.70002684491E+03 -0.10367041567E+03  0.13337963138E+04  0.15099072274E+04  0.46999998093E+01 0. -1.
       -5    1    3    3    0  502 -0.70002684491E+03  0.10367041567E+03 -0.15667408933E+03  0.72481307863E+03  0.46999998093E+01 0.  1.
</event>
<event>
 5   0  0.4839293E-04  0.1900334E+04  0.7818609E-02  0.8654690E-01
       -2   -1    0    0    0  501  0.00000000000E+00  0.00000000000E+00  0.66751225429E+03  0.66751225430E+03  0.25500000920E-02 0. -1.
        2   -1    0    0  501    0  0.00000000000E+00  0.00000000000E+00 -0.13525099988E+04  0.13525099988E+04  0.25500000920E-02 0.  1.
    10030    2    1    2    0    0  0.00000000000E+00  0.00000000000E+00 -0.68499774448E+03  0.20200222531E+04  0.19003336531E+04 0.  0.
        5    1    3    3  502    0  0.25904462520E+03 -0.41874205623E+03  0.52129880310E+03  0.71709382902E+03  0.46999998093E+01 0. -1.
       -5    1    3    3    0  502 -0.25904462520E+03  0.41874205623E+03 -0.12062965476E+04  0.13029284241E+04  0.46999998093E+01 0.  1.
</event>
<event>
 5   0  0.2261755E-04  0.1979277E+04  0.7818609E-02  0.8616371E-01
       -1   -1    0    0    0  501  0.00000000000E+00  0.00000000000E+00  0.11003828125E+04  0.11003828125E+04  0.50400001928E-02 0. -1.
        1   -1    0    0  501    0  0.00000000000E+00  0.00000000000E+00 -0.89003930989E+03  0.89003930990E+03  0.50400001928E-02 0.  1.
    10030    2    1    2    0    0  0.00000000000E+00  0.00000000000E+00  0.21034350259E+03  0.19904221224E+04  0.19792765942E+04 0.  0.
        1    1    3    3  502    0  0.52193125524E+02  0.63771382258E+03 -0.65405037940E+03  0.91497810940E+03  0.50400001928E-02 0.  1.
       -1    1    3    3    0  502 -0.52193125524E+02 -0.63771382258E+03  0.86439388199E+03  0.10754440130E+04  0.50400001928E-02 0. -1.
</event>
<event>
 5   0  0.2355414E-04  0.1650664E+04  0.7818609E-02  0.8790014E-01
       -1   -1    0    0    0  501  0.00000000000E+00  0.00000000000E+00  0.81138838025E+03  0.81138838027E+03  0.50400001928E-02 0.  1.
        1   -1    0    0  501    0  0.00000000000E+00  0.00000000000E+00 -0.83951529522E+03  0.83951529524E+03  0.50400001928E-02 0. -1.
    10030    2    1    2    0    0  0.00000000000E+00  0.00000000000E+00 -0.28126914969E+02  0.16509036755E+04  0.16506640550E+04 0.  0.
        5    1    3    3  502    0 -0.30379612785E+03 -0.43917348406E+03 -0.64342853827E+03  0.83617450945E+03  0.46999998093E+01 0. -1.
       -5    1    3    3    0  502  0.30379612785E+03  0.43917348406E+03  0.61530162330E+03  0.81472916606E+03  0.46999998093E+01 0.  1.
</event>
<event>
 5   0  0.2317458E-04  0.1877679E+04  0.7818609E-02  0.8666047E-01
        1   -1    0    0  501    0  0.00000000000E+00  0.00000000000E+00  0.11692403453E+04  0.11692403453E+04  0.50400001928E-02 0.  1.
       -1   -1    0    0    0  501  0.00000000000E+00  0.00000000000E+00 -0.75383960268E+03  0.75383960269E+03  0.50400001928E-02 0. -1.
    10030    2    1    2    0    0  0.00000000000E+00  0.00000000000E+00  0.41540074261E+03  0.19230799480E+04  0.18776790752E+04 0.  0.
        3    1    3    3  502    0  0.45674464445E+03 -0.12810025620E+03 -0.62207087345E+03  0.78230270847E+03  0.10100000352E+00 0. -1.
       -3    1    3    3    0  502 -0.45674464445E+03  0.12810025620E+03  0.10374716161E+04  0.11407772395E+04  0.10100000352E+00 0.  1.
</event>
<event>
 5   0  0.4761944E-04  0.1895254E+04  0.7818609E-02  0.8657222E-01
        2   -1    0    0  501    0  0.00000000000E+00  0.00000000000E+00  0.58881692663E+03  0.58881692663E+03  0.25500000920E-02 0. -1.
       -2   -1    0    0    0  501  0.00000000000E+00  0.00000000000E+00 -0.15250874516E+04  0.15250874516E+04  0.25500000920E-02 0.  1.
    10030    2    1    2    0    0  0.00000000000E+00  0.00000000000E+00 -0.93627052499E+03  0.21139043783E+04  0.18952543957E+04 0.  0.
        4    1    3    3  502    0  0.16022247080E+03 -0.87810042371E+03 -0.11320291865E+03  0.89974891384E+03  0.12699999809E+01 0.  1.
       -4    1    3    3    0  502 -0.16022247080E+03  0.87810042371E+03 -0.82306760633E+03  0.12141554644E+04  0.12699999809E+01 0. -1.
</event>
<event>
 5   0  0.2376359E-04  0.1830666E+04  0.7818609E-02  0.8690159E-01
       -1   -1    0    0    0  501  0.00000000000E+00  0.00000000000E+00  0.36058005794E+03  0.36058005798E+03  0.50400001928E-02 0. -1.
        1   -1    0    0  501    0  0.00000000000E+00  0.00000000000E+00 -0.23235748439E+04  0.23235748439E+04  0.50400001928E-02 0.  1.
    10030    2    1    2    0    0  0.00000000000E+00  0.00000000000E+00 -0.19629947860E+04  0.26841549019E+04  0.18306662742E+04 0.  0.
        2    1    3    3  502    0  0.33020304249E+03  0.42453716299E+03 -0.20674577852E+04  0.21362695396E+04  0.25500000920E-02 0.  1.
       -2    1    3    3    0  502 -0.33020304249E+03 -0.42453716299E+03  0.10446299925E+03  0.54788536232E+03  0.25500000920E-02 0. -1.
</event>
<event>
 5   0  0.1729375E-04  0.1974795E+04  0.7818609E-02  0.8618496E-01
        3   -1    0    0  501    0  0.00000000000E+00  0.00000000000E+00  0.75590737026E+03  0.75590737700E+03  0.10100000352E+00 0.  1.
       -3   -1    0    0    0  501  0.00000000000E+00  0.00000000000E+00 -0.12897792255E+04  0.12897792295E+04  0.10100000352E+00 0. -1.
    10030    2    1    2    0    0  0.00000000000E+00  0.00000000000E+00 -0.53387185529E+03  0.20456866065E+04  0.19747948081E+04 0.  0.
        3    1    3    3  502    0 -0.87858969506E+02  0.98234629778E+03 -0.31585595581E+03  0.10356101787E+04  0.10100000352E+00 0.  1.
       -3    1    3    3    0  502  0.87858969506E+02 -0.98234629778E+03 -0.21801589948E+03  0.10100764278E+04  0.10100000352E+00 0. -1.
</event>
<event>
 5   0  0.4973411E-04  0.1973783E+04  0.7818609E-02  0.8618977E-01
        2   -1    0    0  501    0  0.00000000000E+00  0.00000000000E+00  0.17146367374E+04  0.17146367374E+04  0.25500000920E-02 0.  1.
       -2   -1    0    0    0  501  0.00000000000E+00  0.00000000000E+00 -0.56802402911E+03  0.56802402912E+03  0.25500000920E-02 0. -1.
    10030    2    1    2    0    0  0.00000000000E+00  0.00000000000E+00  0.11466127083E+04  0.22826607666E+04  0.19737830358E+04 0.  0.
        1    1    3    3  502    0 -0.21455810386E+03  0.35041480811E+03 -0.46440062563E+03  0.62007552668E+03  0.50400001928E-02 0. -1.
       -1    1    3    3    0  502  0.21455810386E+03 -0.35041480811E+03  0.16110133339E+04  0.16625852399E+04  0.50400001928E-02 0.  1.
</event>
<event>
 5   0  0.4761944E-04  0.1906638E+04  0.7818609E-02  0.8651559E-01
       -2   -1    0    0    0  501  0.00000000000E+00  0.00000000000E+00  0.10241757797E+04  0.10241757797E+04  0.25500000920E-02 0.  1.
        2   -1    0    0  501    0  0.00000000000E+00  0.00000000000E+00 -0.88736398982E+03  0.88736398982E+03  0.25500000920E-02 0. -1.
    10030    2    1    2    0    0  0.00000000000E+00  0.00000000000E+00  0.13681178986E+03  0.19115397695E+04  0.19066375703E+04 0.  0.
        4    1    3    3  502    0  0.93119293923E+02 -0.45779283227E+03  0.90154769357E+03  0.10153991023E+04  0.12699999809E+01 0.  1.
       -4    1    3    3    0  502 -0.93119293923E+02  0.45779283227E+03 -0.76473590371E+03  0.89614066725E+03  0.12699999809E+01 0. -1.
</event>
<event>
 5   0  0.4761944E-04  0.1870275E+04  0.7818609E-02  0.8669795E-01
       -2   -1    0    0    0  501  0.00000000000E+00  0.00000000000E+00  0.70404624055E+03  0.70404624056E+03  0.25500000920E-02 0. -1.
        2   -1    0    0  501    0  0.00000000000E+00  0.00000000000E+00 -0.12420810704E+04  0.12420810704E+04  0.25500000920E-02 0.  1.
    10030    2    1    2    0    0  0.00000000000E+00  0.00000000000E+00 -0.53803482989E+03  0.19461273110E+04  0.18702753895E+04 0.  0.
        4    1    3    3  502    0 -0.81906141883E+03 -0.24713592349E+03 -0.66187832886E+03  0.10816756943E+04  0.12699999809E+01 0.  1.
       -4    1    3    3    0  502  0.81906141883E+03  0.24713592349E+03  0.12384349897E+03  0.86445161671E+03  0.12699999809E+01 0. -1.
</event>
<event>
 5   0  0.4829134E-04  0.1910043E+04  0.7818609E-02  0.8649873E-01
       -2   -1    0    0    0  501  0.00000000000E+00  0.00000000000E+00  0.48014622955E+03  0.48014622955E+03  0.25500000920E-02 0. -1.
        2   -1    0    0  501    0  0.00000000000E+00  0.00000000000E+00 -0.18995588591E+04  0.18995588592E+04  0.25500000920E-02 0.  1.
    10030    2    1    2    0    0  0.00000000000E+00  0.00000000000E+00 -0.14194126296E+04  0.23797050887E+04  0.19100429566E+04 0.  0.
        2    1    3    3  502    0 -0.89347653026E+03  0.15152410081E+03 -0.10851438257E+04  0.14137881686E+04  0.25500000920E-02 0. -1.
       -2    1    3    3    0  502  0.89347653026E+03 -0.15152410081E+03 -0.33426880390E+03  0.96591692009E+03  0.25500000920E-02 0.  1.
</event>
<event>
 5   0  0.4802635E-04  0.1910433E+04  0.7818609E-02  0.8649681E-01
       -2   -1    0    0    0  501  0.00000000000E+00  0.00000000000E+00  0.83019117741E+03  0.83019117741E+03  0.25500000920E-02 0.  1.
        2   -1    0    0  501    0  0.00000000000E+00  0.00000000000E+00 -0.10990702631E+04  0.10990702631E+04  0.25500000920E-02 0. -1.
    10030    2    1    2    0    0  0.00000000000E+00  0.00000000000E+00 -0.26887908567E+03  0.19292614405E+04  0.19104328680E+04 0.  0.
        3    1    3    3  502    0  0.10643774341E+03  0.80965635299E+03 -0.63486966239E+03  0.10343751261E+04  0.10100000352E+00 0. -1.
       -3    1    3    3    0  502 -0.10643774341E+03 -0.80965635299E+03  0.36599057672E+03  0.89488631435E+03  0.10100000352E+00 0.  1.
</event>
<event>
 5   0  0.2317458E-04  0.1916765E+04  0.7818609E-02  0.8646556E-01
        1   -1    0    0  501    0  0.00000000000E+00  0.00000000000E+00  0.63900430767E+03  0.63900430769E+03  0.50400001928E-02 0. -1.
       -1   -1    0    0    0  501  0.00000000000E+00  0.00000000000E+00 -0.14373871703E+04  0.14373871703E+04  0.50400001928E-02 0.  1.
    10030    2    1    2    0    0  0.00000000000E+00  0.00000000000E+00 -0.79838286266E+03  0.20763914780E+04  0.19167645590E+04 0.  0.
        3    1    3    3  502    0 -0.92059155364E+03 -0.99595916342E+02 -0.66693555185E+03  0.11411446866E+04  0.10100000352E+00 0.  1.
       -3    1    3    3    0  502  0.92059155364E+03  0.99595916342E+02 -0.13144731082E+03  0.93524679145E+03  0.10100000352E+00 0. -1.
</event>
<event>
 5   0  0.2510069E-04  0.1022803E+04  0.7818609E-02  0.9283882E-01
       -1   -1    0    0    0  501  0.00000000000E+00  0.00000000000E+00  0.20011037797E+03  0.20011037803E+03  0.50400001928E-02 0. -1.
        1   -1    0    0  501    0  0.00000000000E+00  0.00000000000E+00 -0.13069372955E+04  0.13069372955E+04  0.50400001928E-02 0.  1.
    10030    2    1    2    0    0  0.00000000000E+00  0.00000000000E+00 -0.11068269175E+04  0.15070476735E+04  0.10228034342E+04 0.  0.
        4    1    3    3  502    0  0.49836627446E+03  0.26496511732E+01 -0.72240541352E+03  0.87763725909E+03  0.12699999809E+01 0.  1.
       -4    1    3    3    0  502 -0.49836627446E+03 -0.26496511732E+01 -0.38442150402E+03  0.62941041445E+03  0.12699999809E+01 0. -1.
</event>
<event>
 5   0  0.4802635E-04  0.1883192E+04  0.7818609E-02  0.8663268E-01
       -2   -1    0    0    0  501  0.00000000000E+00  0.00000000000E+00  0.54736029925E+03  0.54736029925E+03  0.25500000920E-02 0.  1.
        2   -1    0    0  501    0  0.00000000000E+00  0.00000000000E+00 -0.16197794765E+04  0.16197794765E+04  0.25500000920E-02 0. -1.
    10030    2    1    2    0    0  0.00000000000E+00  0.00000000000E+00 -0.10724191772E+04  0.21671397757E+04  0.18831919488E+04 0.  0.
        3    1    3    3  502    0  0.16356663360E+03 -0.80056989806E+03 -0.10746673996E+04  0.13500282350E+04  0.10100000352E+00 0. -1.
       -3    1    3    3    0  502 -0.16356663360E+03  0.80056989806E+03  0.22482223662E+01  0.81711154074E+03  0.10100000352E+00 0.  1.
</event>
<event>
 5   0  0.4829134E-04  0.1837238E+04  0.7818609E-02  0.8686743E-01
       -2   -1    0    0    0  501  0.00000000000E+00  0.00000000000E+00  0.86878060505E+03  0.86878060506E+03  0.25500000920E-02 0.  1.
        2   -1    0    0  501    0  0.00000000000E+00  0.00000000000E+00 -0.97131693617E+03  0.97131693617E+03  0.25500000920E-02 0. -1.
    10030    2    1    2    0    0  0.00000000000E+00  0.00000000000E+00 -0.10253633112E+03  0.18400975412E+04  0.18372384881E+04 0.  0.
        2    1    3    3  502    0  0.90411739032E+03 -0.15839548459E+03 -0.14551459576E+02  0.91800279412E+03  0.25500000920E-02 0. -1.
       -2    1    3    3    0  502 -0.90411739032E+03  0.15839548459E+03 -0.87984871541E+02  0.92209474711E+03  0.25500000920E-02 0.  1.
</event>
<event>
 5   0  0.2261755E-04  0.1903559E+04  0.7818609E-02  0.8653087E-01
        1   -1    0    0  501    0  0.00000000000E+00  0.00000000000E+00  0.17002311092E+04  0.17002311093E+04  0.50400001928E-02 0.  1.
       -1   -1    0    0    0  501  0.00000000000E+00  0.00000000000E+00 -0.53280087114E+03  0.53280087116E+03  0.50400001928E-02 0. -1.
    10030    2    1    2    0    0  0.00000000000E+00  0.00000000000E+00  0.11674302381E+04  0.22330319804E+04  0.19035594198E+04 0.  0.
        1    1    3    3  502    0 -0.94579595494E+02  0.13462570480E+03 -0.51599265143E+03  0.54158821685E+03  0.50400001928E-02 0. -1.
       -1    1    3    3    0  502  0.94579595494E+02 -0.13462570480E+03  0.16834228895E+04  0.16914437636E+04  0.50400001928E-02 0.  1.
</event>
<event>
 5   0  0.4973411E-04  0.1338970E+04  0.7818609E-02  0.8999220E-01
        2   -1    0    0  501    0  0.00000000000E+00  0.00000000000E+00  0.11768017720E+04  0.11768017720E+04  0.25500000920E-02 0.  1.
       -2   -1    0    0    0  501  0.00000000000E+00  0.00000000000E+00 -0.38087142539E+03  0.38087142540E+03  0.25500000920E-02 0. -1.
    10030    2    1    2    0    0  0.00000000000E+00  0.00000000000E+00  0.79593034665E+03  0.15576731974E+04  0.13389700046E+04 0.  0.
        1    1    3    3  502    0  0.28463418434E+02 -0.35316927443E+03 -0.26285878484E+03  0.44117280444E+03  0.50400001928E-02 0. -1.
       -1    1    3    3    0  502 -0.28463418434E+02  0.35316927443E+03  0.10587891315E+04  0.11165003930E+04  0.50400001928E-02 0.  1.
</event>
<event>
 5   0  0.2376359E-04  0.1868713E+04  0.7818609E-02  0.8670589E-01
        1   -1    0    0  501    0  0.00000000000E+00  0.00000000000E+00  0.11882361139E+04  0.11882361139E+04  0.50400001928E-02 0. -1.
       -1   -1    0    0    0  501  0.00000000000E+00  0.00000000000E+00 -0.73472092250E+03  0.73472092251E+03  0.50400001928E-02 0.  1.
    10030    2    1    2    0    0  0.00000000000E+00  0.00000000000E+00  0.45351519139E+03  0.19229570364E+04  0.18687128552E+04 0.  0.
        2    1    3    3  502    0  0.77676873008E+03 -0.88266287849E+02  0.75333557999E+03  0.10856680403E+04  0.25500000920E-02 0. -1.
       -2    1    3    3    0  502 -0.77676873008E+03  0.88266287849E+02 -0.29982038860E+03  0.83728899613E+03  0.25500000920E-02 0.  1.
</event>
<event>
 5   0  0.4839293E-04  0.1845717E+04  0.7818609E-02  0.8682359E-01
        2   -1    0    0  501    0  0.00000000000E+00  0.00000000000E+00  0.26030883550E+04  0.26030883550E+04  0.25500000920E-02 0.  1.
       -2   -1    0    0    0  501  0.00000000000E+00  0.00000000000E+00 -0.32717583595E+03  0.32717583596E+03  0.25500000920E-02 0. -1.
    10030    2    1    2    0    0  0.00000000000E+00  0.00000000000E+00  0.22759125190E+04  0.29302641909E+04  0.18457167807E+04 0.  0.
        5    1    3    3  502    0 -0.45097694659E+02  0.47681936525E+03  0.23903068300E+04  0.24378226639E+04  0.46999998093E+01 0.  1.
       -5    1    3    3    0  502  0.45097694659E+02 -0.47681936525E+03 -0.11439431099E+03  0.49244152701E+03  0.46999998093E+01 0. -1.
</event>
<event>
 5   0  0.2376359E-04  0.1921344E+04  0.7818609E-02  0.8644304E-01
        1   -1    0    0  501    0  0.00000000000E+00  0.00000000000E+00  0.12522174456E+04  0.12522174456E+04  0.50400001928E-02 0.  1.
       -1   -1    0    0    0  501  0.00000000000E+00  0.00000000000E+00 -0.73700547848E+03  0.73700547850E+03  0.50400001928E-02 0. -1.
    10030    2    1    2    0    0  0.00000000000E+00  0.00000000000E+00  0.51521196707E+03  0.19892229241E+04  0.19213444435E+04 0.  0.
        2    1    3    3  502    0  0.58497021284E+03  0.44561309363E+03 -0.38239959421E+03  0.82884897827E+03  0.25500000920E-02 0. -1.
       -2    1    3    3    0  502 -0.58497021284E+03 -0.44561309363E+03  0.89761156128E+03  0.11603739458E+04  0.25500000920E-02 0.  1.
</event>
<event>
 5   0  0.2317458E-04  0.1938711E+04  0.7818609E-02  0.8635824E-01
       -1   -1    0    0    0  501  0.00000000000E+00  0.00000000000E+00  0.10466697663E+04  0.10466697663E+04  0.50400001928E-02 0. -1.
        1   -1    0    0  501    0  0.00000000000E+00  0.00000000000E+00 -0.89775238729E+03  0.89775238730E+03  0.50400001928E-02 0.  1.
    10030    2    1    2    0    0  0.00000000000E+00  0.00000000000E+00  0.14891737905E+03  0.19444221536E+04  0.19387112023E+04 0.  0.
        3    1    3    3  502    0 -0.34487334054E+03 -0.90562398149E+03  0.98147206279E+02  0.97402530828E+03  0.10100000352E+00 0.  1.
       -3    1    3    3    0  502  0.34487334054E+03  0.90562398149E+03  0.50770172769E+02  0.97039684537E+03  0.10100000352E+00 0. -1.
</event>
<event>
 5   0  0.2355414E-04  0.1745043E+04  0.7818609E-02  0.8736083E-01
        1   -1    0    0  501    0  0.00000000000E+00  0.00000000000E+00  0.10976461301E+04  0.10976461301E+04  0.50400001928E-02 0.  1.
       -1   -1    0    0    0  501  0.00000000000E+00  0.00000000000E+00 -0.69356966376E+03  0.69356966378E+03  0.50400001928E-02 0. -1.
    10030    2    1    2    0    0  0.00000000000E+00  0.00000000000E+00  0.40407646636E+03  0.17912157939E+04  0.17450433318E+04 0.  0.
        5    1    3    3  502    0 -0.35128906934E+03  0.76045030820E+03 -0.48517254767E+02  0.83908563060E+03  0.46999998093E+01 0.  1.
       -5    1    3    3    0  502  0.35128906934E+03 -0.76045030820E+03  0.45259372113E+03  0.95213016331E+03  0.46999998093E+01 0. -1.
</event>
<event>
 5   0  0.4973411E-04  0.1937799E+04  0.7818609E-02  0.8636267E-01
        2   -1    0    0  501    0  0.00000000000E+00  0.00000000000E+00  0.76829129952E+03  0.76829129953E+03  0.25500000920E-02 0.  1.
       -2   -1    0    0    0  501  0.00000000000E+00  0.00000000000E+00 -0.12218880498E+04  0.12218880498E+04  0.25500000920E-02 0. -1.
    10030    2    1    2    0    0  0.00000000000E+00  0.00000000000E+00 -0.45359675028E+03  0.19901793493E+04  0.19377987075E+04 0.  0.
        1    1    3    3  502    0 -0.25457124179E+03 -0.15052729515E+03  0.72080177048E+03  0.77911499542E+03  0.50400001928E-02 0.  1.
       -1    1    3    3    0  502  0.25457124179E+03  0.15052729515E+03 -0.11743985208E+04  0.12110643539E+04  0.50400001928E-02 0. -1.
</event>
<event>
 5   0  0.2317458E-04  0.2006371E+04  0.7818609E-02  0.8603648E-01
       -1   -1    0    0    0  501  0.00000000000E+00  0.00000000000E+00  0.80658736707E+03  0.80658736709E+03  0.50400001928E-02 0.  1.
        1   -1    0    0  501    0  0.00000000000E+00  0.00000000000E+00 -0.12477028858E+04  0.12477028858E+04  0.50400001928E-02 0. -1.
    10030    2    1    2    0    0  0.00000000000E+00  0.00000000000E+00 -0.44111551877E+03  0.20542902529E+04  0.20063712374E+04 0.  0.
        3    1    3    3  502    0 -0.74406093184E+02 -0.44611441730E+03 -0.11373920751E+04  0.12240159651E+04  0.10100000352E+00 0. -1.
       -3    1    3    3    0  502  0.74406093184E+02  0.44611441730E+03  0.69627655633E+03  0.83027428788E+03  0.10100000352E+00 0.  1.
</event>
<event>
 5   0  0.4829134E-04  0.1870191E+04  0.7818609E-02  0.8669838E-01
        2   -1    0    0  501    0  0.00000000000E+00  0.00000000000E+00  0.14657326264E+04  0.14657326264E+04  0.25500000920E-02 0. -1.
       -2   -1    0    0    0  501  0.00000000000E+00  0.00000000000E+00 -0.59656429651E+03  0.59656429652E+03  0.25500000920E-02 0.  1.
    10030    2    1    2    0    0  0.00000000000E+00  0.00000000000E+00  0.86916832990E+03  0.20622969229E+04  0.18701911701E+04 0.  0.
        2    1    3    3  502    0  0.94092277499E+01 -0.45936841173E+03 -0.46350372870E+03  0.65264353041E+03  0.25500000920E-02 0.  1.
       -2    1    3    3    0  502 -0.94092277499E+01  0.45936841173E+03  0.13326720586E+04  0.14096533925E+04  0.25500000920E-02 0. -1.
</event>
<event>
 5   0  0.2510069E-04  0.1937467E+04  0.7818609E-02  0.8636428E-01
       -1   -1    0    0    0  501  0.00000000000E+00  0.00000000000E+00  0.10557323075E+04  0.10557323075E+04  0.50400001928E-02 0. -1.
        1   -1    0    0  501    0  0.00000000000E+00  0.00000000000E+00 -0.88890374836E+03  0.88890374838E+03  0.50400001928E-02 0.  1.
    10030    2    1    2    0    0  0.00000000000E+00  0.00000000000E+00  0.16682855914E+03  0.19446360559E+04  0.19374668053E+04 0.  0.
        4    1    3    3  502    0  0.29568622975E+03  0.82290634336E+03  0.50189544577E+03  0.10082191467E+04  0.12699999809E+01 0.  1.
       -4    1    3    3    0  502 -0.29568622975E+03 -0.82290634336E+03 -0.33506688663E+03  0.93641690919E+03  0.12699999809E+01 0. -1.
</event>
<event>
 5   0  0.2355414E-04  0.1870037E+04  0.7818609E-02  0.8669916E-01
       -1   -1    0    0    0  501  0.00000000000E+00  0.00000000000E+00  0.17163006371E+04  0.17163006371E+04  0.50400001928E-02 0. -1.
        1   -1    0    0  501    0  0.00000000000E+00  0.00000000000E+00 -0.50938611878E+03  0.50938611881E+03  0.50400001928E-02 0.  1.
    10030    2    1    2    0    0  0.00000000000E+00  0.00000000000E+00  0.12069145183E+04  0.22256867559E+04  0.18700371336E+04 0.  0.
        5    1    3    3  502    0  0.20532900747E+03  0.47678120541E+03 -0.32210230892E+03  0.61094378346E+03  0.46999998093E+01 0.  1.
       -5    1    3    3    0  502 -0.20532900747E+03 -0.47678120541E+03  0.15290168273E+04  0.16147429725E+04  0.46999998093E+01 0. -1.
</event>
<event>
 5   0  0.4839293E-04  0.1604651E+04  0.7818609E-02  0.8817696E-01
        2   -1    0    0  501    0  0.00000000000E+00  0.00000000000E+00  0.15594023663E+04  0.15594023663E+04  0.25500000920E-02 0. -1.
       -2   -1    0    0    0  501  0.00000000000E+00  0.00000000000E+00 -0.41280295834E+03  0.41280295835E+03  0.25500000920E-02 0.  1.
    10030    2    1    2    0    0  0.00000000000E+00  0.00000000000E+00  0.11465994080E+04  0.19722053247E+04  0.16046506287E+04 0.  0.
        5    1    3    3  502    0 -0.42431472872E+03 -0.38482953155E+03  0.12637262326E+04  0.13875023741E+04  0.46999998093E+01 0. -1.
       -5    1    3    3    0  502  0.42431472872E+03  0.38482953155E+03 -0.11712682457E+03  0.58470295056E+03  0.46999998093E+01 0.  1.
</event>
<event>
 5   0  0.2355414E-04  0.1864755E+04  0.7818609E-02  0.8672602E-01
       -1   -1    0    0    0  501  0.00000000000E+00  0.00000000000E+00  0.63485133631E+03  0.63485133633E+03  0.50400001928E-02 0.  1.
        1   -1    0    0  501    0  0.00000000000E+00  0.00000000000E+00 -0.13693411773E+04  0.13693411773E+04  0.50400001928E-02 0. -1.
    10030    2    1    2    0    0  0.00000000000E+00  0.00000000000E+00 -0.73448984097E+03  0.20041925136E+04  0.18647552936E+04 0.  0.
        5    1    3    3  502    0 -0.43375596694E+03  0.73112714234E+03 -0.77877972062E+03  0.11529141687E+04  0.46999998093E+01 0. -1.
       -5    1    3    3    0  502  0.43375596694E+03 -0.73112714234E+03  0.44289879644E+02  0.85127834493E+03  0.46999998093E+01 0.  1.
</event>
<event>
 5   0  0.2376359E-04  0.1403550E+04  0.7818609E-02  0.8951253E-01
        1   -1    0    0  501    0  0.00000000000E+00  0.00000000000E+00  0.18026654270E+04  0.18026654270E+04  0.50400001928E-02 0.  1.
       -1   -1    0    0    0  501  0.00000000000E+00  0.00000000000E+00 -0.27320007167E+03  0.27320007172E+03  0.50400001928E-02 0. -1.
    10030    2    1    2    0    0  0.00000000000E+00  0.00000000000E+00  0.15294653554E+04  0.20758654988E+04  0.14035502469E+04 0.  0.
        2    1    3    3  502    0 -0.36362114103E+03 -0.56174946330E+03  0.10774499511E+04  0.12683379640E+04  0.25500000920E-02 0. -1.
       -2    1    3    3    0  502  0.36362114103E+03  0.56174946330E+03  0.45201540422E+03  0.80752753475E+03  0.25500000920E-02 0.  1.
</event>
<event>
 5   0  0.4973411E-04  0.1898098E+04  0.7818609E-02  0.8655804E-01
       -2   -1    0    0    0  501  0.00000000000E+00  0.00000000000E+00  0.61811849068E+03  0.61811849069E+03  0.25500000920E-02 0.  1.
        2   -1    0    0  501    0  0.00000000000E+00  0.00000000000E+00 -0.14571538486E+04  0.14571538487E+04  0.25500000920E-02 0. -1.
    10030    2    1    2    0    0  0.00000000000E+00  0.00000000000E+00 -0.83903535797E+03  0.20752723393E+04  0.18980977189E+04 0.  0.
        1    1    3    3  502    0 -0.76568509524E+03  0.53993173443E+03 -0.25408724005E+03  0.97075242390E+03  0.50400001928E-02 0. -1.
       -1    1    3    3    0  502  0.76568509524E+03 -0.53993173443E+03 -0.58494811792E+03  0.11045199154E+04  0.50400001928E-02 0.  1.
</event>
<event>
 5   0  0.2510069E-04  0.1903709E+04  0.7818609E-02  0.8653012E-01
        1   -1    0    0  501    0  0.00000000000E+00  0.00000000000E+00  0.99054553506E+03  0.99054553507E+03  0.50400001928E-02 0.  1.
       -1   -1    0    0    0  501  0.00000000000E+00  0.00000000000E+00 -0.91467500242E+03  0.91467500244E+03  0.50400001928E-02 0. -1.
    10030    2    1    2    0    0  0.00000000000E+00  0.00000000000E+00  0.75870532638E+02  0.19052205375E+04  0.19037092632E+04 0.  0.
        4    1    3    3  502    0 -0.32483880031E+03 -0.12866869826E+03  0.92404752212E+03  0.98789742187E+03  0.12699999809E+01 0.  1.
       -4    1    3    3    0  502  0.32483880031E+03  0.12866869826E+03 -0.84817698949E+03  0.91732311564E+03  0.12699999809E+01 0. -1.
</event>
<event>
 5   0  0.4973411E-04  0.1948765E+04  0.7818609E-02  0.8630956E-01
        2   -1    0    0  501    0  0.00000000000E+00  0.00000000000E+00  0.87289024069E+03  0.87289024070E+03  0.25500000920E-02 0.  1.
       -2   -1    0    0    0  501  0.00000000000E+00  0.00000000000E+00 -0.10876759504E+04  0.10876759504E+04  0.25500000920E-02 0. -1.
    10030    2    1    2    0    0  0.00000000000E+00  0.00000000000E+00 -0.21478570974E+03  0.19605661911E+04  0.19487654781E+04 0.  0.
        1    1    3    3  502    0 -0.75959151865E+03  0.46953729856E+02  0.50476342135E+03  0.91321960092E+03  0.50400001928E-02 0.  1.
       -1    1    3    3    0  502  0.75959151865E+03 -0.46953729856E+02 -0.71954913109E+03  0.10473465902E+04  0.50400001928E-02 0. -1.
</event>
<event>
 5   0  0.4973411E-04  0.1171764E+04  0.7818609E-02  0.9137937E-01
        2   -1    0    0  501    0  0.00000000000E+00  0.00000000000E+00  0.27809014697E+03  0.27809014698E+03  0.25500000920E-02 0. -1.
       -2   -1    0    0    0  501  0.00000000000E+00  0.00000000000E+00 -0.12343389833E+04  0.12343389833E+04  0.25500000920E-02 0.  1.
    10030    2    1    2    0    0  0.00000000000E+00  0.00000000000E+00 -0.95624883631E+03  0.15124291303E+04  0.11717636439E+04 0.  0.
        1    1    3    3  502    0  0.29019387313E+03  0.11615320000E+03  0.16147497480E+03  0.35182128615E+03  0.50400001928E-02 0. -1.
       -1    1    3    3    0  502 -0.29019387313E+03 -0.11615320000E+03 -0.11177238111E+04  0.11606078441E+04  0.50400001928E-02 0.  1.
</event>
<event>
 5   0  0.2510069E-04  0.1873966E+04  0.7818609E-02  0.8667925E-01
       -1   -1    0    0    0  501  0.00000000000E+00  0.00000000000E+00  0.56713095921E+03  0.56713095923E+03  0.50400001928E-02 0. -1.
        1   -1    0    0  501    0  0.00000000000E+00  0.00000000000E+00 -0.15480319096E+04  0.15480319096E+04  0.50400001928E-02 0.  1.
    10030    2    1    2    0    0  0.00000000000E+00  0.00000000000E+00 -0.98090095041E+03  0.21151628689E+04  0.18739656580E+04 0.  0.
        4    1    3    3  502    0  0.30478917926E+03  0.71949008387E+03  0.93183795440E+02  0.78692265009E+03  0.12699999809E+01 0. -1.
       -4    1    3    3    0  502 -0.30478917926E+03 -0.71949008387E+03 -0.10740847459E+04  0.13282402188E+04  0.12699999809E+01 0.  1.
</event>
<event>
 5   0  0.2317458E-04  0.1361859E+04  0.7818609E-02  0.8981899E-01
       -1   -1    0    0    0  501  0.00000000000E+00  0.00000000000E+00  0.58716054268E+03  0.58716054270E+03  0.50400001928E-02 0. -1.
        1   -1    0    0  501    0  0.00000000000E+00  0.00000000000E+00 -0.78967330306E+03  0.78967330308E+03  0.50400001928E-02 0.  1.
    10030    2    1    2    0    0  0.00000000000E+00  0.00000000000E+00 -0.20251276039E+03  0.13768338458E+04  0.13618590312E+04 0.  0.
        3    1    3    3  502    0  0.40227905264E+03 -0.39108593519E+03  0.28884702107E+03  0.63103823710E+03  0.10100000352E+00 0. -1.
       -3    1    3    3    0  502 -0.40227905264E+03  0.39108593519E+03 -0.49135978146E+03  0.74579560868E+03  0.10100000352E+00 0.  1.
</event>
<event>
 5   0  0.4761944E-04  0.1905098E+04  0.7818609E-02  0.8652323E-01
        2   -1    0    0  501    0  0.00000000000E+00  0.00000000000E+00  0.13943312107E+04  0.13943312107E+04  0.25500000920E-02 0. -1.
       -2   -1    0    0    0  501  0.00000000000E+00  0.00000000000E+00 -0.65074168733E+03  0.65074168733E+03  0.25500000920E-02 0.  1.
    10030    2    1    2    0    0  0.00000000000E+00  0.00000000000E+00  0.74358952337E+03  0.20450728980E+04  0.19050978397E+04 0.  0.
        4    1    3    3  502    0  0.63936493025E+02  0.90575901869E+03  0.68079970872E+03  0.11348908015E+04  0.12699999809E+01 0. -1.
       -4    1    3    3    0  502 -0.63936493025E+02 -0.90575901869E+03  0.62789814651E+02  0.91018209651E+03  0.12699999809E+01 0.  1.
</event>
<event>
 5   0  0.2510069E-04  0.1735254E+04  0.7818609E-02  0.8741509E-01
        1   -1    0    0  501    0  0.00000000000E+00  0.00000000000E+00  0.96245020558E+03  0.96245020559E+03  0.50400001928E-02 0. -1.
       -1   -1    0    0    0  501  0.00000000000E+00  0.00000000000E+00 -0.78214591568E+03  0.78214591570E+03  0.50400001928E-02 0.  1.
    10030    2    1    2    0    0  0.00000000000E+00  0.00000000000E+00  0.18030428989E+03  0.17445961213E+04  0.17352538689E+04 0.  0.
        4    1    3    3  502    0 -0.23543010540E+03 -0.27718534326E+03 -0.70181709831E+03  0.79044791190E+03  0.12699999809E+01 0.  1.
       -4    1    3    3    0  502  0.23543010540E+03  0.27718534326E+03  0.88212138820E+03  0.95414820939E+03  0.12699999809E+01 0. -1.
</event>
<event>
 5   0  0.2261755E-04  0.1883188E+04  0.7818609E-02  0.8663270E-01
       -1   -1    0    0    0  501  0.00000000000E+00  0.00000000000E+00  0.51315489384E+03  0.51315489387E+03  0.50400001928E-02 0. -1.
        1   -1    0    0  501    0  0.00000000000E+00  0.00000000000E+00 -0.17277416092E+04  0.17277416092E+04  0.50400001928E-02 0.  1.
    10030    2    1    2    0    0  0.00000000000E+00  0.00000000000E+00 -0.12145867153E+04  0.22408965031E+04  0.18831877889E+04 0.  0.
        1    1    3    3  502    0 -0.10882327696E+03 -0.55591490164E+03  0.28771498830E+03  0.63534541628E+03  0.50400001928E-02 0. -1.
       -1    1    3    3    0  502  0.10882327696E+03  0.55591490164E+03 -0.15023017036E+04  0.16055510868E+04  0.50400001928E-02 0.  1.
</event>
<event>
 5   0  0.2355414E-04  0.1892308E+04  0.7818609E-02  0.8658695E-01
        1   -1    0    0  501    0  0.00000000000E+00  0.00000000000E+00  0.11102364818E+04  0.11102364818E+04  0.50400001928E-02 0.  1.
       -1   -1    0    0    0  501  0.00000000000E+00  0.00000000000E+00 -0.80632157359E+03  0.80632157360E+03  0.50400001928E-02 0. -1.
    10030    2    1    2    0    0  0.00000000000E+00  0.00000000000E+00  0.30391490822E+03  0.19165580554E+04  0.18923082488E+04 0.  0.
        5    1    3    3  502    0 -0.49047239508E+03  0.25969596123E+03  0.92805420005E+03  0.10813472388E+04  0.46999998093E+01 0.  1.
       -5    1    3    3    0  502  0.49047239508E+03 -0.25969596123E+03 -0.62413929183E+03  0.83521081663E+03  0.46999998093E+01 0. -1.
</event>
<event>
 5   0  0.4761944E-04  0.1920053E+04  0.7818609E-02  0.8644939E-01
       -2   -1    0    0    0  501  0.00000000000E+00  0.00000000000E+00  0.90044831427E+03  0.90044831428E+03  0.25500000920E-02 0.  1.
        2   -1    0    0  501    0  0.00000000000E+00  0.00000000000E+00 -0.10235467306E+04  0.10235467306E+04  0.25500000920E-02 0. -1.
    10030    2    1    2    0    0  0.00000000000E+00  0.00000000000E+00 -0.12309841630E+03  0.19239950449E+04  0.19200530494E+04 0.  0.
        4    1    3    3  502    0  0.39278386513E+03  0.61368388626E+03  0.56484396439E+03  0.92192049222E+03  0.12699999809E+01 0.  1.
       -4    1    3    3    0  502 -0.39278386513E+03 -0.61368388626E+03 -0.68794238069E+03  0.10020745526E+04  0.12699999809E+01 0. -1.
</event>
<event>
 5   0  0.4829134E-04  0.1878355E+04  0.7818609E-02  0.8665706E-01
       -2   -1    0    0    0  501  0.00000000000E+00  0.00000000000E+00  0.52652018148E+03  0.52652018149E+03  0.25500000920E-02 0.  1.
        2   -1    0    0  501    0  0.00000000000E+00  0.00000000000E+00 -0.16752527832E+04  0.16752527832E+04  0.25500000920E-02 0. -1.
    10030    2    1    2    0    0  0.00000000000E+00  0.00000000000E+00 -0.11487326017E+04  0.22017729646E+04  0.18783550244E+04 0.  0.
        2    1    3    3  502    0  0.43788047463E+03 -0.67748725953E+03 -0.11381430671E+04  0.13950261424E+04  0.25500000920E-02 0. -1.
       -2    1    3    3    0  502 -0.43788047463E+03  0.67748725953E+03 -0.10589534568E+02  0.80674682220E+03  0.25500000920E-02 0.  1.
</event>
<event>
 5   0  0.2355414E-04  0.1923142E+04  0.7818609E-02  0.8643422E-01
        1   -1    0    0  501    0  0.00000000000E+00  0.00000000000E+00  0.13645473918E+04  0.13645473918E+04  0.50400001928E-02 0. -1.
       -1   -1    0    0    0  501  0.00000000000E+00  0.00000000000E+00 -0.67760123053E+03  0.67760123055E+03  0.50400001928E-02 0.  1.
    10030    2    1    2    0    0  0.00000000000E+00  0.00000000000E+00  0.68694616130E+03  0.20421486224E+04  0.19231422120E+04 0.  0.
        5    1    3    3  502    0  0.23816105653E+03  0.36796464915E+03 -0.56533735650E+03  0.71536500371E+03  0.46999998093E+01 0.  1.
       -5    1    3    3    0  502 -0.23816105653E+03 -0.36796464915E+03  0.12522835178E+04  0.13267836187E+04  0.46999998093E+01 0. -1.
</event>
<event>
 5   0  0.2261755E-04  0.1901850E+04  0.7818609E-02  0.8653936E-01
       -1   -1    0    0    0  501  0.00000000000E+00  0.00000000000E+00  0.74133983261E+03  0.74133983263E+03  0.50400001928E-02 0. -1.
        1   -1    0    0  501    0  0.00000000000E+00  0.00000000000E+00 -0.12197623754E+04  0.12197623754E+04  0.50400001928E-02 0.  1.
    10030    2    1    2    0    0  0.00000000000E+00  0.00000000000E+00 -0.47842254275E+03  0.19611022080E+04  0.19018500837E+04 0.  0.
        1    1    3    3  502    0 -0.65518724938E+03 -0.33800431194E+03 -0.85854083937E+03  0.11316402341E+04  0.50400001928E-02 0.  1.
       -1    1    3    3    0  502  0.65518724938E+03  0.33800431194E+03  0.38011829662E+03  0.82946197386E+03  0.50400001928E-02 0. -1.
</event>
<event>
 5   0  0.4802635E-04  0.1893506E+04  0.7818609E-02  0.8658096E-01
       -2   -1    0    0    0  501  0.00000000000E+00  0.00000000000E+00  0.96921085785E+03  0.96921085786E+03  0.25500000920E-02 0. -1.
        2   -1    0    0  501    0  0.00000000000E+00  0.00000000000E+00 -0.92481520446E+03  0.92481520447E+03  0.25500000920E-02 0.  1.
    10030    2    1    2    0    0  0.00000000000E+00  0.00000000000E+00  0.44395653389E+02  0.18940260623E+04  0.18935056775E+04 0.  0.
        3    1    3    3  502    0  0.52633185484E+03 -0.27214053849E+02  0.80890943157E+03  0.96545341930E+03  0.10100000352E+00 0. -1.
       -3    1    3    3    0  502 -0.52633185484E+03  0.27214053849E+02 -0.76451377818E+03  0.92857264303E+03  0.10100000352E+00 0.  1.
</event>
<event>
 5   0  0.4761944E-04  0.1843483E+04  0.7818609E-02  0.8683512E-01
       -2   -1    0    0    0  501  0.00000000000E+00  0.00000000000E+00  0.75719028395E+03  0.75719028396E+03  0.25500000920E-02 0.  1.
        2   -1    0    0  501    0  0.00000000000E+00  0.00000000000E+00 -0.11220523965E+04  0.11220523965E+04  0.25500000920E-02 0. -1.
    10030    2    1    2    0    0  0.00000000000E+00  0.00000000000E+00 -0.36486211256E+03  0.18792426805E+04  0.18434827612E+04 0.  0.
        4    1    3    3  502    0 -0.52502788287E+01  0.53378358008E+03  0.58357929580E+03  0.79089751749E+03  0.12699999809E+01 0.  1.
       -4    1    3    3    0  502  0.52502788287E+01 -0.53378358008E+03 -0.94844140836E+03  0.10883451630E+04  0.12699999809E+01 0. -1.
</event>
<event>
 5   0  0.4761944E-04  0.1822698E+04  0.7818609E-02  0.8694321E-01
        2   -1    0    0  501    0  0.00000000000E+00  0.00000000000E+00  0.98618686763E+03  0.98618686764E+03  0.25500000920E-02 0.  1.
       -2   -1    0    0    0  501  0.00000000000E+00  0.00000000000E+00 -0.84219025880E+03  0.84219025880E+03  0.25500000920E-02 0. -1.
    10030    2    1    2    0    0  0.00000000000E+00  0.00000000000E+00  0.14399660884E+03  0.18283771264E+04  0.18226979709E+04 0.  0.
        4    1    3    3  502    0 -0.34421706782E+03 -0.11636691806E+03 -0.76638611739E+03  0.84816032873E+03  0.12699999809E+01 0. -1.
       -4    1    3    3    0  502  0.34421706782E+03  0.11636691806E+03  0.91038272623E+03  0.98021679771E+03  0.12699999809E+01 0.  1.
</event>
<event>
 5   0  0.2317458E-04  0.1940399E+04  0.7818609E-02  0.8635005E-01
       -1   -1    0    0    0  501  0.00000000000E+00  0.00000000000E+00  0.70963106428E+03  0.70963106430E+03  0.50400001928E-02 0. -1.
        1   -1    0    0  501    0  0.00000000000E+00  0.00000000000E+00 -0.13264455654E+04  0.13264455654E+04  0.50400001928E-02 0.  1.
    10030    2    1    2    0    0  0.00000000000E+00  0.00000000000E+00 -0.61681450108E+03  0.20360766297E+04  0.19403989057E+04 0.  0.
        3    1    3    3  502    0 -0.82732639615E+03 -0.32503600908E+03  0.99569413985E+02  0.89444477267E+03  0.10100000352E+00 0. -1.
       -3    1    3    3    0  502  0.82732639615E+03  0.32503600908E+03 -0.71638391506E+03  0.11416318570E+04  0.10100000352E+00 0.  1.
</event>
<event>
 5   0  0.2317458E-04  0.1868516E+04  0.7818609E-02  0.8670688E-01
        1   -1    0    0  501    0  0.00000000000E+00  0.00000000000E+00  0.13026228022E+04  0.13026228022E+04  0.50400001928E-02 0.  1.
       -1   -1    0    0    0  501  0.00000000000E+00  0.00000000000E+00 -0.67006224950E+03  0.67006224952E+03  0.50400001928E-02 0. -1.
    10030    2    1    2    0    0  0.00000000000E+00  0.00000000000E+00  0.63256055266E+03  0.19726850517E+04  0.18685163795E+04 0.  0.
        3    1    3    3  502    0 -0.76298941323E+03 -0.91592268559E+02 -0.24465595012E+03  0.80647289632E+03  0.10100000352E+00 0. -1.
       -3    1    3    3    0  502  0.76298941323E+03  0.91592268559E+02  0.87721650279E+03  0.11662121554E+04  0.10100000352E+00 0.  1.
</event>
<event>
 5   0  0.2317458E-04  0.1774292E+04  0.7818609E-02  0.8720092E-01
       -1   -1    0    0    0  501  0.00000000000E+00  0.00000000000E+00  0.86001910271E+03  0.86001910272E+03  0.50400001928E-02 0.  1.
        1   -1    0    0  501    0  0.00000000000E+00  0.00000000000E+00 -0.91512821556E+03  0.91512821557E+03  0.50400001928E-02 0. -1.
    10030    2    1    2    0    0  0.00000000000E+00  0.00000000000E+00 -0.55109112852E+02  0.17751473183E+04  0.17742916861E+04 0.  0.
        3    1    3    3  502    0  0.52394245104E+03  0.43495030592E+03  0.54134103679E+03  0.86991240302E+03  0.10100000352E+00 0.  1.
       -3    1    3    3    0  502 -0.52394245104E+03 -0.43495030592E+03 -0.59645014964E+03  0.90523491527E+03  0.10100000352E+00 0. -1.
</event>
<event>
 5   0  0.2376359E-04  0.1889993E+04  0.7818609E-02  0.8659854E-01
       -1   -1    0    0    0  501  0.00000000000E+00  0.00000000000E+00  0.90399855288E+03  0.90399855290E+03  0.50400001928E-02 0.  1.
        1   -1    0    0  501    0  0.00000000000E+00  0.00000000000E+00 -0.98785344171E+03  0.98785344173E+03  0.50400001928E-02 0. -1.
    10030    2    1    2    0    0  0.00000000000E+00  0.00000000000E+00 -0.83854888829E+02  0.18918519946E+04  0.18899926791E+04 0.  0.
        2    1    3    3  502    0  0.30583280187E+03  0.88914220522E+03  0.52560959055E+02  0.94173787129E+03  0.25500000920E-02 0.  1.
       -2    1    3    3    0  502 -0.30583280187E+03 -0.88914220522E+03 -0.13641584788E+03  0.95011412333E+03  0.25500000920E-02 0. -1.
</event>
<event>
 5   0  0.4802635E-04  0.1960420E+04  0.7818609E-02  0.8625352E-01
        2   -1    0    0  501    0  0.00000000000E+00  0.00000000000E+00  0.94025976482E+03  0.94025976483E+03  0.25500000920E-02 0.  1.
       -2   -1    0    0    0  501  0.00000000000E+00  0.00000000000E+00 -0.10218580308E+04  0.10218580308E+04  0.25500000920E-02 0. -1.
    10030    2    1    2    0    0  0.00000000000E+00  0.00000000000E+00 -0.81598265969E+02  0.19621177956E+04  0.19604203546E+04 0.  0.
        3    1    3    3  502    0  0.59156886669E+03  0.47859584982E+03 -0.65923727137E+03  0.10067777817E+04  0.10100000352E+00 0. -1.
       -3    1    3    3    0  502 -0.59156886669E+03 -0.47859584982E+03  0.57763900540E+03  0.95534001395E+03  0.10100000352E+00 0.  1.
</event>
<event>
 5   0  0.4802635E-04  0.1140239E+04  0.7818609E-02  0.9166836E-01
       -2   -1    0    0    0  501  0.00000000000E+00  0.00000000000E+00  0.67314190732E+03  0.67314190733E+03  0.25500000920E-02 0. -1.
        2   -1    0    0  501    0  0.00000000000E+00  0.00000000000E+00 -0.48286450695E+03  0.48286450695E+03  0.25500000920E-02 0.  1.
    10030    2    1    2    0    0  0.00000000000E+00  0.00000000000E+00  0.19027740038E+03  0.11560064143E+04  0.11402391595E+04 0.  0.
        3    1    3    3  502    0 -0.52719244389E+03 -0.21622182615E+03  0.76102098250E+02  0.57486980314E+03  0.10100000352E+00 0.  1.
       -3    1    3    3    0  502  0.52719244389E+03  0.21622182615E+03  0.11417530213E+03  0.58113661115E+03  0.10100000352E+00 0. -1.
</event>
<event>
 5   0  0.2317458E-04  0.1388177E+04  0.7818609E-02  0.8962422E-01
       -1   -1    0    0    0  501  0.00000000000E+00  0.00000000000E+00  0.39417926003E+03  0.39417926006E+03  0.50400001928E-02 0. -1.
        1   -1    0    0  501    0  0.00000000000E+00  0.00000000000E+00 -0.12221814432E+04  0.12221814433E+04  0.50400001928E-02 0.  1.
    10030    2    1    2    0    0  0.00000000000E+00  0.00000000000E+00 -0.82800218322E+03  0.16163607033E+04  0.13881766126E+04 0.  0.
        3    1    3    3  502    0  0.63463508661E+03  0.27129937358E+03 -0.32848854356E+03  0.76437541608E+03  0.10100000352E+00 0. -1.
       -3    1    3    3    0  502 -0.63463508661E+03 -0.27129937358E+03 -0.49951363966E+03  0.85198528723E+03  0.10100000352E+00 0.  1.
</event>
<event>
 5   0  0.4829134E-04  0.1875333E+04  0.7818609E-02  0.8667233E-01
       -2   -1    0    0    0  501  0.00000000000E+00  0.00000000000E+00  0.10080660688E+04  0.10080660688E+04  0.25500000920E-02 0. -1.
        2   -1    0    0  501    0  0.00000000000E+00  0.00000000000E+00 -0.87218380647E+03  0.87218380647E+03  0.25500000920E-02 0.  1.
    10030    2    1    2    0    0  0.00000000000E+00  0.00000000000E+00  0.13588226231E+03  0.18802498753E+04  0.18753334648E+04 0.  0.
        2    1    3    3  502    0 -0.50952323422E+03  0.54083218342E+03  0.64137191572E+03  0.98156574468E+03  0.25500000920E-02 0. -1.
       -2    1    3    3    0  502  0.50952323422E+03 -0.54083218342E+03 -0.50548965342E+03  0.89868413058E+03  0.25500000920E-02 0.  1.
</event>
<event>
 5   0  0.4973411E-04  0.1953180E+04  0.7818609E-02  0.8628829E-01
        2   -1    0    0  501    0  0.00000000000E+00  0.00000000000E+00  0.90446844129E+03  0.90446844129E+03  0.25500000920E-02 0.  1.
       -2   -1    0    0    0  501  0.00000000000E+00  0.00000000000E+00 -0.10544623582E+04  0.10544623582E+04  0.25500000920E-02 0. -1.
    10030    2    1    2    0    0  0.00000000000E+00  0.00000000000E+00 -0.14999391692E+03  0.19589307995E+04  0.19531798950E+04 0.  0.
        1    1    3    3  502    0 -0.63282337782E+03  0.62201264479E+03  0.33407990534E+03  0.94814267965E+03  0.50400001928E-02 0.  1.
       -1    1    3    3    0  502  0.63282337782E+03 -0.62201264479E+03 -0.48407382226E+03  0.10107881198E+04  0.50400001928E-02 0. -1.
</event>
<event>
 5   0  0.4761944E-04  0.1892591E+04  0.7818609E-02  0.8658553E-01
       -2   -1    0    0    0  501  0.00000000000E+00  0.00000000000E+00  0.73386944491E+03  0.73386944492E+03  0.25500000920E-02 0. -1.
        2   -1    0    0  501    0  0.00000000000E+00  0.00000000000E+00 -0.12202098659E+04  0.12202098659E+04  0.25500000920E-02 0.  1.
    10030    2    1    2    0    0  0.00000000000E+00  0.00000000000E+00 -0.48634042097E+03  0.19540793108E+04  0.18925905389E+04 0.  0.
        4    1    3    3  502    0 -0.23814255074E+02 -0.92711211329E+03 -0.43734718917E+03  0.10253673323E+04  0.12699999809E+01 0.  1.
       -4    1    3    3    0  502  0.23814255074E+02  0.92711211329E+03 -0.48993231802E+02  0.92871197851E+03  0.12699999809E+01 0. -1.
</event>
<event>
 5   0  0.2355414E-04  0.1900702E+04  0.7818609E-02  0.8654507E-01
       -1   -1    0    0    0  501  0.00000000000E+00  0.00000000000E+00  0.12043607790E+04  0.12043607790E+04  0.50400001928E-02 0.  1.
        1   -1    0    0  501    0  0.00000000000E+00  0.00000000000E+00 -0.74991421772E+03  0.74991421774E+03  0.50400001928E-02 0. -1.
    10030    2    1    2    0    0  0.00000000000E+00  0.00000000000E+00  0.45444656129E+03  0.19542749968E+04  0.19007022613E+04 0.  0.
        5    1    3    3  502    0  0.53430201841E+03 -0.51771498403E+03 -0.38074473210E+03  0.83576078670E+03  0.46999998093E+01 0. -1.
       -5    1    3    3    0  502 -0.53430201841E+03  0.51771498403E+03  0.83519129339E+03  0.11185142101E+04  0.46999998093E+01 0.  1.
</event>
<event>
 5   0  0.4973411E-04  0.1866833E+04  0.7818609E-02  0.8671544E-01
        2   -1    0    0  501    0  0.00000000000E+00  0.00000000000E+00  0.18266895102E+04  0.18266895102E+04  0.25500000920E-02 0. -1.
       -2   -1    0    0    0  501  0.00000000000E+00  0.00000000000E+00 -0.47696463229E+03  0.47696463229E+03  0.25500000920E-02 0.  1.
    10030    2    1    2    0    0  0.00000000000E+00  0.00000000000E+00  0.13497248779E+04  0.23036541425E+04  0.18668329230E+04 0.  0.
        1    1    3    3  502    0 -0.27547701366E+02 -0.54176316398E+03 -0.26248320566E+03  0.60263059579E+03  0.50400001928E-02 0.  1.
       -1    1    3    3    0  502  0.27547701366E+02  0.54176316398E+03  0.16122080836E+04  0.17010235467E+04  0.50400001928E-02 0. -1.
</event>
<event>
 5   0  0.4802635E-04  0.1754286E+04  0.7818609E-02  0.8730995E-01
        2   -1    0    0  501    0  0.00000000000E+00  0.00000000000E+00  0.12490480268E+04  0.12490480268E+04  0.25500000920E-02 0. -1.
       -2   -1    0    0    0  501  0.00000000000E+00  0.00000000000E+00 -0.61597300912E+03  0.61597300913E+03  0.25500000920E-02 0.  1.
    10030    2    1    2    0    0  0.00000000000E+00  0.00000000000E+00  0.63307501765E+03  0.18650210359E+04  0.17542860332E+04 0.  0.
        3    1    3    3  502    0 -0.53678825515E+02 -0.27656571989E+03 -0.56656470477E+03  0.63274448920E+03  0.10100000352E+00 0.  1.
       -3    1    3    3    0  502  0.53678825515E+02  0.27656571989E+03  0.11996397224E+04  0.12322765467E+04  0.10100000352E+00 0. -1.
</event>
<event>
 5   0  0.2510069E-04  0.1960079E+04  0.7818609E-02  0.8625516E-01
        1   -1    0    0  501    0  0.00000000000E+00  0.00000000000E+00  0.11856806650E+04  0.11856806650E+04  0.50400001928E-02 0. -1.
       -1   -1    0    0    0  501  0.00000000000E+00  0.00000000000E+00 -0.81006392014E+03  0.81006392015E+03  0.50400001928E-02 0.  1.
    10030    2    1    2    0    0  0.00000000000E+00  0.00000000000E+00  0.37561674488E+03  0.19957445852E+04  0.19600787000E+04 0.  0.
        4    1    3    3  502    0 -0.47829447441E+03 -0.53972940159E+03  0.86351181692E+03  0.11250456444E+04  0.12699999809E+01 0. -1.
       -4    1    3    3    0  502  0.47829447441E+03  0.53972940159E+03 -0.48789507204E+03  0.87069894074E+03  0.12699999809E+01 0.  1.
</event>
<event>
 5   0  0.4839293E-04  0.1899475E+04  0.7818609E-02  0.8655118E-01
        2   -1    0    0  501    0  0.00000000000E+00  0.00000000000E+00  0.19681863647E+04  0.19681863647E+04  0.25500000920E-02 0. -1.
       -2   -1    0    0    0  501  0.00000000000E+00  0.00000000000E+00 -0.45829074709E+03  0.45829074710E+03  0.25500000920E-02 0.  1.
    10030    2    1    2    0    0  0.00000000000E+00  0.00000000000E+00  0.15098956176E+04  0.24264771118E+04  0.18994752955E+04 0.  0.
        5    1    3    3  502    0  0.22776658110E+03 -0.43779580167E+03 -0.28162443200E+03  0.56822283492E+03  0.46999998093E+01 0.  1.
       -5    1    3    3    0  502 -0.22776658110E+03  0.43779580167E+03  0.17915200496E+04  0.18582542769E+04  0.46999998093E+01 0. -1.
</event>
<event>
 5   0  0.4829134E-04  0.1798182E+04  0.7818609E-02  0.8707267E-01
       -2   -1    0    0    0  501  0.00000000000E+00  0.00000000000E+00  0.10223625396E+04  0.10223625396E+04  0.25500000920E-02 0. -1.
        2   -1    0    0  501    0  0.00000000000E+00  0.00000000000E+00 -0.79068270515E+03  0.79068270516E+03  0.25500000920E-02 0.  1.
    10030    2    1    2    0    0  0.00000000000E+00  0.00000000000E+00  0.23167983441E+03  0.18130452447E+04  0.17981817243E+04 0.  0.
        2    1    3    3  502    0 -0.26739289528E+03  0.49095153921E+02 -0.74824750460E+03  0.79610528370E+03  0.25500000920E-02 0.  1.
       -2    1    3    3    0  502  0.26739289528E+03 -0.49095153921E+02  0.97992733900E+03  0.10169399610E+04  0.25500000920E-02 0. -1.
</event>
<event>
 5   0  0.4829134E-04  0.1920996E+04  0.7818609E-02  0.8644475E-01
       -2   -1    0    0    0  501  0.00000000000E+00  0.00000000000E+00  0.85828733280E+03  0.85828733280E+03  0.25500000920E-02 0.  1.
        2   -1    0    0  501    0  0.00000000000E+00  0.00000000000E+00 -0.10748810979E+04  0.10748810979E+04  0.25500000920E-02 0. -1.
    10030    2    1    2    0    0  0.00000000000E+00  0.00000000000E+00 -0.21659376509E+03  0.19331684307E+04  0.19209964400E+04 0.  0.
        2    1    3    3  502    0  0.79929428816E+03  0.25327811100E+03 -0.57981206513E+03  0.10194131603E+04  0.25500000920E-02 0. -1.
       -2    1    3    3    0  502 -0.79929428816E+03 -0.25327811100E+03  0.36321830004E+03  0.91375527035E+03  0.25500000920E-02 0.  1.
</event>
<event>
 5   0  0.2317458E-04  0.1894111E+04  0.7818609E-02  0.8657793E-01
       -1   -1    0    0    0  501  0.00000000000E+00  0.00000000000E+00  0.83888275910E+03  0.83888275912E+03  0.50400001928E-02 0. -1.
        1   -1    0    0  501    0  0.00000000000E+00  0.00000000000E+00 -0.10691774349E+04  0.10691774349E+04  0.50400001928E-02 0.  1.
    10030    2    1    2    0    0  0.00000000000E+00  0.00000000000E+00 -0.23029467581E+03  0.19080601940E+04  0.18941114187E+04 0.  0.
        3    1    3    3  502    0 -0.25083525613E+03 -0.12832397250E+03  0.79568443025E+03  0.84409661200E+03  0.10100000352E+00 0. -1.
       -3    1    3    3    0  502  0.25083525613E+03  0.12832397250E+03 -0.10259791061E+04  0.10639635820E+04  0.10100000352E+00 0.  1.
</event>
<event>
 5   0  0.2376359E-04  0.1929176E+04  0.7818609E-02  0.8640468E-01
       -1   -1    0    0    0  501  0.00000000000E+00  0.00000000000E+00  0.10480883697E+04  0.10480883697E+04  0.50400001928E-02 0.  1.
        1   -1    0    0  501    0  0.00000000000E+00  0.00000000000E+00 -0.88774040610E+03  0.88774040611E+03  0.50400001928E-02 0. -1.
    10030    2    1    2    0    0  0.00000000000E+00  0.00000000000E+00  0.16034796360E+03  0.19358287758E+04  0.19291763994E+04 0.  0.
        2    1    3    3  502    0  0.18910686728E+03  0.45183888092E+03  0.91400909607E+03  0.10369823573E+04  0.25500000920E-02 0.  1.
       -2    1    3    3    0  502 -0.18910686728E+03 -0.45183888092E+03 -0.75366113247E+03  0.89884641856E+03  0.25500000920E-02 0. -1.
</event>
<event>
 5   0  0.4973411E-04  0.1899345E+04  0.7818609E-02  0.8655182E-01
        2   -1    0    0  501    0  0.00000000000E+00  0.00000000000E+00  0.10097845215E+04  0.10097845215E+04  0.25500000920E-02 0.  1.
       -2   -1    0    0    0  501  0.00000000000E+00  0.00000000000E+00 -0.89313898248E+03  0.89313898248E+03  0.25500000920E-02 0. -1.
    10030    2    1    2    0    0  0.00000000000E+00  0.00000000000E+00  0.11664553903E+03  0.19029235040E+04  0.18993450661E+04 0.  0.
        1    1    3    3  502    0  0.23902892085E+03  0.91239404215E+03  0.16934764610E+03  0.95826736270E+03  0.50400001928E-02 0. -1.
       -1    1    3    3    0  502 -0.23902892085E+03 -0.91239404215E+03 -0.52702107067E+02  0.94465614129E+03  0.50400001928E-02 0.  1.
</event>
<event>
 5   0  0.2376359E-04  0.1950465E+04  0.7818609E-02  0.8630136E-01
        1   -1    0    0  501    0  0.00000000000E+00  0.00000000000E+00  0.12802408212E+04  0.12802408212E+04  0.50400001928E-02 0.  1.
       -1   -1    0    0    0  501  0.00000000000E+00  0.00000000000E+00 -0.74289054400E+03  0.74289054402E+03  0.50400001928E-02 0. -1.
    10030    2    1    2    0    0  0.00000000000E+00  0.00000000000E+00  0.53735027721E+03  0.20231313652E+04  0.19504653805E+04 0.  0.
        2    1    3    3  502    0 -0.75203164862E+03 -0.20647095871E+03  0.87606514690E+03  0.11728904463E+04  0.25500000920E-02 0.  1.
       -2    1    3    3    0  502  0.75203164862E+03  0.20647095871E+03 -0.33871486970E+03  0.85024091897E+03  0.25500000920E-02 0. -1.
</event>
<event>
 5   0  0.2355414E-04  0.1903332E+04  0.7818609E-02  0.8653200E-01
        1   -1    0    0  501    0  0.00000000000E+00  0.00000000000E+00  0.20135353522E+04  0.20135353522E+04  0.50400001928E-02 0.  1.
       -1   -1    0    0    0  501  0.00000000000E+00  0.00000000000E+00 -0.44978995455E+03  0.44978995458E+03  0.50400001928E-02 0. -1.
    10030    2    1    2    0    0  0.00000000000E+00  0.00000000000E+00  0.15637453977E+04  0.24633253068E+04  0.19033317888E+04 0.  0.
        5    1    3    3  502    0  0.52628292119E+03  0.52465830961E+03  0.15512584199E+04  0.17200769838E+04  0.46999998093E+01 0.  1.
       -5    1    3    3    0  502 -0.52628292119E+03 -0.52465830961E+03  0.12486977770E+02  0.74324832297E+03  0.46999998093E+01 0. -1.
</event>
<event>
 5   0  0.4839293E-04  0.1924184E+04  0.7818609E-02  0.8642911E-01
       -2   -1    0    0    0  501  0.00000000000E+00  0.00000000000E+00  0.13840160619E+04  0.13840160619E+04  0.25500000920E-02 0. -1.
        2   -1    0    0  501    0  0.00000000000E+00  0.00000000000E+00 -0.66879330141E+03  0.66879330142E+03  0.25500000920E-02 0.  1.
    10030    2    1    2    0    0  0.00000000000E+00  0.00000000000E+00  0.71522276045E+03  0.20528093633E+04  0.19241836412E+04 0.  0.
        5    1    3    3  502    0 -0.35063015362E+03  0.81419609841E+03 -0.41197897281E+02  0.88745487098E+03  0.46999998093E+01 0.  1.
       -5    1    3    3    0  502  0.35063015362E+03 -0.81419609841E+03  0.75642065773E+03  0.11653544923E+04  0.46999998093E+01 0. -1.
</event>
<event>
 5   0  0.2376359E-04  0.2112882E+04  0.7818609E-02  0.8555590E-01
        1   -1    0    0  501    0  0.00000000000E+00  0.00000000000E+00  0.15705259014E+04  0.15705259014E+04  0.50400001928E-02 0. -1.
       -1   -1    0    0    0  501  0.00000000000E+00  0.00000000000E+00 -0.71063331531E+03  0.71063331533E+03  0.50400001928E-02 0.  1.
    10030    2    1    2    0    0  0.00000000000E+00  0.00000000000E+00  0.85989258610E+03  0.22811592168E+04  0.21128824181E+04 0.  0.
        2    1    3    3  502    0 -0.33372162768E+03 -0.24184617405E+03  0.14801502570E+04  0.15364584212E+04  0.25500000920E-02 0. -1.
       -2    1    3    3    0  502  0.33372162768E+03  0.24184617405E+03 -0.62025767087E+03  0.74470079560E+03  0.25500000920E-02 0.  1.
</event>
<event>
 5   0  0.2317458E-04  0.1382409E+04  0.7818609E-02  0.8966651E-01
        1   -1    0    0  501    0  0.00000000000E+00  0.00000000000E+00  0.71675977550E+03  0.71675977552E+03  0.50400001928E-02 0. -1.
       -1   -1    0    0    0  501  0.00000000000E+00  0.00000000000E+00 -0.66656077018E+03  0.66656077020E+03  0.50400001928E-02 0.  1.
    10030    2    1    2    0    0  0.00000000000E+00  0.00000000000E+00  0.50199005320E+02  0.13833205457E+04  0.13824094155E+04 0.  0.
        3    1    3    3  502    0  0.59027150246E+03  0.20657085831E+03 -0.26949557258E+03  0.68096977904E+03  0.10100000352E+00 0.  1.
       -3    1    3    3    0  502 -0.59027150246E+03 -0.20657085831E+03  0.31969457790E+03  0.70235076668E+03  0.10100000352E+00 0. -1.
</event>
<event>
 5   0  0.2355414E-04  0.1873960E+04  0.7818609E-02  0.8667928E-01
        1   -1    0    0  501    0  0.00000000000E+00  0.00000000000E+00  0.10543516654E+04  0.10543516654E+04  0.50400001928E-02 0. -1.
       -1   -1    0    0    0  501  0.00000000000E+00  0.00000000000E+00 -0.83267422420E+03  0.83267422422E+03  0.50400001928E-02 0.  1.
    10030    2    1    2    0    0  0.00000000000E+00  0.00000000000E+00  0.22167744123E+03  0.18870258897E+04  0.18739599303E+04 0.  0.
        5    1    3    3  502    0  0.16613239363E+02 -0.87862440165E+03 -0.21646994310E+03  0.90506252003E+03  0.46999998093E+01 0.  1.
       -5    1    3    3    0  502 -0.16613239363E+02  0.87862440165E+03  0.43814738433E+03  0.98196336963E+03  0.46999998093E+01 0. -1.
</event>
<event>
 5   0  0.4829134E-04  0.2066934E+04  0.7818609E-02  0.8575951E-01
        2   -1    0    0  501    0  0.00000000000E+00  0.00000000000E+00  0.19741076815E+04  0.19741076815E+04  0.25500000920E-02 0. -1.
       -2   -1    0    0    0  501  0.00000000000E+00  0.00000000000E+00 -0.54103153867E+03  0.54103153868E+03  0.25500000920E-02 0.  1.
    10030    2    1    2    0    0  0.00000000000E+00  0.00000000000E+00  0.14330761428E+04  0.25151392202E+04  0.20669344609E+04 0.  0.
        2    1    3    3  502    0 -0.65898638042E+02  0.95008855812E+03  0.22821518120E+03  0.97933297080E+03  0.25500000920E-02 0.  1.
       -2    1    3    3    0  502  0.65898638042E+02 -0.95008855812E+03  0.12048609616E+04  0.15358062494E+04  0.25500000920E-02 0. -1.
</event>
<event>
 5   0  0.4802635E-04  0.1890027E+04  0.7818609E-02  0.8659837E-01
        2   -1    0    0  501    0  0.00000000000E+00  0.00000000000E+00  0.99215897839E+03  0.99215897840E+03  0.25500000920E-02 0. -1.
       -2   -1    0    0    0  501  0.00000000000E+00  0.00000000000E+00 -0.90010821270E+03  0.90010821270E+03  0.25500000920E-02 0.  1.
    10030    2    1    2    0    0  0.00000000000E+00  0.00000000000E+00  0.92050765694E+02  0.18922671911E+04  0.18900269255E+04 0.  0.
        3    1    3    3  502    0  0.37801647178E+03 -0.19818340507E+03 -0.79810940299E+03  0.90507002178E+03  0.10100000352E+00 0.  1.
       -3    1    3    3    0  502 -0.37801647178E+03  0.19818340507E+03  0.89016016869E+03  0.98719716931E+03  0.10100000352E+00 0. -1.
</event>
<event>
 5   0  0.2317458E-04  0.1884220E+04  0.7818609E-02  0.8662751E-01
        1   -1    0    0  501    0  0.00000000000E+00  0.00000000000E+00  0.10705664097E+04  0.10705664097E+04  0.50400001928E-02 0.  1.
       -1   -1    0    0    0  501  0.00000000000E+00  0.00000000000E+00 -0.82906703486E+03  0.82906703487E+03  0.50400001928E-02 0. -1.
    10030    2    1    2    0    0  0.00000000000E+00  0.00000000000E+00  0.24149937480E+03  0.18996334445E+04  0.18842200709E+04 0.  0.
        3    1    3    3  502    0  0.73377909229E+03 -0.55073265315E+03  0.33658762589E+03  0.97725608293E+03  0.10100000352E+00 0.  1.
       -3    1    3    3    0  502 -0.73377909229E+03  0.55073265315E+03 -0.95088251086E+02  0.92237736161E+03  0.10100000352E+00 0. -1.
</event>
<event>
 5   0  0.4973411E-04  0.1839996E+04  0.7818609E-02  0.8685314E-01
       -2   -1    0    0    0  501  0.00000000000E+00  0.00000000000E+00  0.60502461929E+03  0.60502461930E+03  0.25500000920E-02 0.  1.
        2   -1    0    0  501    0  0.00000000000E+00  0.00000000000E+00 -0.13989459247E+04  0.13989459247E+04  0.25500000920E-02 0. -1.
    10030    2    1    2    0    0  0.00000000000E+00  0.00000000000E+00 -0.79392130536E+03  0.20039705440E+04  0.18399964407E+04 0.  0.
        1    1    3    3  502    0  0.27362363207E+03 -0.53996177602E+03  0.35757635242E+03  0.70305722344E+03  0.50400001928E-02 0.  1.
       -1    1    3    3    0  502 -0.27362363207E+03  0.53996177602E+03 -0.11514976578E+04  0.13009133205E+04  0.50400001928E-02 0. -1.
</event>
<event>
 5   0  0.4973411E-04  0.1240846E+04  0.7818609E-02  0.9077836E-01
        2   -1    0    0  501    0  0.00000000000E+00  0.00000000000E+00  0.13064294790E+04  0.13064294790E+04  0.25500000920E-02 0.  1.
       -2   -1    0    0    0  501  0.00000000000E+00  0.00000000000E+00 -0.29463890008E+03  0.29463890009E+03  0.25500000920E-02 0. -1.
    10030    2    1    2    0    0  0.00000000000E+00  0.00000000000E+00  0.10117905789E+04  0.16010683791E+04  0.12408463962E+04 0.  0.
        1    1    3    3  502    0 -0.24283688740E+03 -0.56206798935E+03  0.63514973384E+03  0.88221616566E+03  0.50400001928E-02 0. -1.
       -1    1    3    3    0  502  0.24283688740E+03  0.56206798935E+03  0.37664084508E+03  0.71885221342E+03  0.50400001928E-02 0.  1.
</event>
<event>
 5   0  0.4839293E-04  0.1641689E+04  0.7818609E-02  0.8795338E-01
       -2   -1    0    0    0  501  0.00000000000E+00  0.00000000000E+00  0.50816013728E+03  0.50816013728E+03  0.25500000920E-02 0. -1.
        2   -1    0    0  501    0  0.00000000000E+00  0.00000000000E+00 -0.13259316088E+04  0.13259316088E+04  0.25500000920E-02 0.  1.
    10030    2    1    2    0    0  0.00000000000E+00  0.00000000000E+00 -0.81777147155E+03  0.18340917461E+04  0.16416888723E+04 0.  0.
        5    1    3    3  502    0  0.46444693894E+03  0.43835680167E+03 -0.98496996277E+03  0.11739061130E+04  0.46999998093E+01 0.  1.
       -5    1    3    3    0  502 -0.46444693894E+03 -0.43835680167E+03  0.16719849121E+03  0.66018563308E+03  0.46999998093E+01 0. -1.
</event>
<event>
 5   0  0.4802635E-04  0.1894854E+04  0.7818609E-02  0.8657422E-01
        2   -1    0    0  501    0  0.00000000000E+00  0.00000000000E+00  0.15389256048E+04  0.15389256048E+04  0.25500000920E-02 0.  1.
       -2   -1    0    0    0  501  0.00000000000E+00  0.00000000000E+00 -0.58327550131E+03  0.58327550132E+03  0.25500000920E-02 0. -1.
    10030    2    1    2    0    0  0.00000000000E+00  0.00000000000E+00  0.95565010344E+03  0.21222011061E+04  0.18948536657E+04 0.  0.
        3    1    3    3  502    0 -0.41276596978E+03  0.70029211453E+03  0.10228693324E+04  0.13065398857E+04  0.10100000352E+00 0.  1.
       -3    1    3    3    0  502  0.41276596978E+03 -0.70029211453E+03 -0.67219228996E+02  0.81566122038E+03  0.10100000352E+00 0. -1.
</event>
<event>
 5   0  0.2261755E-04  0.1915710E+04  0.7818609E-02  0.8647076E-01
       -1   -1    0    0    0  501  0.00000000000E+00  0.00000000000E+00  0.39438109625E+03  0.39438109628E+03  0.50400001928E-02 0. -1.
        1   -1    0    0  501    0  0.00000000000E+00  0.00000000000E+00 -0.23263943224E+04  0.23263943224E+04  0.50400001928E-02 0.  1.
    10030    2    1    2    0    0  0.00000000000E+00  0.00000000000E+00 -0.19320132261E+04  0.27207754187E+04  0.19157097309E+04 0.  0.
        1    1    3    3  502    0 -0.16316522179E+03  0.44322275806E+03 -0.21495196593E+04  0.22007962351E+04  0.50400001928E-02 0.  1.
       -1    1    3    3    0  502  0.16316522179E+03 -0.44322275806E+03  0.21750643313E+03  0.51997918357E+03  0.50400001928E-02 0. -1.
</event>
<event>
 5   0  0.2261755E-04  0.1862809E+04  0.7818609E-02  0.8673594E-01
       -1   -1    0    0    0  501  0.00000000000E+00  0.00000000000E+00  0.82664839909E+03  0.82664839910E+03  0.50400001928E-02 0.  1.
        1   -1    0    0  501    0  0.00000000000E+00  0.00000000000E+00 -0.10494352302E+04  0.10494352302E+04  0.50400001928E-02 0. -1.
    10030    2    1    2    0    0  0.00000000000E+00  0.00000000000E+00 -0.22278683114E+03  0.18760836293E+04  0.18628085817E+04 0.  0.
        1    1    3    3  502    0  0.28913811690E+02  0.76601873900E+03  0.42142615167E+03  0.87476895140E+03  0.50400001928E-02 0.  1.
       -1    1    3    3    0  502 -0.28913811690E+02 -0.76601873900E+03 -0.64421298281E+03  0.10013146779E+04  0.50400001928E-02 0. -1.
</event>
<event>
 5   0  0.2317458E-04  0.1927444E+04  0.7818609E-02  0.8641315E-01
       -1   -1    0    0    0  501  0.00000000000E+00  0.00000000000E+00  0.53786866507E+03  0.53786866510E+03  0.50400001928E-02 0. -1.
        1   -1    0    0  501    0  0.00000000000E+00  0.00000000000E+00 -0.17267415211E+04  0.17267415211E+04  0.50400001928E-02 0.  1.
    10030    2    1    2    0    0  0.00000000000E+00  0.00000000000E+00 -0.11888728560E+04  0.22646101862E+04  0.19274440660E+04 0.  0.
        3    1    3    3  502    0 -0.69800396755E+03 -0.66340081708E+03 -0.63917583942E+03  0.11557923458E+04  0.10100000352E+00 0.  1.
       -3    1    3    3    0  502  0.69800396755E+03  0.66340081708E+03 -0.54969701660E+03  0.11088178403E+04  0.10100000352E+00 0. -1.
</event>
<event>
 5   0  0.4839293E-04  0.1942914E+04  0.7818609E-02  0.8633785E-01
       -2   -1    0    0    0  501  0.00000000000E+00  0.00000000000E+00  0.50554794111E+03  0.50554794112E+03  0.25500000920E-02 0. -1.
        2   -1    0    0  501    0  0.00000000000E+00  0.00000000000E+00 -0.18667449443E+04  0.18667449444E+04  0.25500000920E-02 0.  1.
    10030    2    1    2    0    0  0.00000000000E+00  0.00000000000E+00 -0.13611970032E+04  0.23722928855E+04  0.19429143709E+04 0.  0.
        5    1    3    3  502    0 -0.77875825196E+03 -0.19837280861E+03 -0.14185929308E+02  0.80376583454E+03  0.46999998093E+01 0. -1.
       -5    1    3    3    0  502  0.77875825196E+03  0.19837280861E+03 -0.13470110739E+04  0.15685270509E+04  0.46999998093E+01 0.  1.
</event>
<event>
 5   0  0.4973411E-04  0.1748852E+04  0.7818609E-02  0.8733983E-01
       -2   -1    0    0    0  501  0.00000000000E+00  0.00000000000E+00  0.40526520710E+03  0.40526520711E+03  0.25500000920E-02 0. -1.
        2   -1    0    0  501    0  0.00000000000E+00  0.00000000000E+00 -0.18867166950E+04  0.18867166950E+04  0.25500000920E-02 0.  1.
    10030    2    1    2    0    0  0.00000000000E+00  0.00000000000E+00 -0.14814514879E+04  0.22919819021E+04  0.17488517743E+04 0.  0.
        1    1    3    3  502    0 -0.44227285075E+03  0.32598791962E+03 -0.16322437062E+04  0.17222348605E+04  0.50400001928E-02 0.  1.
       -1    1    3    3    0  502  0.44227285075E+03 -0.32598791962E+03  0.15079221834E+03  0.56974704158E+03  0.50400001928E-02 0. -1.
</event>
<event>
 5   0  0.2355414E-04  0.1417330E+04  0.7818609E-02  0.8941369E-01
       -1   -1    0    0    0  501  0.00000000000E+00  0.00000000000E+00  0.32918889279E+03  0.32918889283E+03  0.50400001928E-02 0. -1.
        1   -1    0    0  501    0  0.00000000000E+00  0.00000000000E+00 -0.15255866999E+04  0.15255866999E+04  0.50400001928E-02 0.  1.
    10030    2    1    2    0    0  0.00000000000E+00  0.00000000000E+00 -0.11963978071E+04  0.18547755927E+04  0.14173301614E+04 0.  0.
        5    1    3    3  502    0  0.44960868561E+03 -0.20557099935E+03  0.66220295782E+02  0.49881321506E+03  0.46999998093E+01 0. -1.
       -5    1    3    3    0  502 -0.44960868561E+03  0.20557099935E+03 -0.12626181029E+04  0.13559623777E+04  0.46999998093E+01 0.  1.
</event>
<event>
 5   0  0.2355414E-04  0.2142842E+04  0.7818609E-02  0.8542602E-01
        1   -1    0    0  501    0  0.00000000000E+00  0.00000000000E+00  0.12326033752E+04  0.12326033752E+04  0.50400001928E-02 0. -1.
       -1   -1    0    0    0  501  0.00000000000E+00  0.00000000000E+00 -0.93131599346E+03  0.93131599347E+03  0.50400001928E-02 0.  1.
    10030    2    1    2    0    0  0.00000000000E+00  0.00000000000E+00  0.30128738174E+03  0.21639193687E+04  0.21428422592E+04 0.  0.
        5    1    3    3  502    0  0.92157809641E+03 -0.50210222400E+03  0.36842278050E+03  0.11122815589E+04  0.46999998093E+01 0. -1.
       -5    1    3    3    0  502 -0.92157809641E+03  0.50210222400E+03 -0.67135398761E+02  0.10516378098E+04  0.46999998093E+01 0.  1.
</event>
<event>
 5   0  0.4973411E-04  0.1910994E+04  0.7818609E-02  0.8649403E-01
        2   -1    0    0  501    0  0.00000000000E+00  0.00000000000E+00  0.26579277374E+04  0.26579277375E+04  0.25500000920E-02 0. -1.
       -2   -1    0    0    0  501  0.00000000000E+00  0.00000000000E+00 -0.34349113697E+03  0.34349113698E+03  0.25500000920E-02 0.  1.
    10030    2    1    2    0    0  0.00000000000E+00  0.00000000000E+00  0.23144366005E+04  0.30014188744E+04  0.19109941084E+04 0.  0.
        1    1    3    3  502    0  0.54365717989E+02  0.44452273996E+03 -0.16844997260E+03  0.47846785778E+03  0.50400001928E-02 0.  1.
       -1    1    3    3    0  502 -0.54365717989E+02 -0.44452273996E+03  0.24828865731E+04  0.25229510167E+04  0.50400001928E-02 0. -1.
</event>
<event>
 5   0  0.2317458E-04  0.1388054E+04  0.7818609E-02  0.8962511E-01
       -1   -1    0    0    0  501  0.00000000000E+00  0.00000000000E+00  0.10845486421E+04  0.10845486421E+04  0.50400001928E-02 0.  1.
        1   -1    0    0  501    0  0.00000000000E+00  0.00000000000E+00 -0.44412344887E+03  0.44412344889E+03  0.50400001928E-02 0. -1.
    10030    2    1    2    0    0  0.00000000000E+00  0.00000000000E+00  0.64042519327E+03  0.15286720910E+04  0.13880540097E+04 0.  0.
        3    1    3    3  502    0 -0.16874694608E+03  0.19271001841E+03 -0.39016027285E+03  0.46673089861E+03  0.10100000352E+00 0. -1.
       -3    1    3    3    0  502  0.16874694608E+03 -0.19271001841E+03  0.10305854661E+04  0.10619411924E+04  0.10100000352E+00 0.  1.
</event>
<event>
 5   0  0.2376359E-04  0.1424992E+04  0.7818609E-02  0.8935924E-01
        1   -1    0    0  501    0  0.00000000000E+00  0.00000000000E+00  0.87448275675E+03  0.87448275677E+03  0.50400001928E-02 0. -1.
       -1   -1    0    0    0  501  0.00000000000E+00  0.00000000000E+00 -0.58051540779E+03  0.58051540781E+03  0.50400001928E-02 0.  1.
    10030    2    1    2    0    0  0.00000000000E+00  0.00000000000E+00  0.29396734897E+03  0.14549981646E+04  0.14249922304E+04 0.  0.
        2    1    3    3  502    0 -0.52041137826E+03  0.23385742196E+03  0.58274107114E+03  0.81553936289E+03  0.25500000920E-02 0. -1.
       -2    1    3    3    0  502  0.52041137826E+03 -0.23385742196E+03 -0.28877372217E+03  0.63945880168E+03  0.25500000920E-02 0.  1.
</event>
<event>
 5   0  0.2510069E-04  0.2308692E+04  0.7818609E-02  0.8474502E-01
        1   -1    0    0  501    0  0.00000000000E+00  0.00000000000E+00  0.11096823060E+04  0.11096823060E+04  0.50400001928E-02 0. -1.
       -1   -1    0    0    0  501  0.00000000000E+00  0.00000000000E+00 -0.12008078197E+04  0.12008078197E+04  0.50400001928E-02 0.  1.
    10030    2    1    2    0    0  0.00000000000E+00  0.00000000000E+00 -0.91125513704E+02  0.23104901257E+04  0.23086924355E+04 0.  0.
        4    1    3    3  502    0 -0.61183824531E+03 -0.71689017386E+03  0.62146655748E+03  0.11289374893E+04  0.12699999809E+01 0. -1.
       -4    1    3    3    0  502  0.61183824531E+03  0.71689017386E+03 -0.71259207119E+03  0.11815526364E+04  0.12699999809E+01 0.  1.
</event>
<event>
 5   0  0.2510069E-04  0.1884399E+04  0.7818609E-02  0.8662661E-01
        1   -1    0    0  501    0  0.00000000000E+00  0.00000000000E+00  0.79455833096E+03  0.79455833098E+03  0.50400001928E-02 0. -1.
       -1   -1    0    0    0  501  0.00000000000E+00  0.00000000000E+00 -0.11172746862E+04  0.11172746862E+04  0.50400001928E-02 0.  1.
    10030    2    1    2    0    0  0.00000000000E+00  0.00000000000E+00 -0.32271635528E+03  0.19118330172E+04  0.18843990129E+04 0.  0.
        4    1    3    3  502    0  0.11554935453E+03  0.57810748192E+03  0.58431013799E+03  0.83004810960E+03  0.12699999809E+01 0. -1.
       -4    1    3    3    0  502 -0.11554935453E+03 -0.57810748192E+03 -0.90702649327E+03  0.10817849076E+04  0.12699999809E+01 0.  1.
</event>
<event>
 5   0  0.2261755E-04  0.2004414E+04  0.7818609E-02  0.8604560E-01
        1   -1    0    0  501    0  0.00000000000E+00  0.00000000000E+00  0.12907895797E+04  0.12907895797E+04  0.50400001928E-02 0.  1.
       -1   -1    0    0    0  501  0.00000000000E+00  0.00000000000E+00 -0.77814283786E+03  0.77814283788E+03  0.50400001928E-02 0. -1.
    10030    2    1    2    0    0  0.00000000000E+00  0.00000000000E+00  0.51264674184E+03  0.20689324176E+04  0.20044137963E+04 0.  0.
        1    1    3    3  502    0 -0.37219713778E+03  0.58581813155E+03  0.10025784142E+04  0.12193756883E+04  0.50400001928E-02 0.  1.
       -1    1    3    3    0  502  0.37219713778E+03 -0.58581813155E+03 -0.48993167237E+03  0.84955672927E+03  0.50400001928E-02 0. -1.
</event>
<event>
 5   0  0.2317458E-04  0.1919547E+04  0.7818609E-02  0.8645187E-01
        1   -1    0    0  501    0  0.00000000000E+00  0.00000000000E+00  0.11568535625E+04  0.11568535625E+04  0.50400001928E-02 0. -1.
       -1   -1    0    0    0  501  0.00000000000E+00  0.00000000000E+00 -0.79626803554E+03  0.79626803556E+03  0.50400001928E-02 0.  1.
    10030    2    1    2    0    0  0.00000000000E+00  0.00000000000E+00  0.36058552699E+03  0.19531215981E+04  0.19195473567E+04 0.  0.
        3    1    3    3  502    0 -0.20831772668E+03 -0.68249291191E+03 -0.47278462278E+03  0.85598957925E+03  0.10100000352E+00 0.  1.
       -3    1    3    3    0  502  0.20831772668E+03  0.68249291191E+03  0.83337014977E+03  0.10971320188E+04  0.10100000352E+00 0. -1.
</event>
<event>
 5   0  0.2510069E-04  0.1272557E+04  0.7818609E-02  0.9051615E-01
        1   -1    0    0  501    0  0.00000000000E+00  0.00000000000E+00  0.35804750723E+03  0.35804750726E+03  0.50400001928E-02 0.  1.
       -1   -1    0    0    0  501  0.00000000000E+00  0.00000000000E+00 -0.11307167919E+04  0.11307167919E+04  0.50400001928E-02 0. -1.
    10030    2    1    2    0    0  0.00000000000E+00  0.00000000000E+00 -0.77266928468E+03  0.14887642992E+04  0.12725569987E+04 0.  0.
        4    1    3    3  502    0  0.14882458538E+03 -0.61860117646E+03 -0.39300852181E+03  0.74784589579E+03  0.12699999809E+01 0.  1.
       -4    1    3    3    0  502 -0.14882458538E+03  0.61860117646E+03 -0.37966076287E+03  0.74091840340E+03  0.12699999809E+01 0. -1.
</event>
<event>
 5   0  0.4839293E-04  0.1000760E+04  0.7818609E-02  0.9307712E-01
        2   -1    0    0  501    0  0.00000000000E+00  0.00000000000E+00  0.14860204624E+04  0.14860204624E+04  0.25500000920E-02 0. -1.
       -2   -1    0    0    0  501  0.00000000000E+00  0.00000000000E+00 -0.16849023531E+03  0.16849023533E+03  0.25500000920E-02 0.  1.
    10030    2    1    2    0    0  0.00000000000E+00  0.00000000000E+00  0.13175302271E+04  0.16545106978E+04  0.10007595863E+04 0.  0.
        5    1    3    3  502    0 -0.30268287772E+03  0.26795890133E+03  0.11462341291E+04  0.12154397007E+04  0.46999998093E+01 0. -1.
       -5    1    3    3    0  502  0.30268287772E+03 -0.26795890133E+03  0.17129609797E+03  0.43907099704E+03  0.46999998093E+01 0.  1.
</event>
<event>
 5   0  0.2376359E-04  0.1882719E+04  0.7818609E-02  0.8663506E-01
        1   -1    0    0  501    0  0.00000000000E+00  0.00000000000E+00  0.11354212077E+04  0.11354212077E+04  0.50400001928E-02 0.  1.
       -1   -1    0    0    0  501  0.00000000000E+00  0.00000000000E+00 -0.78046595456E+03  0.78046595458E+03  0.50400001928E-02 0. -1.
    10030    2    1    2    0    0  0.00000000000E+00  0.00000000000E+00  0.35495525310E+03  0.19158871622E+04  0.18827188815E+04 0.  0.
        2    1    3    3  502    0  0.51512967161E+03  0.47017945434E+03 -0.46590300604E+03  0.83874484136E+03  0.25500000920E-02 0. -1.
       -2    1    3    3    0  502 -0.51512967161E+03 -0.47017945434E+03  0.82085825913E+03  0.10771423209E+04  0.25500000920E-02 0.  1.
</event>
<event>
 5   0  0.2317458E-04  0.1900551E+04  0.7818609E-02  0.8654582E-01
        1   -1    0    0  501    0  0.00000000000E+00  0.00000000000E+00  0.11417288300E+04  0.11417288300E+04  0.50400001928E-02 0. -1.
       -1   -1    0    0    0  501  0.00000000000E+00  0.00000000000E+00 -0.79092637303E+03  0.79092637304E+03  0.50400001928E-02 0.  1.
    10030    2    1    2    0    0  0.00000000000E+00  0.00000000000E+00  0.35080245696E+03  0.19326552030E+04  0.19005509122E+04 0.  0.
        3    1    3    3  502    0 -0.26743267632E+03  0.80571795938E+03 -0.25880308300E+03  0.88751378152E+03  0.10100000352E+00 0.  1.
       -3    1    3    3    0  502  0.26743267632E+03 -0.80571795938E+03  0.60960553995E+03  0.10451414215E+04  0.10100000352E+00 0. -1.
</event>
<event>
 5   0  0.2376359E-04  0.1900625E+04  0.7818609E-02  0.8654545E-01
        1   -1    0    0  501    0  0.00000000000E+00  0.00000000000E+00  0.75147861797E+03  0.75147861799E+03  0.50400001928E-02 0. -1.
       -1   -1    0    0    0  501  0.00000000000E+00  0.00000000000E+00 -0.12017559228E+04  0.12017559228E+04  0.50400001928E-02 0.  1.
    10030    2    1    2    0    0  0.00000000000E+00  0.00000000000E+00 -0.45027730486E+03  0.19532345408E+04  0.19006250341E+04 0.  0.
        2    1    3    3  502    0  0.26906565393E+02  0.34718138496E+03 -0.11338281432E+04  0.11860965963E+04  0.25500000920E-02 0.  1.
       -2    1    3    3    0  502 -0.26906565393E+02 -0.34718138496E+03  0.68355083837E+03  0.76713794455E+03  0.25500000920E-02 0. -1.
</event>
<event>
 5   0  0.4973411E-04  0.1870142E+04  0.7818609E-02  0.8669863E-01
       -2   -1    0    0    0  501  0.00000000000E+00  0.00000000000E+00  0.10316445399E+04  0.10316445399E+04  0.25500000920E-02 0. -1.
        2   -1    0    0  501    0  0.00000000000E+00  0.00000000000E+00 -0.84753764299E+03  0.84753764300E+03  0.25500000920E-02 0.  1.
    10030    2    1    2    0    0  0.00000000000E+00  0.00000000000E+00  0.18410689693E+03  0.18791821829E+04  0.18701417933E+04 0.  0.
        1    1    3    3  502    0  0.58728373317E+03 -0.19625885595E+03 -0.61200321455E+03  0.87061337942E+03  0.50400001928E-02 0.  1.
       -1    1    3    3    0  502 -0.58728373317E+03  0.19625885595E+03  0.79611011148E+03  0.10085688035E+04  0.50400001928E-02 0. -1.
</event>
<event>
 5   0  0.2261755E-04  0.1869421E+04  0.7818609E-02  0.8670229E-01
       -1   -1    0    0    0  501  0.00000000000E+00  0.00000000000E+00  0.46476174940E+03  0.46476174943E+03  0.50400001928E-02 0.  1.
        1   -1    0    0  501    0  0.00000000000E+00  0.00000000000E+00 -0.18798537347E+04  0.18798537347E+04  0.50400001928E-02 0. -1.
    10030    2    1    2    0    0  0.00000000000E+00  0.00000000000E+00 -0.14150919853E+04  0.23446154841E+04  0.18694214189E+04 0.  0.
        1    1    3    3  502    0 -0.27629911339E+03 -0.58706122713E+03 -0.15514064438E+04  0.16816194690E+04  0.50400001928E-02 0. -1.
       -1    1    3    3    0  502  0.27629911339E+03  0.58706122713E+03  0.13631445855E+03  0.66299601514E+03  0.50400001928E-02 0.  1.
</event>
<event>
 5   0  0.4829134E-04  0.1944331E+04  0.7818609E-02  0.8633099E-01
        2   -1    0    0  501    0  0.00000000000E+00  0.00000000000E+00  0.97887236825E+03  0.97887236825E+03  0.25500000920E-02 0.  1.
       -2   -1    0    0    0  501  0.00000000000E+00  0.00000000000E+00 -0.96550442091E+03  0.96550442091E+03  0.25500000920E-02 0. -1.
    10030    2    1    2    0    0  0.00000000000E+00  0.00000000000E+00  0.13367947342E+02  0.19443767892E+04  0.19443308351E+04 0.  0.
        2    1    3    3  502    0  0.47005622400E+03  0.70188865029E+03 -0.47447713370E+03  0.96888032364E+03  0.25500000920E-02 0. -1.
       -2    1    3    3    0  502 -0.47005622400E+03 -0.70188865029E+03  0.48784508104E+03  0.97549646552E+03  0.25500000920E-02 0.  1.
</event>
<event>
 5   0  0.1729375E-04  0.1549947E+04  0.7818609E-02  0.8851902E-01
       -3   -1    0    0    0  501  0.00000000000E+00  0.00000000000E+00  0.54022012420E+03  0.54022013364E+03  0.10100000352E+00 0. -1.
        3   -1    0    0  501    0  0.00000000000E+00  0.00000000000E+00 -0.11117392026E+04  0.11117392072E+04  0.10100000352E+00 0.  1.
    10030    2    1    2    0    0  0.00000000000E+00  0.00000000000E+00 -0.57151907837E+03  0.16519593408E+04  0.15499469690E+04 0.  0.
        2    1    3    3  502    0 -0.45228340991E+03  0.21356974885E+03  0.34515675018E+03  0.60770511163E+03  0.25500000920E-02 0. -1.
       -2    1    3    3    0  502  0.45228340991E+03 -0.21356974885E+03 -0.91667582855E+03  0.10442542292E+04  0.25500000920E-02 0.  1.
</event>
<event>
 5   0  0.2261755E-04  0.1721157E+04  0.7818609E-02  0.8749389E-01
        1   -1    0    0  501    0  0.00000000000E+00  0.00000000000E+00  0.14095958024E+04  0.14095958024E+04  0.50400001928E-02 0. -1.
       -1   -1    0    0    0  501  0.00000000000E+00  0.00000000000E+00 -0.52539543190E+03  0.52539543193E+03  0.50400001928E-02 0.  1.
    10030    2    1    2    0    0  0.00000000000E+00  0.00000000000E+00  0.88420037048E+03  0.19349912343E+04  0.17211568150E+04 0.  0.
        1    1    3    3  502    0  0.27244019321E+03 -0.81605212694E+03  0.41877493549E+03  0.95683707044E+03  0.50400001928E-02 0. -1.
       -1    1    3    3    0  502 -0.27244019321E+03  0.81605212694E+03  0.46542543499E+03  0.97815416388E+03  0.50400001928E-02 0.  1.
</event>
<event>
 5   0  0.2317458E-04  0.1916857E+04  0.7818609E-02  0.8646511E-01
       -1   -1    0    0    0  501  0.00000000000E+00  0.00000000000E+00  0.49238791942E+03  0.49238791945E+03  0.50400001928E-02 0. -1.
        1   -1    0    0  501    0  0.00000000000E+00  0.00000000000E+00 -0.18655715484E+04  0.18655715484E+04  0.50400001928E-02 0.  1.
    10030    2    1    2    0    0  0.00000000000E+00  0.00000000000E+00 -0.13731836289E+04  0.23579594678E+04  0.19168566908E+04 0.  0.
        3    1    3    3  502    0  0.48883666595E+02 -0.40666115083E+03  0.37930503604E+03  0.55824298027E+03  0.10100000352E+00 0. -1.
       -3    1    3    3    0  502 -0.48883666595E+02  0.40666115083E+03 -0.17524886650E+04  0.17997164876E+04  0.10100000352E+00 0.  1.
</event>
<event>
 5   0  0.4802635E-04  0.1896700E+04  0.7818609E-02  0.8656501E-01
       -2   -1    0    0    0  501  0.00000000000E+00  0.00000000000E+00  0.95055552486E+03  0.95055552486E+03  0.25500000920E-02 0. -1.
        2   -1    0    0  501    0  0.00000000000E+00  0.00000000000E+00 -0.94614919044E+03  0.94614919044E+03  0.25500000920E-02 0.  1.
    10030    2    1    2    0    0  0.00000000000E+00  0.00000000000E+00  0.44063344203E+01  0.18967047153E+04  0.18966995970E+04 0.  0.
        3    1    3    3  502    0  0.56620636942E+03 -0.73384674840E+03 -0.19841299471E+03  0.94788629570E+03  0.10100000352E+00 0.  1.
       -3    1    3    3    0  502 -0.56620636942E+03  0.73384674840E+03  0.20281932913E+03  0.94881841960E+03  0.10100000352E+00 0. -1.
</event>
<event>
 5   0  0.4761944E-04  0.1822912E+04  0.7818609E-02  0.8694209E-01
       -2   -1    0    0    0  501  0.00000000000E+00  0.00000000000E+00  0.83978890764E+03  0.83978890764E+03  0.25500000920E-02 0.  1.
        2   -1    0    0  501    0  0.00000000000E+00  0.00000000000E+00 -0.98923896080E+03  0.98923896080E+03  0.25500000920E-02 0. -1.
    10030    2    1    2    0    0  0.00000000000E+00  0.00000000000E+00 -0.14945005316E+03  0.18290278684E+04  0.18229118534E+04 0.  0.
        4    1    3    3  502    0  0.31906328580E+03  0.36018960496E+03  0.70196018468E+03  0.85105090661E+03  0.12699999809E+01 0.  1.
       -4    1    3    3    0  502 -0.31906328580E+03 -0.36018960496E+03 -0.85141023784E+03  0.97797696183E+03  0.12699999809E+01 0. -1.
</event>
<event>
 5   0  0.2261755E-04  0.1931324E+04  0.7818609E-02  0.8639420E-01
       -1   -1    0    0    0  501  0.00000000000E+00  0.00000000000E+00  0.67923498740E+03  0.67923498742E+03  0.50400001928E-02 0.  1.
        1   -1    0    0  501    0  0.00000000000E+00  0.00000000000E+00 -0.13728720795E+04  0.13728720796E+04  0.50400001928E-02 0. -1.
    10030    2    1    2    0    0  0.00000000000E+00  0.00000000000E+00 -0.69363709214E+03  0.20521070670E+04  0.19313236390E+04 0.  0.
        1    1    3    3  502    0  0.23889790742E+03  0.35242524948E+03  0.57411978441E+03  0.71476520167E+03  0.50400001928E-02 0.  1.
       -1    1    3    3    0  502 -0.23889790742E+03 -0.35242524948E+03 -0.12677568765E+04  0.13373418653E+04  0.50400001928E-02 0. -1.
</event>
<event>
 5   0  0.2355414E-04  0.1841431E+04  0.7818609E-02  0.8684572E-01
        1   -1    0    0  501    0  0.00000000000E+00  0.00000000000E+00  0.56485504622E+03  0.56485504624E+03  0.50400001928E-02 0. -1.
       -1   -1    0    0    0  501  0.00000000000E+00  0.00000000000E+00 -0.15007690408E+04  0.15007690408E+04  0.50400001928E-02 0.  1.
    10030    2    1    2    0    0  0.00000000000E+00  0.00000000000E+00 -0.93591399460E+03  0.20656240871E+04  0.18414309283E+04 0.  0.
        5    1    3    3  502    0 -0.58300635553E+03 -0.48467894673E+03 -0.10539406709E+04  0.12983154931E+04  0.46999998093E+01 0.  1.
       -5    1    3    3    0  502  0.58300635553E+03  0.48467894673E+03  0.11802667628E+03  0.76730859392E+03  0.46999998093E+01 0. -1.
</event>
<event>
 5   0  0.4802635E-04  0.1896482E+04  0.7818609E-02  0.8656610E-01
        2   -1    0    0  501    0  0.00000000000E+00  0.00000000000E+00  0.18843274795E+04  0.18843274795E+04  0.25500000920E-02 0.  1.
       -2   -1    0    0    0  501  0.00000000000E+00  0.00000000000E+00 -0.47717864363E+03  0.47717864364E+03  0.25500000920E-02 0. -1.
    10030    2    1    2    0    0  0.00000000000E+00  0.00000000000E+00  0.14071488359E+04  0.23615061231E+04  0.18964818278E+04 0.  0.
        3    1    3    3  502    0 -0.60433767483E+03 -0.48302821909E+03  0.20843277692E+02  0.77393458256E+03  0.10100000352E+00 0. -1.
       -3    1    3    3    0  502  0.60433767483E+03  0.48302821909E+03  0.13863055582E+04  0.15875715406E+04  0.10100000352E+00 0.  1.
</event>
<event>
 5   0  0.2510069E-04  0.1909114E+04  0.7818609E-02  0.8650333E-01
        1   -1    0    0  501    0  0.00000000000E+00  0.00000000000E+00  0.94024286860E+03  0.94024286862E+03  0.50400001928E-02 0.  1.
       -1   -1    0    0    0  501  0.00000000000E+00  0.00000000000E+00 -0.96908874956E+03  0.96908874958E+03  0.50400001928E-02 0. -1.
    10030    2    1    2    0    0  0.00000000000E+00  0.00000000000E+00 -0.28845880961E+02  0.19093316182E+04  0.19091137062E+04 0.  0.
        4    1    3    3  502    0 -0.93465275645E+02  0.31767443016E+03 -0.90980406538E+03  0.96819308592E+03  0.12699999809E+01 0. -1.
       -4    1    3    3    0  502  0.93465275645E+02 -0.31767443016E+03  0.88095818442E+03  0.94113853227E+03  0.12699999809E+01 0.  1.
</event>
<event>
 5   0  0.4802635E-04  0.1934713E+04  0.7818609E-02  0.8637768E-01
       -2   -1    0    0    0  501  0.00000000000E+00  0.00000000000E+00  0.58071926136E+03  0.58071926136E+03  0.25500000920E-02 0.  1.
        2   -1    0    0  501    0  0.00000000000E+00  0.00000000000E+00 -0.16114128287E+04  0.16114128287E+04  0.25500000920E-02 0. -1.
    10030    2    1    2    0    0  0.00000000000E+00  0.00000000000E+00 -0.10306935674E+04  0.21921320901E+04  0.19347128652E+04 0.  0.
        3    1    3    3  502    0  0.62189129269E+03  0.60682723359E+03 -0.33578876538E+02  0.86954909148E+03  0.10100000352E+00 0.  1.
       -3    1    3    3    0  502 -0.62189129269E+03 -0.60682723359E+03 -0.99711469085E+03  0.13225829986E+04  0.10100000352E+00 0. -1.
</event>
<event>
 5   0  0.1729375E-04  0.1755252E+04  0.7818609E-02  0.8730465E-01
        3   -1    0    0  501    0  0.00000000000E+00  0.00000000000E+00  0.13277351729E+04  0.13277351768E+04  0.10100000352E+00 0. -1.
       -3   -1    0    0    0  501  0.00000000000E+00  0.00000000000E+00 -0.58010595285E+03  0.58010596164E+03  0.10100000352E+00 0.  1.
    10030    2    1    2    0    0  0.00000000000E+00  0.00000000000E+00  0.74762922008E+03  0.19078411384E+04  0.17552516511E+04 0.  0.
        2    1    3    3  502    0 -0.50764980427E+03 -0.34970823486E+03  0.10527980842E+04  0.12199950735E+04  0.25500000920E-02 0. -1.
       -2    1    3    3    0  502  0.50764980427E+03  0.34970823486E+03 -0.30516886415E+03  0.68784606487E+03  0.25500000920E-02 0.  1.
</event>
<event>
 5   0  0.2376359E-04  0.1897847E+04  0.7818609E-02  0.8655929E-01
       -1   -1    0    0    0  501  0.00000000000E+00  0.00000000000E+00  0.38888041955E+03  0.38888041958E+03  0.50400001928E-02 0.  1.
        1   -1    0    0  501    0  0.00000000000E+00  0.00000000000E+00 -0.23155070325E+04  0.23155070325E+04  0.50400001928E-02 0. -1.
    10030    2    1    2    0    0  0.00000000000E+00  0.00000000000E+00 -0.19266266130E+04  0.27043874521E+04  0.18978465126E+04 0.  0.
        2    1    3    3  502    0 -0.83650935429E+02  0.92955838006E+03 -0.71906758669E+03  0.11781911794E+04  0.25500000920E-02 0.  1.
       -2    1    3    3    0  502  0.83650935429E+02 -0.92955838006E+03 -0.12075590263E+04  0.15261962728E+04  0.25500000920E-02 0. -1.
</event>
<event>
 5   0  0.4839293E-04  0.1888380E+04  0.7818609E-02  0.8660662E-01
        2   -1    0    0  501    0  0.00000000000E+00  0.00000000000E+00  0.24856649222E+04  0.24856649222E+04  0.25500000920E-02 0. -1.
       -2   -1    0    0    0  501  0.00000000000E+00  0.00000000000E+00 -0.35865454513E+03  0.35865454514E+03  0.25500000920E-02 0.  1.
    10030    2    1    2    0    0  0.00000000000E+00  0.00000000000E+00  0.21270103771E+04  0.28443194673E+04  0.18883802816E+04 0.  0.
        5    1    3    3  502    0 -0.15091222540E+03  0.74452496807E+03  0.19080390461E+04  0.20537105491E+04  0.46999998093E+01 0. -1.
       -5    1    3    3    0  502  0.15091222540E+03 -0.74452496807E+03  0.21897133094E+03  0.79060891826E+03  0.46999998093E+01 0.  1.
</event>
<event>
 5   0  0.2261755E-04  0.1797652E+04  0.7818609E-02  0.8707549E-01
       -1   -1    0    0    0  501  0.00000000000E+00  0.00000000000E+00  0.86410827005E+03  0.86410827006E+03  0.50400001928E-02 0.  1.
        1   -1    0    0  501    0  0.00000000000E+00  0.00000000000E+00 -0.93493912099E+03  0.93493912101E+03  0.50400001928E-02 0. -1.
    10030    2    1    2    0    0  0.00000000000E+00  0.00000000000E+00 -0.70830850945E+02  0.17990473911E+04  0.17976524986E+04 0.  0.
        1    1    3    3  502    0  0.44610566117E+03 -0.48414469285E+03  0.57700899279E+03  0.87541174446E+03  0.50400001928E-02 0.  1.
       -1    1    3    3    0  502 -0.44610566117E+03  0.48414469285E+03 -0.64783984374E+03  0.92363564662E+03  0.50400001928E-02 0. -1.
</event>
<event>
 5   0  0.2261755E-04  0.1904829E+04  0.7818609E-02  0.8652456E-01
       -1   -1    0    0    0  501  0.00000000000E+00  0.00000000000E+00  0.75838912232E+03  0.75838912234E+03  0.50400001928E-02 0. -1.
        1   -1    0    0  501    0  0.00000000000E+00  0.00000000000E+00 -0.11960794582E+04  0.11960794582E+04  0.50400001928E-02 0.  1.
    10030    2    1    2    0    0  0.00000000000E+00  0.00000000000E+00 -0.43769033586E+03  0.19544685805E+04  0.19048292843E+04 0.  0.
        1    1    3    3  502    0 -0.20554305457E+02  0.65162204274E+02  0.75587108355E+03  0.75895302050E+03  0.50400001928E-02 0. -1.
       -1    1    3    3    0  502  0.20554305457E+02 -0.65162204274E+02 -0.11935614194E+04  0.11955155600E+04  0.50400001928E-02 0.  1.
</event>
<event>
 5   0  0.4839293E-04  0.1955779E+04  0.7818609E-02  0.8627579E-01
        2   -1    0    0  501    0  0.00000000000E+00  0.00000000000E+00  0.14301068656E+04  0.14301068656E+04  0.25500000920E-02 0.  1.
       -2   -1    0    0    0  501  0.00000000000E+00  0.00000000000E+00 -0.66866905009E+03  0.66866905010E+03  0.25500000920E-02 0. -1.
    10030    2    1    2    0    0  0.00000000000E+00  0.00000000000E+00  0.76143781548E+03  0.20987759157E+04  0.19557793325E+04 0.  0.
        5    1    3    3  502    0 -0.77689880641E+03  0.39304619263E+03 -0.97014971706E+02  0.87606567087E+03  0.46999998093E+01 0. -1.
       -5    1    3    3    0  502  0.77689880641E+03 -0.39304619263E+03  0.85845278719E+03  0.12227102448E+04  0.46999998093E+01 0.  1.
</event>
<event>
 5   0  0.2510069E-04  0.1839229E+04  0.7818609E-02  0.8685712E-01
       -1   -1    0    0    0  501  0.00000000000E+00  0.00000000000E+00  0.72867953545E+03  0.72867953547E+03  0.50400001928E-02 0. -1.
        1   -1    0    0  501    0  0.00000000000E+00  0.00000000000E+00 -0.11605796172E+04  0.11605796172E+04  0.50400001928E-02 0.  1.
    10030    2    1    2    0    0  0.00000000000E+00  0.00000000000E+00 -0.43190008172E+03  0.18892591527E+04  0.18392287692E+04 0.  0.
        4    1    3    3  502    0 -0.70604378640E+03  0.17981784030E+03  0.36043442335E+03  0.81286337748E+03  0.12699999809E+01 0. -1.
       -4    1    3    3    0  502  0.70604378640E+03 -0.17981784030E+03 -0.79233450507E+03  0.10763957752E+04  0.12699999809E+01 0.  1.
</event>
<event>
 5   0  0.2261755E-04  0.1933047E+04  0.7818609E-02  0.8638579E-01
        1   -1    0    0  501    0  0.00000000000E+00  0.00000000000E+00  0.11676709598E+04  0.11676709598E+04  0.50400001928E-02 0. -1.
       -1   -1    0    0    0  501  0.00000000000E+00  0.00000000000E+00 -0.80002663852E+03  0.80002663854E+03  0.50400001928E-02 0.  1.
    10030    2    1    2    0    0  0.00000000000E+00  0.00000000000E+00  0.36764432129E+03  0.19676975984E+04  0.19330472037E+04 0.  0.
        1    1    3    3  502    0 -0.16792708573E+01 -0.69114371060E+03  0.87157018844E+03  0.11123475365E+04  0.50400001928E-02 0. -1.
       -1    1    3    3    0  502  0.16792708573E+01  0.69114371060E+03 -0.50392586714E+03  0.85535006182E+03  0.50400001928E-02 0.  1.
</event>
<event>
 5   0  0.4839293E-04  0.1957671E+04  0.7818609E-02  0.8626670E-01
        2   -1    0    0  501    0  0.00000000000E+00  0.00000000000E+00  0.12434214529E+04  0.12434214529E+04  0.25500000920E-02 0. -1.
       -2   -1    0    0    0  501  0.00000000000E+00  0.00000000000E+00 -0.77055077810E+03  0.77055077811E+03  0.25500000920E-02 0.  1.
    10030    2    1    2    0    0  0.00000000000E+00  0.00000000000E+00  0.47287067476E+03  0.20139722310E+04  0.19576714413E+04 0.  0.
        5    1    3    3  502    0 -0.83593702430E+01  0.51751577726E+03 -0.61824294089E+03  0.80631190165E+03  0.46999998093E+01 0.  1.
       -5    1    3    3    0  502  0.83593702430E+01 -0.51751577726E+03  0.10911136156E+04  0.12076603293E+04  0.46999998093E+01 0. -1.
</event>
<event>
 5   0  0.2355414E-04  0.1416238E+04  0.7818609E-02  0.8942148E-01
        1   -1    0    0  501    0  0.00000000000E+00  0.00000000000E+00  0.28677452985E+03  0.28677452989E+03  0.50400001928E-02 0. -1.
       -1   -1    0    0    0  501  0.00000000000E+00  0.00000000000E+00 -0.17485245058E+04  0.17485245058E+04  0.50400001928E-02 0.  1.
    10030    2    1    2    0    0  0.00000000000E+00  0.00000000000E+00 -0.14617499759E+04  0.20352990357E+04  0.14162376822E+04 0.  0.
        5    1    3    3  502    0  0.13361178223E+03 -0.56415476717E+03 -0.13151429573E+04  0.14372702591E+04  0.46999998093E+01 0.  1.
       -5    1    3    3    0  502 -0.13361178223E+03  0.56415476717E+03 -0.14660701865E+03  0.59802877655E+03  0.46999998093E+01 0. -1.
</event>
<event>
 5   0  0.4802635E-04  0.1912125E+04  0.7818609E-02  0.8648844E-01
        2   -1    0    0  501    0  0.00000000000E+00  0.00000000000E+00  0.11616633765E+04  0.11616633765E+04  0.25500000920E-02 0.  1.
       -2   -1    0    0    0  501  0.00000000000E+00  0.00000000000E+00 -0.78685098316E+03  0.78685098317E+03  0.25500000920E-02 0. -1.
    10030    2    1    2    0    0  0.00000000000E+00  0.00000000000E+00  0.37481239336E+03  0.19485143597E+04  0.19121254874E+04 0.  0.
        3    1    3    3  502    0  0.62970757715E+03 -0.70230779606E+03  0.34621840019E+03  0.10048059832E+04  0.10100000352E+00 0.  1.
       -3    1    3    3    0  502 -0.62970757715E+03  0.70230779606E+03  0.28593993170E+02  0.94370837645E+03  0.10100000352E+00 0. -1.
</event>
<event>
 5   0  0.2376359E-04  0.1936317E+04  0.7818609E-02  0.8636987E-01
       -1   -1    0    0    0  501  0.00000000000E+00  0.00000000000E+00  0.97538823482E+03  0.97538823483E+03  0.50400001928E-02 0. -1.
        1   -1    0    0  501    0  0.00000000000E+00  0.00000000000E+00 -0.96098261376E+03  0.96098261377E+03  0.50400001928E-02 0.  1.
    10030    2    1    2    0    0  0.00000000000E+00  0.00000000000E+00  0.14405621061E+02  0.19363708486E+04  0.19363172626E+04 0.  0.
        2    1    3    3  502    0  0.59152236325E+03  0.49614510366E+03  0.59140427780E+03  0.97253158814E+03  0.25500000920E-02 0. -1.
       -2    1    3    3    0  502 -0.59152236325E+03 -0.49614510366E+03 -0.57699865674E+03  0.96383926046E+03  0.25500000920E-02 0.  1.
</event>
<event>
 5   0  0.2510069E-04  0.1849135E+04  0.7818609E-02  0.8680598E-01
        1   -1    0    0  501    0  0.00000000000E+00  0.00000000000E+00  0.10486077260E+04  0.10486077260E+04  0.50400001928E-02 0.  1.
       -1   -1    0    0    0  501  0.00000000000E+00  0.00000000000E+00 -0.81520020979E+03  0.81520020981E+03  0.50400001928E-02 0. -1.
    10030    2    1    2    0    0  0.00000000000E+00  0.00000000000E+00  0.23340751620E+03  0.18638079358E+04  0.18491351906E+04 0.  0.
        4    1    3    3  502    0  0.64713788946E+03  0.25475051983E+03  0.73074905482E+03  0.10088017988E+04  0.12699999809E+01 0.  1.
       -4    1    3    3    0  502 -0.64713788946E+03 -0.25475051983E+03 -0.49734153862E+03  0.85500613697E+03  0.12699999809E+01 0. -1.
</event>
<event>
 5   0  0.2261755E-04  0.1862921E+04  0.7818609E-02  0.8673536E-01
       -1   -1    0    0    0  501  0.00000000000E+00  0.00000000000E+00  0.64397035710E+03  0.64397035712E+03  0.50400001928E-02 0. -1.
        1   -1    0    0  501    0  0.00000000000E+00  0.00000000000E+00 -0.13472965326E+04  0.13472965326E+04  0.50400001928E-02 0.  1.
    10030    2    1    2    0    0  0.00000000000E+00  0.00000000000E+00 -0.70332617554E+03  0.19912668898E+04  0.18629213932E+04 0.  0.
        1    1    3    3  502    0  0.62038769595E+03 -0.67747024021E+03 -0.51646783508E+03  0.10538433680E+04  0.50400001928E-02 0.  1.
       -1    1    3    3    0  502 -0.62038769595E+03  0.67747024021E+03 -0.18685834046E+03  0.93742352172E+03  0.50400001928E-02 0. -1.
</event>
<event>
 5   0  0.2510069E-04  0.1881177E+04  0.7818609E-02  0.8664283E-01
        1   -1    0    0  501    0  0.00000000000E+00  0.00000000000E+00  0.13685607384E+04  0.13685607384E+04  0.50400001928E-02 0.  1.
       -1   -1    0    0    0  501  0.00000000000E+00  0.00000000000E+00 -0.64645056842E+03  0.64645056844E+03  0.50400001928E-02 0. -1.
    10030    2    1    2    0    0  0.00000000000E+00  0.00000000000E+00  0.72211016995E+03  0.20150113068E+04  0.18811771498E+04 0.  0.
        4    1    3    3  502    0  0.39167078223E+03 -0.81449489590E+03  0.81945918318E+02  0.90748260784E+03  0.12699999809E+01 0. -1.
       -4    1    3    3    0  502 -0.39167078223E+03  0.81449489590E+03  0.64016425163E+03  0.11075286990E+04  0.12699999809E+01 0.  1.
</event>
<event>
 5   0  0.4829134E-04  0.1932602E+04  0.7818609E-02  0.8638796E-01
        2   -1    0    0  501    0  0.00000000000E+00  0.00000000000E+00  0.20256265193E+04  0.20256265193E+04  0.25500000920E-02 0.  1.
       -2   -1    0    0    0  501  0.00000000000E+00  0.00000000000E+00 -0.46096240605E+03  0.46096240606E+03  0.25500000920E-02 0. -1.
    10030    2    1    2    0    0  0.00000000000E+00  0.00000000000E+00  0.15646641133E+04  0.24865889254E+04  0.19326020533E+04 0.  0.
        2    1    3    3  502    0  0.36489739355E+03 -0.37049905926E+03  0.18302383634E+04  0.19026802484E+04  0.25500000920E-02 0.  1.
       -2    1    3    3    0  502 -0.36489739355E+03  0.37049905926E+03 -0.26557425013E+03  0.58390867700E+03  0.25500000920E-02 0. -1.
</event>
<event>
 5   0  0.4973411E-04  0.1904924E+04  0.7818609E-02  0.8652409E-01
        2   -1    0    0  501    0  0.00000000000E+00  0.00000000000E+00  0.83392974569E+03  0.83392974570E+03  0.25500000920E-02 0. -1.
       -2   -1    0    0    0  501  0.00000000000E+00  0.00000000000E+00 -0.10878416354E+04  0.10878416354E+04  0.25500000920E-02 0.  1.
    10030    2    1    2    0    0  0.00000000000E+00  0.00000000000E+00 -0.25391188973E+03  0.19217713811E+04  0.19049236188E+04 0.  0.
        1    1    3    3  502    0  0.52065050459E+03  0.54909092206E+03 -0.71052308421E+03  0.10379888448E+04  0.50400001928E-02 0.  1.
       -1    1    3    3    0  502 -0.52065050459E+03 -0.54909092206E+03  0.45661119449E+03  0.88378253636E+03  0.50400001928E-02 0. -1.
</event>
<event>
 5   0  0.4802635E-04  0.1877878E+04  0.7818609E-02  0.8665947E-01
        2   -1    0    0  501    0  0.00000000000E+00  0.00000000000E+00  0.15799384382E+04  0.15799384383E+04  0.25500000920E-02 0. -1.
       -2   -1    0    0    0  501  0.00000000000E+00  0.00000000000E+00 -0.55800048982E+03  0.55800048983E+03  0.25500000920E-02 0.  1.
    10030    2    1    2    0    0  0.00000000000E+00  0.00000000000E+00  0.10219379484E+04  0.21379389281E+04  0.18778779752E+04 0.  0.
        3    1    3    3  502    0 -0.10955876528E+03 -0.91203417067E+03  0.73230717049E+03  0.11747694470E+04  0.10100000352E+00 0. -1.
       -3    1    3    3    0  502  0.10955876528E+03  0.91203417067E+03  0.28963077793E+03  0.96316948106E+03  0.10100000352E+00 0.  1.
</event>
<event>
 5   0  0.4973411E-04  0.1891274E+04  0.7818609E-02  0.8659212E-01
       -2   -1    0    0    0  501  0.00000000000E+00  0.00000000000E+00  0.61124488371E+03  0.61124488372E+03  0.25500000920E-02 0.  1.
        2   -1    0    0  501    0  0.00000000000E+00  0.00000000000E+00 -0.14629648603E+04  0.14629648603E+04  0.25500000920E-02 0. -1.
    10030    2    1    2    0    0  0.00000000000E+00  0.00000000000E+00 -0.85171997661E+03  0.20742097440E+04  0.18912744760E+04 0.  0.
        1    1    3    3  502    0  0.86876745561E+03 -0.24783556363E+03 -0.11946211161E+03  0.91129059836E+03  0.50400001928E-02 0. -1.
       -1    1    3    3    0  502 -0.86876745561E+03  0.24783556363E+03 -0.73225786500E+03  0.11629191457E+04  0.50400001928E-02 0.  1.
</event>
<event>
 5   0  0.4761944E-04  0.1807683E+04  0.7818609E-02  0.8702225E-01
       -2   -1    0    0    0  501  0.00000000000E+00  0.00000000000E+00  0.13323953959E+04  0.13323953959E+04  0.25500000920E-02 0.  1.
        2   -1    0    0  501    0  0.00000000000E+00  0.00000000000E+00 -0.61312820482E+03  0.61312820482E+03  0.25500000920E-02 0. -1.
    10030    2    1    2    0    0  0.00000000000E+00  0.00000000000E+00  0.71926719108E+03  0.19455236007E+04  0.18076827124E+04 0.  0.
        4    1    3    3  502    0 -0.26923479792E+03 -0.26423846955E+03  0.12436154252E+04  0.12995731160E+04  0.12699999809E+01 0.  1.
       -4    1    3    3    0  502  0.26923479792E+03  0.26423846955E+03 -0.52434823410E+03  0.64595048471E+03  0.12699999809E+01 0. -1.
</event>
<event>
 5   0  0.2317458E-04  0.1877968E+04  0.7818609E-02  0.8665902E-01
        1   -1    0    0  501    0  0.00000000000E+00  0.00000000000E+00  0.12998737949E+04  0.12998737949E+04  0.50400001928E-02 0.  1.
       -1   -1    0    0    0  501  0.00000000000E+00  0.00000000000E+00 -0.67828942235E+03  0.67828942237E+03  0.50400001928E-02 0. -1.
    10030    2    1    2    0    0  0.00000000000E+00  0.00000000000E+00  0.62158437251E+03  0.19781632172E+04  0.18779676733E+04 0.  0.
        3    1    3    3  502    0 -0.60608187406E+03 -0.15105954509E+03 -0.42771012194E+03  0.75702720086E+03  0.10100000352E+00 0. -1.
       -3    1    3    3    0  502  0.60608187406E+03  0.15105954509E+03  0.10492944945E+04  0.12211360164E+04  0.10100000352E+00 0.  1.
</event>
<event>
 5   0  0.2261755E-04  0.1895400E+04  0.7818609E-02  0.8657149E-01
       -1   -1    0    0    0  501  0.00000000000E+00  0.00000000000E+00  0.91121658086E+03  0.91121658087E+03  0.50400001928E-02 0.  1.
        1   -1    0    0  501    0  0.00000000000E+00  0.00000000000E+00 -0.98564440211E+03  0.98564440212E+03  0.50400001928E-02 0. -1.
    10030    2    1    2    0    0  0.00000000000E+00  0.00000000000E+00 -0.74427821252E+02  0.18968609830E+04  0.18954002449E+04 0.  0.
        1    1    3    3  502    0  0.19592518324E+03 -0.68614834561E+03  0.58692472032E+03  0.92394093803E+03  0.50400001928E-02 0.  1.
       -1    1    3    3    0  502 -0.19592518324E+03  0.68614834561E+03 -0.66135254157E+03  0.97292004496E+03  0.50400001928E-02 0. -1.
</event>
<event>
 5   0  0.1729375E-04  0.1942357E+04  0.7818609E-02  0.8634055E-01
       -3   -1    0    0    0  501  0.00000000000E+00  0.00000000000E+00  0.59102278915E+03  0.59102279778E+03  0.10100000352E+00 0. -1.
        3   -1    0    0  501    0  0.00000000000E+00  0.00000000000E+00 -0.15958564414E+04  0.15958564446E+04  0.10100000352E+00 0.  1.
    10030    2    1    2    0    0  0.00000000000E+00  0.00000000000E+00 -0.10048336522E+04  0.21868792424E+04  0.19423568550E+04 0.  0.
        4    1    3    3  502    0  0.44296224842E+03 -0.66829372536E+03  0.11462186122E+03  0.80992088555E+03  0.12699999809E+01 0. -1.
       -4    1    3    3    0  502 -0.44296224842E+03  0.66829372536E+03 -0.11194555135E+04  0.13769583568E+04  0.12699999809E+01 0.  1.
</event>
<event>
 5   0  0.2261755E-04  0.1867238E+04  0.7818609E-02  0.8671338E-01
        1   -1    0    0  501    0  0.00000000000E+00  0.00000000000E+00  0.87046404365E+03  0.87046404367E+03  0.50400001928E-02 0.  1.
       -1   -1    0    0    0  501  0.00000000000E+00  0.00000000000E+00 -0.10013556024E+04  0.10013556024E+04  0.50400001928E-02 0. -1.
    10030    2    1    2    0    0  0.00000000000E+00  0.00000000000E+00 -0.13089155871E+03  0.18718196460E+04  0.18672375819E+04 0.  0.
        1    1    3    3  502    0 -0.12724686692E+03  0.49781909653E+03 -0.84686387423E+03  0.99055239110E+03  0.50400001928E-02 0. -1.
       -1    1    3    3    0  502  0.12724686692E+03 -0.49781909653E+03  0.71597231552E+03  0.88126725494E+03  0.50400001928E-02 0.  1.
</event>
<event>
 5   0  0.2510069E-04  0.2040806E+04  0.7818609E-02  0.8587777E-01
        1   -1    0    0  501    0  0.00000000000E+00  0.00000000000E+00  0.24263385591E+04  0.24263385591E+04  0.50400001928E-02 0.  1.
       -1   -1    0    0    0  501  0.00000000000E+00  0.00000000000E+00 -0.42913310700E+03  0.42913310703E+03  0.50400001928E-02 0. -1.
    10030    2    1    2    0    0  0.00000000000E+00  0.00000000000E+00  0.19972054521E+04  0.28554716661E+04  0.20408059237E+04 0.  0.
        4    1    3    3  502    0 -0.53465719494E+03 -0.72111115079E+03  0.16774051497E+04  0.19025113028E+04  0.12699999809E+01 0.  1.
       -4    1    3    3    0  502  0.53465719494E+03  0.72111115079E+03  0.31980030238E+03  0.95296036339E+03  0.12699999809E+01 0. -1.
</event>
<event>
 5   0  0.2317458E-04  0.1931302E+04  0.7818609E-02  0.8639430E-01
        1   -1    0    0  501    0  0.00000000000E+00  0.00000000000E+00  0.10798653285E+04  0.10798653285E+04  0.50400001928E-02 0. -1.
       -1   -1    0    0    0  501  0.00000000000E+00  0.00000000000E+00 -0.86351688434E+03  0.86351688435E+03  0.50400001928E-02 0.  1.
    10030    2    1    2    0    0  0.00000000000E+00  0.00000000000E+00  0.21634844416E+03  0.19433822129E+04  0.19313020934E+04 0.  0.
        3    1    3    3  502    0 -0.64025896933E+03 -0.64474615794E+03 -0.22075383566E+03  0.93507295018E+03  0.10100000352E+00 0.  1.
       -3    1    3    3    0  502  0.64025896933E+03  0.64474615794E+03  0.43710227982E+03  0.10083092627E+04  0.10100000352E+00 0. -1.
</event>
<event>
 5   0  0.4761944E-04  0.1519141E+04  0.7818609E-02  0.8871823E-01
       -2   -1    0    0    0  501  0.00000000000E+00  0.00000000000E+00  0.56374588158E+03  0.56374588159E+03  0.25500000920E-02 0.  1.
        2   -1    0    0  501    0  0.00000000000E+00  0.00000000000E+00 -0.10234177132E+04  0.10234177132E+04  0.25500000920E-02 0. -1.
    10030    2    1    2    0    0  0.00000000000E+00  0.00000000000E+00 -0.45967183166E+03  0.15871635948E+04  0.15191412324E+04 0.  0.
        4    1    3    3  502    0 -0.43261976118E+03 -0.18530622515E+03  0.39305409689E+03  0.61318136862E+03  0.12699999809E+01 0.  1.
       -4    1    3    3    0  502  0.43261976118E+03  0.18530622515E+03 -0.85272592855E+03  0.97398222620E+03  0.12699999809E+01 0. -1.
</event>
<event>
 5   0  0.2376359E-04  0.2152360E+04  0.7818609E-02  0.8538523E-01
       -1   -1    0    0    0  501  0.00000000000E+00  0.00000000000E+00  0.61399979222E+03  0.61399979224E+03  0.50400001928E-02 0.  1.
        1   -1    0    0  501    0  0.00000000000E+00  0.00000000000E+00 -0.18862610672E+04  0.18862610672E+04  0.50400001928E-02 0. -1.
    10030    2    1    2    0    0  0.00000000000E+00  0.00000000000E+00 -0.12722612750E+04  0.25002608594E+04  0.21523604748E+04 0.  0.
        2    1    3    3  502    0  0.59256324522E+02 -0.16196796296E+03 -0.18701032003E+04  0.18780391138E+04  0.25500000920E-02 0. -1.
       -2    1    3    3    0  502 -0.59256324522E+02  0.16196796296E+03  0.59784192536E+03  0.62222174564E+03  0.25500000920E-02 0.  1.
</event>
<event>
 5   0  0.2317458E-04  0.1884999E+04  0.7818609E-02  0.8662359E-01
       -1   -1    0    0    0  501  0.00000000000E+00  0.00000000000E+00  0.10902202546E+04  0.10902202546E+04  0.50400001928E-02 0. -1.
        1   -1    0    0  501    0  0.00000000000E+00  0.00000000000E+00 -0.81479474016E+03  0.81479474017E+03  0.50400001928E-02 0.  1.
    10030    2    1    2    0    0  0.00000000000E+00  0.00000000000E+00  0.27542551444E+03  0.19050149948E+04  0.18849994473E+04 0.  0.
        3    1    3    3  502    0  0.58660395244E+03  0.72230283257E+03 -0.13813074459E+02  0.93060001621E+03  0.10100000352E+00 0. -1.
       -3    1    3    3    0  502 -0.58660395244E+03 -0.72230283257E+03  0.28923858890E+03  0.97441497857E+03  0.10100000352E+00 0.  1.
</event>
<event>
 5   0  0.4839293E-04  0.1896627E+04  0.7818609E-02  0.8656537E-01
       -2   -1    0    0    0  501  0.00000000000E+00  0.00000000000E+00  0.13395078118E+04  0.13395078118E+04  0.25500000920E-02 0. -1.
        2   -1    0    0  501    0  0.00000000000E+00  0.00000000000E+00 -0.67136481691E+03  0.67136481692E+03  0.25500000920E-02 0.  1.
    10030    2    1    2    0    0  0.00000000000E+00  0.00000000000E+00  0.66814299490E+03  0.20108726287E+04  0.18966269183E+04 0.  0.
        5    1    3    3  502    0 -0.94481625386E+03  0.17341826103E+02  0.41821067630E+03  0.10333928354E+04  0.46999998093E+01 0. -1.
       -5    1    3    3    0  502  0.94481625386E+03 -0.17341826103E+02  0.24993231861E+03  0.97747979334E+03  0.46999998093E+01 0.  1.
</event>
<event>
 5   0  0.2376359E-04  0.2198278E+04  0.7818609E-02  0.8519145E-01
       -1   -1    0    0    0  501  0.00000000000E+00  0.00000000000E+00  0.78048100608E+03  0.78048100610E+03  0.50400001928E-02 0. -1.
        1   -1    0    0  501    0  0.00000000000E+00  0.00000000000E+00 -0.15479003475E+04  0.15479003475E+04  0.50400001928E-02 0.  1.
    10030    2    1    2    0    0  0.00000000000E+00  0.00000000000E+00 -0.76741934138E+03  0.23283813536E+04  0.21982782540E+04 0.  0.
        2    1    3    3  502    0  0.24136899422E+03  0.75391162411E+03 -0.11913784075E+04  0.14303930362E+04  0.25500000920E-02 0.  1.
       -2    1    3    3    0  502 -0.24136899422E+03 -0.75391162411E+03  0.42395906609E+03  0.89798831733E+03  0.25500000920E-02 0. -1.
</event>
<event>
 5   0  0.2355414E-04  0.1936392E+04  0.7818609E-02  0.8636951E-01
        1   -1    0    0  501    0  0.00000000000E+00  0.00000000000E+00  0.77770675424E+03  0.77770675426E+03  0.50400001928E-02 0. -1.
       -1   -1    0    0    0  501  0.00000000000E+00  0.00000000000E+00 -0.12053427023E+04  0.12053427023E+04  0.50400001928E-02 0.  1.
    10030    2    1    2    0    0  0.00000000000E+00  0.00000000000E+00 -0.42763594804E+03  0.19830494566E+04  0.19363916554E+04 0.  0.
        5    1    3    3  502    0  0.31399268822E+03 -0.63264479831E+03 -0.89200583267E+03  0.11377729759E+04  0.46999998093E+01 0.  1.
       -5    1    3    3    0  502 -0.31399268822E+03  0.63264479831E+03  0.46436988462E+03  0.84527648070E+03  0.46999998093E+01 0. -1.
</event>
<event>
 5   0  0.2355414E-04  0.1995897E+04  0.7818609E-02  0.8608542E-01
       -1   -1    0    0    0  501  0.00000000000E+00  0.00000000000E+00  0.97931002303E+03  0.97931002304E+03  0.50400001928E-02 0.  1.
        1   -1    0    0  501    0  0.00000000000E+00  0.00000000000E+00 -0.10169412478E+04  0.10169412478E+04  0.50400001928E-02 0. -1.
    10030    2    1    2    0    0  0.00000000000E+00  0.00000000000E+00 -0.37631224802E+02  0.19962512709E+04  0.19958965473E+04 0.  0.
        5    1    3    3  502    0 -0.90277611531E+03 -0.42063582043E+03 -0.81591877521E+02  0.99930902742E+03  0.46999998093E+01 0. -1.
       -5    1    3    3    0  502  0.90277611531E+03  0.42063582043E+03  0.43960652719E+02  0.99694224346E+03  0.46999998093E+01 0.  1.
</event>
<event>
 5   0  0.4829134E-04  0.1878424E+04  0.7818609E-02  0.8665671E-01
       -2   -1    0    0    0  501  0.00000000000E+00  0.00000000000E+00  0.85097814869E+03  0.85097814870E+03  0.25500000920E-02 0. -1.
        2   -1    0    0  501    0  0.00000000000E+00  0.00000000000E+00 -0.10365943542E+04  0.10365943542E+04  0.25500000920E-02 0.  1.
    10030    2    1    2    0    0  0.00000000000E+00  0.00000000000E+00 -0.18561620550E+03  0.18875725029E+04  0.18784239612E+04 0.  0.
        2    1    3    3  502    0 -0.19491994312E+03 -0.57270986732E+03 -0.81472807340E+03  0.10147769262E+04  0.25500000920E-02 0.  1.
       -2    1    3    3    0  502  0.19491994312E+03  0.57270986732E+03  0.62911186791E+03  0.87279557669E+03  0.25500000920E-02 0. -1.
</event>
<event>
 5   0  0.4829134E-04  0.1930138E+04  0.7818609E-02  0.8639999E-01
       -2   -1    0    0    0  501  0.00000000000E+00  0.00000000000E+00  0.85098507982E+03  0.85098507983E+03  0.25500000920E-02 0.  1.
        2   -1    0    0  501    0  0.00000000000E+00  0.00000000000E+00 -0.10944467579E+04  0.10944467579E+04  0.25500000920E-02 0. -1.
    10030    2    1    2    0    0  0.00000000000E+00  0.00000000000E+00 -0.24346167809E+03  0.19454318377E+04  0.19301376756E+04 0.  0.
        2    1    3    3  502    0  0.69128752157E+03 -0.53633909703E+03  0.28870560916E+03  0.92135172070E+03  0.25500000920E-02 0.  1.
       -2    1    3    3    0  502 -0.69128752157E+03  0.53633909703E+03 -0.53216728725E+03  0.10240801170E+04  0.25500000920E-02 0. -1.
</event>
<event>
 5   0  0.4839293E-04  0.1944463E+04  0.7818609E-02  0.8633035E-01
        2   -1    0    0  501    0  0.00000000000E+00  0.00000000000E+00  0.13295810636E+04  0.13295810636E+04  0.25500000920E-02 0.  1.
       -2   -1    0    0    0  501  0.00000000000E+00  0.00000000000E+00 -0.71092625379E+03  0.71092625379E+03  0.25500000920E-02 0. -1.
    10030    2    1    2    0    0  0.00000000000E+00  0.00000000000E+00  0.61865480979E+03  0.20405073174E+04  0.19444629949E+04 0.  0.
        5    1    3    3  502    0 -0.71995103402E+03  0.37641627949E+03  0.86974030531E+03  0.11901634323E+04  0.46999998093E+01 0.  1.
       -5    1    3    3    0  502  0.71995103402E+03 -0.37641627949E+03 -0.25108549552E+03  0.85034388509E+03  0.46999998093E+01 0. -1.
</event>
<event>
 5   0  0.4761944E-04  0.1793885E+04  0.7818609E-02  0.8709558E-01
       -2   -1    0    0    0  501  0.00000000000E+00  0.00000000000E+00  0.19454827477E+04  0.19454827477E+04  0.25500000920E-02 0. -1.
        2   -1    0    0  501    0  0.00000000000E+00  0.00000000000E+00 -0.41352524488E+03  0.41352524489E+03  0.25500000920E-02 0.  1.
    10030    2    1    2    0    0  0.00000000000E+00  0.00000000000E+00  0.15319575028E+04  0.23590079925E+04  0.17938854252E+04 0.  0.
        4    1    3    3  502    0 -0.55335981998E+03  0.53031119979E+03  0.15330091368E+03  0.78162640822E+03  0.12699999809E+01 0.  1.
       -4    1    3    3    0  502  0.55335981998E+03 -0.53031119979E+03  0.13786565891E+04  0.15773815843E+04  0.12699999809E+01 0. -1.
</event>
<event>
 5   0  0.2261755E-04  0.1918815E+04  0.7818609E-02  0.8645547E-01
       -1   -1    0    0    0  501  0.00000000000E+00  0.00000000000E+00  0.77324370290E+03  0.77324370291E+03  0.50400001928E-02 0.  1.
        1   -1    0    0  501    0  0.00000000000E+00  0.00000000000E+00 -0.11903916177E+04  0.11903916177E+04  0.50400001928E-02 0. -1.
    10030    2    1    2    0    0  0.00000000000E+00  0.00000000000E+00 -0.41714791476E+03  0.19636353206E+04  0.19188150743E+04 0.  0.
        1    1    3    3  502    0  0.11373362623E+03  0.44520481771E+03  0.65331013235E+03  0.79872197698E+03  0.50400001928E-02 0.  1.
       -1    1    3    3    0  502 -0.11373362623E+03 -0.44520481771E+03 -0.10704580471E+04  0.11649133436E+04  0.50400001928E-02 0. -1.
</event>
<event>
 5   0  0.4761944E-04  0.1120787E+04  0.7818609E-02  0.9185165E-01
       -2   -1    0    0    0  501  0.00000000000E+00  0.00000000000E+00  0.44909942410E+03  0.44909942411E+03  0.25500000920E-02 0.  1.
        2   -1    0    0  501    0  0.00000000000E+00  0.00000000000E+00 -0.69926847757E+03  0.69926847757E+03  0.25500000920E-02 0. -1.
    10030    2    1    2    0    0  0.00000000000E+00  0.00000000000E+00 -0.25016905347E+03  0.11483679017E+04  0.11207873493E+04 0.  0.
        4    1    3    3  502    0 -0.15323503034E+03 -0.50220084531E+03 -0.32574245742E+03  0.61789677538E+03  0.12699999809E+01 0.  1.
       -4    1    3    3    0  502  0.15323503034E+03  0.50220084531E+03  0.75573403957E+02  0.53047112630E+03  0.12699999809E+01 0. -1.
</event>
<event>
 5   0  0.2510069E-04  0.2067099E+04  0.7818609E-02  0.8575876E-01
        1   -1    0    0  501    0  0.00000000000E+00  0.00000000000E+00  0.18361275723E+04  0.18361275723E+04  0.50400001928E-02 0.  1.
       -1   -1    0    0    0  501  0.00000000000E+00  0.00000000000E+00 -0.58178145732E+03  0.58178145734E+03  0.50400001928E-02 0. -1.
    10030    2    1    2    0    0  0.00000000000E+00  0.00000000000E+00  0.12543461149E+04  0.24179090296E+04  0.20670993927E+04 0.  0.
        4    1    3    3  502    0 -0.63079693825E+03 -0.20532458732E+03 -0.29989981773E+03  0.72801406376E+03  0.12699999809E+01 0. -1.
       -4    1    3    3    0  502  0.63079693825E+03  0.20532458732E+03  0.15542459327E+04  0.16898949658E+04  0.12699999809E+01 0.  1.
</event>
<event>
 5   0  0.4973411E-04  0.1258007E+04  0.7818609E-02  0.9063545E-01
       -2   -1    0    0    0  501  0.00000000000E+00  0.00000000000E+00  0.11621390283E+04  0.11621390283E+04  0.25500000920E-02 0.  1.
        2   -1    0    0  501    0  0.00000000000E+00  0.00000000000E+00 -0.34044571219E+03  0.34044571220E+03  0.25500000920E-02 0. -1.
    10030    2    1    2    0    0  0.00000000000E+00  0.00000000000E+00  0.82169331613E+03  0.15025847405E+04  0.12580067554E+04 0.  0.
        1    1    3    3  502    0 -0.52034719270E+03  0.12664533106E+03  0.80490475827E+03  0.96678431449E+03  0.50400001928E-02 0.  1.
       -1    1    3    3    0  502  0.52034719270E+03 -0.12664533106E+03  0.16788557865E+02  0.53580042603E+03  0.50400001928E-02 0. -1.
</event>
<event>
 5   0  0.2317458E-04  0.1856973E+04  0.7818609E-02  0.8676575E-01
        1   -1    0    0  501    0  0.00000000000E+00  0.00000000000E+00  0.15087242558E+04  0.15087242558E+04  0.50400001928E-02 0.  1.
       -1   -1    0    0    0  501  0.00000000000E+00  0.00000000000E+00 -0.57140150597E+03  0.57140150599E+03  0.50400001928E-02 0. -1.
    10030    2    1    2    0    0  0.00000000000E+00  0.00000000000E+00  0.93732274984E+03  0.20801257618E+04  0.18569731413E+04 0.  0.
        3    1    3    3  502    0 -0.36966899739E+03  0.61618068697E+03 -0.19000767936E+03  0.74326087954E+03  0.10100000352E+00 0. -1.
       -3    1    3    3    0  502  0.36966899739E+03 -0.61618068697E+03  0.11273304292E+04  0.13368648823E+04  0.10100000352E+00 0.  1.
</event>
<event>
 5   0  0.4802635E-04  0.1898468E+04  0.7818609E-02  0.8655620E-01
       -2   -1    0    0    0  501  0.00000000000E+00  0.00000000000E+00  0.16081720643E+04  0.16081720643E+04  0.25500000920E-02 0. -1.
        2   -1    0    0  501    0  0.00000000000E+00  0.00000000000E+00 -0.56029126443E+03  0.56029126443E+03  0.25500000920E-02 0.  1.
    10030    2    1    2    0    0  0.00000000000E+00  0.00000000000E+00  0.10478807999E+04  0.21684633288E+04  0.18984675497E+04 0.  0.
        3    1    3    3  502    0  0.52421215742E+03 -0.65991438539E+03  0.10228155143E+04  0.13253063678E+04  0.10100000352E+00 0. -1.
       -3    1    3    3    0  502 -0.52421215742E+03  0.65991438539E+03  0.25065285556E+02  0.84315696093E+03  0.10100000352E+00 0.  1.
</event>
<event>
 5   0  0.2355414E-04  0.1907182E+04  0.7818609E-02  0.8651290E-01
        1   -1    0    0  501    0  0.00000000000E+00  0.00000000000E+00  0.12418428179E+04  0.12418428179E+04  0.50400001928E-02 0. -1.
       -1   -1    0    0    0  501  0.00000000000E+00  0.00000000000E+00 -0.73224682603E+03  0.73224682605E+03  0.50400001928E-02 0.  1.
    10030    2    1    2    0    0  0.00000000000E+00  0.00000000000E+00  0.50959599187E+03  0.19740896440E+04  0.19071816504E+04 0.  0.
        5    1    3    3  502    0  0.42059582447E+03 -0.81907569560E+03  0.51154746146E+03  0.10533227131E+04  0.46999998093E+01 0. -1.
       -5    1    3    3    0  502 -0.42059582447E+03  0.81907569560E+03 -0.19514695863E+01  0.92076693083E+03  0.46999998093E+01 0.  1.
</event>
<event>
 5   0  0.4973411E-04  0.1872518E+04  0.7818609E-02  0.8668658E-01
       -2   -1    0    0    0  501  0.00000000000E+00  0.00000000000E+00  0.43671244243E+03  0.43671244244E+03  0.25500000920E-02 0.  1.
        2   -1    0    0  501    0  0.00000000000E+00  0.00000000000E+00 -0.20072265131E+04  0.20072265131E+04  0.25500000920E-02 0. -1.
    10030    2    1    2    0    0  0.00000000000E+00  0.00000000000E+00 -0.15705140707E+04  0.24439389556E+04  0.18725178697E+04 0.  0.
        1    1    3    3  502    0  0.30174992708E+03 -0.81137980459E+03 -0.31978684909E+03  0.92285092765E+03  0.50400001928E-02 0.  1.
       -1    1    3    3    0  502 -0.30174992708E+03  0.81137980459E+03 -0.12507272216E+04  0.15210880279E+04  0.50400001928E-02 0. -1.
</event>
<event>
 5   0  0.4802635E-04  0.1898188E+04  0.7818609E-02  0.8655759E-01
        2   -1    0    0  501    0  0.00000000000E+00  0.00000000000E+00  0.10246747749E+04  0.10246747749E+04  0.25500000920E-02 0. -1.
       -2   -1    0    0    0  501  0.00000000000E+00  0.00000000000E+00 -0.87908852685E+03  0.87908852686E+03  0.25500000920E-02 0.  1.
    10030    2    1    2    0    0  0.00000000000E+00  0.00000000000E+00  0.14558624806E+03  0.19037633018E+04  0.18981884399E+04 0.  0.
        3    1    3    3  502    0  0.41342791914E+03 -0.73554568459E+03  0.50861478589E+03  0.98521018523E+03  0.10100000352E+00 0. -1.
       -3    1    3    3    0  502 -0.41342791914E+03  0.73554568459E+03 -0.36302853783E+03  0.91855311655E+03  0.10100000352E+00 0.  1.
</event>
<event>
 5   0  0.1729375E-04  0.1901755E+04  0.7818609E-02  0.8653983E-01
       -3   -1    0    0    0  501  0.00000000000E+00  0.00000000000E+00  0.67544570848E+03  0.67544571603E+03  0.10100000352E+00 0. -1.
        3   -1    0    0  501    0  0.00000000000E+00  0.00000000000E+00 -0.13386244656E+04  0.13386244694E+04  0.10100000352E+00 0.  1.
    10030    2    1    2    0    0  0.00000000000E+00  0.00000000000E+00 -0.66317875715E+03  0.20140701855E+04  0.19017551493E+04 0.  0.
        4    1    3    3  502    0  0.45591872730E+02  0.88161046491E+03  0.42621036311E+02  0.88381773931E+03  0.12699999809E+01 0.  1.
       -4    1    3    3    0  502 -0.45591872730E+02 -0.88161046491E+03 -0.70579979346E+03  0.11302524462E+04  0.12699999809E+01 0. -1.
</event>
<event>
 5   0  0.2510069E-04  0.1869487E+04  0.7818609E-02  0.8670196E-01
        1   -1    0    0  501    0  0.00000000000E+00  0.00000000000E+00  0.98468625323E+03  0.98468625325E+03  0.50400001928E-02 0. -1.
       -1   -1    0    0    0  501  0.00000000000E+00  0.00000000000E+00 -0.88733344730E+03  0.88733344731E+03  0.50400001928E-02 0.  1.
    10030    2    1    2    0    0  0.00000000000E+00  0.00000000000E+00  0.97352805934E+02  0.18720197006E+04  0.18694866115E+04 0.  0.
        4    1    3    3  502    0  0.89404826299E+03  0.76182511289E+02  0.31098049628E+03  0.94965075346E+03  0.12699999809E+01 0. -1.
       -4    1    3    3    0  502 -0.89404826299E+03 -0.76182511289E+02 -0.21362769034E+03  0.92236894710E+03  0.12699999809E+01 0.  1.
</event>
<event>
 5   0  0.2376359E-04  0.1924928E+04  0.7818609E-02  0.8642547E-01
       -1   -1    0    0    0  501  0.00000000000E+00  0.00000000000E+00  0.16366911729E+04  0.16366911729E+04  0.50400001928E-02 0.  1.
        1   -1    0    0  501    0  0.00000000000E+00  0.00000000000E+00 -0.56598164707E+03  0.56598164709E+03  0.50400001928E-02 0. -1.
    10030    2    1    2    0    0  0.00000000000E+00  0.00000000000E+00  0.10707095258E+04  0.22026728200E+04  0.19249282229E+04 0.  0.
        2    1    3    3  502    0  0.56901439076E+03 -0.73561567716E+03  0.25174350662E+03  0.96347423137E+03  0.25500000920E-02 0.  1.
       -2    1    3    3    0  502 -0.56901439076E+03  0.73561567716E+03  0.81896601917E+03  0.12391985886E+04  0.25500000920E-02 0. -1.
</event>
<event>
 5   0  0.4761944E-04  0.1113627E+04  0.7818609E-02  0.9192010E-01
       -2   -1    0    0    0  501  0.00000000000E+00  0.00000000000E+00  0.36390707012E+03  0.36390707013E+03  0.25500000920E-02 0.  1.
        2   -1    0    0  501    0  0.00000000000E+00  0.00000000000E+00 -0.85197997871E+03  0.85197997871E+03  0.25500000920E-02 0. -1.
    10030    2    1    2    0    0  0.00000000000E+00  0.00000000000E+00 -0.48807290859E+03  0.12158870488E+04  0.11136274743E+04 0.  0.
        4    1    3    3  502    0 -0.30203793635E+03  0.29872199811E+03  0.14898768916E+03  0.45017851079E+03  0.12699999809E+01 0.  1.
       -4    1    3    3    0  502  0.30203793635E+03 -0.29872199811E+03 -0.63706059775E+03  0.76570853806E+03  0.12699999809E+01 0. -1.
</event>
<event>
 5   0  0.4973411E-04  0.2055565E+04  0.7818609E-02  0.8581074E-01
       -2   -1    0    0    0  501  0.00000000000E+00  0.00000000000E+00  0.61404258980E+03  0.61404258981E+03  0.25500000920E-02 0. -1.
        2   -1    0    0  501    0  0.00000000000E+00  0.00000000000E+00 -0.17202993758E+04  0.17202993758E+04  0.25500000920E-02 0.  1.
    10030    2    1    2    0    0  0.00000000000E+00  0.00000000000E+00 -0.11062567859E+04  0.23343419656E+04  0.20555652108E+04 0.  0.
        1    1    3    3  502    0 -0.27072852810E+03  0.11703701848E+03  0.56495066862E+03  0.63730750632E+03  0.50400001928E-02 0. -1.
       -1    1    3    3    0  502  0.27072852810E+03 -0.11703701848E+03 -0.16712074546E+04  0.16970344592E+04  0.50400001928E-02 0.  1.
</event>
<event>
 5   0  0.2261755E-04  0.1258284E+04  0.7818609E-02  0.9063317E-01
        1   -1    0    0  501    0  0.00000000000E+00  0.00000000000E+00  0.11755225917E+04  0.11755225917E+04  0.50400001928E-02 0. -1.
       -1   -1    0    0    0  501  0.00000000000E+00  0.00000000000E+00 -0.33671806532E+03  0.33671806536E+03  0.50400001928E-02 0.  1.
    10030    2    1    2    0    0  0.00000000000E+00  0.00000000000E+00  0.83880452637E+03  0.15122406571E+04  0.12582840583E+04 0.  0.
        1    1    3    3  502    0 -0.31653176286E+02 -0.86845796284E+02 -0.32851278333E+03  0.34126934339E+03  0.50400001928E-02 0.  1.
       -1    1    3    3    0  502  0.31653176286E+02  0.86845796284E+02  0.11673173097E+04  0.11709713137E+04  0.50400001928E-02 0. -1.
</event>
<event>
 5   0  0.4839293E-04  0.1879510E+04  0.7818609E-02  0.8665123E-01
       -2   -1    0    0    0  501  0.00000000000E+00  0.00000000000E+00  0.82493004355E+03  0.82493004356E+03  0.25500000920E-02 0. -1.
        2   -1    0    0  501    0  0.00000000000E+00  0.00000000000E+00 -0.10705630914E+04  0.10705630914E+04  0.25500000920E-02 0.  1.
    10030    2    1    2    0    0  0.00000000000E+00  0.00000000000E+00 -0.24563304783E+03  0.18954931349E+04  0.18795102103E+04 0.  0.
        5    1    3    3  502    0  0.55085742869E+03 -0.73052784231E+03 -0.33912290974E+03  0.97577726610E+03  0.46999998093E+01 0. -1.
       -5    1    3    3    0  502 -0.55085742869E+03  0.73052784231E+03  0.93489861911E+02  0.91971586885E+03  0.46999998093E+01 0.  1.
</event>
<event>
 5   0  0.2510069E-04  0.1906168E+04  0.7818609E-02  0.8651792E-01
       -1   -1    0    0    0  501  0.00000000000E+00  0.00000000000E+00  0.10335344173E+04  0.10335344173E+04  0.50400001928E-02 0.  1.
        1   -1    0    0  501    0  0.00000000000E+00  0.00000000000E+00 -0.87889618902E+03  0.87889618903E+03  0.50400001928E-02 0. -1.
    10030    2    1    2    0    0  0.00000000000E+00  0.00000000000E+00  0.15463822829E+03  0.19124306064E+04  0.19061683668E+04 0.  0.
        4    1    3    3  502    0 -0.15833324364E+03 -0.23163149904E+03  0.99116013909E+03  0.10301080534E+04  0.12699999809E+01 0.  1.
       -4    1    3    3    0  502  0.15833324364E+03  0.23163149904E+03 -0.83652191079E+03  0.88232255300E+03  0.12699999809E+01 0. -1.
</event>
<event>
 5   0  0.2317458E-04  0.1906424E+04  0.7818609E-02  0.8651665E-01
        1   -1    0    0  501    0  0.00000000000E+00  0.00000000000E+00  0.79685782007E+03  0.79685782009E+03  0.50400001928E-02 0.  1.
       -1   -1    0    0    0  501  0.00000000000E+00  0.00000000000E+00 -0.11402454948E+04  0.11402454948E+04  0.50400001928E-02 0. -1.
    10030    2    1    2    0    0  0.00000000000E+00  0.00000000000E+00 -0.34338767470E+03  0.19371033149E+04  0.19064244431E+04 0.  0.
        3    1    3    3  502    0  0.92305608137E+03  0.16086866509E+03 -0.34973419039E+03  0.10001126291E+04  0.10100000352E+00 0.  1.
       -3    1    3    3    0  502 -0.92305608137E+03 -0.16086866509E+03  0.63465156879E+01  0.93699068577E+03  0.10100000352E+00 0. -1.
</event>
<event>
 5   0  0.2376359E-04  0.1893747E+04  0.7818609E-02  0.8657975E-01
        1   -1    0    0  501    0  0.00000000000E+00  0.00000000000E+00  0.10066182024E+04  0.10066182024E+04  0.50400001928E-02 0.  1.
       -1   -1    0    0    0  501  0.00000000000E+00  0.00000000000E+00 -0.89067495313E+03  0.89067495315E+03  0.50400001928E-02 0. -1.
    10030    2    1    2    0    0  0.00000000000E+00  0.00000000000E+00  0.11594324923E+03  0.18972931555E+04  0.18937472062E+04 0.  0.
        2    1    3    3  502    0 -0.14551226472E+03 -0.10654734566E+03  0.98925152460E+03  0.10055569278E+04  0.25500000920E-02 0.  1.
       -2    1    3    3    0  502  0.14551226472E+03  0.10654734566E+03 -0.87330827537E+03  0.89173622775E+03  0.25500000920E-02 0. -1.
</event>
<event>
 5   0  0.4761944E-04  0.2030228E+04  0.7818609E-02  0.8592617E-01
        2   -1    0    0  501    0  0.00000000000E+00  0.00000000000E+00  0.10287428806E+04  0.10287428806E+04  0.25500000920E-02 0.  1.
       -2   -1    0    0    0  501  0.00000000000E+00  0.00000000000E+00 -0.10016654428E+04  0.10016654428E+04  0.25500000920E-02 0. -1.
    10030    2    1    2    0    0  0.00000000000E+00  0.00000000000E+00  0.27077437768E+02  0.20304083234E+04  0.20302277636E+04 0.  0.
        4    1    3    3  502    0 -0.45177124827E+02 -0.41397627710E+02  0.10268908160E+04  0.10287181815E+04  0.12699999809E+01 0.  1.
       -4    1    3    3    0  502  0.45177124827E+02  0.41397627710E+02 -0.99981337820E+03  0.10016901419E+04  0.12699999809E+01 0. -1.
</event>
<event>
 5   0  0.2261755E-04  0.1861644E+04  0.7818609E-02  0.8674188E-01
        1   -1    0    0  501    0  0.00000000000E+00  0.00000000000E+00  0.69568255808E+03  0.69568255810E+03  0.50400001928E-02 0. -1.
       -1   -1    0    0    0  501  0.00000000000E+00  0.00000000000E+00 -0.12454376510E+04  0.12454376510E+04  0.50400001928E-02 0.  1.
    10030    2    1    2    0    0  0.00000000000E+00  0.00000000000E+00 -0.54975509295E+03  0.19411202092E+04  0.18616436297E+04 0.  0.
        1    1    3    3  502    0 -0.29659802351E+03 -0.72723139690E+03  0.24604408882E+03  0.82302708695E+03  0.50400001928E-02 0. -1.
       -1    1    3    3    0  502  0.29659802351E+03  0.72723139690E+03 -0.79579918178E+03  0.11180931222E+04  0.50400001928E-02 0.  1.
</event>
<event>
 5   0  0.2317458E-04  0.1933423E+04  0.7818609E-02  0.8638396E-01
       -1   -1    0    0    0  501  0.00000000000E+00  0.00000000000E+00  0.78927746027E+03  0.78927746029E+03  0.50400001928E-02 0. -1.
        1   -1    0    0  501    0  0.00000000000E+00  0.00000000000E+00 -0.11840333114E+04  0.11840333114E+04  0.50400001928E-02 0.  1.
    10030    2    1    2    0    0  0.00000000000E+00  0.00000000000E+00 -0.39475585117E+03  0.19733107717E+04  0.19334226697E+04 0.  0.
        3    1    3    3  502    0 -0.36203002087E+03 -0.12190291955E+03 -0.11037330005E+04  0.11679694364E+04  0.10100000352E+00 0.  1.
       -3    1    3    3    0  502  0.36203002087E+03  0.12190291955E+03  0.70897714936E+03  0.80534133529E+03  0.10100000352E+00 0. -1.
</event>
<event>
 5   0  0.4829134E-04  0.1863983E+04  0.7818609E-02  0.8672995E-01
        2   -1    0    0  501    0  0.00000000000E+00  0.00000000000E+00  0.11870773581E+04  0.11870773581E+04  0.25500000920E-02 0.  1.
       -2   -1    0    0    0  501  0.00000000000E+00  0.00000000000E+00 -0.73172016989E+03  0.73172016989E+03  0.25500000920E-02 0. -1.
    10030    2    1    2    0    0  0.00000000000E+00  0.00000000000E+00  0.45535718825E+03  0.19187975280E+04  0.18639833113E+04 0.  0.
        2    1    3    3  502    0 -0.86603341114E+03 -0.33044486164E+03  0.32748739841E+03  0.98308477352E+03  0.25500000920E-02 0.  1.
       -2    1    3    3    0  502  0.86603341114E+03  0.33044486164E+03  0.12786978984E+03  0.93571275451E+03  0.25500000920E-02 0. -1.
</event>
<event>
 5   0  0.4761944E-04  0.1915550E+04  0.7818609E-02  0.8647155E-01
       -2   -1    0    0    0  501  0.00000000000E+00  0.00000000000E+00  0.12840228646E+04  0.12840228646E+04  0.25500000920E-02 0. -1.
        2   -1    0    0  501    0  0.00000000000E+00  0.00000000000E+00 -0.71442087108E+03  0.71442087109E+03  0.25500000920E-02 0.  1.
    10030    2    1    2    0    0  0.00000000000E+00  0.00000000000E+00  0.56960199354E+03  0.19984437357E+04  0.19155497732E+04 0.  0.
        4    1    3    3  502    0 -0.53112930312E+03  0.51478839299E+03  0.91959346128E+03  0.11801521822E+04  0.12699999809E+01 0. -1.
       -4    1    3    3    0  502  0.53112930312E+03 -0.51478839299E+03 -0.34999146774E+03  0.81829155353E+03  0.12699999809E+01 0.  1.
</event>
<event>
 5   0  0.2355414E-04  0.1932327E+04  0.7818609E-02  0.8638931E-01
       -1   -1    0    0    0  501  0.00000000000E+00  0.00000000000E+00  0.61434063941E+03  0.61434063943E+03  0.50400001928E-02 0.  1.
        1   -1    0    0  501    0  0.00000000000E+00  0.00000000000E+00 -0.15194691224E+04  0.15194691224E+04  0.50400001928E-02 0. -1.
    10030    2    1    2    0    0  0.00000000000E+00  0.00000000000E+00 -0.90512848303E+03  0.21338097619E+04  0.19323267139E+04 0.  0.
        5    1    3    3  502    0  0.14423308778E+03  0.95416667011E+03 -0.40062452969E+03  0.10448728735E+04  0.46999998093E+01 0.  1.
       -5    1    3    3    0  502 -0.14423308778E+03 -0.95416667011E+03 -0.50450395334E+03  0.10889368884E+04  0.46999998093E+01 0. -1.
</event>
<event>
 5   0  0.4761944E-04  0.1994799E+04  0.7818609E-02  0.8609056E-01
       -2   -1    0    0    0  501  0.00000000000E+00  0.00000000000E+00  0.70713526421E+03  0.70713526422E+03  0.25500000920E-02 0.  1.
        2   -1    0    0  501    0  0.00000000000E+00  0.00000000000E+00 -0.14068111217E+04  0.14068111217E+04  0.25500000920E-02 0. -1.
    10030    2    1    2    0    0  0.00000000000E+00  0.00000000000E+00 -0.69967585749E+03  0.21139463859E+04  0.19947989916E+04 0.  0.
        4    1    3    3  502    0 -0.19327456605E+03  0.24963658310E+03  0.65278595277E+03  0.72512384772E+03  0.12699999809E+01 0.  1.
       -4    1    3    3    0  502  0.19327456605E+03 -0.24963658310E+03 -0.13524618103E+04  0.13888225382E+04  0.12699999809E+01 0. -1.
</event>
<event>
 5   0  0.2376359E-04  0.1792531E+04  0.7818609E-02  0.8710281E-01
       -1   -1    0    0    0  501  0.00000000000E+00  0.00000000000E+00  0.45841766990E+03  0.45841766992E+03  0.50400001928E-02 0.  1.
        1   -1    0    0  501    0  0.00000000000E+00  0.00000000000E+00 -0.17523146052E+04  0.17523146052E+04  0.50400001928E-02 0. -1.
    10030    2    1    2    0    0  0.00000000000E+00  0.00000000000E+00 -0.12938969353E+04  0.22107322751E+04  0.17925311470E+04 0.  0.
        2    1    3    3  502    0  0.76600109609E+03  0.37973095801E+03 -0.97865558232E+03  0.12995076100E+04  0.25500000920E-02 0. -1.
       -2    1    3    3    0  502 -0.76600109609E+03 -0.37973095801E+03 -0.31524135299E+03  0.91122466512E+03  0.25500000920E-02 0.  1.
</event>
<event>
 5   0  0.4839293E-04  0.1907487E+04  0.7818609E-02  0.8651139E-01
       -2   -1    0    0    0  501  0.00000000000E+00  0.00000000000E+00  0.53053789658E+03  0.53053789659E+03  0.25500000920E-02 0. -1.
        2   -1    0    0  501    0  0.00000000000E+00  0.00000000000E+00 -0.17145366045E+04  0.17145366045E+04  0.25500000920E-02 0.  1.
    10030    2    1    2    0    0  0.00000000000E+00  0.00000000000E+00 -0.11839987079E+04  0.22450745011E+04  0.19074869790E+04 0.  0.
        5    1    3    3  502    0  0.63990209412E+03  0.52839915473E+03 -0.38788340144E+02  0.83078696553E+03  0.46999998093E+01 0. -1.
       -5    1    3    3    0  502 -0.63990209412E+03 -0.52839915473E+03 -0.11452103678E+04  0.14142875356E+04  0.46999998093E+01 0.  1.
</event>
<event>
 5   0  0.2510069E-04  0.1924004E+04  0.7818609E-02  0.8642999E-01
       -1   -1    0    0    0  501  0.00000000000E+00  0.00000000000E+00  0.74336296527E+03  0.74336296528E+03  0.50400001928E-02 0.  1.
        1   -1    0    0  501    0  0.00000000000E+00  0.00000000000E+00 -0.12449477021E+04  0.12449477021E+04  0.50400001928E-02 0. -1.
    10030    2    1    2    0    0  0.00000000000E+00  0.00000000000E+00 -0.50158473687E+03  0.19883106674E+04  0.19240041741E+04 0.  0.
        4    1    3    3  502    0  0.25094108015E+03  0.78379907222E+03 -0.76557201016E+03  0.11240171382E+04  0.12699999809E+01 0. -1.
       -4    1    3    3    0  502 -0.25094108015E+03 -0.78379907222E+03  0.26398727329E+03  0.86429352923E+03  0.12699999809E+01 0.  1.
</event>
<event>
 5   0  0.4802635E-04  0.1907125E+04  0.7818609E-02  0.8651318E-01
       -2   -1    0    0    0  501  0.00000000000E+00  0.00000000000E+00  0.65510693088E+03  0.65510693089E+03  0.25500000920E-02 0. -1.
        2   -1    0    0  501    0  0.00000000000E+00  0.00000000000E+00 -0.13879899889E+04  0.13879899889E+04  0.25500000920E-02 0.  1.
    10030    2    1    2    0    0  0.00000000000E+00  0.00000000000E+00 -0.73288305805E+03  0.20430969198E+04  0.19071254408E+04 0.  0.
        3    1    3    3  502    0 -0.48226885986E+03  0.10436830995E+03 -0.12405866022E+04  0.13351146487E+04  0.10100000352E+00 0.  1.
       -3    1    3    3    0  502  0.48226885986E+03 -0.10436830995E+03  0.50770354416E+03  0.70798227115E+03  0.10100000352E+00 0. -1.
</event>
<event>
 5   0  0.2376359E-04  0.1929035E+04  0.7818609E-02  0.8640537E-01
       -1   -1    0    0    0  501  0.00000000000E+00  0.00000000000E+00  0.93281909120E+03  0.93281909121E+03  0.50400001928E-02 0. -1.
        1   -1    0    0  501    0  0.00000000000E+00  0.00000000000E+00 -0.99729301116E+03  0.99729301117E+03  0.50400001928E-02 0.  1.
    10030    2    1    2    0    0  0.00000000000E+00  0.00000000000E+00 -0.64473919962E+02  0.19301121024E+04  0.19290349508E+04 0.  0.
        2    1    3    3  502    0 -0.81568292524E+02 -0.21084573292E+03  0.90593508119E+03  0.93371713103E+03  0.25500000920E-02 0. -1.
       -2    1    3    3    0  502  0.81568292524E+02  0.21084573292E+03 -0.97040900115E+03  0.99639497136E+03  0.25500000920E-02 0.  1.
</event>
<event>
 5   0  0.4829134E-04  0.1981362E+04  0.7818609E-02  0.8615385E-01
        2   -1    0    0  501    0  0.00000000000E+00  0.00000000000E+00  0.99183291392E+03  0.99183291393E+03  0.25500000920E-02 0.  1.
       -2   -1    0    0    0  501  0.00000000000E+00  0.00000000000E+00 -0.98953024890E+03  0.98953024890E+03  0.25500000920E-02 0. -1.
    10030    2    1    2    0    0  0.00000000000E+00  0.00000000000E+00  0.23026650273E+01  0.19813631628E+04  0.19813618248E+04 0.  0.
        2    1    3    3  502    0 -0.46609650469E+03 -0.84411644231E+03  0.22846217716E+03  0.99094575345E+03  0.25500000920E-02 0.  1.
       -2    1    3    3    0  502  0.46609650469E+03  0.84411644231E+03 -0.22615951213E+03  0.99041740938E+03  0.25500000920E-02 0. -1.
</event>
<event>
 5   0  0.1729375E-04  0.1933878E+04  0.7818609E-02  0.8638175E-01
       -3   -1    0    0    0  501  0.00000000000E+00  0.00000000000E+00  0.11159861483E+04  0.11159861529E+04  0.10100000352E+00 0.  1.
        3   -1    0    0  501    0  0.00000000000E+00  0.00000000000E+00 -0.83779780155E+03  0.83779780764E+03  0.10100000352E+00 0. -1.
    10030    2    1    2    0    0  0.00000000000E+00  0.00000000000E+00  0.27818834675E+03  0.19537839605E+04  0.19338777128E+04 0.  0.
        3    1    3    3  502    0  0.57139097306E+02 -0.41904250104E+03  0.10175902100E+04  0.11019761068E+04  0.10100000352E+00 0.  1.
       -3    1    3    3    0  502 -0.57139097306E+02  0.41904250104E+03 -0.73940186327E+03  0.85180785376E+03  0.10100000352E+00 0. -1.
</event>
<event>
 5   0  0.4761944E-04  0.1924950E+04  0.7818609E-02  0.8642536E-01
       -2   -1    0    0    0  501  0.00000000000E+00  0.00000000000E+00  0.63026247340E+03  0.63026247340E+03  0.25500000920E-02 0.  1.
        2   -1    0    0  501    0  0.00000000000E+00  0.00000000000E+00 -0.14697970725E+04  0.14697970725E+04  0.25500000920E-02 0. -1.
    10030    2    1    2    0    0  0.00000000000E+00  0.00000000000E+00 -0.83953459908E+03  0.21000595459E+04  0.19249498054E+04 0.  0.
        4    1    3    3  502    0  0.25165452459E+03 -0.89648497845E+03 -0.68552732892E+03  0.11562718746E+04  0.12699999809E+01 0. -1.
       -4    1    3    3    0  502 -0.25165452459E+03  0.89648497845E+03 -0.15400727016E+03  0.94378767130E+03  0.12699999809E+01 0.  1.
</event>
<event>
 5   0  0.4839293E-04  0.1910867E+04  0.7818609E-02  0.8649466E-01
       -2   -1    0    0    0  501  0.00000000000E+00  0.00000000000E+00  0.71185546506E+03  0.71185546507E+03  0.25500000920E-02 0.  1.
        2   -1    0    0  501    0  0.00000000000E+00  0.00000000000E+00 -0.12823574213E+04  0.12823574213E+04  0.25500000920E-02 0. -1.
    10030    2    1    2    0    0  0.00000000000E+00  0.00000000000E+00 -0.57050195624E+03  0.19942128864E+04  0.19108669640E+04 0.  0.
        5    1    3    3  502    0  0.20859167400E+03  0.36943313366E+03 -0.11786501934E+04  0.12526889858E+04  0.46999998093E+01 0. -1.
       -5    1    3    3    0  502 -0.20859167400E+03 -0.36943313366E+03  0.60814823719E+03  0.74152390056E+03  0.46999998093E+01 0.  1.
</event>
<event>
 5   0  0.2261755E-04  0.1893989E+04  0.7818609E-02  0.8657854E-01
       -1   -1    0    0    0  501  0.00000000000E+00  0.00000000000E+00  0.10210262152E+04  0.10210262152E+04  0.50400001928E-02 0.  1.
        1   -1    0    0  501    0  0.00000000000E+00  0.00000000000E+00 -0.87833060105E+03  0.87833060106E+03  0.50400001928E-02 0. -1.
    10030    2    1    2    0    0  0.00000000000E+00  0.00000000000E+00  0.14269561412E+03  0.18993568162E+04  0.18939889855E+04 0.  0.
        1    1    3    3  502    0  0.70854027195E+03  0.50320362995E+01  0.70141496307E+03  0.99701433732E+03  0.50400001928E-02 0.  1.
       -1    1    3    3    0  502 -0.70854027195E+03 -0.50320362995E+01 -0.55871934895E+03  0.90234247893E+03  0.50400001928E-02 0. -1.
</event>
<event>
 5   0  0.2376359E-04  0.1874267E+04  0.7818609E-02  0.8667772E-01
        1   -1    0    0  501    0  0.00000000000E+00  0.00000000000E+00  0.18497278434E+04  0.18497278434E+04  0.50400001928E-02 0. -1.
       -1   -1    0    0    0  501  0.00000000000E+00  0.00000000000E+00 -0.47478292044E+03  0.47478292046E+03  0.50400001928E-02 0.  1.
    10030    2    1    2    0    0  0.00000000000E+00  0.00000000000E+00  0.13749449230E+04  0.23245107639E+04  0.18742669901E+04 0.  0.
        2    1    3    3  502    0 -0.23424231929E+03  0.14618321471E+03 -0.42318957079E+03  0.50530031589E+03  0.25500000920E-02 0.  1.
       -2    1    3    3    0  502  0.23424231929E+03 -0.14618321471E+03  0.17981344938E+04  0.18192104480E+04  0.25500000920E-02 0. -1.
</event>
<event>
 5   0  0.4839293E-04  0.1887620E+04  0.7818609E-02  0.8661043E-01
       -2   -1    0    0    0  501  0.00000000000E+00  0.00000000000E+00  0.15598950332E+04  0.15598950332E+04  0.25500000920E-02 0. -1.
        2   -1    0    0  501    0  0.00000000000E+00  0.00000000000E+00 -0.57104935584E+03  0.57104935584E+03  0.25500000920E-02 0.  1.
    10030    2    1    2    0    0  0.00000000000E+00  0.00000000000E+00  0.98884567736E+03  0.21309443890E+04  0.18876197222E+04 0.  0.
        5    1    3    3  502    0  0.37005201053E+03 -0.16084196584E+03  0.14576024746E+04  0.15124270866E+04  0.46999998093E+01 0. -1.
       -5    1    3    3    0  502 -0.37005201053E+03  0.16084196584E+03 -0.46875679720E+03  0.61851730242E+03  0.46999998093E+01 0.  1.
</event>
<event>
 5   0  0.2317458E-04  0.1855791E+04  0.7818609E-02  0.8677180E-01
       -1   -1    0    0    0  501  0.00000000000E+00  0.00000000000E+00  0.64094149057E+03  0.64094149059E+03  0.50400001928E-02 0. -1.
        1   -1    0    0  501    0  0.00000000000E+00  0.00000000000E+00 -0.13433209159E+04  0.13433209159E+04  0.50400001928E-02 0.  1.
    10030    2    1    2    0    0  0.00000000000E+00  0.00000000000E+00 -0.70237942532E+03  0.19842624065E+04  0.18557910552E+04 0.  0.
        3    1    3    3  502    0  0.50660569637E+03 -0.51474810103E+03 -0.97407784092E+03  0.12126180724E+04  0.10100000352E+00 0.  1.
       -3    1    3    3    0  502 -0.50660569637E+03  0.51474810103E+03  0.27169841560E+03  0.77164433410E+03  0.10100000352E+00 0. -1.
</event>
<event>
 5   0  0.4973411E-04  0.1971008E+04  0.7818609E-02  0.8620297E-01
        2   -1    0    0  501    0  0.00000000000E+00  0.00000000000E+00  0.16669462882E+04  0.16669462882E+04  0.25500000920E-02 0. -1.
       -2   -1    0    0    0  501  0.00000000000E+00  0.00000000000E+00 -0.58263299431E+03  0.58263299432E+03  0.25500000920E-02 0.  1.
    10030    2    1    2    0    0  0.00000000000E+00  0.00000000000E+00  0.10843132938E+04  0.22495792825E+04  0.19710077699E+04 0.  0.
        1    1    3    3  502    0  0.97937916839E+02  0.13456406921E+02  0.16612728644E+04  0.16642116574E+04  0.50400001928E-02 0. -1.
       -1    1    3    3    0  502 -0.97937916839E+02 -0.13456406921E+02 -0.57695957056E+03  0.58536762511E+03  0.50400001928E-02 0.  1.
</event>
<event>
 5   0  0.2261755E-04  0.1903892E+04  0.7818609E-02  0.8652921E-01
       -1   -1    0    0    0  501  0.00000000000E+00  0.00000000000E+00  0.85184082829E+03  0.85184082831E+03  0.50400001928E-02 0. -1.
        1   -1    0    0  501    0  0.00000000000E+00  0.00000000000E+00 -0.10638151989E+04  0.10638151989E+04  0.50400001928E-02 0.  1.
    10030    2    1    2    0    0  0.00000000000E+00  0.00000000000E+00 -0.21197437064E+03  0.19156560273E+04  0.19038920350E+04 0.  0.
        1    1    3    3  502    0 -0.88323383923E+02 -0.10043798085E+03  0.84233973383E+03  0.85289215928E+03  0.50400001928E-02 0. -1.
       -1    1    3    3    0  502  0.88323383923E+02  0.10043798085E+03 -0.10543141045E+04  0.10627638680E+04  0.50400001928E-02 0.  1.
</event>
<event>
 5   0  0.4973411E-04  0.1864476E+04  0.7818609E-02  0.8672744E-01
       -2   -1    0    0    0  501  0.00000000000E+00  0.00000000000E+00  0.70133076435E+03  0.70133076435E+03  0.25500000920E-02 0. -1.
        2   -1    0    0  501    0  0.00000000000E+00  0.00000000000E+00 -0.12391697421E+04  0.12391697421E+04  0.25500000920E-02 0.  1.
    10030    2    1    2    0    0  0.00000000000E+00  0.00000000000E+00 -0.53783897779E+03  0.19405005065E+04  0.18644761864E+04 0.  0.
        1    1    3    3  502    0 -0.25842720151E+03  0.63591073607E+03 -0.92543397708E+03  0.11522131438E+04  0.50400001928E-02 0.  1.
       -1    1    3    3    0  502  0.25842720151E+03 -0.63591073607E+03  0.38759499928E+03  0.78828736272E+03  0.50400001928E-02 0. -1.
</event>
<event>
 5   0  0.4973411E-04  0.1932599E+04  0.7818609E-02  0.8638798E-01
        2   -1    0    0  501    0  0.00000000000E+00  0.00000000000E+00  0.81931511823E+03  0.81931511823E+03  0.25500000920E-02 0.  1.
       -2   -1    0    0    0  501  0.00000000000E+00  0.00000000000E+00 -0.11396523884E+04  0.11396523884E+04  0.25500000920E-02 0. -1.
    10030    2    1    2    0    0  0.00000000000E+00  0.00000000000E+00 -0.32033727019E+03  0.19589675066E+04  0.19325986975E+04 0.  0.
        1    1    3    3  502    0 -0.54700843143E+03 -0.26656325578E+03 -0.92105041936E+03  0.11039058241E+04  0.50400001928E-02 0. -1.
       -1    1    3    3    0  502  0.54700843143E+03  0.26656325578E+03  0.60071314918E+03  0.85506168258E+03  0.50400001928E-02 0.  1.
</event>
<event>
 5   0  0.4839293E-04  0.1869782E+04  0.7818609E-02  0.8670046E-01
       -2   -1    0    0    0  501  0.00000000000E+00  0.00000000000E+00  0.82006771849E+03  0.82006771849E+03  0.25500000920E-02 0. -1.
        2   -1    0    0  501    0  0.00000000000E+00  0.00000000000E+00 -0.10657914721E+04  0.10657914721E+04  0.25500000920E-02 0.  1.
    10030    2    1    2    0    0  0.00000000000E+00  0.00000000000E+00 -0.24572375365E+03  0.18858591906E+04  0.18697819990E+04 0.  0.
        5    1    3    3  502    0 -0.19415351333E+03 -0.91269311430E+03 -0.64968121976E+02  0.93538615261E+03  0.46999998093E+01 0. -1.
       -5    1    3    3    0  502  0.19415351333E+03  0.91269311430E+03 -0.18075563167E+03  0.95047303802E+03  0.46999998093E+01 0.  1.
</event>
<event>
 5   0  0.4802635E-04  0.1816762E+04  0.7818609E-02  0.8697436E-01
        2   -1    0    0  501    0  0.00000000000E+00  0.00000000000E+00  0.14727584959E+04  0.14727584959E+04  0.25500000920E-02 0. -1.
       -2   -1    0    0    0  501  0.00000000000E+00  0.00000000000E+00 -0.56027945133E+03  0.56027945133E+03  0.25500000920E-02 0.  1.
    10030    2    1    2    0    0  0.00000000000E+00  0.00000000000E+00  0.91247904457E+03  0.20330379472E+04  0.18167623092E+04 0.  0.
        3    1    3    3  502    0  0.38677995882E+03 -0.53855548745E+03 -0.23857410976E+03  0.70466897594E+03  0.10100000352E+00 0.  1.
       -3    1    3    3    0  502 -0.38677995882E+03  0.53855548745E+03  0.11510531543E+04  0.13283689713E+04  0.10100000352E+00 0. -1.
</event>
<event>
 5   0  0.2376359E-04  0.1916539E+04  0.7818609E-02  0.8646667E-01
        1   -1    0    0  501    0  0.00000000000E+00  0.00000000000E+00  0.73860065845E+03  0.73860065847E+03  0.50400001928E-02 0. -1.
       -1   -1    0    0    0  501  0.00000000000E+00  0.00000000000E+00 -0.12432707455E+04  0.12432707455E+04  0.50400001928E-02 0.  1.
    10030    2    1    2    0    0  0.00000000000E+00  0.00000000000E+00 -0.50467008703E+03  0.19818714040E+04  0.19165391635E+04 0.  0.
        2    1    3    3  502    0 -0.24433293063E+03  0.89216234725E+03 -0.51112253472E+03  0.10568341783E+04  0.25500000920E-02 0.  1.
       -2    1    3    3    0  502  0.24433293063E+03 -0.89216234725E+03  0.64524476854E+01  0.92503722570E+03  0.25500000920E-02 0. -1.
</event>
<event>
 5   0  0.2317458E-04  0.1963993E+04  0.7818609E-02  0.8623642E-01
       -1   -1    0    0    0  501  0.00000000000E+00  0.00000000000E+00  0.74137003841E+03  0.74137003843E+03  0.50400001928E-02 0. -1.
        1   -1    0    0  501    0  0.00000000000E+00  0.00000000000E+00 -0.13007235721E+04  0.13007235721E+04  0.50400001928E-02 0.  1.
    10030    2    1    2    0    0  0.00000000000E+00  0.00000000000E+00 -0.55935353367E+03  0.20420936105E+04  0.19639933652E+04 0.  0.
        3    1    3    3  502    0 -0.90791666410E+03  0.36915829097E+03 -0.21620024903E+03  0.10036598381E+04  0.10100000352E+00 0.  1.
       -3    1    3    3    0  502  0.90791666410E+03 -0.36915829097E+03 -0.34315328464E+03  0.10384337724E+04  0.10100000352E+00 0. -1.
</event>
<event>
 5   0  0.1729375E-04  0.1888200E+04  0.7818609E-02  0.8660753E-01
       -3   -1    0    0    0  501  0.00000000000E+00  0.00000000000E+00  0.13652104296E+04  0.13652104333E+04  0.10100000352E+00 0. -1.
        3   -1    0    0  501    0  0.00000000000E+00  0.00000000000E+00 -0.65288428036E+03  0.65288428817E+03  0.10100000352E+00 0.  1.
    10030    2    1    2    0    0  0.00000000000E+00  0.00000000000E+00  0.71232614925E+03  0.20180947215E+04  0.18881996086E+04 0.  0.
        5    1    3    3  502    0 -0.99059780603E+02 -0.71893177076E+03 -0.28922038183E+03  0.78124660026E+03  0.46999998093E+01 0.  1.
       -5    1    3    3    0  502  0.99059780603E+02  0.71893177076E+03  0.10015465311E+04  0.12368481213E+04  0.46999998093E+01 0. -1.
</event>
<event>
 5   0  0.2376359E-04  0.1892926E+04  0.7818609E-02  0.8658386E-01
        1   -1    0    0  501    0  0.00000000000E+00  0.00000000000E+00  0.19861065058E+04  0.19861065058E+04  0.50400001928E-02 0. -1.
       -1   -1    0    0    0  501  0.00000000000E+00  0.00000000000E+00 -0.45102933905E+03  0.45102933908E+03  0.50400001928E-02 0.  1.
    10030    2    1    2    0    0  0.00000000000E+00  0.00000000000E+00  0.15350771667E+04  0.24371358448E+04  0.18929260996E+04 0.  0.
        2    1    3    3  502    0  0.66196789474E+03 -0.67051141923E+03  0.65234362742E+03  0.11460101506E+04  0.25500000920E-02 0.  1.
       -2    1    3    3    0  502 -0.66196789474E+03  0.67051141923E+03  0.88273353928E+03  0.12911256943E+04  0.25500000920E-02 0. -1.
</event>
<event>
 5   0  0.2261755E-04  0.1712229E+04  0.7818609E-02  0.8754420E-01
       -1   -1    0    0    0  501  0.00000000000E+00  0.00000000000E+00  0.39484252674E+03  0.39484252677E+03  0.50400001928E-02 0. -1.
        1   -1    0    0  501    0  0.00000000000E+00  0.00000000000E+00 -0.18562644755E+04  0.18562644755E+04  0.50400001928E-02 0.  1.
    10030    2    1    2    0    0  0.00000000000E+00  0.00000000000E+00 -0.14614219488E+04  0.22511070023E+04  0.17122291387E+04 0.  0.
        1    1    3    3  502    0 -0.82560254214E+03  0.85227785650E+02 -0.10066425548E+04  0.13046886856E+04  0.50400001928E-02 0.  1.
       -1    1    3    3    0  502  0.82560254214E+03 -0.85227785650E+02 -0.45477939394E+03  0.94641831672E+03  0.50400001928E-02 0. -1.
</event>
<event>
 5   0  0.4973411E-04  0.1904775E+04  0.7818609E-02  0.8652483E-01
       -2   -1    0    0    0  501  0.00000000000E+00  0.00000000000E+00  0.11014955914E+04  0.11014955914E+04  0.25500000920E-02 0.  1.
        2   -1    0    0  501    0  0.00000000000E+00  0.00000000000E+00 -0.82346358580E+03  0.82346358580E+03  0.25500000920E-02 0. -1.
    10030    2    1    2    0    0  0.00000000000E+00  0.00000000000E+00  0.27803200556E+03  0.19249591772E+04  0.19047745372E+04 0.  0.
        1    1    3    3  502    0 -0.58218595517E+02 -0.31962530348E+03 -0.76573168224E+03  0.83180210910E+03  0.50400001928E-02 0. -1.
       -1    1    3    3    0  502  0.58218595517E+02  0.31962530348E+03  0.10437636878E+04  0.10931570681E+04  0.50400001928E-02 0.  1.
</event>
<event>
 5   0  0.2317458E-04  0.1884080E+04  0.7818609E-02  0.8662822E-01
        1   -1    0    0  501    0  0.00000000000E+00  0.00000000000E+00  0.11046391795E+04  0.11046391795E+04  0.50400001928E-02 0.  1.
       -1   -1    0    0    0  501  0.00000000000E+00  0.00000000000E+00 -0.80337474266E+03  0.80337474267E+03  0.50400001928E-02 0. -1.
    10030    2    1    2    0    0  0.00000000000E+00  0.00000000000E+00  0.30126443687E+03  0.19080139222E+04  0.18840798461E+04 0.  0.
        3    1    3    3  502    0  0.14090758875E+03 -0.92415708497E+03  0.26837586844E+03  0.97259800701E+03  0.10100000352E+00 0. -1.
       -3    1    3    3    0  502 -0.14090758875E+03  0.92415708497E+03  0.32888568427E+02  0.93541591520E+03  0.10100000352E+00 0.  1.
</event>
<event>
 5   0  0.4829134E-04  0.1859432E+04  0.7818609E-02  0.8675318E-01
       -2   -1    0    0    0  501  0.00000000000E+00  0.00000000000E+00  0.59357830736E+03  0.59357830736E+03  0.25500000920E-02 0.  1.
        2   -1    0    0  501    0  0.00000000000E+00  0.00000000000E+00 -0.14562045130E+04  0.14562045130E+04  0.25500000920E-02 0. -1.
    10030    2    1    2    0    0  0.00000000000E+00  0.00000000000E+00 -0.86262620563E+03  0.20497828203E+04  0.18594315368E+04 0.  0.
        2    1    3    3  502    0  0.38312295919E+03  0.55702278489E+03  0.27223246605E+03  0.72881280197E+03  0.25500000920E-02 0.  1.
       -2    1    3    3    0  502 -0.38312295919E+03 -0.55702278489E+03 -0.11348586717E+04  0.13209700184E+04  0.25500000920E-02 0. -1.
</event>
<event>
 5   0  0.2355414E-04  0.1555740E+04  0.7818609E-02  0.8848209E-01
       -1   -1    0    0    0  501  0.00000000000E+00  0.00000000000E+00  0.83040698712E+03  0.83040698714E+03  0.50400001928E-02 0.  1.
        1   -1    0    0  501    0  0.00000000000E+00  0.00000000000E+00 -0.72865724376E+03  0.72865724378E+03  0.50400001928E-02 0. -1.
    10030    2    1    2    0    0  0.00000000000E+00  0.00000000000E+00  0.10174974336E+03  0.15590642309E+04  0.15557404237E+04 0.  0.
        5    1    3    3  502    0 -0.37869943906E+03  0.33593429022E+03 -0.54097548279E+03  0.74090598288E+03  0.46999998093E+01 0. -1.
       -5    1    3    3    0  502  0.37869943906E+03 -0.33593429022E+03  0.64272522615E+03  0.81815824803E+03  0.46999998093E+01 0.  1.
</event>
<event>
 5   0  0.4761944E-04  0.1780711E+04  0.7818609E-02  0.8716625E-01
        2   -1    0    0  501    0  0.00000000000E+00  0.00000000000E+00  0.18898636039E+04  0.18898636039E+04  0.25500000920E-02 0. -1.
       -2   -1    0    0    0  501  0.00000000000E+00  0.00000000000E+00 -0.41946558800E+03  0.41946558800E+03  0.25500000920E-02 0.  1.
    10030    2    1    2    0    0  0.00000000000E+00  0.00000000000E+00  0.14703980159E+04  0.23093291919E+04  0.17807108107E+04 0.  0.
        4    1    3    3  502    0  0.82274988874E+03 -0.13268238447E+02  0.29419535153E+03  0.87386837873E+03  0.12699999809E+01 0.  1.
       -4    1    3    3    0  502 -0.82274988874E+03  0.13268238447E+02  0.11762026643E+04  0.14354608131E+04  0.12699999809E+01 0. -1.
</event>
<event>
 5   0  0.4973411E-04  0.1901027E+04  0.7818609E-02  0.8654345E-01
       -2   -1    0    0    0  501  0.00000000000E+00  0.00000000000E+00  0.46936253308E+03  0.46936253309E+03  0.25500000920E-02 0. -1.
        2   -1    0    0  501    0  0.00000000000E+00  0.00000000000E+00 -0.19249008931E+04  0.19249008931E+04  0.25500000920E-02 0.  1.
    10030    2    1    2    0    0  0.00000000000E+00  0.00000000000E+00 -0.14555383600E+04  0.23942634262E+04  0.19010274686E+04 0.  0.
        1    1    3    3  502    0  0.56494660828E+03 -0.36000384785E+02 -0.16894338251E+04  0.17817540086E+04  0.50400001928E-02 0.  1.
       -1    1    3    3    0  502 -0.56494660828E+03  0.36000384785E+02  0.23389546511E+03  0.61250941751E+03  0.50400001928E-02 0. -1.
</event>
<event>
 5   0  0.4973411E-04  0.1901880E+04  0.7818609E-02  0.8653921E-01
        2   -1    0    0  501    0  0.00000000000E+00  0.00000000000E+00  0.20215515619E+04  0.20215515619E+04  0.25500000920E-02 0. -1.
       -2   -1    0    0    0  501  0.00000000000E+00  0.00000000000E+00 -0.44732337575E+03  0.44732337576E+03  0.25500000920E-02 0.  1.
    10030    2    1    2    0    0  0.00000000000E+00  0.00000000000E+00  0.15742281862E+04  0.24688749377E+04  0.19018804052E+04 0.  0.
        1    1    3    3  502    0 -0.43972086628E+03  0.46836815415E+03 -0.12302122240E+03  0.65410808682E+03  0.50400001928E-02 0.  1.
       -1    1    3    3    0  502  0.43972086628E+03 -0.46836815415E+03  0.16972494086E+04  0.18147668509E+04  0.50400001928E-02 0. -1.
</event>
<event>
 5   0  0.2510069E-04  0.1449903E+04  0.7818609E-02  0.8918468E-01
       -1   -1    0    0    0  501  0.00000000000E+00  0.00000000000E+00  0.10687275169E+04  0.10687275169E+04  0.50400001928E-02 0.  1.
        1   -1    0    0  501    0  0.00000000000E+00  0.00000000000E+00 -0.49175751298E+03  0.49175751301E+03  0.50400001928E-02 0. -1.
    10030    2    1    2    0    0  0.00000000000E+00  0.00000000000E+00  0.57697000393E+03  0.15604850299E+04  0.14499031496E+04 0.  0.
        4    1    3    3  502    0  0.36218154645E+03 -0.26750656859E+03 -0.32301919449E+03  0.55414641544E+03  0.12699999809E+01 0. -1.
       -4    1    3    3    0  502 -0.36218154645E+03  0.26750656859E+03  0.89998919842E+03  0.10063386145E+04  0.12699999809E+01 0.  1.
</event>
<event>
 5   0  0.4761944E-04  0.1919104E+04  0.7818609E-02  0.8645405E-01
       -2   -1    0    0    0  501  0.00000000000E+00  0.00000000000E+00  0.56213308101E+03  0.56213308102E+03  0.25500000920E-02 0. -1.
        2   -1    0    0  501    0  0.00000000000E+00  0.00000000000E+00 -0.16379398978E+04  0.16379398978E+04  0.25500000920E-02 0.  1.
    10030    2    1    2    0    0  0.00000000000E+00  0.00000000000E+00 -0.10758068168E+04  0.22000729788E+04  0.19191041673E+04 0.  0.
        4    1    3    3  502    0  0.84224598087E+03  0.27354975421E+02 -0.11789120654E+02  0.84277350649E+03  0.12699999809E+01 0. -1.
       -4    1    3    3    0  502 -0.84224598087E+03 -0.27354975421E+02 -0.10640176961E+04  0.13572994723E+04  0.12699999809E+01 0.  1.
</event>
<event>
 5   0  0.4761944E-04  0.1891131E+04  0.7818609E-02  0.8659283E-01
       -2   -1    0    0    0  501  0.00000000000E+00  0.00000000000E+00  0.78394606383E+03  0.78394606383E+03  0.25500000920E-02 0. -1.
        2   -1    0    0  501    0  0.00000000000E+00  0.00000000000E+00 -0.11405051056E+04  0.11405051056E+04  0.25500000920E-02 0.  1.
    10030    2    1    2    0    0  0.00000000000E+00  0.00000000000E+00 -0.35655904175E+03  0.19244511694E+04  0.18911313950E+04 0.  0.
        4    1    3    3  502    0  0.75339962783E+03 -0.68329197181E+02 -0.75556014537E+03  0.10691831576E+04  0.12699999809E+01 0.  1.
       -4    1    3    3    0  502 -0.75339962783E+03  0.68329197181E+02  0.39900110361E+03  0.85526801179E+03  0.12699999809E+01 0. -1.
</event>
<event>
 5   0  0.2376359E-04  0.1891513E+04  0.7818609E-02  0.8659092E-01
        1   -1    0    0  501    0  0.00000000000E+00  0.00000000000E+00  0.14011108630E+04  0.14011108630E+04  0.50400001928E-02 0. -1.
       -1   -1    0    0    0  501  0.00000000000E+00  0.00000000000E+00 -0.63839026017E+03  0.63839026019E+03  0.50400001928E-02 0.  1.
    10030    2    1    2    0    0  0.00000000000E+00  0.00000000000E+00  0.76272060284E+03  0.20395011232E+04  0.18915131809E+04 0.  0.
        2    1    3    3  502    0 -0.82904016433E+03  0.15375691515E+03  0.84325246403E+03  0.11924862687E+04  0.25500000920E-02 0.  1.
       -2    1    3    3    0  502  0.82904016433E+03 -0.15375691515E+03 -0.80531861185E+02  0.84701485447E+03  0.25500000920E-02 0. -1.
</event>
<event>
 5   0  0.4973411E-04  0.1818044E+04  0.7818609E-02  0.8696762E-01
        2   -1    0    0  501    0  0.00000000000E+00  0.00000000000E+00  0.19359464861E+04  0.19359464861E+04  0.25500000920E-02 0. -1.
       -2   -1    0    0    0  501  0.00000000000E+00  0.00000000000E+00 -0.42683047301E+03  0.42683047302E+03  0.25500000920E-02 0.  1.
    10030    2    1    2    0    0  0.00000000000E+00  0.00000000000E+00  0.15091160131E+04  0.23627769592E+04  0.18180439537E+04 0.  0.
        1    1    3    3  502    0  0.72196959944E+03 -0.50640053217E+02  0.39744357278E+02  0.72483386474E+03  0.50400001928E-02 0.  1.
       -1    1    3    3    0  502 -0.72196959944E+03  0.50640053217E+02  0.14693716558E+04  0.16379430944E+04  0.50400001928E-02 0. -1.
</event>
<event>
 5   0  0.2355414E-04  0.2331881E+04  0.7818609E-02  0.8465456E-01
        1   -1    0    0  501    0  0.00000000000E+00  0.00000000000E+00  0.26812028534E+04  0.26812028534E+04  0.50400001928E-02 0. -1.
       -1   -1    0    0    0  501  0.00000000000E+00  0.00000000000E+00 -0.50701772005E+03  0.50701772007E+03  0.50400001928E-02 0.  1.
    10030    2    1    2    0    0  0.00000000000E+00  0.00000000000E+00  0.21741851334E+04  0.31882205735E+04  0.23318810928E+04 0.  0.
        5    1    3    3  502    0 -0.43099166015E+03  0.97294294767E+03  0.17385369507E+04  0.20383583124E+04  0.46999998093E+01 0.  1.
       -5    1    3    3    0  502  0.43099166015E+03 -0.97294294767E+03  0.43564818264E+03  0.11498622611E+04  0.46999998093E+01 0. -1.
</event>
<event>
 5   0  0.2355414E-04  0.1899440E+04  0.7818609E-02  0.8655135E-01
       -1   -1    0    0    0  501  0.00000000000E+00  0.00000000000E+00  0.94944117149E+03  0.94944117151E+03  0.50400001928E-02 0. -1.
        1   -1    0    0  501    0  0.00000000000E+00  0.00000000000E+00 -0.94999909030E+03  0.94999909031E+03  0.50400001928E-02 0.  1.
    10030    2    1    2    0    0  0.00000000000E+00  0.00000000000E+00 -0.55791880450E+00  0.18994402618E+04  0.18994401799E+04 0.  0.
        5    1    3    3  502    0 -0.31769092533E+03 -0.32334380908E+03  0.83426731039E+03  0.94947500130E+03  0.46999998093E+01 0. -1.
       -5    1    3    3    0  502  0.31769092533E+03  0.32334380908E+03 -0.83482522919E+03  0.94996526052E+03  0.46999998093E+01 0.  1.
</event>
<event>
 5   0  0.2355414E-04  0.1679631E+04  0.7818609E-02  0.8773067E-01
        1   -1    0    0  501    0  0.00000000000E+00  0.00000000000E+00  0.14224188398E+04  0.14224188398E+04  0.50400001928E-02 0. -1.
       -1   -1    0    0    0  501  0.00000000000E+00  0.00000000000E+00 -0.49583880117E+03  0.49583880120E+03  0.50400001928E-02 0.  1.
    10030    2    1    2    0    0  0.00000000000E+00  0.00000000000E+00  0.92658003861E+03  0.19182576410E+04  0.16796314504E+04 0.  0.
        5    1    3    3  502    0 -0.51480309525E+03 -0.61246489774E+03  0.75475950502E+03  0.10999179416E+04  0.46999998093E+01 0. -1.
       -5    1    3    3    0  502  0.51480309525E+03  0.61246489774E+03  0.17182053359E+03  0.81833969939E+03  0.46999998093E+01 0.  1.
</event>
<event>
 5   0  0.2376359E-04  0.1931560E+04  0.7818609E-02  0.8639304E-01
        1   -1    0    0  501    0  0.00000000000E+00  0.00000000000E+00  0.13871385327E+04  0.13871385327E+04  0.50400001928E-02 0.  1.
       -1   -1    0    0    0  501  0.00000000000E+00  0.00000000000E+00 -0.67241392501E+03  0.67241392503E+03  0.50400001928E-02 0. -1.
    10030    2    1    2    0    0  0.00000000000E+00  0.00000000000E+00  0.71472460772E+03  0.20595524578E+04  0.19315602661E+04 0.  0.
        2    1    3    3  502    0  0.49794488464E+03 -0.78959716178E+03  0.62139656404E+03  0.11214037970E+04  0.25500000920E-02 0.  1.
       -2    1    3    3    0  502 -0.49794488464E+03  0.78959716178E+03  0.93328043677E+02  0.93814866080E+03  0.25500000920E-02 0. -1.
</event>
<event>
 5   0  0.4802635E-04  0.1921578E+04  0.7818609E-02  0.8644190E-01
        2   -1    0    0  501    0  0.00000000000E+00  0.00000000000E+00  0.15473597343E+04  0.15473597343E+04  0.25500000920E-02 0. -1.
       -2   -1    0    0    0  501  0.00000000000E+00  0.00000000000E+00 -0.59657446721E+03  0.59657446722E+03  0.25500000920E-02 0.  1.
    10030    2    1    2    0    0  0.00000000000E+00  0.00000000000E+00  0.95078526704E+03  0.21439342015E+04  0.19215777986E+04 0.  0.
        3    1    3    3  502    0  0.71252325206E+03  0.62828102717E+03  0.63587296517E+03  0.11431364187E+04  0.10100000352E+00 0. -1.
       -3    1    3    3    0  502 -0.71252325206E+03 -0.62828102717E+03  0.31491230187E+03  0.10007977827E+04  0.10100000352E+00 0.  1.
</event>
<event>
 5   0  0.4839293E-04  0.1905250E+04  0.7818609E-02  0.8652248E-01
        2   -1    0    0  501    0  0.00000000000E+00  0.00000000000E+00  0.15069231514E+04  0.15069231514E+04  0.25500000920E-02 0.  1.
       -2   -1    0    0    0  501  0.00000000000E+00  0.00000000000E+00 -0.60221660410E+03  0.60221660410E+03  0.25500000920E-02 0. -1.
    10030    2    1    2    0    0  0.00000000000E+00  0.00000000000E+00  0.90470654734E+03  0.21091397555E+04  0.19052497400E+04 0.  0.
        5    1    3    3  502    0 -0.33301004894E+03  0.69982312121E+03  0.10655475349E+04  0.13175969538E+04  0.46999998093E+01 0.  1.
       -5    1    3    3    0  502  0.33301004894E+03 -0.69982312121E+03 -0.16084098753E+03  0.79154280171E+03  0.46999998093E+01 0. -1.
</event>
<event>
 5   0  0.4829134E-04  0.1915187E+04  0.7818609E-02  0.8647333E-01
       -2   -1    0    0    0  501  0.00000000000E+00  0.00000000000E+00  0.89903582093E+03  0.89903582094E+03  0.25500000920E-02 0. -1.
        2   -1    0    0  501    0  0.00000000000E+00  0.00000000000E+00 -0.10199654225E+04  0.10199654225E+04  0.25500000920E-02 0.  1.
    10030    2    1    2    0    0  0.00000000000E+00  0.00000000000E+00 -0.12092960156E+03  0.19190012434E+04  0.19151871459E+04 0.  0.
        2    1    3    3  502    0  0.45586135209E+03 -0.45949285474E+03 -0.76759129132E+03  0.10040615750E+04  0.25500000920E-02 0.  1.
       -2    1    3    3    0  502 -0.45586135209E+03  0.45949285474E+03  0.64666168975E+03  0.91493966844E+03  0.25500000920E-02 0. -1.
</event>
<event>
 5   0  0.2510069E-04  0.1956516E+04  0.7818609E-02  0.8627225E-01
        1   -1    0    0  501    0  0.00000000000E+00  0.00000000000E+00  0.94831176230E+03  0.94831176231E+03  0.50400001928E-02 0.  1.
       -1   -1    0    0    0  501  0.00000000000E+00  0.00000000000E+00 -0.10091498438E+04  0.10091498438E+04  0.50400001928E-02 0. -1.
    10030    2    1    2    0    0  0.00000000000E+00  0.00000000000E+00 -0.60838081520E+02  0.19574616061E+04  0.19565159512E+04 0.  0.
        4    1    3    3  502    0 -0.33617781685E+03  0.30805509048E+02  0.88818733497E+03  0.95018043488E+03  0.12699999809E+01 0.  1.
       -4    1    3    3    0  502  0.33617781685E+03 -0.30805509048E+02 -0.94902541649E+03  0.10072811713E+04  0.12699999809E+01 0. -1.
</event>
<event>
 5   0  0.4973411E-04  0.1883344E+04  0.7818609E-02  0.8663192E-01
        2   -1    0    0  501    0  0.00000000000E+00  0.00000000000E+00  0.19993280145E+04  0.19993280145E+04  0.25500000920E-02 0.  1.
       -2   -1    0    0    0  501  0.00000000000E+00  0.00000000000E+00 -0.44352209360E+03  0.44352209361E+03  0.25500000920E-02 0. -1.
    10030    2    1    2    0    0  0.00000000000E+00  0.00000000000E+00  0.15558059209E+04  0.24428501081E+04  0.18833439907E+04 0.  0.
        1    1    3    3  502    0  0.31817764264E+03  0.23321257991E+02 -0.37128848804E+03  0.48952633711E+03  0.50400001928E-02 0. -1.
       -1    1    3    3    0  502 -0.31817764264E+03 -0.23321257991E+02  0.19270944090E+04  0.19533237710E+04  0.50400001928E-02 0.  1.
</event>
<event>
 5   0  0.2376359E-04  0.1745747E+04  0.7818609E-02  0.8735695E-01
       -1   -1    0    0    0  501  0.00000000000E+00  0.00000000000E+00  0.52673271028E+03  0.52673271030E+03  0.50400001928E-02 0. -1.
        1   -1    0    0  501    0  0.00000000000E+00  0.00000000000E+00 -0.14464804457E+04  0.14464804457E+04  0.50400001928E-02 0.  1.
    10030    2    1    2    0    0  0.00000000000E+00  0.00000000000E+00 -0.91974773541E+03  0.19732131560E+04  0.17457474795E+04 0.  0.
        2    1    3    3  502    0 -0.15892480948E+03  0.53631685186E+02  0.50834617294E+03  0.53530298362E+03  0.25500000920E-02 0. -1.
       -2    1    3    3    0  502  0.15892480948E+03 -0.53631685186E+02 -0.14280939083E+04  0.14379101724E+04  0.25500000920E-02 0.  1.
</event>
<event>
 5   0  0.2261755E-04  0.1871658E+04  0.7818609E-02  0.8669094E-01
       -1   -1    0    0    0  501  0.00000000000E+00  0.00000000000E+00  0.61851592464E+03  0.61851592466E+03  0.50400001928E-02 0.  1.
        1   -1    0    0  501    0  0.00000000000E+00  0.00000000000E+00 -0.14159310198E+04  0.14159310198E+04  0.50400001928E-02 0. -1.
    10030    2    1    2    0    0  0.00000000000E+00  0.00000000000E+00 -0.79741509520E+03  0.20344469445E+04  0.18716579645E+04 0.  0.
        1    1    3    3  502    0  0.66944734333E+03  0.51327007723E+03  0.41712152080E+02  0.84459802351E+03  0.50400001928E-02 0.  1.
       -1    1    3    3    0  502 -0.66944734333E+03 -0.51327007723E+03 -0.83912724728E+03  0.11898489210E+04  0.50400001928E-02 0. -1.
</event>
<event>
 5   0  0.2317458E-04  0.1933382E+04  0.7818609E-02  0.8638416E-01
        1   -1    0    0  501    0  0.00000000000E+00  0.00000000000E+00  0.11995837629E+04  0.11995837629E+04  0.50400001928E-02 0. -1.
       -1   -1    0    0    0  501  0.00000000000E+00  0.00000000000E+00 -0.77901325020E+03  0.77901325022E+03  0.50400001928E-02 0.  1.
    10030    2    1    2    0    0  0.00000000000E+00  0.00000000000E+00  0.42057051267E+03  0.19785970131E+04  0.19333821619E+04 0.  0.
        3    1    3    3  502    0 -0.12093784019E+03 -0.93507244719E+03 -0.80229809006E+01  0.94289491519E+03  0.10100000352E+00 0. -1.
       -3    1    3    3    0  502  0.12093784019E+03  0.93507244719E+03  0.42859349357E+03  0.10357020979E+04  0.10100000352E+00 0.  1.
</event>
<event>
 5   0  0.2376359E-04  0.1960141E+04  0.7818609E-02  0.8625486E-01
        1   -1    0    0  501    0  0.00000000000E+00  0.00000000000E+00  0.24139614707E+04  0.24139614707E+04  0.50400001928E-02 0. -1.
       -1   -1    0    0    0  501  0.00000000000E+00  0.00000000000E+00 -0.39790936475E+03  0.39790936478E+03  0.50400001928E-02 0.  1.
    10030    2    1    2    0    0  0.00000000000E+00  0.00000000000E+00  0.20160521059E+04  0.28118708354E+04  0.19601406841E+04 0.  0.
        2    1    3    3  502    0 -0.94211228003E+03  0.25964842329E+03  0.90120427105E+03  0.13293464522E+04  0.25500000920E-02 0. -1.
       -2    1    3    3    0  502  0.94211228003E+03 -0.25964842329E+03  0.11148478349E+04  0.14825243832E+04  0.25500000920E-02 0.  1.
</event>
<event>
 5   0  0.2317458E-04  0.1910311E+04  0.7818609E-02  0.8649741E-01
        1   -1    0    0  501    0  0.00000000000E+00  0.00000000000E+00  0.38848681358E+03  0.38848681361E+03  0.50400001928E-02 0. -1.
       -1   -1    0    0    0  501  0.00000000000E+00  0.00000000000E+00 -0.23483998512E+04  0.23483998512E+04  0.50400001928E-02 0.  1.
    10030    2    1    2    0    0  0.00000000000E+00  0.00000000000E+00 -0.19599130377E+04  0.27368866648E+04  0.19103113623E+04 0.  0.
        3    1    3    3  502    0 -0.72118116878E+03  0.22895162565E+03 -0.18151077667E+04  0.19665038368E+04  0.10100000352E+00 0.  1.
       -3    1    3    3    0  502  0.72118116878E+03 -0.22895162565E+03 -0.14480527095E+03  0.77038282807E+03  0.10100000352E+00 0. -1.
</event>
<event>
 5   0  0.2261755E-04  0.1455185E+04  0.7818609E-02  0.8914814E-01
       -1   -1    0    0    0  501  0.00000000000E+00  0.00000000000E+00  0.45178416860E+03  0.45178416862E+03  0.50400001928E-02 0. -1.
        1   -1    0    0  501    0  0.00000000000E+00  0.00000000000E+00 -0.11717785611E+04  0.11717785611E+04  0.50400001928E-02 0.  1.
    10030    2    1    2    0    0  0.00000000000E+00  0.00000000000E+00 -0.71999439247E+03  0.16235627297E+04  0.14551852157E+04 0.  0.
        1    1    3    3  502    0 -0.29759686441E+02 -0.57670686406E+02 -0.11685430677E+04  0.11703437307E+04  0.50400001928E-02 0.  1.
       -1    1    3    3    0  502  0.29759686441E+02  0.57670686406E+02  0.44854867519E+03  0.45321899899E+03  0.50400001928E-02 0. -1.
</event>
<event>
 5   0  0.2376359E-04  0.1907245E+04  0.7818609E-02  0.8651258E-01
       -1   -1    0    0    0  501  0.00000000000E+00  0.00000000000E+00  0.19220228649E+04  0.19220228649E+04  0.50400001928E-02 0.  1.
        1   -1    0    0  501    0  0.00000000000E+00  0.00000000000E+00 -0.47314535348E+03  0.47314535350E+03  0.50400001928E-02 0. -1.
    10030    2    1    2    0    0  0.00000000000E+00  0.00000000000E+00  0.14488775114E+04  0.23951682184E+04  0.19072453307E+04 0.  0.
        2    1    3    3  502    0  0.13710172043E+03 -0.65073024370E+03 -0.13389735467E+03  0.67836216980E+03  0.25500000920E-02 0. -1.
       -2    1    3    3    0  502 -0.13710172043E+03  0.65073024370E+03  0.15827748661E+04  0.17168060486E+04  0.25500000920E-02 0.  1.
</event>
<event>
 5   0  0.4829134E-04  0.1749910E+04  0.7818609E-02  0.8733400E-01
       -2   -1    0    0    0  501  0.00000000000E+00  0.00000000000E+00  0.81165779148E+03  0.81165779149E+03  0.25500000920E-02 0. -1.
        2   -1    0    0  501    0  0.00000000000E+00  0.00000000000E+00 -0.94318887924E+03  0.94318887924E+03  0.25500000920E-02 0.  1.
    10030    2    1    2    0    0  0.00000000000E+00  0.00000000000E+00 -0.13153108776E+03  0.17548466707E+04  0.17499104008E+04 0.  0.
        2    1    3    3  502    0  0.14797649408E+03  0.29921715290E+03 -0.87682301893E+03  0.93821455645E+03  0.25500000920E-02 0.  1.
       -2    1    3    3    0  502 -0.14797649408E+03 -0.29921715290E+03  0.74529193118E+03  0.81663211428E+03  0.25500000920E-02 0. -1.
</event>
<event>
 5   0  0.2376359E-04  0.1639967E+04  0.7818609E-02  0.8796364E-01
       -1   -1    0    0    0  501  0.00000000000E+00  0.00000000000E+00  0.99884491061E+03  0.99884491062E+03  0.50400001928E-02 0.  1.
        1   -1    0    0  501    0  0.00000000000E+00  0.00000000000E+00 -0.67315030414E+03  0.67315030416E+03  0.50400001928E-02 0. -1.
    10030    2    1    2    0    0  0.00000000000E+00  0.00000000000E+00  0.32569460647E+03  0.16719952148E+04  0.16399667745E+04 0.  0.
        2    1    3    3  502    0  0.28675638769E+03  0.63493852042E+03 -0.27802908625E+03  0.75011753972E+03  0.25500000920E-02 0. -1.
       -2    1    3    3    0  502 -0.28675638769E+03 -0.63493852042E+03  0.60372369273E+03  0.92187767505E+03  0.25500000920E-02 0.  1.
</event>
<event>
 5   0  0.2355414E-04  0.1893288E+04  0.7818609E-02  0.8658205E-01
        1   -1    0    0  501    0  0.00000000000E+00  0.00000000000E+00  0.12013952021E+04  0.12013952021E+04  0.50400001928E-02 0. -1.
       -1   -1    0    0    0  501  0.00000000000E+00  0.00000000000E+00 -0.74591190377E+03  0.74591190379E+03  0.50400001928E-02 0.  1.
    10030    2    1    2    0    0  0.00000000000E+00  0.00000000000E+00  0.45548329836E+03  0.19473071059E+04  0.18932881264E+04 0.  0.
        5    1    3    3  502    0  0.62593025172E+03  0.58293256451E+03  0.64491730184E+03  0.10712326876E+04  0.46999998093E+01 0. -1.
       -5    1    3    3    0  502 -0.62593025172E+03 -0.58293256451E+03 -0.18943400347E+03  0.87607441833E+03  0.46999998093E+01 0.  1.
</event>
<event>
 5   0  0.1729375E-04  0.1925993E+04  0.7818609E-02  0.8642025E-01
        3   -1    0    0  501    0  0.00000000000E+00  0.00000000000E+00  0.13591955867E+04  0.13591955904E+04  0.10100000352E+00 0. -1.
       -3   -1    0    0    0  501  0.00000000000E+00  0.00000000000E+00 -0.68228776994E+03  0.68228777741E+03  0.10100000352E+00 0.  1.
    10030    2    1    2    0    0  0.00000000000E+00  0.00000000000E+00  0.67690781676E+03  0.20414833679E+04  0.19259932889E+04 0.  0.
        3    1    3    3  502    0  0.94067844715E+03 -0.17898473651E+02  0.12079649340E+03  0.94857161000E+03  0.10100000352E+00 0. -1.
       -3    1    3    3    0  502 -0.94067844715E+03  0.17898473651E+02  0.55611132336E+03  0.10929117579E+04  0.10100000352E+00 0.  1.
</event>
<event>
 5   0  0.4802635E-04  0.1882488E+04  0.7818609E-02  0.8663623E-01
       -2   -1    0    0    0  501  0.00000000000E+00  0.00000000000E+00  0.42475511841E+03  0.42475511842E+03  0.25500000920E-02 0.  1.
        2   -1    0    0  501    0  0.00000000000E+00  0.00000000000E+00 -0.20857661228E+04  0.20857661228E+04  0.25500000920E-02 0. -1.
    10030    2    1    2    0    0  0.00000000000E+00  0.00000000000E+00 -0.16610110044E+04  0.25105212412E+04  0.18824875420E+04 0.  0.
        3    1    3    3  502    0 -0.43742775349E+03 -0.40489441402E+03  0.14098567550E+03  0.61250265054E+03  0.10100000352E+00 0.  1.
       -3    1    3    3    0  502  0.43742775349E+03  0.40489441402E+03 -0.18019966799E+04  0.18980185907E+04  0.10100000352E+00 0. -1.
</event>
<event>
 5   0  0.4802635E-04  0.1881167E+04  0.7818609E-02  0.8664288E-01
       -2   -1    0    0    0  501  0.00000000000E+00  0.00000000000E+00  0.39294510986E+03  0.39294510987E+03  0.25500000920E-02 0.  1.
        2   -1    0    0  501    0  0.00000000000E+00  0.00000000000E+00 -0.22514526781E+04  0.22514526781E+04  0.25500000920E-02 0. -1.
    10030    2    1    2    0    0  0.00000000000E+00  0.00000000000E+00 -0.18585075682E+04  0.26443977879E+04  0.18811669994E+04 0.  0.
        3    1    3    3  502    0 -0.97622905876E+02  0.31987062187E+03 -0.21650503980E+04  0.21907283453E+04  0.10100000352E+00 0. -1.
       -3    1    3    3    0  502  0.97622905876E+02 -0.31987062187E+03  0.30654282984E+03  0.45366944267E+03  0.10100000352E+00 0.  1.
</event>
<event>
 5   0  0.4761944E-04  0.1895709E+04  0.7818609E-02  0.8656995E-01
        2   -1    0    0  501    0  0.00000000000E+00  0.00000000000E+00  0.17066334359E+04  0.17066334359E+04  0.25500000920E-02 0. -1.
       -2   -1    0    0    0  501  0.00000000000E+00  0.00000000000E+00 -0.52643306014E+03  0.52643306014E+03  0.25500000920E-02 0.  1.
    10030    2    1    2    0    0  0.00000000000E+00  0.00000000000E+00  0.11802003757E+04  0.22330664960E+04  0.18957091150E+04 0.  0.
        4    1    3    3  502    0  0.54026299629E+03 -0.17692381712E+03  0.14835181662E+04  0.15887145447E+04  0.12699999809E+01 0. -1.
       -4    1    3    3    0  502 -0.54026299629E+03  0.17692381712E+03 -0.30331779047E+03  0.64435195130E+03  0.12699999809E+01 0.  1.
</event>
<event>
 5   0  0.4802635E-04  0.1892971E+04  0.7818609E-02  0.8658363E-01
       -2   -1    0    0    0  501  0.00000000000E+00  0.00000000000E+00  0.42111516373E+03  0.42111516374E+03  0.25500000920E-02 0. -1.
        2   -1    0    0  501    0  0.00000000000E+00  0.00000000000E+00 -0.21272919441E+04  0.21272919441E+04  0.25500000920E-02 0.  1.
    10030    2    1    2    0    0  0.00000000000E+00  0.00000000000E+00 -0.17061767804E+04  0.25484071078E+04  0.18929710989E+04 0.  0.
        3    1    3    3  502    0 -0.26984195818E+03 -0.32605923234E+03 -0.19928006425E+04  0.20372490560E+04  0.10100000352E+00 0.  1.
       -3    1    3    3    0  502  0.26984195818E+03  0.32605923234E+03  0.28662386212E+03  0.51115805181E+03  0.10100000352E+00 0. -1.
</event>
<event>
 5   0  0.4973411E-04  0.1882186E+04  0.7818609E-02  0.8663775E-01
        2   -1    0    0  501    0  0.00000000000E+00  0.00000000000E+00  0.97646966224E+03  0.97646966224E+03  0.25500000920E-02 0.  1.
       -2   -1    0    0    0  501  0.00000000000E+00  0.00000000000E+00 -0.90699792730E+03  0.90699792730E+03  0.25500000920E-02 0. -1.
    10030    2    1    2    0    0  0.00000000000E+00  0.00000000000E+00  0.69471734943E+02  0.18834675895E+04  0.18821859204E+04 0.  0.
        1    1    3    3  502    0 -0.13689049850E+02  0.51547649578E+03  0.82251558082E+03  0.97079106326E+03  0.50400001928E-02 0.  1.
       -1    1    3    3    0  502  0.13689049850E+02 -0.51547649578E+03 -0.75304384587E+03  0.91267652628E+03  0.50400001928E-02 0. -1.
</event>
<event>
 5   0  0.4839293E-04  0.1737564E+04  0.7818609E-02  0.8740226E-01
       -2   -1    0    0    0  501  0.00000000000E+00  0.00000000000E+00  0.88216595769E+03  0.88216595769E+03  0.25500000920E-02 0.  1.
        2   -1    0    0  501    0  0.00000000000E+00  0.00000000000E+00 -0.85560061203E+03  0.85560061204E+03  0.25500000920E-02 0. -1.
    10030    2    1    2    0    0  0.00000000000E+00  0.00000000000E+00  0.26565345651E+02  0.17377665697E+04  0.17375635048E+04 0.  0.
        5    1    3    3  502    0  0.35222585134E+03 -0.62608374150E+03  0.50192522227E+03  0.87635319391E+03  0.46999998093E+01 0.  1.
       -5    1    3    3    0  502 -0.35222585134E+03  0.62608374150E+03 -0.47535987662E+03  0.86141337581E+03  0.46999998093E+01 0. -1.
</event>
<event>
 5   0  0.4839293E-04  0.1896218E+04  0.7818609E-02  0.8656741E-01
        2   -1    0    0  501    0  0.00000000000E+00  0.00000000000E+00  0.17134299096E+04  0.17134299096E+04  0.25500000920E-02 0.  1.
       -2   -1    0    0    0  501  0.00000000000E+00  0.00000000000E+00 -0.52462644344E+03  0.52462644345E+03  0.25500000920E-02 0. -1.
    10030    2    1    2    0    0  0.00000000000E+00  0.00000000000E+00  0.11888034662E+04  0.22380563531E+04  0.18962179617E+04 0.  0.
        5    1    3    3  502    0  0.57277678336E+03  0.75017282645E+03  0.48846575673E+03  0.10627574505E+04  0.46999998093E+01 0. -1.
       -5    1    3    3    0  502 -0.57277678336E+03 -0.75017282645E+03  0.70033770943E+03  0.11752989026E+04  0.46999998093E+01 0.  1.
</event>
<event>
 5   0  0.2317458E-04  0.1822492E+04  0.7818609E-02  0.8694429E-01
        1   -1    0    0  501    0  0.00000000000E+00  0.00000000000E+00  0.14607301273E+04  0.14607301273E+04  0.50400001928E-02 0. -1.
       -1   -1    0    0    0  501  0.00000000000E+00  0.00000000000E+00 -0.56846195675E+03  0.56846195677E+03  0.50400001928E-02 0.  1.
    10030    2    1    2    0    0  0.00000000000E+00  0.00000000000E+00  0.89226817051E+03  0.20291920840E+04  0.18224922567E+04 0.  0.
        3    1    3    3  502    0  0.41028383905E+02  0.42032027307E+03  0.13451904900E+04  0.14099255033E+04  0.10100000352E+00 0. -1.
       -3    1    3    3    0  502 -0.41028383905E+02 -0.42032027307E+03 -0.45292231954E+03  0.61926658071E+03  0.10100000352E+00 0.  1.
</event>
<event>
 5   0  0.2261755E-04  0.1916458E+04  0.7818609E-02  0.8646707E-01
       -1   -1    0    0    0  501  0.00000000000E+00  0.00000000000E+00  0.71976590690E+03  0.71976590691E+03  0.50400001928E-02 0.  1.
        1   -1    0    0  501    0  0.00000000000E+00  0.00000000000E+00 -0.12756959342E+04  0.12756959342E+04  0.50400001928E-02 0. -1.
    10030    2    1    2    0    0  0.00000000000E+00  0.00000000000E+00 -0.55593002731E+03  0.19954618411E+04  0.19164576082E+04 0.  0.
        1    1    3    3  502    0  0.51520717420E+03 -0.78613791778E+03 -0.83863462483E+02  0.94365477718E+03  0.50400001928E-02 0.  1.
       -1    1    3    3    0  502 -0.51520717420E+03  0.78613791778E+03 -0.47206656482E+03  0.10518070639E+04  0.50400001928E-02 0. -1.
</event>
<event>
 5   0  0.2317458E-04  0.1650546E+04  0.7818609E-02  0.8790084E-01
       -1   -1    0    0    0  501  0.00000000000E+00  0.00000000000E+00  0.96692726472E+03  0.96692726474E+03  0.50400001928E-02 0. -1.
        1   -1    0    0  501    0  0.00000000000E+00  0.00000000000E+00 -0.70437089925E+03  0.70437089927E+03  0.50400001928E-02 0.  1.
    10030    2    1    2    0    0  0.00000000000E+00  0.00000000000E+00  0.26255636548E+03  0.16712981640E+04  0.16505458818E+04 0.  0.
        3    1    3    3  502    0  0.38923247233E+03  0.20308033103E+03  0.83887174462E+03  0.94681009315E+03  0.10100000352E+00 0. -1.
       -3    1    3    3    0  502 -0.38923247233E+03 -0.20308033103E+03 -0.57631537915E+03  0.72448807085E+03  0.10100000352E+00 0.  1.
</event>
<event>
 5   0  0.2261755E-04  0.1906059E+04  0.7818609E-02  0.8651846E-01
        1   -1    0    0  501    0  0.00000000000E+00  0.00000000000E+00  0.27283864380E+04  0.27283864380E+04  0.50400001928E-02 0.  1.
       -1   -1    0    0    0  501  0.00000000000E+00  0.00000000000E+00 -0.33289465959E+03  0.33289465962E+03  0.50400001928E-02 0. -1.
    10030    2    1    2    0    0  0.00000000000E+00  0.00000000000E+00  0.23954917784E+04  0.30612810976E+04  0.19060590490E+04 0.  0.
        1    1    3    3  502    0  0.70119964224E+03  0.17737581837E+03  0.20104209662E+03  0.75070702931E+03  0.50400001928E-02 0.  1.
       -1    1    3    3    0  502 -0.70119964224E+03 -0.17737581837E+03  0.21944496818E+04  0.23105740683E+04  0.50400001928E-02 0. -1.
</event>
<event>
 5   0  0.2510069E-04  0.1903332E+04  0.7818609E-02  0.8653200E-01
       -1   -1    0    0    0  501  0.00000000000E+00  0.00000000000E+00  0.16170414651E+04  0.16170414651E+04  0.50400001928E-02 0. -1.
        1   -1    0    0  501    0  0.00000000000E+00  0.00000000000E+00 -0.56007716082E+03  0.56007716084E+03  0.50400001928E-02 0.  1.
    10030    2    1    2    0    0  0.00000000000E+00  0.00000000000E+00  0.10569643042E+04  0.21771186259E+04  0.19033318079E+04 0.  0.
        4    1    3    3  502    0 -0.45299245732E+03 -0.34668269519E+03  0.13998161076E+04  0.15115812269E+04  0.12699999809E+01 0. -1.
       -4    1    3    3    0  502  0.45299245732E+03  0.34668269519E+03 -0.34285180335E+03  0.66553739902E+03  0.12699999809E+01 0.  1.
</event>
<event>
 5   0  0.4761944E-04  0.1694685E+04  0.7818609E-02  0.8764401E-01
       -2   -1    0    0    0  501  0.00000000000E+00  0.00000000000E+00  0.16002176759E+04  0.16002176759E+04  0.25500000920E-02 0. -1.
        2   -1    0    0  501    0  0.00000000000E+00  0.00000000000E+00 -0.44868233969E+03  0.44868233969E+03  0.25500000920E-02 0.  1.
    10030    2    1    2    0    0  0.00000000000E+00  0.00000000000E+00  0.11515353362E+04  0.20489000156E+04  0.16946851163E+04 0.  0.
        4    1    3    3  502    0  0.34023749774E+03 -0.74769819454E+03  0.82698011209E+03  0.11656379642E+04  0.12699999809E+01 0.  1.
       -4    1    3    3    0  502 -0.34023749774E+03  0.74769819454E+03  0.32455522416E+03  0.88326205139E+03  0.12699999809E+01 0. -1.
</event>
<event>
 5   0  0.4839293E-04  0.1909299E+04  0.7818609E-02  0.8650242E-01
        2   -1    0    0  501    0  0.00000000000E+00  0.00000000000E+00  0.79728237120E+03  0.79728237120E+03  0.25500000920E-02 0. -1.
       -2   -1    0    0    0  501  0.00000000000E+00  0.00000000000E+00 -0.11430773841E+04  0.11430773841E+04  0.25500000920E-02 0.  1.
    10030    2    1    2    0    0  0.00000000000E+00  0.00000000000E+00 -0.34579501290E+03  0.19403597553E+04  0.19092987689E+04 0.  0.
        5    1    3    3  502    0  0.23421199281E+03  0.89348997479E+03  0.72176518326E+02  0.92650479352E+03  0.46999998093E+01 0. -1.
       -5    1    3    3    0  502 -0.23421199281E+03 -0.89348997479E+03 -0.41797153122E+03  0.10138549618E+04  0.46999998093E+01 0.  1.
</event>
<event>
 5   0  0.2261755E-04  0.1890762E+04  0.7818609E-02  0.8659468E-01
       -1   -1    0    0    0  501  0.00000000000E+00  0.00000000000E+00  0.83748006171E+03  0.83748006173E+03  0.50400001928E-02 0. -1.
        1   -1    0    0  501    0  0.00000000000E+00  0.00000000000E+00 -0.10671838659E+04  0.10671838659E+04  0.50400001928E-02 0.  1.
    10030    2    1    2    0    0  0.00000000000E+00  0.00000000000E+00 -0.22970380416E+03  0.19046639276E+04  0.18907619733E+04 0.  0.
        1    1    3    3  502    0  0.22602903556E+03 -0.49014900558E+03  0.66700558122E+03  0.85803940352E+03  0.50400001928E-02 0. -1.
       -1    1    3    3    0  502 -0.22602903556E+03  0.49014900558E+03 -0.89670938537E+03  0.10466245241E+04  0.50400001928E-02 0.  1.
</event>
<event>
 5   0  0.4802635E-04  0.1701499E+04  0.7818609E-02  0.8760510E-01
       -2   -1    0    0    0  501  0.00000000000E+00  0.00000000000E+00  0.53302738470E+03  0.53302738470E+03  0.25500000920E-02 0. -1.
        2   -1    0    0  501    0  0.00000000000E+00  0.00000000000E+00 -0.13578558398E+04  0.13578558399E+04  0.25500000920E-02 0.  1.
    10030    2    1    2    0    0  0.00000000000E+00  0.00000000000E+00 -0.82482845515E+03  0.18908832246E+04  0.17014985714E+04 0.  0.
        3    1    3    3  502    0  0.81194683254E+03  0.13092402280E+02 -0.69431185711E+03  0.10684091141E+04  0.10100000352E+00 0.  1.
       -3    1    3    3    0  502 -0.81194683254E+03 -0.13092402280E+02 -0.13051659804E+03  0.82247411050E+03  0.10100000352E+00 0. -1.
</event>
<event>
 5   0  0.4973411E-04  0.1910146E+04  0.7818609E-02  0.8649823E-01
        2   -1    0    0  501    0  0.00000000000E+00  0.00000000000E+00  0.23976520381E+04  0.23976520381E+04  0.25500000920E-02 0.  1.
       -2   -1    0    0    0  501  0.00000000000E+00  0.00000000000E+00 -0.38044062521E+03  0.38044062522E+03  0.25500000920E-02 0. -1.
    10030    2    1    2    0    0  0.00000000000E+00  0.00000000000E+00  0.20172114128E+04  0.27780926633E+04  0.19101457959E+04 0.  0.
        1    1    3    3  502    0  0.91366061077E+03 -0.10447853351E+03  0.13835805061E+04  0.16613207073E+04  0.50400001928E-02 0. -1.
       -1    1    3    3    0  502 -0.91366061077E+03  0.10447853351E+03  0.63363090676E+03  0.11167719560E+04  0.50400001928E-02 0.  1.
</event>
<event>
 5   0  0.4829134E-04  0.1881871E+04  0.7818609E-02  0.8663934E-01
       -2   -1    0    0    0  501  0.00000000000E+00  0.00000000000E+00  0.93799831445E+03  0.93799831445E+03  0.25500000920E-02 0. -1.
        2   -1    0    0  501    0  0.00000000000E+00  0.00000000000E+00 -0.94388147417E+03  0.94388147417E+03  0.25500000920E-02 0.  1.
    10030    2    1    2    0    0  0.00000000000E+00  0.00000000000E+00 -0.58831597200E+01  0.18818797886E+04  0.18818705926E+04 0.  0.
        2    1    3    3  502    0  0.15587475104E+03 -0.87895643236E+03  0.29454581269E+03  0.94000988494E+03  0.25500000920E-02 0. -1.
       -2    1    3    3    0  502 -0.15587475104E+03  0.87895643236E+03 -0.30042897241E+03  0.94186990368E+03  0.25500000920E-02 0.  1.
</event>
<event>
 5   0  0.2376359E-04  0.1897267E+04  0.7818609E-02  0.8656218E-01
        1   -1    0    0  501    0  0.00000000000E+00  0.00000000000E+00  0.78598385114E+03  0.78598385116E+03  0.50400001928E-02 0.  1.
       -1   -1    0    0    0  501  0.00000000000E+00  0.00000000000E+00 -0.11449417192E+04  0.11449417192E+04  0.50400001928E-02 0. -1.
    10030    2    1    2    0    0  0.00000000000E+00  0.00000000000E+00 -0.35895786808E+03  0.19309255704E+04  0.18972671945E+04 0.  0.
        2    1    3    3  502    0  0.50527376575E+03  0.72525790669E+03  0.17102161625E+03  0.90030494989E+03  0.25500000920E-02 0.  1.
       -2    1    3    3    0  502 -0.50527376575E+03 -0.72525790669E+03 -0.52997948433E+03  0.10306206205E+04  0.25500000920E-02 0. -1.
</event>
<event>
 5   0  0.2510069E-04  0.1903578E+04  0.7818609E-02  0.8653078E-01
        1   -1    0    0  501    0  0.00000000000E+00  0.00000000000E+00  0.19596052363E+04  0.19596052363E+04  0.50400001928E-02 0. -1.
       -1   -1    0    0    0  501  0.00000000000E+00  0.00000000000E+00 -0.46228807680E+03  0.46228807682E+03  0.50400001928E-02 0.  1.
    10030    2    1    2    0    0  0.00000000000E+00  0.00000000000E+00  0.14973171595E+04  0.24218933132E+04  0.19035778272E+04 0.  0.
        4    1    3    3  502    0  0.67941838269E+03  0.61526410930E+03  0.10748731713E+04  0.14126263519E+04  0.12699999809E+01 0. -1.
       -4    1    3    3    0  502 -0.67941838269E+03 -0.61526410930E+03  0.42244398827E+03  0.10092669612E+04  0.12699999809E+01 0.  1.
</event>
<event>
 5   0  0.4839293E-04  0.1869528E+04  0.7818609E-02  0.8670175E-01
        2   -1    0    0  501    0  0.00000000000E+00  0.00000000000E+00  0.23234956706E+04  0.23234956706E+04  0.25500000920E-02 0.  1.
       -2   -1    0    0    0  501  0.00000000000E+00  0.00000000000E+00 -0.37606423171E+03  0.37606423172E+03  0.25500000920E-02 0. -1.
    10030    2    1    2    0    0  0.00000000000E+00  0.00000000000E+00  0.19474314388E+04  0.26995599023E+04  0.18695278701E+04 0.  0.
        5    1    3    3  502    0 -0.33211972308E+03 -0.64798151674E+03  0.12731957138E+03  0.73919951282E+03  0.46999998093E+01 0. -1.
       -5    1    3    3    0  502  0.33211972308E+03  0.64798151674E+03  0.18201118675E+04  0.19603603895E+04  0.46999998093E+01 0.  1.
</event>
<event>
 5   0  0.2376359E-04  0.1934284E+04  0.7818609E-02  0.8637977E-01
       -1   -1    0    0    0  501  0.00000000000E+00  0.00000000000E+00  0.66955452122E+03  0.66955452123E+03  0.50400001928E-02 0. -1.
        1   -1    0    0  501    0  0.00000000000E+00  0.00000000000E+00 -0.13969945258E+04  0.13969945258E+04  0.50400001928E-02 0.  1.
    10030    2    1    2    0    0  0.00000000000E+00  0.00000000000E+00 -0.72744000455E+03  0.20665490470E+04  0.19342843647E+04 0.  0.
        2    1    3    3  502    0 -0.75617283701E+03 -0.86566616297E+02 -0.10012414995E+04  0.12576866377E+04  0.25500000920E-02 0.  1.
       -2    1    3    3    0  502  0.75617283701E+03  0.86566616297E+02  0.27380149492E+03  0.80886240926E+03  0.25500000920E-02 0. -1.
</event>
<event>
 5   0  0.2355414E-04  0.1881147E+04  0.7818609E-02  0.8664298E-01
        1   -1    0    0  501    0  0.00000000000E+00  0.00000000000E+00  0.83702714215E+03  0.83702714216E+03  0.50400001928E-02 0. -1.
       -1   -1    0    0    0  501  0.00000000000E+00  0.00000000000E+00 -0.10569289122E+04  0.10569289122E+04  0.50400001928E-02 0.  1.
    10030    2    1    2    0    0  0.00000000000E+00  0.00000000000E+00 -0.21990177006E+03  0.18939560544E+04  0.18811466576E+04 0.  0.
        5    1    3    3  502    0 -0.15954235609E+03 -0.26144898094E+03 -0.10053020715E+04  0.10509346688E+04  0.46999998093E+01 0.  1.
       -5    1    3    3    0  502  0.15954235609E+03  0.26144898094E+03  0.78540030148E+03  0.84302138560E+03  0.46999998093E+01 0. -1.
</event>
<event>
 5   0  0.2510069E-04  0.1882837E+04  0.7818609E-02  0.8663447E-01
       -1   -1    0    0    0  501  0.00000000000E+00  0.00000000000E+00  0.50683925916E+03  0.50683925919E+03  0.50400001928E-02 0. -1.
        1   -1    0    0  501    0  0.00000000000E+00  0.00000000000E+00 -0.17486189491E+04  0.17486189491E+04  0.50400001928E-02 0.  1.
    10030    2    1    2    0    0  0.00000000000E+00  0.00000000000E+00 -0.12417796900E+04  0.22554582083E+04  0.18828369369E+04 0.  0.
        4    1    3    3  502    0 -0.67938900282E+03  0.38027744063E+03 -0.12548593573E+04  0.14767714680E+04  0.12699999809E+01 0.  1.
       -4    1    3    3    0  502  0.67938900282E+03 -0.38027744063E+03  0.13079667383E+02  0.77868674035E+03  0.12699999809E+01 0. -1.
</event>
<event>
 5   0  0.2317458E-04  0.1899466E+04  0.7818609E-02  0.8655122E-01
        1   -1    0    0  501    0  0.00000000000E+00  0.00000000000E+00  0.11115689845E+04  0.11115689845E+04  0.50400001928E-02 0.  1.
       -1   -1    0    0    0  501  0.00000000000E+00  0.00000000000E+00 -0.81145889693E+03  0.81145889694E+03  0.50400001928E-02 0. -1.
    10030    2    1    2    0    0  0.00000000000E+00  0.00000000000E+00  0.30011008757E+03  0.19230278815E+04  0.18994657586E+04 0.  0.
        3    1    3    3  502    0  0.44785394115E+03  0.79842133964E+03  0.40606080890E+03  0.10014665141E+04  0.10100000352E+00 0.  1.
       -3    1    3    3    0  502 -0.44785394115E+03 -0.79842133964E+03 -0.10595072134E+03  0.92156136732E+03  0.10100000352E+00 0. -1.
</event>
<event>
 5   0  0.2355414E-04  0.1931662E+04  0.7818609E-02  0.8639255E-01
        1   -1    0    0  501    0  0.00000000000E+00  0.00000000000E+00  0.17113902540E+04  0.17113902540E+04  0.50400001928E-02 0.  1.
       -1   -1    0    0    0  501  0.00000000000E+00  0.00000000000E+00 -0.54507102225E+03  0.54507102228E+03  0.50400001928E-02 0. -1.
    10030    2    1    2    0    0  0.00000000000E+00  0.00000000000E+00  0.11663192318E+04  0.22564612763E+04  0.19316617046E+04 0.  0.
        5    1    3    3  502    0 -0.74736460305E+03 -0.52248991248E+03  0.95487505624E+03  0.13203628371E+04  0.46999998093E+01 0.  1.
       -5    1    3    3    0  502  0.74736460305E+03  0.52248991248E+03  0.21144417552E+03  0.93609843921E+03  0.46999998093E+01 0. -1.
</event>
<event>
 5   0  0.2261755E-04  0.1884744E+04  0.7818609E-02  0.8662488E-01
       -1   -1    0    0    0  501  0.00000000000E+00  0.00000000000E+00  0.88567742832E+03  0.88567742833E+03  0.50400001928E-02 0.  1.
        1   -1    0    0  501    0  0.00000000000E+00  0.00000000000E+00 -0.10026955899E+04  0.10026955899E+04  0.50400001928E-02 0. -1.
    10030    2    1    2    0    0  0.00000000000E+00  0.00000000000E+00 -0.11701816161E+03  0.18883730183E+04  0.18847438569E+04 0.  0.
        1    1    3    3  502    0  0.92893138963E+03  0.29987788136E+02 -0.21453966828E+03  0.95385536816E+03  0.50400001928E-02 0. -1.
       -1    1    3    3    0  502 -0.92893138963E+03 -0.29987788136E+02  0.97521506668E+02  0.93451765011E+03  0.50400001928E-02 0.  1.
</event>
<event>
 5   0  0.1729375E-04  0.1950842E+04  0.7818609E-02  0.8629955E-01
       -3   -1    0    0    0  501  0.00000000000E+00  0.00000000000E+00  0.15206922269E+04  0.15206922303E+04  0.10100000352E+00 0.  1.
        3   -1    0    0  501    0  0.00000000000E+00  0.00000000000E+00 -0.62566632409E+03  0.62566633225E+03  0.10100000352E+00 0. -1.
    10030    2    1    2    0    0  0.00000000000E+00  0.00000000000E+00  0.89502590282E+03  0.21463585625E+04  0.19508417958E+04 0.  0.
        5    1    3    3  502    0  0.24771900578E+03 -0.61931532191E+03  0.12305336354E+04  0.13996968571E+04  0.46999998093E+01 0.  1.
       -5    1    3    3    0  502 -0.24771900578E+03  0.61931532191E+03 -0.33550773258E+03  0.74666170546E+03  0.46999998093E+01 0. -1.
</event>
<event>
 5   0  0.4973411E-04  0.1677635E+04  0.7818609E-02  0.8774223E-01
        2   -1    0    0  501    0  0.00000000000E+00  0.00000000000E+00  0.14297500623E+04  0.14297500623E+04  0.25500000920E-02 0. -1.
       -2   -1    0    0    0  501  0.00000000000E+00  0.00000000000E+00 -0.49212459726E+03  0.49212459726E+03  0.25500000920E-02 0.  1.
    10030    2    1    2    0    0  0.00000000000E+00  0.00000000000E+00  0.93762546504E+03  0.19218746596E+04  0.16776354474E+04 0.  0.
        1    1    3    3  502    0  0.18741544472E+03  0.47763652658E+03  0.12290137143E+04  0.13318167706E+04  0.50400001928E-02 0. -1.
       -1    1    3    3    0  502 -0.18741544472E+03 -0.47763652658E+03 -0.29138824930E+03  0.59005788894E+03  0.50400001928E-02 0.  1.
</event>
<event>
 5   0  0.2261755E-04  0.1805699E+04  0.7818609E-02  0.8703275E-01
        1   -1    0    0  501    0  0.00000000000E+00  0.00000000000E+00  0.87376861932E+03  0.87376861933E+03  0.50400001928E-02 0. -1.
       -1   -1    0    0    0  501  0.00000000000E+00  0.00000000000E+00 -0.93289785346E+03  0.93289785348E+03  0.50400001928E-02 0.  1.
    10030    2    1    2    0    0  0.00000000000E+00  0.00000000000E+00 -0.59129234144E+02  0.18066664728E+04  0.18056986121E+04 0.  0.
        1    1    3    3  502    0 -0.65639262862E+03  0.39641964943E+02  0.58940588564E+03  0.88307534579E+03  0.50400001928E-02 0. -1.
       -1    1    3    3    0  502  0.65639262862E+03 -0.39641964943E+02 -0.64853511979E+03  0.92359112702E+03  0.50400001928E-02 0.  1.
</event>
<event>
 5   0  0.4761944E-04  0.1941360E+04  0.7818609E-02  0.8634538E-01
       -2   -1    0    0    0  501  0.00000000000E+00  0.00000000000E+00  0.36866754446E+03  0.36866754447E+03  0.25500000920E-02 0. -1.
        2   -1    0    0  501    0  0.00000000000E+00  0.00000000000E+00 -0.25557444317E+04  0.25557444317E+04  0.25500000920E-02 0.  1.
    10030    2    1    2    0    0  0.00000000000E+00  0.00000000000E+00 -0.21870768872E+04  0.29244119762E+04  0.19413603724E+04 0.  0.
        4    1    3    3  502    0 -0.54107959985E+03  0.16167110012E+02 -0.23072577810E+04  0.23699089834E+04  0.12699999809E+01 0.  1.
       -4    1    3    3    0  502  0.54107959985E+03 -0.16167110012E+02  0.12018089377E+03  0.55450299273E+03  0.12699999809E+01 0. -1.
</event>
<event>
 5   0  0.4839293E-04  0.1915809E+04  0.7818609E-02  0.8647027E-01
        2   -1    0    0  501    0  0.00000000000E+00  0.00000000000E+00  0.21821971165E+04  0.21821971165E+04  0.25500000920E-02 0.  1.
       -2   -1    0    0    0  501  0.00000000000E+00  0.00000000000E+00 -0.42048515385E+03  0.42048515385E+03  0.25500000920E-02 0. -1.
    10030    2    1    2    0    0  0.00000000000E+00  0.00000000000E+00  0.17617119627E+04  0.26026822704E+04  0.19158094793E+04 0.  0.
        5    1    3    3  502    0  0.34730146541E+03  0.53616683221E+03  0.18505317270E+04  0.19576983788E+04  0.46999998093E+01 0.  1.
       -5    1    3    3    0  502 -0.34730146541E+03 -0.53616683221E+03 -0.88819764311E+02  0.64498389156E+03  0.46999998093E+01 0. -1.
</event>
<event>
 5   0  0.2376359E-04  0.1908014E+04  0.7818609E-02  0.8650878E-01
        1   -1    0    0  501    0  0.00000000000E+00  0.00000000000E+00  0.19210606928E+04  0.19210606928E+04  0.50400001928E-02 0. -1.
       -1   -1    0    0    0  501  0.00000000000E+00  0.00000000000E+00 -0.47376373113E+03  0.47376373115E+03  0.50400001928E-02 0.  1.
    10030    2    1    2    0    0  0.00000000000E+00  0.00000000000E+00  0.14472969617E+04  0.23948244240E+04  0.19080135027E+04 0.  0.
        2    1    3    3  502    0 -0.57817637357E+02 -0.29822428996E+03  0.18587340595E+04  0.18833939870E+04  0.25500000920E-02 0. -1.
       -2    1    3    3    0  502  0.57817637357E+02  0.29822428996E+03 -0.41143709786E+03  0.51143043693E+03  0.25500000920E-02 0.  1.
</event>
<event>
 5   0  0.2261755E-04  0.1212039E+04  0.7818609E-02  0.9102383E-01
       -1   -1    0    0    0  501  0.00000000000E+00  0.00000000000E+00  0.54559226564E+03  0.54559226566E+03  0.50400001928E-02 0.  1.
        1   -1    0    0  501    0  0.00000000000E+00  0.00000000000E+00 -0.67313959465E+03  0.67313959467E+03  0.50400001928E-02 0. -1.
    10030    2    1    2    0    0  0.00000000000E+00  0.00000000000E+00 -0.12754732901E+03  0.12187318603E+04  0.12120392016E+04 0.  0.
        1    1    3    3  502    0 -0.42828649475E+03  0.27560145204E+03 -0.39402945587E+03  0.64392910640E+03  0.50400001928E-02 0. -1.
       -1    1    3    3    0  502  0.42828649475E+03 -0.27560145204E+03  0.26648212685E+03  0.57480275392E+03  0.50400001928E-02 0.  1.
</event>
<event>
 5   0  0.4829134E-04  0.1913859E+04  0.7818609E-02  0.8647989E-01
       -2   -1    0    0    0  501  0.00000000000E+00  0.00000000000E+00  0.36133564779E+03  0.36133564779E+03  0.25500000920E-02 0. -1.
        2   -1    0    0  501    0  0.00000000000E+00  0.00000000000E+00 -0.25342471215E+04  0.25342471215E+04  0.25500000920E-02 0.  1.
    10030    2    1    2    0    0  0.00000000000E+00  0.00000000000E+00 -0.21729114737E+04  0.28955827693E+04  0.19138587464E+04 0.  0.
        2    1    3    3  502    0 -0.24140207339E+03 -0.92410048747E+03 -0.11756707664E+04  0.15147403814E+04  0.25500000920E-02 0.  1.
       -2    1    3    3    0  502  0.24140207339E+03  0.92410048747E+03 -0.99724070735E+03  0.13808423880E+04  0.25500000920E-02 0. -1.
</event>
<event>
 5   0  0.2317458E-04  0.1887731E+04  0.7818609E-02  0.8660988E-01
        1   -1    0    0  501    0  0.00000000000E+00  0.00000000000E+00  0.16496040815E+04  0.16496040815E+04  0.50400001928E-02 0. -1.
       -1   -1    0    0    0  501  0.00000000000E+00  0.00000000000E+00 -0.54005796096E+03  0.54005796098E+03  0.50400001928E-02 0.  1.
    10030    2    1    2    0    0  0.00000000000E+00  0.00000000000E+00  0.11095461206E+04  0.21896620425E+04  0.18877307188E+04 0.  0.
        3    1    3    3  502    0  0.11057127857E+03  0.91912856988E+03  0.76821055627E+03  0.12029841248E+04  0.10100000352E+00 0. -1.
       -3    1    3    3    0  502 -0.11057127857E+03 -0.91912856988E+03  0.34133556431E+03  0.98667791771E+03  0.10100000352E+00 0.  1.
</event>
<event>
 5   0  0.2317458E-04  0.1877949E+04  0.7818609E-02  0.8665911E-01
       -1   -1    0    0    0  501  0.00000000000E+00  0.00000000000E+00  0.54907632884E+03  0.54907632886E+03  0.50400001928E-02 0.  1.
        1   -1    0    0  501    0  0.00000000000E+00  0.00000000000E+00 -0.16057381283E+04  0.16057381284E+04  0.50400001928E-02 0. -1.
    10030    2    1    2    0    0  0.00000000000E+00  0.00000000000E+00 -0.10566617995E+04  0.21548144572E+04  0.18779486645E+04 0.  0.
        3    1    3    3  502    0 -0.41113428263E+03  0.18610584078E+02  0.44007209268E+03  0.60252901104E+03  0.10100000352E+00 0.  1.
       -3    1    3    3    0  502  0.41113428263E+03 -0.18610584078E+02 -0.14967338922E+04  0.15522854462E+04  0.10100000352E+00 0. -1.
</event>
<event>
 5   0  0.4829134E-04  0.1871706E+04  0.7818609E-02  0.8669070E-01
       -2   -1    0    0    0  501  0.00000000000E+00  0.00000000000E+00  0.85883346482E+03  0.85883346482E+03  0.25500000920E-02 0.  1.
        2   -1    0    0  501    0  0.00000000000E+00  0.00000000000E+00 -0.10197791095E+04  0.10197791095E+04  0.25500000920E-02 0. -1.
    10030    2    1    2    0    0  0.00000000000E+00  0.00000000000E+00 -0.16094564470E+03  0.18786125743E+04  0.18717055602E+04 0.  0.
        2    1    3    3  502    0  0.86626221800E+03 -0.25408166195E+03 -0.32806654945E+03  0.96051828829E+03  0.25500000920E-02 0. -1.
       -2    1    3    3    0  502 -0.86626221800E+03  0.25408166195E+03  0.16712090474E+03  0.91809428605E+03  0.25500000920E-02 0.  1.
</event>
<event>
 5   0  0.2355414E-04  0.1884455E+04  0.7818609E-02  0.8662633E-01
       -1   -1    0    0    0  501  0.00000000000E+00  0.00000000000E+00  0.36838300590E+03  0.36838300593E+03  0.50400001928E-02 0.  1.
        1   -1    0    0  501    0  0.00000000000E+00  0.00000000000E+00 -0.24099714631E+04  0.24099714631E+04  0.50400001928E-02 0. -1.
    10030    2    1    2    0    0  0.00000000000E+00  0.00000000000E+00 -0.20415884572E+04  0.27783544690E+04  0.18844548620E+04 0.  0.
        5    1    3    3  502    0 -0.77234176635E+03 -0.43872189703E+03 -0.14841773795E+04  0.17296801123E+04  0.46999998093E+01 0. -1.
       -5    1    3    3    0  502  0.77234176635E+03  0.43872189703E+03 -0.55741107770E+03  0.10486743568E+04  0.46999998093E+01 0.  1.
</event>
<event>
 5   0  0.4802635E-04  0.1861323E+04  0.7818609E-02  0.8674352E-01
        2   -1    0    0  501    0  0.00000000000E+00  0.00000000000E+00  0.93063346833E+03  0.93063346833E+03  0.25500000920E-02 0.  1.
       -2   -1    0    0    0  501  0.00000000000E+00  0.00000000000E+00 -0.93068923650E+03  0.93068923650E+03  0.25500000920E-02 0. -1.
    10030    2    1    2    0    0  0.00000000000E+00  0.00000000000E+00 -0.55768167662E-01  0.18613227048E+04  0.18613227040E+04 0.  0.
        3    1    3    3  502    0 -0.59058794146E+03 -0.73754079827E+02 -0.71549749313E+03  0.93068278902E+03  0.10100000352E+00 0. -1.
       -3    1    3    3    0  502  0.59058794146E+03  0.73754079827E+02  0.71544172497E+03  0.93063991582E+03  0.10100000352E+00 0.  1.
</event>
<event>
 5   0  0.4802635E-04  0.1854646E+04  0.7818609E-02  0.8677767E-01
       -2   -1    0    0    0  501  0.00000000000E+00  0.00000000000E+00  0.62495451824E+03  0.62495451824E+03  0.25500000920E-02 0.  1.
        2   -1    0    0  501    0  0.00000000000E+00  0.00000000000E+00 -0.13759853362E+04  0.13759853362E+04  0.25500000920E-02 0. -1.
    10030    2    1    2    0    0  0.00000000000E+00  0.00000000000E+00 -0.75103081792E+03  0.20009398544E+04  0.18546463306E+04 0.  0.
        3    1    3    3  502    0 -0.44740921863E+03  0.72536404884E+03  0.18829767924E+02  0.85245679223E+03  0.10100000352E+00 0.  1.
       -3    1    3    3    0  502  0.44740921863E+03 -0.72536404884E+03 -0.76986058584E+03  0.11484830622E+04  0.10100000352E+00 0. -1.
</event>
<event>
 5   0  0.4829134E-04  0.1869692E+04  0.7818609E-02  0.8670092E-01
        2   -1    0    0  501    0  0.00000000000E+00  0.00000000000E+00  0.10667279784E+04  0.10667279784E+04  0.25500000920E-02 0. -1.
       -2   -1    0    0    0  501  0.00000000000E+00  0.00000000000E+00 -0.81926849562E+03  0.81926849563E+03  0.25500000920E-02 0.  1.
    10030    2    1    2    0    0  0.00000000000E+00  0.00000000000E+00  0.24745948282E+03  0.18859964741E+04  0.18696915533E+04 0.  0.
        2    1    3    3  502    0  0.48106786039E+02  0.79196778672E+03 -0.37495933158E+03  0.87756580289E+03  0.25500000920E-02 0.  1.
       -2    1    3    3    0  502 -0.48106786039E+02 -0.79196778672E+03  0.62241881440E+03  0.10084306712E+04  0.25500000920E-02 0. -1.
</event>
<event>
 5   0  0.2510069E-04  0.2056214E+04  0.7818609E-02  0.8580781E-01
        1   -1    0    0  501    0  0.00000000000E+00  0.00000000000E+00  0.74296703499E+03  0.74296703501E+03  0.50400001928E-02 0. -1.
       -1   -1    0    0    0  501  0.00000000000E+00  0.00000000000E+00 -0.14226792594E+04  0.14226792594E+04  0.50400001928E-02 0.  1.
    10030    2    1    2    0    0  0.00000000000E+00  0.00000000000E+00 -0.67971222443E+03  0.21656462944E+04  0.20562137935E+04 0.  0.
        4    1    3    3  502    0  0.23843836072E+03  0.74420448698E+03 -0.10434743449E+04  0.13036615710E+04  0.12699999809E+01 0.  1.
       -4    1    3    3    0  502 -0.23843836072E+03 -0.74420448698E+03  0.36376212045E+03  0.86198472346E+03  0.12699999809E+01 0. -1.
</event>
<event>
 5   0  0.4973411E-04  0.9940359E+03  0.7818609E-02  0.9315110E-01
       -2   -1    0    0    0  501  0.00000000000E+00  0.00000000000E+00  0.13530154917E+03  0.13530154919E+03  0.25500000920E-02 0.  1.
        2   -1    0    0  501    0  0.00000000000E+00  0.00000000000E+00 -0.18257502503E+04  0.18257502503E+04  0.25500000920E-02 0. -1.
    10030    2    1    2    0    0  0.00000000000E+00  0.00000000000E+00 -0.16904487011E+04  0.19610517995E+04  0.99403588926E+03 0.  0.
        1    1    3    3  502    0 -0.25662496253E+03 -0.63013998894E+02 -0.14764780892E+02  0.26466041304E+03  0.50400001928E-02 0.  1.
       -1    1    3    3    0  502  0.25662496253E+03  0.63013998894E+02 -0.16756839203E+04  0.16963913865E+04  0.50400001928E-02 0. -1.
</event>
<event>
 5   0  0.4829134E-04  0.2035673E+04  0.7818609E-02  0.8590122E-01
       -2   -1    0    0    0  501  0.00000000000E+00  0.00000000000E+00  0.56609399296E+03  0.56609399297E+03  0.25500000920E-02 0.  1.
        2   -1    0    0  501    0  0.00000000000E+00  0.00000000000E+00 -0.18300689268E+04  0.18300689268E+04  0.25500000920E-02 0. -1.
    10030    2    1    2    0    0  0.00000000000E+00  0.00000000000E+00 -0.12639749338E+04  0.23961629197E+04  0.20356728874E+04 0.  0.
        2    1    3    3  502    0 -0.10057694054E+04 -0.12786946796E+03 -0.52625700393E+03  0.11423086851E+04  0.25500000920E-02 0. -1.
       -2    1    3    3    0  502  0.10057694054E+04  0.12786946796E+03 -0.73771792986E+03  0.12538542347E+04  0.25500000920E-02 0.  1.
</event>
<event>
 5   0  0.4973411E-04  0.1871735E+04  0.7818609E-02  0.8669055E-01
        2   -1    0    0  501    0  0.00000000000E+00  0.00000000000E+00  0.11920642369E+04  0.11920642369E+04  0.25500000920E-02 0. -1.
       -2   -1    0    0    0  501  0.00000000000E+00  0.00000000000E+00 -0.73473195345E+03  0.73473195346E+03  0.25500000920E-02 0.  1.
    10030    2    1    2    0    0  0.00000000000E+00  0.00000000000E+00  0.45733228342E+03  0.19267961903E+04  0.18717346878E+04 0.  0.
        1    1    3    3  502    0 -0.43605817952E+03  0.26729498230E+03  0.10354656177E+04  0.11548949688E+04  0.50400001928E-02 0. -1.
       -1    1    3    3    0  502  0.43605817952E+03 -0.26729498230E+03 -0.57813333431E+03  0.77190122151E+03  0.50400001928E-02 0.  1.
</event>
<event>
 5   0  0.4802635E-04  0.1551735E+04  0.7818609E-02  0.8850761E-01
       -2   -1    0    0    0  501  0.00000000000E+00  0.00000000000E+00  0.44643654500E+03  0.44643654500E+03  0.25500000920E-02 0. -1.
        2   -1    0    0  501    0  0.00000000000E+00  0.00000000000E+00 -0.13483888097E+04  0.13483888097E+04  0.25500000920E-02 0.  1.
    10030    2    1    2    0    0  0.00000000000E+00  0.00000000000E+00 -0.90195226471E+03  0.17948253547E+04  0.15517345669E+04 0.  0.
        3    1    3    3  502    0  0.34461746011E+02  0.47544559891E+03  0.25707766102E+03  0.54159492562E+03  0.10100000352E+00 0. -1.
       -3    1    3    3    0  502 -0.34461746011E+02 -0.47544559891E+03 -0.11590299257E+04  0.12532304291E+04  0.10100000352E+00 0.  1.
</event>
<event>
 5   0  0.2376359E-04  0.1888389E+04  0.7818609E-02  0.8660658E-01
        1   -1    0    0  501    0  0.00000000000E+00  0.00000000000E+00  0.75474121731E+03  0.75474121732E+03  0.50400001928E-02 0. -1.
       -1   -1    0    0    0  501  0.00000000000E+00  0.00000000000E+00 -0.11812039732E+04  0.11812039732E+04  0.50400001928E-02 0.  1.
    10030    2    1    2    0    0  0.00000000000E+00  0.00000000000E+00 -0.42646275593E+03  0.19359451906E+04  0.18883890750E+04 0.  0.
        2    1    3    3  502    0 -0.60451688047E+02 -0.90288339920E+03  0.63094042124E+02  0.90710181198E+03  0.25500000920E-02 0.  1.
       -2    1    3    3    0  502  0.60451688047E+02  0.90288339920E+03 -0.48955679805E+03  0.10288433786E+04  0.25500000920E-02 0. -1.
</event>
<event>
 5   0  0.4802635E-04  0.1562041E+04  0.7818609E-02  0.8844213E-01
       -2   -1    0    0    0  501  0.00000000000E+00  0.00000000000E+00  0.29588980167E+03  0.29588980168E+03  0.25500000920E-02 0.  1.
        2   -1    0    0  501    0  0.00000000000E+00  0.00000000000E+00 -0.20615543946E+04  0.20615543946E+04  0.25500000920E-02 0. -1.
    10030    2    1    2    0    0  0.00000000000E+00  0.00000000000E+00 -0.17656645929E+04  0.23574441962E+04  0.15620408714E+04 0.  0.
        3    1    3    3  502    0 -0.57521584258E+03  0.42408781721E+03 -0.13583385360E+04  0.15348639454E+04  0.10100000352E+00 0. -1.
       -3    1    3    3    0  502  0.57521584258E+03 -0.42408781721E+03 -0.40732605688E+03  0.82258025084E+03  0.10100000352E+00 0.  1.
</event>
<event>
 5   0  0.4761944E-04  0.1774928E+04  0.7818609E-02  0.8719747E-01
       -2   -1    0    0    0  501  0.00000000000E+00  0.00000000000E+00  0.54868186090E+03  0.54868186091E+03  0.25500000920E-02 0.  1.
        2   -1    0    0  501    0  0.00000000000E+00  0.00000000000E+00 -0.14354255982E+04  0.14354255982E+04  0.25500000920E-02 0. -1.
    10030    2    1    2    0    0  0.00000000000E+00  0.00000000000E+00 -0.88674373725E+03  0.19841074591E+04  0.17749275911E+04 0.  0.
        4    1    3    3  502    0  0.29020973737E+02 -0.15011628730E+03 -0.14205907136E+04  0.14287955434E+04  0.12699999809E+01 0. -1.
       -4    1    3    3    0  502 -0.29020973737E+02  0.15011628730E+03  0.53384697630E+03  0.55531191562E+03  0.12699999809E+01 0.  1.
</event>
<event>
 5   0  0.2261755E-04  0.1829472E+04  0.7818609E-02  0.8690782E-01
        1   -1    0    0  501    0  0.00000000000E+00  0.00000000000E+00  0.98232595525E+03  0.98232595526E+03  0.50400001928E-02 0.  1.
       -1   -1    0    0    0  501  0.00000000000E+00  0.00000000000E+00 -0.85179641872E+03  0.85179641873E+03  0.50400001928E-02 0. -1.
    10030    2    1    2    0    0  0.00000000000E+00  0.00000000000E+00  0.13052953653E+03  0.18341223740E+04  0.18294717606E+04 0.  0.
        1    1    3    3  502    0  0.19795779887E+03 -0.25825378525E+03 -0.79181160636E+03  0.85606537585E+03  0.50400001928E-02 0. -1.
       -1    1    3    3    0  502 -0.19795779887E+03  0.25825378525E+03  0.92234114289E+03  0.97805699815E+03  0.50400001928E-02 0.  1.
</event>
<event>
 5   0  0.2376359E-04  0.1860703E+04  0.7818609E-02  0.8674668E-01
        1   -1    0    0  501    0  0.00000000000E+00  0.00000000000E+00  0.18161706970E+04  0.18161706970E+04  0.50400001928E-02 0.  1.
       -1   -1    0    0    0  501  0.00000000000E+00  0.00000000000E+00 -0.47658178483E+03  0.47658178486E+03  0.50400001928E-02 0. -1.
    10030    2    1    2    0    0  0.00000000000E+00  0.00000000000E+00  0.13395889122E+04  0.22927524819E+04  0.18607029557E+04 0.  0.
        2    1    3    3  502    0 -0.36150661005E+03 -0.55331448962E+02  0.17238849391E+04  0.17622507998E+04  0.25500000920E-02 0.  1.
       -2    1    3    3    0  502  0.36150661005E+03  0.55331448962E+02 -0.38429602689E+03  0.53050168204E+03  0.25500000920E-02 0. -1.
</event>
<event>
 5   0  0.2355414E-04  0.2051578E+04  0.7818609E-02  0.8582879E-01
        1   -1    0    0  501    0  0.00000000000E+00  0.00000000000E+00  0.11667163248E+04  0.11667163248E+04  0.50400001928E-02 0. -1.
       -1   -1    0    0    0  501  0.00000000000E+00  0.00000000000E+00 -0.90188459643E+03  0.90188459645E+03  0.50400001928E-02 0.  1.
    10030    2    1    2    0    0  0.00000000000E+00  0.00000000000E+00  0.26483172840E+03  0.20686009213E+04  0.20515783990E+04 0.  0.
        5    1    3    3  502    0 -0.89953579096E+02  0.36314058117E+03 -0.83063138327E+03  0.91100675791E+03  0.46999998093E+01 0.  1.
       -5    1    3    3    0  502  0.89953579096E+02 -0.36314058117E+03  0.10954631117E+04  0.11575941634E+04  0.46999998093E+01 0. -1.
</event>
<event>
 5   0  0.1729375E-04  0.1729122E+04  0.7818609E-02  0.8744927E-01
        3   -1    0    0  501    0  0.00000000000E+00  0.00000000000E+00  0.77666498196E+03  0.77666498853E+03  0.10100000352E+00 0. -1.
       -3   -1    0    0    0  501  0.00000000000E+00  0.00000000000E+00 -0.96240444918E+03  0.96240445448E+03  0.10100000352E+00 0.  1.
    10030    2    1    2    0    0  0.00000000000E+00  0.00000000000E+00 -0.18573946722E+03  0.17390694430E+04  0.17291221408E+04 0.  0.
        3    1    3    3  502    0  0.20647441570E+03  0.49219404184E+03  0.59117466516E+03  0.79647608507E+03  0.10100000352E+00 0. -1.
       -3    1    3    3    0  502 -0.20647441570E+03 -0.49219404184E+03 -0.77691413237E+03  0.94259335794E+03  0.10100000352E+00 0.  1.
</event>
<event>
 5   0  0.2317458E-04  0.1859182E+04  0.7818609E-02  0.8675445E-01
        1   -1    0    0  501    0  0.00000000000E+00  0.00000000000E+00  0.16042162733E+04  0.16042162733E+04  0.50400001928E-02 0.  1.
       -1   -1    0    0    0  501  0.00000000000E+00  0.00000000000E+00 -0.53866758138E+03  0.53866758140E+03  0.50400001928E-02 0. -1.
    10030    2    1    2    0    0  0.00000000000E+00  0.00000000000E+00  0.10655486919E+04  0.21428838547E+04  0.18591818630E+04 0.  0.
        3    1    3    3  502    0  0.42099817854E+03  0.82878879968E+03  0.53622231130E+03  0.10731564276E+04  0.10100000352E+00 0. -1.
       -3    1    3    3    0  502 -0.42099817854E+03 -0.82878879968E+03  0.52932638062E+03  0.10697274271E+04  0.10100000352E+00 0.  1.
</event>
<event>
 5   0  0.4761944E-04  0.1890063E+04  0.7818609E-02  0.8659818E-01
       -2   -1    0    0    0  501  0.00000000000E+00  0.00000000000E+00  0.34209797857E+03  0.34209797858E+03  0.25500000920E-02 0.  1.
        2   -1    0    0  501    0  0.00000000000E+00  0.00000000000E+00 -0.26106108953E+04  0.26106108953E+04  0.25500000920E-02 0. -1.
    10030    2    1    2    0    0  0.00000000000E+00  0.00000000000E+00 -0.22685129167E+04  0.29527088739E+04  0.18900631843E+04 0.  0.
        4    1    3    3  502    0  0.69271773593E+03  0.19318650816E+03 -0.17643866524E+03  0.74048031986E+03  0.12699999809E+01 0.  1.
       -4    1    3    3    0  502 -0.69271773593E+03 -0.19318650816E+03 -0.20920742515E+04  0.22122285540E+04  0.12699999809E+01 0. -1.
</event>
<event>
 5   0  0.2261755E-04  0.1927394E+04  0.7818609E-02  0.8641340E-01
       -1   -1    0    0    0  501  0.00000000000E+00  0.00000000000E+00  0.55234924711E+03  0.55234924713E+03  0.50400001928E-02 0. -1.
        1   -1    0    0  501    0  0.00000000000E+00  0.00000000000E+00 -0.16813845882E+04  0.16813845882E+04  0.50400001928E-02 0.  1.
    10030    2    1    2    0    0  0.00000000000E+00  0.00000000000E+00 -0.11290353411E+04  0.22337338354E+04  0.19273935887E+04 0.  0.
        1    1    3    3  502    0 -0.41087384762E+03  0.62129295547E+03  0.14413349474E+03  0.75868090757E+03  0.50400001928E-02 0. -1.
       -1    1    3    3    0  502  0.41087384762E+03 -0.62129295547E+03 -0.12731688358E+04  0.14750529278E+04  0.50400001928E-02 0.  1.
</event>
<event>
 5   0  0.4839293E-04  0.1892869E+04  0.7818609E-02  0.8658414E-01
       -2   -1    0    0    0  501  0.00000000000E+00  0.00000000000E+00  0.97660051311E+03  0.97660051311E+03  0.25500000920E-02 0.  1.
        2   -1    0    0  501    0  0.00000000000E+00  0.00000000000E+00 -0.91720036976E+03  0.91720036977E+03  0.25500000920E-02 0. -1.
    10030    2    1    2    0    0  0.00000000000E+00  0.00000000000E+00  0.59400143347E+02  0.18938008829E+04  0.18928690940E+04 0.  0.
        5    1    3    3  502    0  0.67678809543E+03 -0.39802572988E+03 -0.49900083625E+03  0.93031743633E+03  0.46999998093E+01 0. -1.
       -5    1    3    3    0  502 -0.67678809543E+03  0.39802572988E+03  0.55840097960E+03  0.96348344655E+03  0.46999998093E+01 0.  1.
</event>
<event>
 5   0  0.4839293E-04  0.1858959E+04  0.7818609E-02  0.8675559E-01
       -2   -1    0    0    0  501  0.00000000000E+00  0.00000000000E+00  0.57783309405E+03  0.57783309405E+03  0.25500000920E-02 0.  1.
        2   -1    0    0  501    0  0.00000000000E+00  0.00000000000E+00 -0.14951242765E+04  0.14951242765E+04  0.25500000920E-02 0. -1.
    10030    2    1    2    0    0  0.00000000000E+00  0.00000000000E+00 -0.91729118243E+03  0.20729573705E+04  0.18589591568E+04 0.  0.
        5    1    3    3  502    0  0.65990155221E+03 -0.65298915992E+03 -0.50907669940E+03  0.10587946342E+04  0.46999998093E+01 0. -1.
       -5    1    3    3    0  502 -0.65990155221E+03  0.65298915992E+03 -0.40821448303E+03  0.10141627363E+04  0.46999998093E+01 0.  1.
</event>
<event>
 5   0  0.4839293E-04  0.1999650E+04  0.7818609E-02  0.8606784E-01
       -2   -1    0    0    0  501  0.00000000000E+00  0.00000000000E+00  0.13425192774E+04  0.13425192775E+04  0.25500000920E-02 0.  1.
        2   -1    0    0  501    0  0.00000000000E+00  0.00000000000E+00 -0.74460763881E+03  0.74460763882E+03  0.25500000920E-02 0. -1.
    10030    2    1    2    0    0  0.00000000000E+00  0.00000000000E+00  0.59791163864E+03  0.20871269163E+04  0.19996500786E+04 0.  0.
        5    1    3    3  502    0 -0.76900659712E+03 -0.21550421368E+03 -0.32886833774E+03  0.86370694457E+03  0.46999998093E+01 0. -1.
       -5    1    3    3    0  502  0.76900659712E+03  0.21550421368E+03  0.92677997638E+03  0.12234199717E+04  0.46999998093E+01 0.  1.
</event>
<event>
 5   0  0.4829134E-04  0.1921310E+04  0.7818609E-02  0.8644321E-01
       -2   -1    0    0    0  501  0.00000000000E+00  0.00000000000E+00  0.34701661457E+03  0.34701661458E+03  0.25500000920E-02 0. -1.
        2   -1    0    0  501    0  0.00000000000E+00  0.00000000000E+00 -0.26594060727E+04  0.26594060727E+04  0.25500000920E-02 0.  1.
    10030    2    1    2    0    0  0.00000000000E+00  0.00000000000E+00 -0.23123894581E+04  0.30064226873E+04  0.19213100657E+04 0.  0.
        2    1    3    3  502    0 -0.21358009024E+03 -0.91229044732E+03 -0.82437416986E+03  0.12479916214E+04  0.25500000920E-02 0.  1.
       -2    1    3    3    0  502  0.21358009024E+03  0.91229044732E+03 -0.14880152882E+04  0.17584310658E+04  0.25500000920E-02 0. -1.
</event>
<event>
 5   0  0.2510069E-04  0.2116270E+04  0.7818609E-02  0.8554110E-01
       -1   -1    0    0    0  501  0.00000000000E+00  0.00000000000E+00  0.91233686708E+03  0.91233686710E+03  0.50400001928E-02 0.  1.
        1   -1    0    0  501    0  0.00000000000E+00  0.00000000000E+00 -0.12272329563E+04  0.12272329563E+04  0.50400001928E-02 0. -1.
    10030    2    1    2    0    0  0.00000000000E+00  0.00000000000E+00 -0.31489608922E+03  0.21395698234E+04  0.21162701818E+04 0.  0.
        4    1    3    3  502    0  0.11510178414E+03  0.29098019153E+03 -0.11793835811E+04  0.12201906149E+04  0.12699999809E+01 0. -1.
       -4    1    3    3    0  502 -0.11510178414E+03 -0.29098019153E+03  0.86448749184E+03  0.91937920850E+03  0.12699999809E+01 0.  1.
</event>
<event>
 5   0  0.4973411E-04  0.1826609E+04  0.7818609E-02  0.8692276E-01
       -2   -1    0    0    0  501  0.00000000000E+00  0.00000000000E+00  0.39495255181E+03  0.39495255182E+03  0.25500000920E-02 0.  1.
        2   -1    0    0  501    0  0.00000000000E+00  0.00000000000E+00 -0.21119629912E+04  0.21119629912E+04  0.25500000920E-02 0. -1.
    10030    2    1    2    0    0  0.00000000000E+00  0.00000000000E+00 -0.17170104394E+04  0.25069155430E+04  0.18266090690E+04 0.  0.
        1    1    3    3  502    0  0.70069044791E+03  0.49587953463E+03 -0.43048459150E+03  0.96030234833E+03  0.50400001928E-02 0.  1.
       -1    1    3    3    0  502 -0.70069044791E+03 -0.49587953463E+03 -0.12865258479E+04  0.15466131947E+04  0.50400001928E-02 0. -1.
</event>
<event>
 5   0  0.4839293E-04  0.1901671E+04  0.7818609E-02  0.8654025E-01
        2   -1    0    0  501    0  0.00000000000E+00  0.00000000000E+00  0.18161496202E+04  0.18161496202E+04  0.25500000920E-02 0.  1.
       -2   -1    0    0    0  501  0.00000000000E+00  0.00000000000E+00 -0.49780500004E+03  0.49780500005E+03  0.25500000920E-02 0. -1.
    10030    2    1    2    0    0  0.00000000000E+00  0.00000000000E+00  0.13183446201E+04  0.23139546202E+04  0.19016712247E+04 0.  0.
        5    1    3    3  502    0  0.29525849692E+03 -0.86136731394E+03  0.32608209049E+03  0.96720362347E+03  0.46999998093E+01 0. -1.
       -5    1    3    3    0  502 -0.29525849692E+03  0.86136731394E+03  0.99226252965E+03  0.13467509968E+04  0.46999998093E+01 0.  1.
</event>
<event>
 5   0  0.4761944E-04  0.1874390E+04  0.7818609E-02  0.8667710E-01
       -2   -1    0    0    0  501  0.00000000000E+00  0.00000000000E+00  0.34806644060E+03  0.34806644061E+03  0.25500000920E-02 0.  1.
        2   -1    0    0  501    0  0.00000000000E+00  0.00000000000E+00 -0.25234664936E+04  0.25234664936E+04  0.25500000920E-02 0. -1.
    10030    2    1    2    0    0  0.00000000000E+00  0.00000000000E+00 -0.21754000530E+04  0.28715329342E+04  0.18743895010E+04 0.  0.
        4    1    3    3  502    0  0.38355207247E+03  0.79292744994E+03 -0.15781410262E+04  0.18073120496E+04  0.12699999809E+01 0.  1.
       -4    1    3    3    0  502 -0.38355207247E+03 -0.79292744994E+03 -0.59725902674E+03  0.10642208845E+04  0.12699999809E+01 0. -1.
</event>
<event>
 5   0  0.4839293E-04  0.1911651E+04  0.7818609E-02  0.8649078E-01
       -2   -1    0    0    0  501  0.00000000000E+00  0.00000000000E+00  0.77057323601E+03  0.77057323601E+03  0.25500000920E-02 0. -1.
        2   -1    0    0  501    0  0.00000000000E+00  0.00000000000E+00 -0.11856142861E+04  0.11856142861E+04  0.25500000920E-02 0.  1.
    10030    2    1    2    0    0  0.00000000000E+00  0.00000000000E+00 -0.41504105009E+03  0.19561875221E+04  0.19116512622E+04 0.  0.
        5    1    3    3  502    0 -0.86826560829E+03 -0.52317246626E+02  0.19788899292E+03  0.89207869852E+03  0.46999998093E+01 0. -1.
       -5    1    3    3    0  502  0.86826560829E+03  0.52317246626E+02 -0.61293004301E+03  0.10641088236E+04  0.46999998093E+01 0.  1.
</event>
<event>
 5   0  0.4839293E-04  0.1847012E+04  0.7818609E-02  0.8681691E-01
       -2   -1    0    0    0  501  0.00000000000E+00  0.00000000000E+00  0.49594001126E+03  0.49594001127E+03  0.25500000920E-02 0. -1.
        2   -1    0    0  501    0  0.00000000000E+00  0.00000000000E+00 -0.17196913161E+04  0.17196913161E+04  0.25500000920E-02 0.  1.
    10030    2    1    2    0    0  0.00000000000E+00  0.00000000000E+00 -0.12237513048E+04  0.22156313273E+04  0.18470124316E+04 0.  0.
        5    1    3    3  502    0  0.79965994739E+03  0.12624906620E+03 -0.11449069490E+04  0.14022228318E+04  0.46999998093E+01 0.  1.
       -5    1    3    3    0  502 -0.79965994739E+03 -0.12624906620E+03 -0.78844355825E+02  0.81340849554E+03  0.46999998093E+01 0. -1.
</event>
<event>
 5   0  0.2510069E-04  0.1855918E+04  0.7818609E-02  0.8677115E-01
        1   -1    0    0  501    0  0.00000000000E+00  0.00000000000E+00  0.99896024879E+03  0.99896024881E+03  0.50400001928E-02 0.  1.
       -1   -1    0    0    0  501  0.00000000000E+00  0.00000000000E+00 -0.86200429456E+03  0.86200429457E+03  0.50400001928E-02 0. -1.
    10030    2    1    2    0    0  0.00000000000E+00  0.00000000000E+00  0.13695595423E+03  0.18609645434E+04  0.18559181281E+04 0.  0.
        4    1    3    3  502    0 -0.15461466572E+02  0.30305052534E+03 -0.81084877472E+03  0.86576903746E+03  0.12699999809E+01 0. -1.
       -4    1    3    3    0  502  0.15461466572E+02 -0.30305052534E+03  0.94780472896E+03  0.99519550592E+03  0.12699999809E+01 0.  1.
</event>
<event>
 5   0  0.2317458E-04  0.1878041E+04  0.7818609E-02  0.8665864E-01
        1   -1    0    0  501    0  0.00000000000E+00  0.00000000000E+00  0.17203234018E+04  0.17203234018E+04  0.50400001928E-02 0.  1.
       -1   -1    0    0    0  501  0.00000000000E+00  0.00000000000E+00 -0.51255476973E+03  0.51255476975E+03  0.50400001928E-02 0. -1.
    10030    2    1    2    0    0  0.00000000000E+00  0.00000000000E+00  0.12077686321E+04  0.22328781716E+04  0.18780414959E+04 0.  0.
        3    1    3    3  502    0 -0.51238134361E+03 -0.42604502189E+03 -0.18271497618E+03  0.69096582743E+03  0.10100000352E+00 0. -1.
       -3    1    3    3    0  502  0.51238134361E+03  0.42604502189E+03  0.13904836083E+04  0.15419123442E+04  0.10100000352E+00 0.  1.
</event>
<event>
 5   0  0.2355414E-04  0.1889281E+04  0.7818609E-02  0.8660210E-01
       -1   -1    0    0    0  501  0.00000000000E+00  0.00000000000E+00  0.99648927079E+03  0.99648927080E+03  0.50400001928E-02 0.  1.
        1   -1    0    0  501    0  0.00000000000E+00  0.00000000000E+00 -0.89548979139E+03  0.89548979141E+03  0.50400001928E-02 0. -1.
    10030    2    1    2    0    0  0.00000000000E+00  0.00000000000E+00  0.10099947940E+03  0.18919790622E+04  0.18892813123E+04 0.  0.
        5    1    3    3  502    0  0.58422422149E+03 -0.22114177049E+03 -0.65910381652E+03  0.90810877904E+03  0.46999998093E+01 0. -1.
       -5    1    3    3    0  502 -0.58422422149E+03  0.22114177049E+03  0.76010329591E+03  0.98387028316E+03  0.46999998093E+01 0.  1.
</event>
<event>
 5   0  0.4973411E-04  0.1932684E+04  0.7818609E-02  0.8638756E-01
        2   -1    0    0  501    0  0.00000000000E+00  0.00000000000E+00  0.88930121092E+03  0.88930121093E+03  0.25500000920E-02 0.  1.
       -2   -1    0    0    0  501  0.00000000000E+00  0.00000000000E+00 -0.10500569777E+04  0.10500569777E+04  0.25500000920E-02 0. -1.
    10030    2    1    2    0    0  0.00000000000E+00  0.00000000000E+00 -0.16075576673E+03  0.19393581886E+04  0.19326840836E+04 0.  0.
        1    1    3    3  502    0 -0.62094013491E+03 -0.67351074958E+03 -0.38906588482E+03  0.99526661941E+03  0.50400001928E-02 0. -1.
       -1    1    3    3    0  502  0.62094013491E+03  0.67351074958E+03  0.22831011809E+03  0.94409156918E+03  0.50400001928E-02 0.  1.
</event>
<event>
 5   0  0.4839293E-04  0.1929184E+04  0.7818609E-02  0.8640465E-01
       -2   -1    0    0    0  501  0.00000000000E+00  0.00000000000E+00  0.92465231013E+03  0.92465231014E+03  0.25500000920E-02 0.  1.
        2   -1    0    0  501    0  0.00000000000E+00  0.00000000000E+00 -0.10062565085E+04  0.10062565085E+04  0.25500000920E-02 0. -1.
    10030    2    1    2    0    0  0.00000000000E+00  0.00000000000E+00 -0.81604198349E+02  0.19309088186E+04  0.19291836669E+04 0.  0.
        5    1    3    3  502    0  0.16931055807E+03 -0.11149671992E+03  0.90307764333E+03  0.92556410016E+03  0.46999998093E+01 0.  1.
       -5    1    3    3    0  502 -0.16931055807E+03  0.11149671992E+03 -0.98468184167E+03  0.10053447185E+04  0.46999998093E+01 0. -1.
</event>
<event>
 5   0  0.2355414E-04  0.1906840E+04  0.7818609E-02  0.8651459E-01
       -1   -1    0    0    0  501  0.00000000000E+00  0.00000000000E+00  0.57123140747E+03  0.57123140749E+03  0.50400001928E-02 0. -1.
        1   -1    0    0  501    0  0.00000000000E+00  0.00000000000E+00 -0.15913152597E+04  0.15913152597E+04  0.50400001928E-02 0.  1.
    10030    2    1    2    0    0  0.00000000000E+00  0.00000000000E+00 -0.10200838523E+04  0.21625466672E+04  0.19068395376E+04 0.  0.
        5    1    3    3  502    0 -0.40212570893E+03 -0.48526553777E+03  0.30129499955E+03  0.69856173290E+03  0.46999998093E+01 0. -1.
       -5    1    3    3    0  502  0.40212570893E+03  0.48526553777E+03 -0.13213788518E+04  0.14639849343E+04  0.46999998093E+01 0.  1.
</event>
<event>
 5   0  0.2261755E-04  0.1923118E+04  0.7818609E-02  0.8643434E-01
        1   -1    0    0  501    0  0.00000000000E+00  0.00000000000E+00  0.20462483694E+04  0.20462483694E+04  0.50400001928E-02 0. -1.
       -1   -1    0    0    0  501  0.00000000000E+00  0.00000000000E+00 -0.45184943574E+03  0.45184943577E+03  0.50400001928E-02 0.  1.
    10030    2    1    2    0    0  0.00000000000E+00  0.00000000000E+00  0.15943989336E+04  0.24980978051E+04  0.19231184791E+04 0.  0.
        1    1    3    3  502    0  0.67359046052E+03  0.57838127363E+03  0.12768516801E+04  0.15551846255E+04  0.50400001928E-02 0. -1.
       -1    1    3    3    0  502 -0.67359046052E+03 -0.57838127363E+03  0.31754725349E+03  0.94291317968E+03  0.50400001928E-02 0.  1.
</event>
<event>
 5   0  0.4761944E-04  0.1792648E+04  0.7818609E-02  0.8710219E-01
       -2   -1    0    0    0  501  0.00000000000E+00  0.00000000000E+00  0.70535864045E+03  0.70535864046E+03  0.25500000920E-02 0.  1.
        2   -1    0    0  501    0  0.00000000000E+00  0.00000000000E+00 -0.11389905344E+04  0.11389905344E+04  0.25500000920E-02 0. -1.
    10030    2    1    2    0    0  0.00000000000E+00  0.00000000000E+00 -0.43363189392E+03  0.18443491748E+04  0.17926481136E+04 0.  0.
        4    1    3    3  502    0  0.65061238367E+03  0.42509367801E+03 -0.67622996381E+03  0.10301891505E+04  0.12699999809E+01 0. -1.
       -4    1    3    3    0  502 -0.65061238367E+03 -0.42509367801E+03  0.24259806989E+03  0.81416002437E+03  0.12699999809E+01 0.  1.
</event>
<event>
 5   0  0.2261755E-04  0.1814304E+04  0.7818609E-02  0.8698729E-01
        1   -1    0    0  501    0  0.00000000000E+00  0.00000000000E+00  0.87352502455E+03  0.87352502457E+03  0.50400001928E-02 0.  1.
       -1   -1    0    0    0  501  0.00000000000E+00  0.00000000000E+00 -0.94207372047E+03  0.94207372048E+03  0.50400001928E-02 0. -1.
    10030    2    1    2    0    0  0.00000000000E+00  0.00000000000E+00 -0.68548695918E+02  0.18155987451E+04  0.18143042411E+04 0.  0.
        1    1    3    3  502    0 -0.12912069858E+02  0.60020951148E+03  0.64628940522E+03  0.88210440116E+03  0.50400001928E-02 0.  1.
       -1    1    3    3    0  502  0.12912069858E+02 -0.60020951148E+03 -0.71483810114E+03  0.93349434389E+03  0.50400001928E-02 0. -1.
</event>
<event>
 5   0  0.4761944E-04  0.1873417E+04  0.7818609E-02  0.8668203E-01
       -2   -1    0    0    0  501  0.00000000000E+00  0.00000000000E+00  0.11492033481E+04  0.11492033481E+04  0.25500000920E-02 0. -1.
        2   -1    0    0  501    0  0.00000000000E+00  0.00000000000E+00 -0.76350552082E+03  0.76350552082E+03  0.25500000920E-02 0.  1.
    10030    2    1    2    0    0  0.00000000000E+00  0.00000000000E+00  0.38569782731E+03  0.19127088690E+04  0.18734173063E+04 0.  0.
        4    1    3    3  502    0 -0.58581014335E+03  0.24034568226E+03 -0.51190509598E+03  0.81424075753E+03  0.12699999809E+01 0.  1.
       -4    1    3    3    0  502  0.58581014335E+03 -0.24034568226E+03  0.89760292329E+03  0.10984681114E+04  0.12699999809E+01 0. -1.
</event>
<event>
 5   0  0.4973411E-04  0.1840582E+04  0.7818609E-02  0.8685011E-01
        2   -1    0    0  501    0  0.00000000000E+00  0.00000000000E+00  0.69625399837E+03  0.69625399837E+03  0.25500000920E-02 0. -1.
       -2   -1    0    0    0  501  0.00000000000E+00  0.00000000000E+00 -0.12164179058E+04  0.12164179058E+04  0.25500000920E-02 0.  1.
    10030    2    1    2    0    0  0.00000000000E+00  0.00000000000E+00 -0.52016390742E+03  0.19126719042E+04  0.18405823324E+04 0.  0.
        1    1    3    3  502    0 -0.45660581499E+03 -0.32696439123E+02 -0.10897105840E+04  0.11819590028E+04  0.50400001928E-02 0.  1.
       -1    1    3    3    0  502  0.45660581499E+03  0.32696439123E+02  0.56954667657E+03  0.73071290137E+03  0.50400001928E-02 0. -1.
</event>
<event>
 5   0  0.1729375E-04  0.1898364E+04  0.7818609E-02  0.8655671E-01
        4   -1    0    0  501    0  0.00000000000E+00  0.00000000000E+00  0.25199649066E+04  0.25199652266E+04  0.12699999809E+01 0. -1.
       -4   -1    0    0    0  501  0.00000000000E+00  0.00000000000E+00 -0.35752182911E+03  0.35752408477E+03  0.12699999809E+01 0.  1.
    10030    2    1    2    0    0  0.00000000000E+00  0.00000000000E+00  0.21624430775E+04  0.28774893114E+04  0.18983636832E+04 0.  0.
        5    1    3    3  502    0  0.84216021990E+03  0.30973841597E+03  0.61218245072E+03  0.10862601738E+04  0.46999998093E+01 0.  1.
       -5    1    3    3    0  502 -0.84216021990E+03 -0.30973841597E+03  0.15502606267E+04  0.17912291375E+04  0.46999998093E+01 0. -1.
</event>
<event>
 5   0  0.2261755E-04  0.1902258E+04  0.7818609E-02  0.8653733E-01
        1   -1    0    0  501    0  0.00000000000E+00  0.00000000000E+00  0.13014953501E+04  0.13014953501E+04  0.50400001928E-02 0. -1.
       -1   -1    0    0    0  501  0.00000000000E+00  0.00000000000E+00 -0.69508209997E+03  0.69508209998E+03  0.50400001928E-02 0.  1.
    10030    2    1    2    0    0  0.00000000000E+00  0.00000000000E+00  0.60641325009E+03  0.19965774500E+04  0.19022577334E+04 0.  0.
        1    1    3    3  502    0 -0.55937897304E+03 -0.75151606229E+03  0.47555855834E+03  0.10506365546E+04  0.50400001928E-02 0. -1.
       -1    1    3    3    0  502  0.55937897304E+03  0.75151606229E+03  0.13085469174E+03  0.94594089548E+03  0.50400001928E-02 0.  1.
</event>
<event>
 5   0  0.1729375E-04  0.1797409E+04  0.7818609E-02  0.8707679E-01
       -3   -1    0    0    0  501  0.00000000000E+00  0.00000000000E+00  0.10055685932E+04  0.10055685983E+04  0.10100000352E+00 0. -1.
        3   -1    0    0  501    0  0.00000000000E+00  0.00000000000E+00 -0.80319674178E+03  0.80319674813E+03  0.10100000352E+00 0.  1.
    10030    2    1    2    0    0  0.00000000000E+00  0.00000000000E+00  0.20237185140E+03  0.18087653464E+04  0.17974086102E+04 0.  0.
        1    1    3    3  502    0 -0.82531575229E+03 -0.30646293997E+03  0.28289204122E+03  0.92471267514E+03  0.50400001928E-02 0. -1.
       -1    1    3    3    0  502  0.82531575229E+03  0.30646293997E+03 -0.80520189824E+02  0.88405267125E+03  0.50400001928E-02 0.  1.
</event>
<event>
 5   0  0.4761944E-04  0.1930014E+04  0.7818609E-02  0.8640059E-01
        2   -1    0    0  501    0  0.00000000000E+00  0.00000000000E+00  0.15818096713E+04  0.15818096713E+04  0.25500000920E-02 0. -1.
       -2   -1    0    0    0  501  0.00000000000E+00  0.00000000000E+00 -0.58871738408E+03  0.58871738408E+03  0.25500000920E-02 0.  1.
    10030    2    1    2    0    0  0.00000000000E+00  0.00000000000E+00  0.99309228718E+03  0.21705270553E+04  0.19300143541E+04 0.  0.
        4    1    3    3  502    0 -0.93274044416E+03  0.49155945580E+02  0.76928884012E+03  0.12100528813E+04  0.12699999809E+01 0. -1.
       -4    1    3    3    0  502  0.93274044416E+03 -0.49155945580E+02  0.22380344706E+03  0.96047417403E+03  0.12699999809E+01 0.  1.
</event>
<event>
 5   0  0.2510069E-04  0.1060763E+04  0.7818609E-02  0.9244302E-01
       -1   -1    0    0    0  501  0.00000000000E+00  0.00000000000E+00  0.42923301822E+03  0.42923301825E+03  0.50400001928E-02 0.  1.
        1   -1    0    0  501    0  0.00000000000E+00  0.00000000000E+00 -0.65536568817E+03  0.65536568819E+03  0.50400001928E-02 0. -1.
    10030    2    1    2    0    0  0.00000000000E+00  0.00000000000E+00 -0.22613266995E+03  0.10845987064E+04  0.10607631072E+04 0.  0.
        4    1    3    3  502    0  0.33539750956E+03 -0.19421434398E+02 -0.53269576655E+03  0.62978970628E+03  0.12699999809E+01 0. -1.
       -4    1    3    3    0  502 -0.33539750956E+03  0.19421434398E+02  0.30656309661E+03  0.45480900016E+03  0.12699999809E+01 0.  1.
</event>
<event>
 5   0  0.4761944E-04  0.1907316E+04  0.7818609E-02  0.8651223E-01
       -2   -1    0    0    0  501  0.00000000000E+00  0.00000000000E+00  0.81503949028E+03  0.81503949029E+03  0.25500000920E-02 0.  1.
        2   -1    0    0  501    0  0.00000000000E+00  0.00000000000E+00 -0.11158518834E+04  0.11158518834E+04  0.25500000920E-02 0. -1.
    10030    2    1    2    0    0  0.00000000000E+00  0.00000000000E+00 -0.30081239313E+03  0.19308913737E+04  0.19073157581E+04 0.  0.
        4    1    3    3  502    0  0.41346938222E+03 -0.44664238622E+03  0.59284535858E+03  0.84965497897E+03  0.12699999809E+01 0. -1.
       -4    1    3    3    0  502 -0.41346938222E+03  0.44664238622E+03 -0.89365775171E+03  0.10812363947E+04  0.12699999809E+01 0.  1.
</event>
<event>
 5   0  0.2376359E-04  0.1924674E+04  0.7818609E-02  0.8642671E-01
        1   -1    0    0  501    0  0.00000000000E+00  0.00000000000E+00  0.15594333072E+04  0.15594333072E+04  0.50400001928E-02 0.  1.
       -1   -1    0    0    0  501  0.00000000000E+00  0.00000000000E+00 -0.59386463181E+03  0.59386463183E+03  0.50400001928E-02 0. -1.
    10030    2    1    2    0    0  0.00000000000E+00  0.00000000000E+00  0.96556867541E+03  0.21532979391E+04  0.19246737769E+04 0.  0.
        2    1    3    3  502    0 -0.53927838025E+03 -0.79008502509E+03  0.60031954120E+03  0.11293533857E+04  0.25500000920E-02 0. -1.
       -2    1    3    3    0  502  0.53927838025E+03  0.79008502509E+03  0.36524913421E+03  0.10239445533E+04  0.25500000920E-02 0.  1.
</event>
<event>
 5   0  0.4973411E-04  0.1860055E+04  0.7818609E-02  0.8674999E-01
       -2   -1    0    0    0  501  0.00000000000E+00  0.00000000000E+00  0.58734529434E+03  0.58734529434E+03  0.25500000920E-02 0.  1.
        2   -1    0    0  501    0  0.00000000000E+00  0.00000000000E+00 -0.14726456276E+04  0.14726456276E+04  0.25500000920E-02 0. -1.
    10030    2    1    2    0    0  0.00000000000E+00  0.00000000000E+00 -0.88530033326E+03  0.20599909219E+04  0.18600553536E+04 0.  0.
        1    1    3    3  502    0  0.71102031438E+03 -0.19251398354E+03 -0.10714269687E+04  0.13002181627E+04  0.50400001928E-02 0. -1.
       -1    1    3    3    0  502 -0.71102031438E+03  0.19251398354E+03  0.18612663539E+03  0.75977275929E+03  0.50400001928E-02 0.  1.
</event>
<event>
 5   0  0.2317458E-04  0.1965797E+04  0.7818609E-02  0.8622781E-01
       -1   -1    0    0    0  501  0.00000000000E+00  0.00000000000E+00  0.55916201167E+03  0.55916201169E+03  0.50400001928E-02 0. -1.
        1   -1    0    0  501    0  0.00000000000E+00  0.00000000000E+00 -0.17277443569E+04  0.17277443569E+04  0.50400001928E-02 0.  1.
    10030    2    1    2    0    0  0.00000000000E+00  0.00000000000E+00 -0.11685823452E+04  0.22869063686E+04  0.19657965411E+04 0.  0.
        3    1    3    3  502    0  0.65315012487E+03 -0.19527124816E+03 -0.14080150399E+04  0.15643664240E+04  0.10100000352E+00 0.  1.
       -3    1    3    3    0  502 -0.65315012487E+03  0.19527124816E+03  0.23943269465E+03  0.72253994454E+03  0.10100000352E+00 0. -1.
</event>
<event>
 5   0  0.2261755E-04  0.1878944E+04  0.7818609E-02  0.8665409E-01
       -1   -1    0    0    0  501  0.00000000000E+00  0.00000000000E+00  0.31905452112E+03  0.31905452116E+03  0.50400001928E-02 0. -1.
        1   -1    0    0  501    0  0.00000000000E+00  0.00000000000E+00 -0.27663237695E+04  0.27663237695E+04  0.50400001928E-02 0.  1.
    10030    2    1    2    0    0  0.00000000000E+00  0.00000000000E+00 -0.24472692484E+04  0.30853782907E+04  0.18789444969E+04 0.  0.
        1    1    3    3  502    0  0.12460089496E+03  0.58353939097E+03 -0.24152065349E+04  0.24878235890E+04  0.50400001928E-02 0.  1.
       -1    1    3    3    0  502 -0.12460089496E+03 -0.58353939097E+03 -0.32062713470E+02  0.59755470164E+03  0.50400001928E-02 0. -1.
</event>
<event>
 5   0  0.2317458E-04  0.1863491E+04  0.7818609E-02  0.8673246E-01
       -1   -1    0    0    0  501  0.00000000000E+00  0.00000000000E+00  0.78168390436E+03  0.78168390438E+03  0.50400001928E-02 0.  1.
        1   -1    0    0  501    0  0.00000000000E+00  0.00000000000E+00 -0.11106150114E+04  0.11106150115E+04  0.50400001928E-02 0. -1.
    10030    2    1    2    0    0  0.00000000000E+00  0.00000000000E+00 -0.32893110709E+03  0.18922989158E+04  0.18634912164E+04 0.  0.
        3    1    3    3  502    0  0.41423602680E+03 -0.12486014988E+03  0.67349938239E+03  0.80048920743E+03  0.10100000352E+00 0.  1.
       -3    1    3    3    0  502 -0.41423602680E+03  0.12486014988E+03 -0.10024304895E+04  0.10918097084E+04  0.10100000352E+00 0. -1.
</event>
<event>
 5   0  0.4802635E-04  0.1936557E+04  0.7818609E-02  0.8636870E-01
       -2   -1    0    0    0  501  0.00000000000E+00  0.00000000000E+00  0.83513108888E+03  0.83513108888E+03  0.25500000920E-02 0.  1.
        2   -1    0    0  501    0  0.00000000000E+00  0.00000000000E+00 -0.11226543615E+04  0.11226543615E+04  0.25500000920E-02 0. -1.
    10030    2    1    2    0    0  0.00000000000E+00  0.00000000000E+00 -0.28752327266E+03  0.19577854504E+04  0.19365573158E+04 0.  0.
        3    1    3    3  502    0 -0.24320682032E+03 -0.23999978209E+02  0.80343888413E+03  0.83978545304E+03  0.10100000352E+00 0.  1.
       -3    1    3    3    0  502  0.24320682032E+03  0.23999978209E+02 -0.10909621568E+04  0.11179999974E+04  0.10100000352E+00 0. -1.
</event>
<event>
 5   0  0.4829134E-04  0.1809804E+04  0.7818609E-02  0.8701103E-01
       -2   -1    0    0    0  501  0.00000000000E+00  0.00000000000E+00  0.60451893501E+03  0.60451893502E+03  0.25500000920E-02 0. -1.
        2   -1    0    0  501    0  0.00000000000E+00  0.00000000000E+00 -0.13545435699E+04  0.13545435699E+04  0.25500000920E-02 0.  1.
    10030    2    1    2    0    0  0.00000000000E+00  0.00000000000E+00 -0.75002463487E+03  0.19590625049E+04  0.18098035654E+04 0.  0.
        2    1    3    3  502    0 -0.10551022629E+03  0.36320550888E+00  0.59783759842E+03  0.60707687640E+03  0.25500000920E-02 0. -1.
       -2    1    3    3    0  502  0.10551022629E+03 -0.36320550888E+00 -0.13478622333E+04  0.13519856285E+04  0.25500000920E-02 0.  1.
</event>
<event>
 5   0  0.2510069E-04  0.1790891E+04  0.7818609E-02  0.8711159E-01
        1   -1    0    0  501    0  0.00000000000E+00  0.00000000000E+00  0.10053960982E+04  0.10053960982E+04  0.50400001928E-02 0.  1.
       -1   -1    0    0    0  501  0.00000000000E+00  0.00000000000E+00 -0.79751916362E+03  0.79751916364E+03  0.50400001928E-02 0. -1.
    10030    2    1    2    0    0  0.00000000000E+00  0.00000000000E+00  0.20787693455E+03  0.18029152618E+04  0.17908910133E+04 0.  0.
        4    1    3    3  502    0 -0.72963956288E+03  0.17582764287E+03  0.59561478705E+03  0.95814813007E+03  0.12699999809E+01 0.  1.
       -4    1    3    3    0  502  0.72963956288E+03 -0.17582764287E+03 -0.38773785250E+03  0.84476713174E+03  0.12699999809E+01 0. -1.
</event>
<event>
 5   0  0.4973411E-04  0.1276151E+04  0.7818609E-02  0.9048695E-01
        2   -1    0    0  501    0  0.00000000000E+00  0.00000000000E+00  0.39157339225E+03  0.39157339226E+03  0.25500000920E-02 0.  1.
       -2   -1    0    0    0  501  0.00000000000E+00  0.00000000000E+00 -0.10397540654E+04  0.10397540654E+04  0.25500000920E-02 0. -1.
    10030    2    1    2    0    0  0.00000000000E+00  0.00000000000E+00 -0.64818067315E+03  0.14313274577E+04  0.12761505029E+04 0.  0.
        1    1    3    3  502    0  0.31469409380E+03 -0.54915099753E+03 -0.23338063727E+03  0.67458558585E+03  0.50400001928E-02 0.  1.
       -1    1    3    3    0  502 -0.31469409380E+03  0.54915099753E+03 -0.41480003589E+03  0.75674187182E+03  0.50400001928E-02 0. -1.
</event>
<event>
 5   0  0.1729375E-04  0.1917880E+04  0.7818609E-02  0.8646007E-01
        4   -1    0    0  501    0  0.00000000000E+00  0.00000000000E+00  0.54310654520E+03  0.54310803008E+03  0.12699999809E+01 0. -1.
       -4   -1    0    0    0  501  0.00000000000E+00  0.00000000000E+00 -0.16931545592E+04  0.16931550355E+04  0.12699999809E+01 0.  1.
    10030    2    1    2    0    0  0.00000000000E+00  0.00000000000E+00 -0.11500480139E+04  0.22362630655E+04  0.19178795749E+04 0.  0.
        2    1    3    3  502    0 -0.24231262757E+03 -0.61674514270E+03  0.23321014322E+03  0.70247914662E+03  0.25500000920E-02 0.  1.
       -2    1    3    3    0  502  0.24231262757E+03  0.61674514270E+03 -0.13832581572E+04  0.15337839189E+04  0.25500000920E-02 0. -1.
</event>
<event>
 5   0  0.2510069E-04  0.1006236E+04  0.7818609E-02  0.9301732E-01
       -1   -1    0    0    0  501  0.00000000000E+00  0.00000000000E+00  0.11975172384E+04  0.11975172384E+04  0.50400001928E-02 0.  1.
        1   -1    0    0  501    0  0.00000000000E+00  0.00000000000E+00 -0.21137703056E+03  0.21137703063E+03  0.50400001928E-02 0. -1.
    10030    2    1    2    0    0  0.00000000000E+00  0.00000000000E+00  0.98614020786E+03  0.14088942691E+04  0.10062358331E+04 0.  0.
        4    1    3    3  502    0 -0.80295229824E+02  0.40189016732E+03  0.90167548860E+03  0.99044602588E+03  0.12699999809E+01 0.  1.
       -4    1    3    3    0  502  0.80295229824E+02 -0.40189016732E+03  0.84464719254E+02  0.41844824318E+03  0.12699999809E+01 0. -1.
</event>
<event>
 5   0  0.4973411E-04  0.1807808E+04  0.7818609E-02  0.8702158E-01
       -2   -1    0    0    0  501  0.00000000000E+00  0.00000000000E+00  0.77640217570E+03  0.77640217570E+03  0.25500000920E-02 0. -1.
        2   -1    0    0  501    0  0.00000000000E+00  0.00000000000E+00 -0.10523445476E+04  0.10523445476E+04  0.25500000920E-02 0.  1.
    10030    2    1    2    0    0  0.00000000000E+00  0.00000000000E+00 -0.27594237188E+03  0.18287467233E+04  0.18078081716E+04 0.  0.
        1    1    3    3  502    0  0.16560370197E+03  0.62672376291E+02  0.75868692084E+03  0.77907525743E+03  0.50400001928E-02 0. -1.
       -1    1    3    3    0  502 -0.16560370197E+03 -0.62672376291E+02 -0.10346292927E+04  0.10496714659E+04  0.50400001928E-02 0.  1.
</event>
<event>
 5   0  0.2261755E-04  0.1834780E+04  0.7818609E-02  0.8688019E-01
        1   -1    0    0  501    0  0.00000000000E+00  0.00000000000E+00  0.12399424448E+04  0.12399424448E+04  0.50400001928E-02 0.  1.
       -1   -1    0    0    0  501  0.00000000000E+00  0.00000000000E+00 -0.67874510148E+03  0.67874510150E+03  0.50400001928E-02 0. -1.
    10030    2    1    2    0    0  0.00000000000E+00  0.00000000000E+00  0.56119734329E+03  0.19186875463E+04  0.18347804888E+04 0.  0.
        1    1    3    3  502    0 -0.43392930592E+03 -0.41067356356E+03 -0.44741173338E+03  0.74640784932E+03  0.50400001928E-02 0. -1.
       -1    1    3    3    0  502  0.43392930592E+03  0.41067356356E+03  0.10086090767E+04  0.11722796970E+04  0.50400001928E-02 0.  1.
</event>
<event>
 5   0  0.4973411E-04  0.1870354E+04  0.7818609E-02  0.8669756E-01
        2   -1    0    0  501    0  0.00000000000E+00  0.00000000000E+00  0.11026514192E+04  0.11026514192E+04  0.25500000920E-02 0.  1.
       -2   -1    0    0    0  501  0.00000000000E+00  0.00000000000E+00 -0.79313875296E+03  0.79313875296E+03  0.25500000920E-02 0. -1.
    10030    2    1    2    0    0  0.00000000000E+00  0.00000000000E+00  0.30951266626E+03  0.18957901722E+04  0.18703535191E+04 0.  0.
        1    1    3    3  502    0  0.16312826071E+03 -0.10475601771E+03 -0.77254685009E+03  0.79650065179E+03  0.50400001928E-02 0. -1.
       -1    1    3    3    0  502 -0.16312826071E+03  0.10475601771E+03  0.10820595164E+04  0.10992895204E+04  0.50400001928E-02 0.  1.
</event>
<event>
 5   0  0.2510069E-04  0.1956448E+04  0.7818609E-02  0.8627258E-01
        1   -1    0    0  501    0  0.00000000000E+00  0.00000000000E+00  0.16136999388E+04  0.16136999389E+04  0.50400001928E-02 0. -1.
       -1   -1    0    0    0  501  0.00000000000E+00  0.00000000000E+00 -0.59299873460E+03  0.59299873462E+03  0.50400001928E-02 0.  1.
    10030    2    1    2    0    0  0.00000000000E+00  0.00000000000E+00  0.10207012042E+04  0.22066986735E+04  0.19564478238E+04 0.  0.
        4    1    3    3  502    0 -0.74231601504E+03 -0.25346460030E+02  0.12283656440E+04  0.14354648298E+04  0.12699999809E+01 0. -1.
       -4    1    3    3    0  502  0.74231601504E+03  0.25346460030E+02 -0.20766443978E+03  0.77123384370E+03  0.12699999809E+01 0.  1.
</event>
<event>
 5   0  0.4829134E-04  0.2011994E+04  0.7818609E-02  0.8601033E-01
       -2   -1    0    0    0  501  0.00000000000E+00  0.00000000000E+00  0.77578940577E+03  0.77578940577E+03  0.25500000920E-02 0.  1.
        2   -1    0    0  501    0  0.00000000000E+00  0.00000000000E+00 -0.13045168694E+04  0.13045168694E+04  0.25500000920E-02 0. -1.
    10030    2    1    2    0    0  0.00000000000E+00  0.00000000000E+00 -0.52872746367E+03  0.20803062752E+04  0.20119944006E+04 0.  0.
        2    1    3    3  502    0  0.57867493536E+03 -0.50112257328E+03  0.41051640123E+03  0.86862663438E+03  0.25500000920E-02 0.  1.
       -2    1    3    3    0  502 -0.57867493536E+03  0.50112257328E+03 -0.93924386490E+03  0.12116796408E+04  0.25500000920E-02 0. -1.
</event>
<event>
 5   0  0.4829134E-04  0.1140342E+04  0.7818609E-02  0.9166740E-01
       -2   -1    0    0    0  501  0.00000000000E+00  0.00000000000E+00  0.76794668479E+03  0.76794668480E+03  0.25500000920E-02 0. -1.
        2   -1    0    0  501    0  0.00000000000E+00  0.00000000000E+00 -0.42333012415E+03  0.42333012416E+03  0.25500000920E-02 0.  1.
    10030    2    1    2    0    0  0.00000000000E+00  0.00000000000E+00  0.34461656064E+03  0.11912768090E+04  0.11403419933E+04 0.  0.
        2    1    3    3  502    0  0.37198772674E+03  0.25424413185E+03  0.53731416141E+03  0.70122853299E+03  0.25500000920E-02 0. -1.
       -2    1    3    3    0  502 -0.37198772674E+03 -0.25424413185E+03 -0.19269760077E+03  0.49004827596E+03  0.25500000920E-02 0.  1.
</event>
<event>
 5   0  0.2510069E-04  0.1881211E+04  0.7818609E-02  0.8664266E-01
       -1   -1    0    0    0  501  0.00000000000E+00  0.00000000000E+00  0.68333657361E+03  0.68333657363E+03  0.50400001928E-02 0.  1.
        1   -1    0    0  501    0  0.00000000000E+00  0.00000000000E+00 -0.12947328586E+04  0.12947328586E+04  0.50400001928E-02 0. -1.
    10030    2    1    2    0    0  0.00000000000E+00  0.00000000000E+00 -0.61139628495E+03  0.19780694322E+04  0.18812105840E+04 0.  0.
        4    1    3    3  502    0  0.59726473257E+03  0.52370465400E+03  0.22396877144E+03  0.82532136097E+03  0.12699999809E+01 0.  1.
       -4    1    3    3    0  502 -0.59726473257E+03 -0.52370465400E+03 -0.83536505639E+03  0.11527480712E+04  0.12699999809E+01 0. -1.
</event>
<event>
 5   0  0.2355414E-04  0.1654222E+04  0.7818609E-02  0.8787913E-01
        1   -1    0    0  501    0  0.00000000000E+00  0.00000000000E+00  0.14564999647E+04  0.14564999647E+04  0.50400001928E-02 0.  1.
       -1   -1    0    0    0  501  0.00000000000E+00  0.00000000000E+00 -0.46969620789E+03  0.46969620792E+03  0.50400001928E-02 0. -1.
    10030    2    1    2    0    0  0.00000000000E+00  0.00000000000E+00  0.98680375677E+03  0.19261961726E+04  0.16542218838E+04 0.  0.
        5    1    3    3  502    0  0.50578346008E+03 -0.32723791820E+03 -0.16651158441E+03  0.62501980876E+03  0.46999998093E+01 0. -1.
       -5    1    3    3    0  502 -0.50578346008E+03  0.32723791820E+03  0.11533153412E+04  0.13011763638E+04  0.46999998093E+01 0.  1.
</event>
<event>
 5   0  0.2376359E-04  0.1952122E+04  0.7818609E-02  0.8629338E-01
        1   -1    0    0  501    0  0.00000000000E+00  0.00000000000E+00  0.12313098370E+04  0.12313098371E+04  0.50400001928E-02 0. -1.
       -1   -1    0    0    0  501  0.00000000000E+00  0.00000000000E+00 -0.77372505240E+03  0.77372505241E+03  0.50400001928E-02 0.  1.
    10030    2    1    2    0    0  0.00000000000E+00  0.00000000000E+00  0.45758478465E+03  0.20050348895E+04  0.19521221972E+04 0.  0.
        2    1    3    3  502    0  0.94769656280E+03  0.10709323132E+03  0.15565911530E+02  0.95385535222E+03  0.25500000920E-02 0.  1.
       -2    1    3    3    0  502 -0.94769656280E+03 -0.10709323132E+03  0.44201887312E+03  0.10511795373E+04  0.25500000920E-02 0. -1.
</event>
<event>
 5   0  0.4802635E-04  0.1949768E+04  0.7818609E-02  0.8630472E-01
        2   -1    0    0  501    0  0.00000000000E+00  0.00000000000E+00  0.12601904763E+04  0.12601904763E+04  0.25500000920E-02 0.  1.
       -2   -1    0    0    0  501  0.00000000000E+00  0.00000000000E+00 -0.75417107245E+03  0.75417107246E+03  0.25500000920E-02 0. -1.
    10030    2    1    2    0    0  0.00000000000E+00  0.00000000000E+00  0.50601940387E+03  0.20143615488E+04  0.19497683996E+04 0.  0.
        3    1    3    3  502    0 -0.54753772479E+03  0.20963972902E+03  0.10576921058E+04  0.12093217011E+04  0.10100000352E+00 0.  1.
       -3    1    3    3    0  502  0.54753772479E+03 -0.20963972902E+03 -0.55167270190E+03  0.80503984763E+03  0.10100000352E+00 0. -1.
</event>
<event>
 5   0  0.2376359E-04  0.1918912E+04  0.7818609E-02  0.8645500E-01
        1   -1    0    0  501    0  0.00000000000E+00  0.00000000000E+00  0.12637218221E+04  0.12637218221E+04  0.50400001928E-02 0. -1.
       -1   -1    0    0    0  501  0.00000000000E+00  0.00000000000E+00 -0.72844813871E+03  0.72844813873E+03  0.50400001928E-02 0.  1.
    10030    2    1    2    0    0  0.00000000000E+00  0.00000000000E+00  0.53527368343E+03  0.19921699609E+04  0.19189119930E+04 0.  0.
        2    1    3    3  502    0 -0.25581228968E+03 -0.44471998795E+03  0.11093543579E+04  0.12222450191E+04  0.25500000920E-02 0. -1.
       -2    1    3    3    0  502  0.25581228968E+03  0.44471998795E+03 -0.57408067446E+03  0.76992494181E+03  0.25500000920E-02 0.  1.
</event>
<event>
 5   0  0.2261755E-04  0.2000380E+04  0.7818609E-02  0.8606443E-01
        1   -1    0    0  501    0  0.00000000000E+00  0.00000000000E+00  0.14237939238E+04  0.14237939238E+04  0.50400001928E-02 0. -1.
       -1   -1    0    0    0  501  0.00000000000E+00  0.00000000000E+00 -0.70261543906E+03  0.70261543907E+03  0.50400001928E-02 0.  1.
    10030    2    1    2    0    0  0.00000000000E+00  0.00000000000E+00  0.72117848474E+03  0.21264093629E+04  0.20003795569E+04 0.  0.
        1    1    3    3  502    0 -0.60397950049E+03 -0.16094205034E+03 -0.46942889764E+03  0.78170139474E+03  0.50400001928E-02 0.  1.
       -1    1    3    3    0  502  0.60397950049E+03  0.16094205034E+03  0.11906073824E+04  0.13447079681E+04  0.50400001928E-02 0. -1.
</event>
<event>
 5   0  0.4973411E-04  0.1931348E+04  0.7818609E-02  0.8639408E-01
        2   -1    0    0  501    0  0.00000000000E+00  0.00000000000E+00  0.16338669666E+04  0.16338669666E+04  0.25500000920E-02 0. -1.
       -2   -1    0    0    0  501  0.00000000000E+00  0.00000000000E+00 -0.57074805576E+03  0.57074805577E+03  0.25500000920E-02 0.  1.
    10030    2    1    2    0    0  0.00000000000E+00  0.00000000000E+00  0.10631189108E+04  0.22046150224E+04  0.19313481246E+04 0.  0.
        1    1    3    3  502    0 -0.36398877051E+03  0.86582358347E+03  0.27532580952E+03  0.97874542357E+03  0.50400001928E-02 0. -1.
       -1    1    3    3    0  502  0.36398877051E+03 -0.86582358347E+03  0.78779310132E+03  0.12258695988E+04  0.50400001928E-02 0.  1.
</event>
<event>
 5   0  0.1729375E-04  0.1880421E+04  0.7818609E-02  0.8664664E-01
        3   -1    0    0  501    0  0.00000000000E+00  0.00000000000E+00  0.52899915843E+03  0.52899916807E+03  0.10100000352E+00 0.  1.
       -3   -1    0    0    0  501  0.00000000000E+00  0.00000000000E+00 -0.16710718990E+04  0.16710719021E+04  0.10100000352E+00 0. -1.
    10030    2    1    2    0    0  0.00000000000E+00  0.00000000000E+00 -0.11420727406E+04  0.22000710702E+04  0.18804208489E+04 0.  0.
        2    1    3    3  502    0  0.90984177057E+03 -0.16319742968E+03 -0.77215940740E+03  0.12044399524E+04  0.25500000920E-02 0.  1.
       -2    1    3    3    0  502 -0.90984177057E+03  0.16319742968E+03 -0.36991333322E+03  0.99563111775E+03  0.25500000920E-02 0. -1.
</event>
<event>
 5   0  0.2355414E-04  0.1998543E+04  0.7818609E-02  0.8607302E-01
       -1   -1    0    0    0  501  0.00000000000E+00  0.00000000000E+00  0.74493717709E+03  0.74493717711E+03  0.50400001928E-02 0.  1.
        1   -1    0    0  501    0  0.00000000000E+00  0.00000000000E+00 -0.13404395000E+04  0.13404395001E+04  0.50400001928E-02 0. -1.
    10030    2    1    2    0    0  0.00000000000E+00  0.00000000000E+00 -0.59550232295E+03  0.20853766772E+04  0.19985426863E+04 0.  0.
        5    1    3    3  502    0 -0.71722379016E+03 -0.37859880037E+03  0.31137097087E+03  0.86874679183E+03  0.46999998093E+01 0.  1.
       -5    1    3    3    0  502  0.71722379016E+03  0.37859880037E+03 -0.90687329383E+03  0.12166298853E+04  0.46999998093E+01 0. -1.
</event>
<event>
 5   0  0.4829134E-04  0.1581438E+04  0.7818609E-02  0.8832033E-01
       -2   -1    0    0    0  501  0.00000000000E+00  0.00000000000E+00  0.78128802758E+03  0.78128802758E+03  0.25500000920E-02 0.  1.
        2   -1    0    0  501    0  0.00000000000E+00  0.00000000000E+00 -0.80026382584E+03  0.80026382584E+03  0.25500000920E-02 0. -1.
    10030    2    1    2    0    0  0.00000000000E+00  0.00000000000E+00 -0.18975798255E+02  0.15815518534E+04  0.15814380115E+04 0.  0.
        2    1    3    3  502    0  0.13719950329E+03 -0.74351056873E+03  0.22205603716E+03  0.78799781292E+03  0.25500000920E-02 0.  1.
       -2    1    3    3    0  502 -0.13719950329E+03  0.74351056873E+03 -0.24103183542E+03  0.79355404051E+03  0.25500000920E-02 0. -1.
</event>
<event>
 5   0  0.4829134E-04  0.2054781E+04  0.7818609E-02  0.8581429E-01
        2   -1    0    0  501    0  0.00000000000E+00  0.00000000000E+00  0.20606868736E+04  0.20606868736E+04  0.25500000920E-02 0. -1.
       -2   -1    0    0    0  501  0.00000000000E+00  0.00000000000E+00 -0.51222300012E+03  0.51222300013E+03  0.25500000920E-02 0.  1.
    10030    2    1    2    0    0  0.00000000000E+00  0.00000000000E+00  0.15484638735E+04  0.25729098737E+04  0.20547809739E+04 0.  0.
        2    1    3    3  502    0  0.96234817131E+02 -0.10138505014E+04  0.94397776332E+03  0.13886136960E+04  0.25500000920E-02 0. -1.
       -2    1    3    3    0  502 -0.96234817131E+02  0.10138505014E+04  0.60448611016E+03  0.11842961777E+04  0.25500000920E-02 0.  1.
</event>
<event>
 5   0  0.2317458E-04  0.1911561E+04  0.7818609E-02  0.8649123E-01
       -1   -1    0    0    0  501  0.00000000000E+00  0.00000000000E+00  0.15741075919E+04  0.15741075919E+04  0.50400001928E-02 0. -1.
        1   -1    0    0  501    0  0.00000000000E+00  0.00000000000E+00 -0.58033929891E+03  0.58033929893E+03  0.50400001928E-02 0.  1.
    10030    2    1    2    0    0  0.00000000000E+00  0.00000000000E+00  0.99376829303E+03  0.21544468909E+04  0.19115611383E+04 0.  0.
        3    1    3    3  502    0 -0.36428144243E+03  0.65998343131E+03 -0.16534228467E+03  0.77176238585E+03  0.10100000352E+00 0.  1.
       -3    1    3    3    0  502  0.36428144243E+03 -0.65998343131E+03  0.11591105777E+04  0.13826845050E+04  0.10100000352E+00 0. -1.
</event>
<event>
 5   0  0.4839293E-04  0.1788309E+04  0.7818609E-02  0.8712542E-01
       -2   -1    0    0    0  501  0.00000000000E+00  0.00000000000E+00  0.89514813608E+03  0.89514813608E+03  0.25500000920E-02 0. -1.
        2   -1    0    0  501    0  0.00000000000E+00  0.00000000000E+00 -0.89316147365E+03  0.89316147365E+03  0.25500000920E-02 0.  1.
    10030    2    1    2    0    0  0.00000000000E+00  0.00000000000E+00  0.19866624289E+01  0.17883096097E+04  0.17883085062E+04 0.  0.
        5    1    3    3  502    0  0.29133042569E+03 -0.73399233585E+03  0.42036403763E+03  0.89462069065E+03  0.46999998093E+01 0. -1.
       -5    1    3    3    0  502 -0.29133042569E+03  0.73399233585E+03 -0.41837737520E+03  0.89368891908E+03  0.46999998093E+01 0.  1.
</event>
<event>
 5   0  0.2510069E-04  0.1885646E+04  0.7818609E-02  0.8662034E-01
        1   -1    0    0  501    0  0.00000000000E+00  0.00000000000E+00  0.11240855971E+04  0.11240855971E+04  0.50400001928E-02 0.  1.
       -1   -1    0    0    0  501  0.00000000000E+00  0.00000000000E+00 -0.79078974186E+03  0.79078974188E+03  0.50400001928E-02 0. -1.
    10030    2    1    2    0    0  0.00000000000E+00  0.00000000000E+00  0.33329585525E+03  0.19148753390E+04  0.18856461590E+04 0.  0.
        4    1    3    3  502    0  0.30438007769E+03  0.88616226793E+03  0.27307198163E+03  0.97596143205E+03  0.12699999809E+01 0.  1.
       -4    1    3    3    0  502 -0.30438007769E+03 -0.88616226793E+03  0.60223873626E+02  0.93891390695E+03  0.12699999809E+01 0. -1.
</event>
<event>
 5   0  0.4829134E-04  0.1174528E+04  0.7818609E-02  0.9135449E-01
       -2   -1    0    0    0  501  0.00000000000E+00  0.00000000000E+00  0.15107152269E+03  0.15107152271E+03  0.25500000920E-02 0.  1.
        2   -1    0    0  501    0  0.00000000000E+00  0.00000000000E+00 -0.22828844827E+04  0.22828844827E+04  0.25500000920E-02 0. -1.
    10030    2    1    2    0    0  0.00000000000E+00  0.00000000000E+00 -0.21318129600E+04  0.24339560054E+04  0.11745277093E+04 0.  0.
        2    1    3    3  502    0  0.54879091036E+03 -0.95757287989E+02 -0.68078520975E+03  0.87966438106E+03  0.25500000920E-02 0. -1.
       -2    1    3    3    0  502 -0.54879091036E+03  0.95757287989E+02 -0.14510277502E+04  0.15542916243E+04  0.25500000920E-02 0.  1.
</event>
<event>
 5   0  0.2355414E-04  0.1891285E+04  0.7818609E-02  0.8659207E-01
       -1   -1    0    0    0  501  0.00000000000E+00  0.00000000000E+00  0.18875649720E+04  0.18875649720E+04  0.50400001928E-02 0.  1.
        1   -1    0    0  501    0  0.00000000000E+00  0.00000000000E+00 -0.47375286808E+03  0.47375286811E+03  0.50400001928E-02 0. -1.
    10030    2    1    2    0    0  0.00000000000E+00  0.00000000000E+00  0.14138121039E+04  0.23613178401E+04  0.18912845574E+04 0.  0.
        5    1    3    3  502    0 -0.58104778524E+03 -0.36207578870E+03 -0.10751367514E+03  0.69303440451E+03  0.46999998093E+01 0. -1.
       -5    1    3    3    0  502  0.58104778524E+03  0.36207578870E+03  0.15213257791E+04  0.16682834356E+04  0.46999998093E+01 0.  1.
</event>
<event>
 5   0  0.1729375E-04  0.1185899E+04  0.7818609E-02  0.9125290E-01
       -3   -1    0    0    0  501  0.00000000000E+00  0.00000000000E+00  0.67933934526E+03  0.67933935277E+03  0.10100000352E+00 0. -1.
        3   -1    0    0  501    0  0.00000000000E+00  0.00000000000E+00 -0.51754535937E+03  0.51754536922E+03  0.10100000352E+00 0.  1.
    10030    2    1    2    0    0  0.00000000000E+00  0.00000000000E+00  0.16179398589E+03  0.11968847220E+04  0.11858987073E+04 0.  0.
        2    1    3    3  502    0 -0.20766779493E+03  0.68100934088E+02  0.63720676039E+03  0.67364390130E+03  0.25500000920E-02 0. -1.
       -2    1    3    3    0  502  0.20766779493E+03 -0.68100934088E+02 -0.47541277449E+03  0.52324082069E+03  0.25500000920E-02 0.  1.
</event>
<event>
 5   0  0.2376359E-04  0.1872353E+04  0.7818609E-02  0.8668742E-01
        1   -1    0    0  501    0  0.00000000000E+00  0.00000000000E+00  0.59304511359E+03  0.59304511361E+03  0.50400001928E-02 0.  1.
       -1   -1    0    0    0  501  0.00000000000E+00  0.00000000000E+00 -0.14778403794E+04  0.14778403794E+04  0.50400001928E-02 0. -1.
    10030    2    1    2    0    0  0.00000000000E+00  0.00000000000E+00 -0.88479526578E+03  0.20708854930E+04  0.18723525477E+04 0.  0.
        2    1    3    3  502    0  0.70882519844E+03  0.56292799647E+03 -0.17809271704E+03  0.92251726652E+03  0.25500000920E-02 0.  1.
       -2    1    3    3    0  502 -0.70882519844E+03 -0.56292799647E+03 -0.70670254874E+03  0.11483682265E+04  0.25500000920E-02 0. -1.
</event>
<event>
 5   0  0.2355414E-04  0.1913131E+04  0.7818609E-02  0.8648348E-01
       -1   -1    0    0    0  501  0.00000000000E+00  0.00000000000E+00  0.47311704932E+03  0.47311704935E+03  0.50400001928E-02 0.  1.
        1   -1    0    0  501    0  0.00000000000E+00  0.00000000000E+00 -0.19340186865E+04  0.19340186865E+04  0.50400001928E-02 0. -1.
    10030    2    1    2    0    0  0.00000000000E+00  0.00000000000E+00 -0.14609016372E+04  0.24071357359E+04  0.19131306430E+04 0.  0.
        5    1    3    3  502    0  0.74176922178E+03 -0.46104084311E+03 -0.12213411939E+04  0.15014914716E+04  0.46999998093E+01 0. -1.
       -5    1    3    3    0  502 -0.74176922178E+03  0.46104084311E+03 -0.23956044331E+03  0.90564426427E+03  0.46999998093E+01 0.  1.
</event>
<event>
 5   0  0.4829134E-04  0.1915990E+04  0.7818609E-02  0.8646938E-01
       -2   -1    0    0    0  501  0.00000000000E+00  0.00000000000E+00  0.90074952599E+03  0.90074952600E+03  0.25500000920E-02 0. -1.
        2   -1    0    0  501    0  0.00000000000E+00  0.00000000000E+00 -0.10188785775E+04  0.10188785775E+04  0.25500000920E-02 0.  1.
    10030    2    1    2    0    0  0.00000000000E+00  0.00000000000E+00 -0.11812905150E+03  0.19196281035E+04  0.19159899746E+04 0.  0.
        2    1    3    3  502    0  0.13619850201E+03 -0.12377446421E+02 -0.10090480440E+04  0.10182736314E+04  0.25500000920E-02 0.  1.
       -2    1    3    3    0  502 -0.13619850201E+03  0.12377446421E+02  0.89091899255E+03  0.90135447212E+03  0.25500000920E-02 0. -1.
</event>
<event>
 5   0  0.4829134E-04  0.1703064E+04  0.7818609E-02  0.8759619E-01
        2   -1    0    0  501    0  0.00000000000E+00  0.00000000000E+00  0.10180502173E+04  0.10180502173E+04  0.25500000920E-02 0.  1.
       -2   -1    0    0    0  501  0.00000000000E+00  0.00000000000E+00 -0.71225037268E+03  0.71225037268E+03  0.25500000920E-02 0. -1.
    10030    2    1    2    0    0  0.00000000000E+00  0.00000000000E+00  0.30579984458E+03  0.17303005899E+04  0.17030638821E+04 0.  0.
        2    1    3    3  502    0  0.73207258451E+03 -0.43339199762E+03  0.11560102946E+03  0.85855837927E+03  0.25500000920E-02 0. -1.
       -2    1    3    3    0  502 -0.73207258451E+03  0.43339199762E+03  0.19019881512E+03  0.87174221067E+03  0.25500000920E-02 0.  1.
</event>
<event>
 5   0  0.2510069E-04  0.1909703E+04  0.7818609E-02  0.8650042E-01
       -1   -1    0    0    0  501  0.00000000000E+00  0.00000000000E+00  0.12950209547E+04  0.12950209547E+04  0.50400001928E-02 0. -1.
        1   -1    0    0  501    0  0.00000000000E+00  0.00000000000E+00 -0.70403594671E+03  0.70403594673E+03  0.50400001928E-02 0.  1.
    10030    2    1    2    0    0  0.00000000000E+00  0.00000000000E+00  0.59098500803E+03  0.19990569015E+04  0.19097029129E+04 0.  0.
        4    1    3    3  502    0  0.66410116779E+03  0.68179592961E+03  0.21533521758E+03  0.97583139913E+03  0.12699999809E+01 0.  1.
       -4    1    3    3    0  502 -0.66410116779E+03 -0.68179592961E+03  0.37564979045E+03  0.10232255024E+04  0.12699999809E+01 0. -1.
</event>
<event>
 5   0  0.4761944E-04  0.1852498E+04  0.7818609E-02  0.8678869E-01
        2   -1    0    0  501    0  0.00000000000E+00  0.00000000000E+00  0.11629903979E+04  0.11629903979E+04  0.25500000920E-02 0.  1.
       -2   -1    0    0    0  501  0.00000000000E+00  0.00000000000E+00 -0.73769958305E+03  0.73769958305E+03  0.25500000920E-02 0. -1.
    10030    2    1    2    0    0  0.00000000000E+00  0.00000000000E+00  0.42529081490E+03  0.19006899810E+04  0.18524983473E+04 0.  0.
        4    1    3    3  502    0 -0.52101920397E+02 -0.63559964838E+03 -0.47656932871E+03  0.79612904802E+03  0.12699999809E+01 0. -1.
       -4    1    3    3    0  502  0.52101920397E+02  0.63559964838E+03  0.90186014360E+03  0.11045609330E+04  0.12699999809E+01 0.  1.
</event>
<event>
 5   0  0.1729375E-04  0.1880670E+04  0.7818609E-02  0.8664539E-01
        3   -1    0    0  501    0  0.00000000000E+00  0.00000000000E+00  0.48372073906E+03  0.48372074961E+03  0.10100000352E+00 0. -1.
       -3   -1    0    0    0  501  0.00000000000E+00  0.00000000000E+00 -0.18279753707E+04  0.18279753735E+04  0.10100000352E+00 0.  1.
    10030    2    1    2    0    0  0.00000000000E+00  0.00000000000E+00 -0.13442546316E+04  0.23116961231E+04  0.18806696815E+04 0.  0.
        1    1    3    3  502    0 -0.67308218575E+02  0.62156871748E+03 -0.15354963499E+04  0.16578984008E+04  0.50400001928E-02 0.  1.
       -1    1    3    3    0  502  0.67308218575E+02 -0.62156871748E+03  0.19124171826E+03  0.65379772228E+03  0.50400001928E-02 0. -1.
</event>
<event>
 5   0  0.1729375E-04  0.1816981E+04  0.7818609E-02  0.8697321E-01
       -3   -1    0    0    0  501  0.00000000000E+00  0.00000000000E+00  0.68926266053E+03  0.68926266793E+03  0.10100000352E+00 0.  1.
        3   -1    0    0  501    0  0.00000000000E+00  0.00000000000E+00 -0.11974460718E+04  0.11974460761E+04  0.10100000352E+00 0. -1.
    10030    2    1    2    0    0  0.00000000000E+00  0.00000000000E+00 -0.50818341130E+03  0.18867087440E+04  0.18169808764E+04 0.  0.
        2    1    3    3  502    0  0.15439493898E+03 -0.89305272809E+03 -0.18863363664E+03  0.92572329624E+03  0.25500000920E-02 0. -1.
       -2    1    3    3    0  502 -0.15439493898E+03  0.89305272809E+03 -0.31954977465E+03  0.96098544777E+03  0.25500000920E-02 0.  1.
</event>
<event>
 5   0  0.2317458E-04  0.2007695E+04  0.7818609E-02  0.8603031E-01
        1   -1    0    0  501    0  0.00000000000E+00  0.00000000000E+00  0.12085047246E+04  0.12085047246E+04  0.50400001928E-02 0. -1.
       -1   -1    0    0    0  501  0.00000000000E+00  0.00000000000E+00 -0.83384883354E+03  0.83384883355E+03  0.50400001928E-02 0.  1.
    10030    2    1    2    0    0  0.00000000000E+00  0.00000000000E+00  0.37465589110E+03  0.20423535582E+04  0.20076954500E+04 0.  0.
        3    1    3    3  502    0  0.94524523976E+02  0.28474457039E+03 -0.78717349315E+03  0.84241110778E+03  0.10100000352E+00 0.  1.
       -3    1    3    3    0  502 -0.94524523976E+02 -0.28474457039E+03  0.11618293842E+04  0.11999424504E+04  0.10100000352E+00 0. -1.
</event>
<event>
 5   0  0.4829134E-04  0.1839582E+04  0.7818609E-02  0.8685529E-01
       -2   -1    0    0    0  501  0.00000000000E+00  0.00000000000E+00  0.40663641137E+03  0.40663641137E+03  0.25500000920E-02 0. -1.
        2   -1    0    0  501    0  0.00000000000E+00  0.00000000000E+00 -0.20805199895E+04  0.20805199895E+04  0.25500000920E-02 0.  1.
    10030    2    1    2    0    0  0.00000000000E+00  0.00000000000E+00 -0.16738835781E+04  0.24871564008E+04  0.18395816723E+04 0.  0.
        2    1    3    3  502    0  0.63939652273E+03 -0.66027858422E+03 -0.78972810992E+03  0.12118028757E+04  0.25500000920E-02 0. -1.
       -2    1    3    3    0  502 -0.63939652273E+03  0.66027858422E+03 -0.88415546818E+03  0.12753535251E+04  0.25500000920E-02 0.  1.
</event>
<event>
 5   0  0.2261755E-04  0.1876712E+04  0.7818609E-02  0.8666536E-01
       -1   -1    0    0    0  501  0.00000000000E+00  0.00000000000E+00  0.77771821777E+03  0.77771821779E+03  0.50400001928E-02 0.  1.
        1   -1    0    0  501    0  0.00000000000E+00  0.00000000000E+00 -0.11321735636E+04  0.11321735636E+04  0.50400001928E-02 0. -1.
    10030    2    1    2    0    0  0.00000000000E+00  0.00000000000E+00 -0.35445534582E+03  0.19098917814E+04  0.18767120249E+04 0.  0.
        1    1    3    3  502    0 -0.43196722193E+03 -0.55977130928E+02  0.66860003522E+03  0.79796937731E+03  0.50400001928E-02 0.  1.
       -1    1    3    3    0  502  0.43196722193E+03  0.55977130928E+02 -0.10230553810E+04  0.11119224041E+04  0.50400001928E-02 0. -1.
</event>
<event>
 5   0  0.4829134E-04  0.1827446E+04  0.7818609E-02  0.8691839E-01
       -2   -1    0    0    0  501  0.00000000000E+00  0.00000000000E+00  0.73785065965E+03  0.73785065965E+03  0.25500000920E-02 0. -1.
        2   -1    0    0  501    0  0.00000000000E+00  0.00000000000E+00 -0.11315156591E+04  0.11315156591E+04  0.25500000920E-02 0.  1.
    10030    2    1    2    0    0  0.00000000000E+00  0.00000000000E+00 -0.39366499950E+03  0.18693663188E+04  0.18274458411E+04 0.  0.
        2    1    3    3  502    0 -0.10241817440E+03  0.69371752118E+03 -0.79606554714E+03  0.10608740910E+04  0.25500000920E-02 0.  1.
       -2    1    3    3    0  502  0.10241817440E+03 -0.69371752118E+03  0.40240054764E+03  0.80849222778E+03  0.25500000920E-02 0. -1.
</event>
<event>
 5   0  0.4829134E-04  0.1971903E+04  0.7818609E-02  0.8619871E-01
        2   -1    0    0  501    0  0.00000000000E+00  0.00000000000E+00  0.13945105405E+04  0.13945105405E+04  0.25500000920E-02 0. -1.
       -2   -1    0    0    0  501  0.00000000000E+00  0.00000000000E+00 -0.69709087743E+03  0.69709087744E+03  0.25500000920E-02 0.  1.
    10030    2    1    2    0    0  0.00000000000E+00  0.00000000000E+00  0.69741966304E+03  0.20916014179E+04  0.19719032190E+04 0.  0.
        2    1    3    3  502    0  0.39594393831E+03  0.57809145240E+02 -0.60709207007E+03  0.72709991136E+03  0.25500000920E-02 0.  1.
       -2    1    3    3    0  502 -0.39594393831E+03 -0.57809145240E+02  0.13045117331E+04  0.13645015066E+04  0.25500000920E-02 0. -1.
</event>
<event>
 5   0  0.2317458E-04  0.1514326E+04  0.7818609E-02  0.8874982E-01
       -1   -1    0    0    0  501  0.00000000000E+00  0.00000000000E+00  0.59346545301E+03  0.59346545303E+03  0.50400001928E-02 0. -1.
        1   -1    0    0  501    0  0.00000000000E+00  0.00000000000E+00 -0.96601344597E+03  0.96601344598E+03  0.50400001928E-02 0.  1.
    10030    2    1    2    0    0  0.00000000000E+00  0.00000000000E+00 -0.37254799296E+03  0.15594788990E+04  0.15143257342E+04 0.  0.
        3    1    3    3  502    0  0.33443154054E+03 -0.38928250397E+03  0.38702104696E+03  0.64278349714E+03  0.10100000352E+00 0. -1.
       -3    1    3    3    0  502 -0.33443154054E+03  0.38928250397E+03 -0.75956903992E+03  0.91669540187E+03  0.10100000352E+00 0.  1.
</event>
<event>
 5   0  0.2261755E-04  0.2000844E+04  0.7818609E-02  0.8606226E-01
       -1   -1    0    0    0  501  0.00000000000E+00  0.00000000000E+00  0.95438940883E+03  0.95438940884E+03  0.50400001928E-02 0.  1.
        1   -1    0    0  501    0  0.00000000000E+00  0.00000000000E+00 -0.10486749577E+04  0.10486749577E+04  0.50400001928E-02 0. -1.
    10030    2    1    2    0    0  0.00000000000E+00  0.00000000000E+00 -0.94285548833E+02  0.20030643665E+04  0.20008440948E+04 0.  0.
        1    1    3    3  502    0 -0.96006512418E+03 -0.27196263886E+03 -0.11902463272E+03  0.10049157093E+04  0.50400001928E-02 0. -1.
       -1    1    3    3    0  502  0.96006512418E+03  0.27196263886E+03  0.24739083884E+02  0.99814865721E+03  0.50400001928E-02 0.  1.
</event>
<event>
 5   0  0.2317458E-04  0.2037031E+04  0.7818609E-02  0.8589500E-01
        1   -1    0    0  501    0  0.00000000000E+00  0.00000000000E+00  0.13037423269E+04  0.13037423269E+04  0.50400001928E-02 0.  1.
       -1   -1    0    0    0  501  0.00000000000E+00  0.00000000000E+00 -0.79568956041E+03  0.79568956042E+03  0.50400001928E-02 0. -1.
    10030    2    1    2    0    0  0.00000000000E+00  0.00000000000E+00  0.50805276651E+03  0.20994318873E+04  0.20370313292E+04 0.  0.
        3    1    3    3  502    0 -0.44489193020E+03 -0.25771710755E+03  0.11601792564E+04  0.12690007306E+04  0.10100000352E+00 0.  1.
       -3    1    3    3    0  502  0.44489193020E+03  0.25771710755E+03 -0.65212648989E+03  0.83043115675E+03  0.10100000352E+00 0. -1.
</event>
<event>
 5   0  0.1729375E-04  0.1833568E+04  0.7818609E-02  0.8688649E-01
        3   -1    0    0  501    0  0.00000000000E+00  0.00000000000E+00  0.40038954962E+03  0.40038956235E+03  0.10100000352E+00 0. -1.
       -3   -1    0    0    0  501  0.00000000000E+00  0.00000000000E+00 -0.20991876846E+04  0.20991876870E+04  0.10100000352E+00 0.  1.
    10030    2    1    2    0    0  0.00000000000E+00  0.00000000000E+00 -0.16987981350E+04  0.24995772494E+04  0.18335679213E+04 0.  0.
        4    1    3    3  502    0 -0.37419649530E+03  0.11469219026E+03 -0.19795777856E+04  0.20178967114E+04  0.12699999809E+01 0.  1.
       -4    1    3    3    0  502  0.37419649530E+03 -0.11469219026E+03  0.28077965062E+03  0.48168053802E+03  0.12699999809E+01 0. -1.
</event>
<event>
 5   0  0.2510069E-04  0.1749383E+04  0.7818609E-02  0.8733690E-01
        1   -1    0    0  501    0  0.00000000000E+00  0.00000000000E+00  0.11699857807E+04  0.11699857807E+04  0.50400001928E-02 0.  1.
       -1   -1    0    0    0  501  0.00000000000E+00  0.00000000000E+00 -0.65392694311E+03  0.65392694313E+03  0.50400001928E-02 0. -1.
    10030    2    1    2    0    0  0.00000000000E+00  0.00000000000E+00  0.51605883755E+03  0.18239127238E+04  0.17493830056E+04 0.  0.
        4    1    3    3  502    0  0.43123464630E+03 -0.66721507245E+03  0.63960566527E+03  0.10199197483E+04  0.12699999809E+01 0.  1.
       -4    1    3    3    0  502 -0.43123464630E+03  0.66721507245E+03 -0.12354682772E+03  0.80399297547E+03  0.12699999809E+01 0. -1.
</event>
<event>
 5   0  0.2510069E-04  0.1899107E+04  0.7818609E-02  0.8655301E-01
        1   -1    0    0  501    0  0.00000000000E+00  0.00000000000E+00  0.13409496450E+04  0.13409496450E+04  0.50400001928E-02 0.  1.
       -1   -1    0    0    0  501  0.00000000000E+00  0.00000000000E+00 -0.67239828085E+03  0.67239828087E+03  0.50400001928E-02 0. -1.
    10030    2    1    2    0    0  0.00000000000E+00  0.00000000000E+00  0.66855136415E+03  0.20133479259E+04  0.18991074072E+04 0.  0.
        4    1    3    3  502    0 -0.28432344542E+03 -0.56706475819E+03 -0.41480332833E+03  0.75793513950E+03  0.12699999809E+01 0. -1.
       -4    1    3    3    0  502  0.28432344542E+03  0.56706475819E+03  0.10833546925E+04  0.12554127864E+04  0.12699999809E+01 0.  1.
</event>
<event>
 5   0  0.4973411E-04  0.1874975E+04  0.7818609E-02  0.8667414E-01
       -2   -1    0    0    0  501  0.00000000000E+00  0.00000000000E+00  0.73785582282E+03  0.73785582282E+03  0.25500000920E-02 0.  1.
        2   -1    0    0  501    0  0.00000000000E+00  0.00000000000E+00 -0.11911305939E+04  0.11911305939E+04  0.25500000920E-02 0. -1.
    10030    2    1    2    0    0  0.00000000000E+00  0.00000000000E+00 -0.45327477108E+03  0.19289864167E+04  0.18749748206E+04 0.  0.
        1    1    3    3  502    0 -0.70871868993E+03  0.46153115510E+03 -0.64275048086E+03  0.10622717963E+04  0.50400001928E-02 0. -1.
       -1    1    3    3    0  502  0.70871868993E+03 -0.46153115510E+03  0.18947570979E+03  0.86671462040E+03  0.50400001928E-02 0.  1.
</event>
<event>
 5   0  0.4802635E-04  0.1913445E+04  0.7818609E-02  0.8648193E-01
       -2   -1    0    0    0  501  0.00000000000E+00  0.00000000000E+00  0.51911746121E+03  0.51911746121E+03  0.25500000920E-02 0.  1.
        2   -1    0    0  501    0  0.00000000000E+00  0.00000000000E+00 -0.17632188182E+04  0.17632188182E+04  0.25500000920E-02 0. -1.
    10030    2    1    2    0    0  0.00000000000E+00  0.00000000000E+00 -0.12441013570E+04  0.22823362794E+04  0.19134447224E+04 0.  0.
        3    1    3    3  502    0 -0.59528308264E+02  0.93836522391E+03 -0.41121103971E+03  0.10262394664E+04  0.10100000352E+00 0. -1.
       -3    1    3    3    0  502  0.59528308264E+02 -0.93836522391E+03 -0.83289031726E+03  0.12560968130E+04  0.10100000352E+00 0.  1.
</event>
<event>
 5   0  0.1729375E-04  0.1872921E+04  0.7818609E-02  0.8668454E-01
       -3   -1    0    0    0  501  0.00000000000E+00  0.00000000000E+00  0.69636066680E+03  0.69636067413E+03  0.10100000352E+00 0.  1.
        3   -1    0    0  501    0  0.00000000000E+00  0.00000000000E+00 -0.12593445037E+04  0.12593445077E+04  0.10100000352E+00 0. -1.
    10030    2    1    2    0    0  0.00000000000E+00  0.00000000000E+00 -0.56298383686E+03  0.19557051818E+04  0.18729207025E+04 0.  0.
        2    1    3    3  502    0 -0.91145956667E+03  0.18408834290E+03 -0.39735082435E+03  0.10112045971E+04  0.25500000920E-02 0. -1.
       -2    1    3    3    0  502  0.91145956667E+03 -0.18408834290E+03 -0.16563301251E+03  0.94450058470E+03  0.25500000920E-02 0.  1.
</event>
<event>
 5   0  0.4829134E-04  0.1830325E+04  0.7818609E-02  0.8690337E-01
       -2   -1    0    0    0  501  0.00000000000E+00  0.00000000000E+00  0.61033457888E+03  0.61033457889E+03  0.25500000920E-02 0. -1.
        2   -1    0    0  501    0  0.00000000000E+00  0.00000000000E+00 -0.13722345742E+04  0.13722345742E+04  0.25500000920E-02 0.  1.
    10030    2    1    2    0    0  0.00000000000E+00  0.00000000000E+00 -0.76189999529E+03  0.19825691531E+04  0.18303247919E+04 0.  0.
        2    1    3    3  502    0  0.67587681513E+02  0.52306227908E+02 -0.13679026094E+04  0.13705698030E+04  0.25500000920E-02 0.  1.
       -2    1    3    3    0  502 -0.67587681513E+02 -0.52306227908E+02  0.60600261409E+03  0.61199935005E+03  0.25500000920E-02 0. -1.
</event>
<event>
 5   0  0.4761944E-04  0.1908739E+04  0.7818609E-02  0.8650518E-01
       -2   -1    0    0    0  501  0.00000000000E+00  0.00000000000E+00  0.10512849591E+04  0.10512849591E+04  0.25500000920E-02 0.  1.
        2   -1    0    0  501    0  0.00000000000E+00  0.00000000000E+00 -0.86638877886E+03  0.86638877886E+03  0.25500000920E-02 0. -1.
    10030    2    1    2    0    0  0.00000000000E+00  0.00000000000E+00  0.18489618025E+03  0.19176737380E+04  0.19087393661E+04 0.  0.
        4    1    3    3  502    0 -0.58170300647E+03  0.75629127250E+03  0.70783238702E+02  0.95674801091E+03  0.12699999809E+01 0. -1.
       -4    1    3    3    0  502  0.58170300647E+03 -0.75629127250E+03  0.11411294154E+03  0.96092572706E+03  0.12699999809E+01 0.  1.
</event>
<event>
 5   0  0.2510069E-04  0.1887069E+04  0.7818609E-02  0.8661320E-01
        1   -1    0    0  501    0  0.00000000000E+00  0.00000000000E+00  0.12920846010E+04  0.12920846010E+04  0.50400001928E-02 0.  1.
       -1   -1    0    0    0  501  0.00000000000E+00  0.00000000000E+00 -0.68900855801E+03  0.68900855803E+03  0.50400001928E-02 0. -1.
    10030    2    1    2    0    0  0.00000000000E+00  0.00000000000E+00  0.60307604295E+03  0.19810931590E+04  0.18870689948E+04 0.  0.
        4    1    3    3  502    0  0.81315600166E+03  0.38229680837E+03  0.60377511208E+03  0.10825523228E+04  0.12699999809E+01 0.  1.
       -4    1    3    3    0  502 -0.81315600166E+03 -0.38229680837E+03 -0.69906913250E+00  0.89854083620E+03  0.12699999809E+01 0. -1.
</event>
<event>
 5   0  0.4839293E-04  0.1846644E+04  0.7818609E-02  0.8681880E-01
        2   -1    0    0  501    0  0.00000000000E+00  0.00000000000E+00  0.17389868630E+04  0.17389868631E+04  0.25500000920E-02 0. -1.
       -2   -1    0    0    0  501  0.00000000000E+00  0.00000000000E+00 -0.49024174843E+03  0.49024174844E+03  0.25500000920E-02 0.  1.
    10030    2    1    2    0    0  0.00000000000E+00  0.00000000000E+00  0.12487451146E+04  0.22292286115E+04  0.18466444815E+04 0.  0.
        5    1    3    3  502    0 -0.64544156257E+03 -0.48075591226E+03  0.11706533699E+04  0.14206239686E+04  0.46999998093E+01 0. -1.
       -5    1    3    3    0  502  0.64544156257E+03  0.48075591226E+03  0.78091744762E+02  0.80860464287E+03  0.46999998093E+01 0.  1.
</event>
<event>
 5   0  0.4802635E-04  0.1905437E+04  0.7818609E-02  0.8652155E-01
        2   -1    0    0  501    0  0.00000000000E+00  0.00000000000E+00  0.28989743321E+04  0.28989743321E+04  0.25500000920E-02 0. -1.
       -2   -1    0    0    0  501  0.00000000000E+00  0.00000000000E+00 -0.31310113903E+03  0.31310113904E+03  0.25500000920E-02 0.  1.
    10030    2    1    2    0    0  0.00000000000E+00  0.00000000000E+00  0.25858731931E+04  0.32120754711E+04  0.19054366066E+04 0.  0.
        3    1    3    3  502    0  0.30527441996E+03  0.90160471800E+03  0.13601259918E+04  0.16601283875E+04  0.10100000352E+00 0. -1.
       -3    1    3    3    0  502 -0.30527441996E+03 -0.90160471800E+03  0.12257472012E+04  0.15519470837E+04  0.10100000352E+00 0.  1.
</event>
<event>
 5   0  0.2510069E-04  0.1865380E+04  0.7818609E-02  0.8672283E-01
        1   -1    0    0  501    0  0.00000000000E+00  0.00000000000E+00  0.19918123864E+04  0.19918123864E+04  0.50400001928E-02 0.  1.
       -1   -1    0    0    0  501  0.00000000000E+00  0.00000000000E+00 -0.43674334231E+03  0.43674334234E+03  0.50400001928E-02 0. -1.
    10030    2    1    2    0    0  0.00000000000E+00  0.00000000000E+00  0.15550690441E+04  0.24285557288E+04  0.18653801746E+04 0.  0.
        4    1    3    3  502    0  0.21297590092E+03  0.11661897519E+03  0.19499401135E+04  0.19650004526E+04  0.12699999809E+01 0.  1.
       -4    1    3    3    0  502 -0.21297590092E+03 -0.11661897519E+03 -0.39487106935E+03  0.46355527617E+03  0.12699999809E+01 0. -1.
</event>
<event>
 5   0  0.2317458E-04  0.1883827E+04  0.7818609E-02  0.8662949E-01
       -1   -1    0    0    0  501  0.00000000000E+00  0.00000000000E+00  0.48449109767E+03  0.48449109769E+03  0.50400001928E-02 0. -1.
        1   -1    0    0  501    0  0.00000000000E+00  0.00000000000E+00 -0.18312027150E+04  0.18312027150E+04  0.50400001928E-02 0.  1.
    10030    2    1    2    0    0  0.00000000000E+00  0.00000000000E+00 -0.13467116173E+04  0.23156938127E+04  0.18838273949E+04 0.  0.
        3    1    3    3  502    0 -0.12210215530E+03  0.57325078372E+03  0.23302376663E+03  0.63073408294E+03  0.10100000352E+00 0. -1.
       -3    1    3    3    0  502  0.12210215530E+03 -0.57325078372E+03 -0.15797353839E+04  0.16849597297E+04  0.10100000352E+00 0.  1.
</event>
<event>
 5   0  0.4761944E-04  0.1855825E+04  0.7818609E-02  0.8677163E-01
       -2   -1    0    0    0  501  0.00000000000E+00  0.00000000000E+00  0.40847104388E+03  0.40847104389E+03  0.25500000920E-02 0. -1.
        2   -1    0    0  501    0  0.00000000000E+00  0.00000000000E+00 -0.21079137038E+04  0.21079137038E+04  0.25500000920E-02 0.  1.
    10030    2    1    2    0    0  0.00000000000E+00  0.00000000000E+00 -0.16994426599E+04  0.25163847477E+04  0.18558251114E+04 0.  0.
        4    1    3    3  502    0 -0.20027381155E+03 -0.87494992646E+03 -0.53064872863E+03  0.10427064110E+04  0.12699999809E+01 0. -1.
       -4    1    3    3    0  502  0.20027381155E+03  0.87494992646E+03 -0.11687939313E+04  0.14736783367E+04  0.12699999809E+01 0.  1.
</event>
<event>
 5   0  0.4802635E-04  0.1871802E+04  0.7818609E-02  0.8669021E-01
       -2   -1    0    0    0  501  0.00000000000E+00  0.00000000000E+00  0.43020166061E+03  0.43020166061E+03  0.25500000920E-02 0. -1.
        2   -1    0    0  501    0  0.00000000000E+00  0.00000000000E+00 -0.20360468441E+04  0.20360468441E+04  0.25500000920E-02 0.  1.
    10030    2    1    2    0    0  0.00000000000E+00  0.00000000000E+00 -0.16058451835E+04  0.24662485048E+04  0.18718020552E+04 0.  0.
        3    1    3    3  502    0 -0.48884751667E+02  0.93360971397E+03 -0.74558279428E+03  0.11957886646E+04  0.10100000352E+00 0.  1.
       -3    1    3    3    0  502  0.48884751667E+02 -0.93360971397E+03 -0.86026238925E+03  0.12704598402E+04  0.10100000352E+00 0. -1.
</event>
<event>
 5   0  0.4829134E-04  0.1791615E+04  0.7818609E-02  0.8710771E-01
        2   -1    0    0  501    0  0.00000000000E+00  0.00000000000E+00  0.18124332634E+04  0.18124332634E+04  0.25500000920E-02 0.  1.
       -2   -1    0    0    0  501  0.00000000000E+00  0.00000000000E+00 -0.44275895864E+03  0.44275895864E+03  0.25500000920E-02 0. -1.
    10030    2    1    2    0    0  0.00000000000E+00  0.00000000000E+00  0.13696743048E+04  0.22551922221E+04  0.17916149858E+04 0.  0.
        2    1    3    3  502    0 -0.51742039267E+03  0.36420241528E+03  0.14830302512E+04  0.16123727819E+04  0.25500000920E-02 0.  1.
       -2    1    3    3    0  502  0.51742039267E+03 -0.36420241528E+03 -0.11335594637E+03  0.64281944015E+03  0.25500000920E-02 0. -1.
</event>
<event>
 5   0  0.4829134E-04  0.1734087E+04  0.7818609E-02  0.8742158E-01
        2   -1    0    0  501    0  0.00000000000E+00  0.00000000000E+00  0.69176100984E+03  0.69176100984E+03  0.25500000920E-02 0. -1.
       -2   -1    0    0    0  501  0.00000000000E+00  0.00000000000E+00 -0.10867404196E+04  0.10867404196E+04  0.25500000920E-02 0.  1.
    10030    2    1    2    0    0  0.00000000000E+00  0.00000000000E+00 -0.39497940973E+03  0.17785014294E+04  0.17340872528E+04 0.  0.
        2    1    3    3  502    0  0.35369650980E+02 -0.34499287350E+03  0.61752929667E+03  0.70824679825E+03  0.25500000920E-02 0. -1.
       -2    1    3    3    0  502 -0.35369650980E+02  0.34499287350E+03 -0.10125087064E+04  0.10702546312E+04  0.25500000920E-02 0.  1.
</event>
<event>
 5   0  0.4761944E-04  0.1962665E+04  0.7818609E-02  0.8624278E-01
       -2   -1    0    0    0  501  0.00000000000E+00  0.00000000000E+00  0.38005855418E+03  0.38005855419E+03  0.25500000920E-02 0. -1.
        2   -1    0    0  501    0  0.00000000000E+00  0.00000000000E+00 -0.25338563924E+04  0.25338563924E+04  0.25500000920E-02 0.  1.
    10030    2    1    2    0    0  0.00000000000E+00  0.00000000000E+00 -0.21537978382E+04  0.29139149466E+04  0.19626653276E+04 0.  0.
        4    1    3    3  502    0 -0.15717271505E+03  0.36274787347E+03 -0.24103982864E+04  0.24426032822E+04  0.12699999809E+01 0.  1.
       -4    1    3    3    0  502  0.15717271505E+03 -0.36274787347E+03  0.25660044822E+03  0.47131166439E+03  0.12699999809E+01 0. -1.
</event>
<event>
 5   0  0.4839293E-04  0.1998834E+04  0.7818609E-02  0.8607166E-01
        2   -1    0    0  501    0  0.00000000000E+00  0.00000000000E+00  0.10588364362E+04  0.10588364362E+04  0.25500000920E-02 0.  1.
       -2   -1    0    0    0  501  0.00000000000E+00  0.00000000000E+00 -0.94333162248E+03  0.94333162248E+03  0.25500000920E-02 0. -1.
    10030    2    1    2    0    0  0.00000000000E+00  0.00000000000E+00  0.11550481374E+03  0.20021680587E+04  0.19988335532E+04 0.  0.
        5    1    3    3  502    0  0.31069352522E+03  0.46766839765E+03 -0.77040832573E+03  0.95330754488E+03  0.46999998093E+01 0. -1.
       -5    1    3    3    0  502 -0.31069352522E+03 -0.46766839765E+03  0.88591313947E+03  0.10488605138E+04  0.46999998093E+01 0.  1.
</event>
<event>
 5   0  0.4839293E-04  0.1966462E+04  0.7818609E-02  0.8622463E-01
        2   -1    0    0  501    0  0.00000000000E+00  0.00000000000E+00  0.20544641766E+04  0.20544641766E+04  0.25500000920E-02 0.  1.
       -2   -1    0    0    0  501  0.00000000000E+00  0.00000000000E+00 -0.47055715082E+03  0.47055715083E+03  0.25500000920E-02 0. -1.
    10030    2    1    2    0    0  0.00000000000E+00  0.00000000000E+00  0.15839070258E+04  0.25250213274E+04  0.19664616034E+04 0.  0.
        5    1    3    3  502    0  0.47896852337E+03 -0.35012614781E+03  0.17986969339E+04  0.18940253208E+04  0.46999998093E+01 0.  1.
       -5    1    3    3    0  502 -0.47896852337E+03  0.35012614781E+03 -0.21478990814E+03  0.63099600663E+03  0.46999998093E+01 0. -1.
</event>
<event>
 5   0  0.4802635E-04  0.1952066E+04  0.7818609E-02  0.8629365E-01
        2   -1    0    0  501    0  0.00000000000E+00  0.00000000000E+00  0.14129589742E+04  0.14129589742E+04  0.25500000920E-02 0. -1.
       -2   -1    0    0    0  501  0.00000000000E+00  0.00000000000E+00 -0.67421650243E+03  0.67421650244E+03  0.25500000920E-02 0.  1.
    10030    2    1    2    0    0  0.00000000000E+00  0.00000000000E+00  0.73874247176E+03  0.20871754766E+04  0.19520658367E+04 0.  0.
        3    1    3    3  502    0  0.87003010287E+03 -0.43816141057E+03  0.30431201467E+03  0.10205604412E+04  0.10100000352E+00 0. -1.
       -3    1    3    3    0  502 -0.87003010287E+03  0.43816141057E+03  0.43443045709E+03  0.10666150355E+04  0.10100000352E+00 0.  1.
</event>
<event>
 5   0  0.2261755E-04  0.1783846E+04  0.7818609E-02  0.8714938E-01
       -1   -1    0    0    0  501  0.00000000000E+00  0.00000000000E+00  0.93952425937E+03  0.93952425939E+03  0.50400001928E-02 0.  1.
        1   -1    0    0  501    0  0.00000000000E+00  0.00000000000E+00 -0.84673308234E+03  0.84673308235E+03  0.50400001928E-02 0. -1.
    10030    2    1    2    0    0  0.00000000000E+00  0.00000000000E+00  0.92791177036E+02  0.17862573417E+04  0.17838455898E+04 0.  0.
        1    1    3    3  502    0  0.60430765673E+03 -0.48690099416E+03  0.48661018707E+03  0.91599661369E+03  0.50400001928E-02 0.  1.
       -1    1    3    3    0  502 -0.60430765673E+03  0.48690099416E+03 -0.39381901003E+03  0.87026072805E+03  0.50400001928E-02 0. -1.
</event>
<event>
 5   0  0.2261755E-04  0.1931801E+04  0.7818609E-02  0.8639187E-01
       -1   -1    0    0    0  501  0.00000000000E+00  0.00000000000E+00  0.93116441801E+03  0.93116441802E+03  0.50400001928E-02 0. -1.
        1   -1    0    0  501    0  0.00000000000E+00  0.00000000000E+00 -0.10019327322E+04  0.10019327322E+04  0.50400001928E-02 0.  1.
    10030    2    1    2    0    0  0.00000000000E+00  0.00000000000E+00 -0.70768314211E+02  0.19330971503E+04  0.19318013454E+04 0.  0.
        1    1    3    3  502    0  0.32355226443E+03  0.50936518810E+03 -0.79009503592E+03  0.99417761416E+03  0.50400001928E-02 0.  1.
       -1    1    3    3    0  502 -0.32355226443E+03 -0.50936518810E+03  0.71932672171E+03  0.93891953610E+03  0.50400001928E-02 0. -1.
</event>
<event>
 5   0  0.4829134E-04  0.1914934E+04  0.7818609E-02  0.8647458E-01
       -2   -1    0    0    0  501  0.00000000000E+00  0.00000000000E+00  0.13093824305E+04  0.13093824305E+04  0.25500000920E-02 0. -1.
        2   -1    0    0  501    0  0.00000000000E+00  0.00000000000E+00 -0.70013411647E+03  0.70013411647E+03  0.25500000920E-02 0.  1.
    10030    2    1    2    0    0  0.00000000000E+00  0.00000000000E+00  0.60924831407E+03  0.20095165470E+04  0.19149342664E+04 0.  0.
        2    1    3    3  502    0 -0.22472879110E+03  0.60002457446E+03 -0.44200236959E+03  0.77839489607E+03  0.25500000920E-02 0.  1.
       -2    1    3    3    0  502  0.22472879110E+03 -0.60002457446E+03  0.10512506837E+04  0.12311216509E+04  0.25500000920E-02 0. -1.
</event>
<event>
 5   0  0.4761944E-04  0.2252531E+04  0.7818609E-02  0.8496876E-01
        2   -1    0    0  501    0  0.00000000000E+00  0.00000000000E+00  0.14934414969E+04  0.14934414969E+04  0.25500000920E-02 0.  1.
       -2   -1    0    0    0  501  0.00000000000E+00  0.00000000000E+00 -0.84936313307E+03  0.84936313307E+03  0.25500000920E-02 0. -1.
    10030    2    1    2    0    0  0.00000000000E+00  0.00000000000E+00  0.64407836388E+03  0.23428046300E+04  0.22525311531E+04 0.  0.
        4    1    3    3  502    0 -0.91648868009E+03  0.38579854587E+03  0.87208184320E+03  0.13226187557E+04  0.12699999809E+01 0.  1.
       -4    1    3    3    0  502  0.91648868009E+03 -0.38579854587E+03 -0.22800347933E+03  0.10201858743E+04  0.12699999809E+01 0. -1.
</event>
<event>
 5   0  0.2355414E-04  0.1929373E+04  0.7818609E-02  0.8640372E-01
       -1   -1    0    0    0  501  0.00000000000E+00  0.00000000000E+00  0.12718251523E+04  0.12718251523E+04  0.50400001928E-02 0. -1.
        1   -1    0    0  501    0  0.00000000000E+00  0.00000000000E+00 -0.73172002498E+03  0.73172002499E+03  0.50400001928E-02 0.  1.
    10030    2    1    2    0    0  0.00000000000E+00  0.00000000000E+00  0.54010512729E+03  0.20035451773E+04  0.19293728849E+04 0.  0.
        5    1    3    3  502    0 -0.91313740269E+03 -0.30911953965E+03  0.23373617713E+03  0.99198260896E+03  0.46999998093E+01 0.  1.
       -5    1    3    3    0  502  0.91313740269E+03  0.30911953965E+03  0.30636895016E+03  0.10115625683E+04  0.46999998093E+01 0. -1.
</event>
<event>
 5   0  0.4973411E-04  0.2086669E+04  0.7818609E-02  0.8567138E-01
        2   -1    0    0  501    0  0.00000000000E+00  0.00000000000E+00  0.16601769401E+04  0.16601769401E+04  0.25500000920E-02 0.  1.
       -2   -1    0    0    0  501  0.00000000000E+00  0.00000000000E+00 -0.65568144893E+03  0.65568144894E+03  0.25500000920E-02 0. -1.
    10030    2    1    2    0    0  0.00000000000E+00  0.00000000000E+00  0.10044954912E+04  0.23158583890E+04  0.20866693284E+04 0.  0.
        1    1    3    3  502    0  0.71151635940E+02 -0.10187259917E+04  0.26503882529E+03  0.10550406535E+04  0.50400001928E-02 0. -1.
       -1    1    3    3    0  502 -0.71151635940E+02  0.10187259917E+04  0.73945666586E+03  0.12608177355E+04  0.50400001928E-02 0.  1.
</event>
<event>
 5   0  0.2355414E-04  0.1607393E+04  0.7818609E-02  0.8816019E-01
        1   -1    0    0  501    0  0.00000000000E+00  0.00000000000E+00  0.18783242368E+04  0.18783242368E+04  0.50400001928E-02 0.  1.
       -1   -1    0    0    0  501  0.00000000000E+00  0.00000000000E+00 -0.34388535578E+03  0.34388535582E+03  0.50400001928E-02 0. -1.
    10030    2    1    2    0    0  0.00000000000E+00  0.00000000000E+00  0.15344388810E+04  0.22222095927E+04  0.16073931672E+04 0.  0.
        5    1    3    3  502    0  0.58922385634E+03 -0.16183052838E+02  0.15224952548E+04  0.16326238192E+04  0.46999998093E+01 0.  1.
       -5    1    3    3    0  502 -0.58922385634E+03  0.16183052838E+02  0.11943626253E+02  0.58958577347E+03  0.46999998093E+01 0. -1.
</event>
<event>
 5   0  0.2510069E-04  0.1879681E+04  0.7818609E-02  0.8665037E-01
       -1   -1    0    0    0  501  0.00000000000E+00  0.00000000000E+00  0.69892231884E+03  0.69892231886E+03  0.50400001928E-02 0. -1.
        1   -1    0    0  501    0  0.00000000000E+00  0.00000000000E+00 -0.12638026403E+04  0.12638026404E+04  0.50400001928E-02 0.  1.
    10030    2    1    2    0    0  0.00000000000E+00  0.00000000000E+00 -0.56488032150E+03  0.19627249592E+04  0.18796806877E+04 0.  0.
        4    1    3    3  502    0  0.37979094461E+03 -0.56633825392E+03 -0.95778981740E+03  0.11757308904E+04  0.12699999809E+01 0.  1.
       -4    1    3    3    0  502 -0.37979094461E+03  0.56633825392E+03  0.39290949590E+03  0.78699406880E+03  0.12699999809E+01 0. -1.
</event>
<event>
 5   0  0.2261755E-04  0.1981590E+04  0.7818609E-02  0.8615277E-01
        1   -1    0    0  501    0  0.00000000000E+00  0.00000000000E+00  0.14316431427E+04  0.14316431427E+04  0.50400001928E-02 0. -1.
       -1   -1    0    0    0  501  0.00000000000E+00  0.00000000000E+00 -0.68569800506E+03  0.68569800508E+03  0.50400001928E-02 0.  1.
    10030    2    1    2    0    0  0.00000000000E+00  0.00000000000E+00  0.74594513768E+03  0.21173411478E+04  0.19815901160E+04 0.  0.
        1    1    3    3  502    0  0.88624047465E+02  0.22710087911E+03  0.13990977775E+04  0.14201773206E+04  0.50400001928E-02 0. -1.
       -1    1    3    3    0  502 -0.88624047465E+02 -0.22710087911E+03 -0.65315263978E+03  0.69716382720E+03  0.50400001928E-02 0.  1.
</event>
<event>
 5   0  0.2261755E-04  0.1845512E+04  0.7818609E-02  0.8682464E-01
        1   -1    0    0  501    0  0.00000000000E+00  0.00000000000E+00  0.76950833167E+03  0.76950833169E+03  0.50400001928E-02 0. -1.
       -1   -1    0    0    0  501  0.00000000000E+00  0.00000000000E+00 -0.11065231049E+04  0.11065231049E+04  0.50400001928E-02 0.  1.
    10030    2    1    2    0    0  0.00000000000E+00  0.00000000000E+00 -0.33701477327E+03  0.18760314366E+04  0.18455121224E+04 0.  0.
        1    1    3    3  502    0  0.74384344395E+03  0.53087908750E+03 -0.38553258415E+02  0.91467044798E+03  0.50400001928E-02 0. -1.
       -1    1    3    3    0  502 -0.74384344395E+03 -0.53087908750E+03 -0.29846151485E+03  0.96136098866E+03  0.50400001928E-02 0.  1.
</event>
<event>
 5   0  0.2261755E-04  0.1861489E+04  0.7818609E-02  0.8674267E-01
        1   -1    0    0  501    0  0.00000000000E+00  0.00000000000E+00  0.13877518333E+04  0.13877518334E+04  0.50400001928E-02 0. -1.
       -1   -1    0    0    0  501  0.00000000000E+00  0.00000000000E+00 -0.62423646850E+03  0.62423646852E+03  0.50400001928E-02 0.  1.
    10030    2    1    2    0    0  0.00000000000E+00  0.00000000000E+00  0.76351536485E+03  0.20119883019E+04  0.18614889778E+04 0.  0.
        1    1    3    3  502    0 -0.48472617359E+03 -0.25436006820E+03 -0.43184718212E+03  0.69724493285E+03  0.50400001928E-02 0.  1.
       -1    1    3    3    0  502  0.48472617359E+03  0.25436006820E+03  0.11953625470E+04  0.13147433690E+04  0.50400001928E-02 0. -1.
</event>
<event>
 5   0  0.2376359E-04  0.1039076E+04  0.7818609E-02  0.9266695E-01
        1   -1    0    0  501    0  0.00000000000E+00  0.00000000000E+00  0.81996302950E+03  0.81996302951E+03  0.50400001928E-02 0. -1.
       -1   -1    0    0    0  501  0.00000000000E+00  0.00000000000E+00 -0.32918546938E+03  0.32918546942E+03  0.50400001928E-02 0.  1.
    10030    2    1    2    0    0  0.00000000000E+00  0.00000000000E+00  0.49077756012E+03  0.11491484989E+04  0.10390763490E+04 0.  0.
        2    1    3    3  502    0 -0.61904617458E+02  0.17641466391E+03 -0.29069273958E+03  0.34562491831E+03  0.25500000920E-02 0.  1.
       -2    1    3    3    0  502  0.61904617458E+02 -0.17641466391E+03  0.78147029969E+03  0.80352358062E+03  0.25500000920E-02 0. -1.
</event>
<event>
 5   0  0.2355414E-04  0.1897077E+04  0.7818609E-02  0.8656313E-01
       -1   -1    0    0    0  501  0.00000000000E+00  0.00000000000E+00  0.83486853854E+03  0.83486853856E+03  0.50400001928E-02 0.  1.
        1   -1    0    0  501    0  0.00000000000E+00  0.00000000000E+00 -0.10776851101E+04  0.10776851101E+04  0.50400001928E-02 0. -1.
    10030    2    1    2    0    0  0.00000000000E+00  0.00000000000E+00 -0.24281657155E+03  0.19125536487E+04  0.18970771127E+04 0.  0.
        5    1    3    3  502    0  0.72403171502E+03  0.78018069450E+01 -0.73912256350E+03  0.10347014286E+04  0.46999998093E+01 0. -1.
       -5    1    3    3    0  502 -0.72403171502E+03 -0.78018069450E+01  0.49630599196E+03  0.87785222002E+03  0.46999998093E+01 0.  1.
</event>
<event>
 5   0  0.4802635E-04  0.1888527E+04  0.7818609E-02  0.8660588E-01
       -2   -1    0    0    0  501  0.00000000000E+00  0.00000000000E+00  0.14006601274E+04  0.14006601274E+04  0.25500000920E-02 0. -1.
        2   -1    0    0  501    0  0.00000000000E+00  0.00000000000E+00 -0.63658102426E+03  0.63658102427E+03  0.25500000920E-02 0.  1.
    10030    2    1    2    0    0  0.00000000000E+00  0.00000000000E+00  0.76407910311E+03  0.20372411516E+04  0.18885271071E+04 0.  0.
        3    1    3    3  502    0  0.77360043038E+03  0.26654456341E+03 -0.12638070259E+03  0.82793461237E+03  0.10100000352E+00 0.  1.
       -3    1    3    3    0  502 -0.77360043038E+03 -0.26654456341E+03  0.89045980570E+03  0.12093065393E+04  0.10100000352E+00 0. -1.
</event>
<event>
 5   0  0.2317458E-04  0.2100542E+04  0.7818609E-02  0.8561004E-01
        1   -1    0    0  501    0  0.00000000000E+00  0.00000000000E+00  0.69866964241E+03  0.69866964242E+03  0.50400001928E-02 0. -1.
       -1   -1    0    0    0  501  0.00000000000E+00  0.00000000000E+00 -0.15788143472E+04  0.15788143472E+04  0.50400001928E-02 0.  1.
    10030    2    1    2    0    0  0.00000000000E+00  0.00000000000E+00 -0.88014470476E+03  0.22774839896E+04  0.21005424589E+04 0.  0.
        3    1    3    3  502    0  0.72837548689E+03 -0.73539414389E+03 -0.24692534801E+03  0.10640994006E+04  0.10100000352E+00 0.  1.
       -3    1    3    3    0  502 -0.72837548689E+03  0.73539414389E+03 -0.63321935675E+03  0.12133845890E+04  0.10100000352E+00 0. -1.
</event>
<event>
 5   0  0.2376359E-04  0.1944659E+04  0.7818609E-02  0.8632940E-01
        1   -1    0    0  501    0  0.00000000000E+00  0.00000000000E+00  0.96475130121E+03  0.96475130122E+03  0.50400001928E-02 0. -1.
       -1   -1    0    0    0  501  0.00000000000E+00  0.00000000000E+00 -0.97996751734E+03  0.97996751736E+03  0.50400001928E-02 0.  1.
    10030    2    1    2    0    0  0.00000000000E+00  0.00000000000E+00 -0.15216216140E+02  0.19447188186E+04  0.19446592889E+04 0.  0.
        2    1    3    3  502    0 -0.87572968347E+03 -0.34971300118E+02 -0.42869043052E+03  0.97565411676E+03  0.25500000920E-02 0.  1.
       -2    1    3    3    0  502  0.87572968347E+03  0.34971300118E+02  0.41347421438E+03  0.96906470181E+03  0.25500000920E-02 0. -1.
</event>
<event>
 5   0  0.4839293E-04  0.1910128E+04  0.7818609E-02  0.8649831E-01
        2   -1    0    0  501    0  0.00000000000E+00  0.00000000000E+00  0.79609008288E+03  0.79609008288E+03  0.25500000920E-02 0. -1.
       -2   -1    0    0    0  501  0.00000000000E+00  0.00000000000E+00 -0.11457842590E+04  0.11457842590E+04  0.25500000920E-02 0.  1.
    10030    2    1    2    0    0  0.00000000000E+00  0.00000000000E+00 -0.34969417615E+03  0.19418743419E+04  0.19101282530E+04 0.  0.
        5    1    3    3  502    0  0.61407137816E+03  0.27583575349E+03 -0.86356963139E+03  0.10949628389E+04  0.46999998093E+01 0.  1.
       -5    1    3    3    0  502 -0.61407137816E+03 -0.27583575349E+03  0.51387545524E+03  0.84691150298E+03  0.46999998093E+01 0. -1.
</event>
<event>
 5   0  0.4802635E-04  0.1637620E+04  0.7818609E-02  0.8797764E-01
       -2   -1    0    0    0  501  0.00000000000E+00  0.00000000000E+00  0.66218098115E+03  0.66218098115E+03  0.25500000920E-02 0.  1.
        2   -1    0    0  501    0  0.00000000000E+00  0.00000000000E+00 -0.10124877227E+04  0.10124877227E+04  0.25500000920E-02 0. -1.
    10030    2    1    2    0    0  0.00000000000E+00  0.00000000000E+00 -0.35030674155E+03  0.16746687039E+04  0.16376203634E+04 0.  0.
        3    1    3    3  502    0 -0.55138704205E+03  0.40557319290E+03  0.28438219345E+03  0.74120882826E+03  0.10100000352E+00 0.  1.
       -3    1    3    3    0  502  0.55138704205E+03 -0.40557319290E+03 -0.63468893500E+03  0.93345987560E+03  0.10100000352E+00 0. -1.
</event>
<event>
 5   0  0.2261755E-04  0.1337908E+04  0.7818609E-02  0.9000032E-01
        1   -1    0    0  501    0  0.00000000000E+00  0.00000000000E+00  0.50283824931E+03  0.50283824934E+03  0.50400001928E-02 0.  1.
       -1   -1    0    0    0  501  0.00000000000E+00  0.00000000000E+00 -0.88994718971E+03  0.88994718973E+03  0.50400001928E-02 0. -1.
    10030    2    1    2    0    0  0.00000000000E+00  0.00000000000E+00 -0.38710894040E+03  0.13927854391E+04  0.13379080490E+04 0.  0.
        1    1    3    3  502    0  0.44541706763E+03 -0.67875865236E+02 -0.70830146674E+03  0.83946081805E+03  0.50400001928E-02 0. -1.
       -1    1    3    3    0  502 -0.44541706763E+03  0.67875865236E+02  0.32119252634E+03  0.55332462102E+03  0.50400001928E-02 0.  1.
</event>
<event>
 5   0  0.4761944E-04  0.1949413E+04  0.7818609E-02  0.8630644E-01
       -2   -1    0    0    0  501  0.00000000000E+00  0.00000000000E+00  0.37980259241E+03  0.37980259242E+03  0.25500000920E-02 0. -1.
        2   -1    0    0  501    0  0.00000000000E+00  0.00000000000E+00 -0.25014385480E+04  0.25014385480E+04  0.25500000920E-02 0.  1.
    10030    2    1    2    0    0  0.00000000000E+00  0.00000000000E+00 -0.21216359556E+04  0.28812411404E+04  0.19494130863E+04 0.  0.
        4    1    3    3  502    0 -0.13876280613E+03 -0.11271826387E+03  0.35536224918E+03  0.39779952792E+03  0.12699999809E+01 0. -1.
       -4    1    3    3    0  502  0.13876280613E+03  0.11271826387E+03 -0.24769982048E+04  0.24834416125E+04  0.12699999809E+01 0.  1.
</event>
<event>
 5   0  0.4973411E-04  0.1883419E+04  0.7818609E-02  0.8663154E-01
        2   -1    0    0  501    0  0.00000000000E+00  0.00000000000E+00  0.13526951926E+04  0.13526951926E+04  0.25500000920E-02 0.  1.
       -2   -1    0    0    0  501  0.00000000000E+00  0.00000000000E+00 -0.65559220024E+03  0.65559220024E+03  0.25500000920E-02 0. -1.
    10030    2    1    2    0    0  0.00000000000E+00  0.00000000000E+00  0.69710299240E+03  0.20082873929E+04  0.18834186126E+04 0.  0.
        1    1    3    3  502    0  0.82556159088E+03 -0.14075294047E+03  0.80774531925E+03  0.11635359175E+04  0.50400001928E-02 0.  1.
       -1    1    3    3    0  502 -0.82556159088E+03  0.14075294047E+03 -0.11064232685E+03  0.84475147535E+03  0.50400001928E-02 0. -1.
</event>
<event>
 5   0  0.4802635E-04  0.1332192E+04  0.7818609E-02  0.9004419E-01
       -2   -1    0    0    0  501  0.00000000000E+00  0.00000000000E+00  0.22928878665E+04  0.22928878665E+04  0.25500000920E-02 0.  1.
        2   -1    0    0  501    0  0.00000000000E+00  0.00000000000E+00 -0.19350432098E+03  0.19350432100E+03  0.25500000920E-02 0. -1.
    10030    2    1    2    0    0  0.00000000000E+00  0.00000000000E+00  0.20993835455E+04  0.24863921875E+04  0.13321917425E+04 0.  0.
        3    1    3    3  502    0  0.46748171313E+03 -0.19501156872E+03  0.18570332004E+04  0.19248742768E+04  0.10100000352E+00 0.  1.
       -3    1    3    3    0  502 -0.46748171313E+03  0.19501156872E+03  0.24235034518E+03  0.56151791072E+03  0.10100000352E+00 0. -1.
</event>
<event>
 5   0  0.2355414E-04  0.1877328E+04  0.7818609E-02  0.8666225E-01
       -1   -1    0    0    0  501  0.00000000000E+00  0.00000000000E+00  0.68204929065E+03  0.68204929066E+03  0.50400001928E-02 0.  1.
        1   -1    0    0  501    0  0.00000000000E+00  0.00000000000E+00 -0.12918278337E+04  0.12918278338E+04  0.50400001928E-02 0. -1.
    10030    2    1    2    0    0  0.00000000000E+00  0.00000000000E+00 -0.60977854310E+03  0.19738771244E+04  0.18773281628E+04 0.  0.
        5    1    3    3  502    0 -0.61206752666E+03  0.68353468438E+03 -0.51311957513E+03  0.10512659560E+04  0.46999998093E+01 0. -1.
       -5    1    3    3    0  502  0.61206752666E+03 -0.68353468438E+03 -0.96658967970E+02  0.92261116838E+03  0.46999998093E+01 0.  1.
</event>
<event>
 5   0  0.2376359E-04  0.1867711E+04  0.7818609E-02  0.8671098E-01
       -1   -1    0    0    0  501  0.00000000000E+00  0.00000000000E+00  0.77035089973E+03  0.77035089975E+03  0.50400001928E-02 0. -1.
        1   -1    0    0  501    0  0.00000000000E+00  0.00000000000E+00 -0.11320628863E+04  0.11320628863E+04  0.50400001928E-02 0.  1.
    10030    2    1    2    0    0  0.00000000000E+00  0.00000000000E+00 -0.36171198656E+03  0.19024137861E+04  0.18677105376E+04 0.  0.
        2    1    3    3  502    0  0.24161916716E+03 -0.89896466801E+03 -0.25686399791E+03  0.96565853680E+03  0.25500000920E-02 0.  1.
       -2    1    3    3    0  502 -0.24161916716E+03  0.89896466801E+03 -0.10484798865E+03  0.93675524925E+03  0.25500000920E-02 0. -1.
</event>
<event>
 5   0  0.2317458E-04  0.1860884E+04  0.7818609E-02  0.8674576E-01
        1   -1    0    0  501    0  0.00000000000E+00  0.00000000000E+00  0.10130671454E+04  0.10130671454E+04  0.50400001928E-02 0. -1.
       -1   -1    0    0    0  501  0.00000000000E+00  0.00000000000E+00 -0.85455574885E+03  0.85455574887E+03  0.50400001928E-02 0.  1.
    10030    2    1    2    0    0  0.00000000000E+00  0.00000000000E+00  0.15851139650E+03  0.18676228942E+04  0.18608840405E+04 0.  0.
        3    1    3    3  502    0  0.94446459741E+02  0.23865713947E+03 -0.81832352097E+03  0.85763089913E+03  0.10100000352E+00 0.  1.
       -3    1    3    3    0  502 -0.94446459741E+02 -0.23865713947E+03  0.97683491747E+03  0.10099919951E+04  0.10100000352E+00 0. -1.
</event>
<event>
 5   0  0.4829134E-04  0.1809020E+04  0.7818609E-02  0.8701517E-01
        2   -1    0    0  501    0  0.00000000000E+00  0.00000000000E+00  0.16025310112E+04  0.16025310112E+04  0.25500000920E-02 0. -1.
       -2   -1    0    0    0  501  0.00000000000E+00  0.00000000000E+00 -0.51052887977E+03  0.51052887978E+03  0.25500000920E-02 0.  1.
    10030    2    1    2    0    0  0.00000000000E+00  0.00000000000E+00  0.10920021314E+04  0.21130598910E+04  0.18090200242E+04 0.  0.
        2    1    3    3  502    0 -0.67788877079E+03  0.45919998209E+03  0.97030063224E+02  0.82450751500E+03  0.25500000920E-02 0.  1.
       -2    1    3    3    0  502  0.67788877079E+03 -0.45919998209E+03  0.99497206819E+03  0.12885523760E+04  0.25500000920E-02 0. -1.
</event>
<event>
 5   0  0.4761944E-04  0.2079523E+04  0.7818609E-02  0.8570318E-01
        2   -1    0    0  501    0  0.00000000000E+00  0.00000000000E+00  0.13386774160E+04  0.13386774160E+04  0.25500000920E-02 0. -1.
       -2   -1    0    0    0  501  0.00000000000E+00  0.00000000000E+00 -0.80759100729E+03  0.80759100730E+03  0.25500000920E-02 0.  1.
    10030    2    1    2    0    0  0.00000000000E+00  0.00000000000E+00  0.53108640870E+03  0.21462684233E+04  0.20795228711E+04 0.  0.
        4    1    3    3  502    0 -0.99315809570E+03  0.23646532817E+03  0.46890388219E+03  0.11234550806E+04  0.12699999809E+01 0. -1.
       -4    1    3    3    0  502  0.99315809570E+03 -0.23646532817E+03  0.62182526509E+02  0.10228133427E+04  0.12699999809E+01 0.  1.
</event>
<event>
 5   0  0.2376359E-04  0.1924820E+04  0.7818609E-02  0.8642600E-01
        1   -1    0    0  501    0  0.00000000000E+00  0.00000000000E+00  0.94663400565E+03  0.94663400566E+03  0.50400001928E-02 0.  1.
       -1   -1    0    0    0  501  0.00000000000E+00  0.00000000000E+00 -0.97844847724E+03  0.97844847726E+03  0.50400001928E-02 0. -1.
    10030    2    1    2    0    0  0.00000000000E+00  0.00000000000E+00 -0.31814471597E+02  0.19250824829E+04  0.19248195774E+04 0.  0.
        2    1    3    3  502    0 -0.67915147614E+03  0.21128615745E+03  0.63252076211E+03  0.95182513225E+03  0.25500000920E-02 0.  1.
       -2    1    3    3    0  502  0.67915147614E+03 -0.21128615745E+03 -0.66433523370E+03  0.97325735067E+03  0.25500000920E-02 0. -1.
</event>
<event>
 5   0  0.2355414E-04  0.1877400E+04  0.7818609E-02  0.8666188E-01
        1   -1    0    0  501    0  0.00000000000E+00  0.00000000000E+00  0.80064856335E+03  0.80064856337E+03  0.50400001928E-02 0.  1.
       -1   -1    0    0    0  501  0.00000000000E+00  0.00000000000E+00 -0.11005546556E+04  0.11005546556E+04  0.50400001928E-02 0. -1.
    10030    2    1    2    0    0  0.00000000000E+00  0.00000000000E+00 -0.29990609226E+03  0.19012032190E+04  0.18773998018E+04 0.  0.
        5    1    3    3  502    0  0.91938659392E+02 -0.89798322909E+03 -0.41072291798E+03  0.99173686135E+03  0.46999998093E+01 0. -1.
       -5    1    3    3    0  502 -0.91938659392E+02  0.89798322909E+03  0.11081682573E+03  0.90946635764E+03  0.46999998093E+01 0.  1.
</event>
<event>
 5   0  0.2376359E-04  0.1883000E+04  0.7818609E-02  0.8663365E-01
        1   -1    0    0  501    0  0.00000000000E+00  0.00000000000E+00  0.12544449372E+04  0.12544449372E+04  0.50400001928E-02 0. -1.
       -1   -1    0    0    0  501  0.00000000000E+00  0.00000000000E+00 -0.70662518940E+03  0.70662518942E+03  0.50400001928E-02 0.  1.
    10030    2    1    2    0    0  0.00000000000E+00  0.00000000000E+00  0.54781974779E+03  0.19610701266E+04  0.18830001502E+04 0.  0.
        2    1    3    3  502    0 -0.45387040186E+03  0.17753892838E+02  0.11327888699E+04  0.12204606369E+04  0.25500000920E-02 0. -1.
       -2    1    3    3    0  502  0.45387040186E+03 -0.17753892838E+02 -0.58496912214E+03  0.74060948972E+03  0.25500000920E-02 0.  1.
</event>
<event>
 5   0  0.4829134E-04  0.1501547E+04  0.7818609E-02  0.8883425E-01
       -2   -1    0    0    0  501  0.00000000000E+00  0.00000000000E+00  0.43607021289E+03  0.43607021290E+03  0.25500000920E-02 0. -1.
        2   -1    0    0  501    0  0.00000000000E+00  0.00000000000E+00 -0.12925913070E+04  0.12925913070E+04  0.25500000920E-02 0.  1.
    10030    2    1    2    0    0  0.00000000000E+00  0.00000000000E+00 -0.85652109406E+03  0.17286615199E+04  0.15015466245E+04 0.  0.
        2    1    3    3  502    0 -0.52891835936E+03  0.11042033911E+03 -0.10283646258E+04  0.11616716773E+04  0.25500000920E-02 0.  1.
       -2    1    3    3    0  502  0.52891835936E+03 -0.11042033911E+03  0.17184353177E+03  0.56698984256E+03  0.25500000920E-02 0. -1.
</event>
<event>
 5   0  0.4802635E-04  0.1781460E+04  0.7818609E-02  0.8716222E-01
       -2   -1    0    0    0  501  0.00000000000E+00  0.00000000000E+00  0.49737348164E+03  0.49737348165E+03  0.25500000920E-02 0.  1.
        2   -1    0    0  501    0  0.00000000000E+00  0.00000000000E+00 -0.15951788882E+04  0.15951788882E+04  0.25500000920E-02 0. -1.
    10030    2    1    2    0    0  0.00000000000E+00  0.00000000000E+00 -0.10978054066E+04  0.20925523698E+04  0.17814597132E+04 0.  0.
        3    1    3    3  502    0 -0.82068606804E+02  0.49589755028E+03  0.31486827212E+03  0.59312028762E+03  0.10100000352E+00 0.  1.
       -3    1    3    3    0  502  0.82068606804E+02 -0.49589755028E+03 -0.14126736787E+04  0.14994320822E+04  0.10100000352E+00 0. -1.
</event>
<event>
 5   0  0.4829134E-04  0.1864266E+04  0.7818609E-02  0.8672851E-01
       -2   -1    0    0    0  501  0.00000000000E+00  0.00000000000E+00  0.11329510097E+04  0.11329510097E+04  0.25500000920E-02 0.  1.
        2   -1    0    0  501    0  0.00000000000E+00  0.00000000000E+00 -0.76691036303E+03  0.76691036304E+03  0.25500000920E-02 0. -1.
    10030    2    1    2    0    0  0.00000000000E+00  0.00000000000E+00  0.36604064663E+03  0.18998613727E+04  0.18642659361E+04 0.  0.
        2    1    3    3  502    0  0.78339495252E+03  0.18634201525E+03  0.66149626815E+03  0.10421172252E+04  0.25500000920E-02 0.  1.
       -2    1    3    3    0  502 -0.78339495252E+03 -0.18634201525E+03 -0.29545562151E+03  0.85774414750E+03  0.25500000920E-02 0. -1.
</event>
<event>
 5   0  0.2317458E-04  0.1903660E+04  0.7818609E-02  0.8653037E-01
       -1   -1    0    0    0  501  0.00000000000E+00  0.00000000000E+00  0.31714288773E+03  0.31714288777E+03  0.50400001928E-02 0.  1.
        1   -1    0    0  501    0  0.00000000000E+00  0.00000000000E+00 -0.28566950980E+04  0.28566950980E+04  0.50400001928E-02 0. -1.
    10030    2    1    2    0    0  0.00000000000E+00  0.00000000000E+00 -0.25395522103E+04  0.31738379858E+04  0.19036601932E+04 0.  0.
        3    1    3    3  502    0  0.24842023718E+03 -0.61333358874E+03 -0.24104458484E+04  0.24996279531E+04  0.10100000352E+00 0. -1.
       -3    1    3    3    0  502 -0.24842023718E+03  0.61333358874E+03 -0.12910636183E+03  0.67421003269E+03  0.10100000352E+00 0.  1.
</event>
<event>
 5   0  0.2355414E-04  0.1948233E+04  0.7818609E-02  0.8631213E-01
        1   -1    0    0  501    0  0.00000000000E+00  0.00000000000E+00  0.13582905385E+04  0.13582905385E+04  0.50400001928E-02 0. -1.
       -1   -1    0    0    0  501  0.00000000000E+00  0.00000000000E+00 -0.69860093640E+03  0.69860093642E+03  0.50400001928E-02 0.  1.
    10030    2    1    2    0    0  0.00000000000E+00  0.00000000000E+00  0.65968960214E+03  0.20568914750E+04  0.19482330889E+04 0.  0.
        5    1    3    3  502    0  0.65721073957E+03 -0.46659575465E+03  0.90738570951E+03  0.12136756034E+04  0.46999998093E+01 0. -1.
       -5    1    3    3    0  502 -0.65721073957E+03  0.46659575465E+03 -0.24769610737E+03  0.84321587157E+03  0.46999998093E+01 0.  1.
</event>
<event>
 5   0  0.4839293E-04  0.1913719E+04  0.7818609E-02  0.8648058E-01
        2   -1    0    0  501    0  0.00000000000E+00  0.00000000000E+00  0.19185379897E+04  0.19185379897E+04  0.25500000920E-02 0.  1.
       -2   -1    0    0    0  501  0.00000000000E+00  0.00000000000E+00 -0.47722803854E+03  0.47722803854E+03  0.25500000920E-02 0. -1.
    10030    2    1    2    0    0  0.00000000000E+00  0.00000000000E+00  0.14413099512E+04  0.23957660282E+04  0.19137190198E+04 0.  0.
        5    1    3    3  502    0  0.11404714937E+03 -0.13443653424E+02  0.19098653388E+04  0.19133204610E+04  0.46999998093E+01 0.  1.
       -5    1    3    3    0  502 -0.11404714937E+03  0.13443653424E+02 -0.46855538763E+03  0.48244556726E+03  0.46999998093E+01 0. -1.
</event>
<event>
 5   0  0.2355414E-04  0.1926295E+04  0.7818609E-02  0.8641877E-01
        1   -1    0    0  501    0  0.00000000000E+00  0.00000000000E+00  0.13182153192E+04  0.13182153192E+04  0.50400001928E-02 0. -1.
       -1   -1    0    0    0  501  0.00000000000E+00  0.00000000000E+00 -0.70371903756E+03  0.70371903758E+03  0.50400001928E-02 0.  1.
    10030    2    1    2    0    0  0.00000000000E+00  0.00000000000E+00  0.61449628161E+03  0.20219343568E+04  0.19262951131E+04 0.  0.
        5    1    3    3  502    0  0.13791814874E+03  0.82043241368E+03 -0.20212966801E+03  0.85615959602E+03  0.46999998093E+01 0.  1.
       -5    1    3    3    0  502 -0.13791814874E+03 -0.82043241368E+03  0.81662594962E+03  0.11657747607E+04  0.46999998093E+01 0. -1.
</event>
<event>
 5   0  0.2376359E-04  0.1862871E+04  0.7818609E-02  0.8673562E-01
        1   -1    0    0  501    0  0.00000000000E+00  0.00000000000E+00  0.14343163913E+04  0.14343163913E+04  0.50400001928E-02 0.  1.
       -1   -1    0    0    0  501  0.00000000000E+00  0.00000000000E+00 -0.60486787627E+03  0.60486787629E+03  0.50400001928E-02 0. -1.
    10030    2    1    2    0    0  0.00000000000E+00  0.00000000000E+00  0.82944851504E+03  0.20391842676E+04  0.18628708056E+04 0.  0.
        2    1    3    3  502    0 -0.52785174864E+03  0.26612821833E+01 -0.42533183783E+03  0.67789506802E+03  0.25500000920E-02 0. -1.
       -2    1    3    3    0  502  0.52785174864E+03 -0.26612821833E+01  0.12547803529E+04  0.13612891996E+04  0.25500000920E-02 0.  1.
</event>
<event>
 5   0  0.4839293E-04  0.1880513E+04  0.7818609E-02  0.8664617E-01
       -2   -1    0    0    0  501  0.00000000000E+00  0.00000000000E+00  0.98009176737E+03  0.98009176738E+03  0.25500000920E-02 0.  1.
        2   -1    0    0  501    0  0.00000000000E+00  0.00000000000E+00 -0.90204041595E+03  0.90204041595E+03  0.25500000920E-02 0. -1.
    10030    2    1    2    0    0  0.00000000000E+00  0.00000000000E+00  0.78051351425E+02  0.18821321833E+04  0.18805131061E+04 0.  0.
        5    1    3    3  502    0  0.36728221935E+03  0.86377330812E+02  0.90098898751E+03  0.97681140326E+03  0.46999998093E+01 0.  1.
       -5    1    3    3    0  502 -0.36728221935E+03 -0.86377330812E+02 -0.82293763609E+03  0.90532078006E+03  0.46999998093E+01 0. -1.
</event>
<event>
 5   0  0.2261755E-04  0.1842777E+04  0.7818609E-02  0.8683876E-01
       -1   -1    0    0    0  501  0.00000000000E+00  0.00000000000E+00  0.11159511759E+04  0.11159511760E+04  0.50400001928E-02 0.  1.
        1   -1    0    0  501    0  0.00000000000E+00  0.00000000000E+00 -0.76074726018E+03  0.76074726020E+03  0.50400001928E-02 0. -1.
    10030    2    1    2    0    0  0.00000000000E+00  0.00000000000E+00  0.35520391576E+03  0.18766984362E+04  0.18427770344E+04 0.  0.
        1    1    3    3  502    0  0.33137225341E+03 -0.85920281064E+03  0.14671615950E+03  0.93250344322E+03  0.50400001928E-02 0.  1.
       -1    1    3    3    0  502 -0.33137225341E+03  0.85920281064E+03  0.20848775627E+03  0.94419499293E+03  0.50400001928E-02 0. -1.
</event>
<event>
 5   0  0.4802635E-04  0.1901545E+04  0.7818609E-02  0.8654088E-01
        2   -1    0    0  501    0  0.00000000000E+00  0.00000000000E+00  0.14981747744E+04  0.14981747744E+04  0.25500000920E-02 0.  1.
       -2   -1    0    0    0  501  0.00000000000E+00  0.00000000000E+00 -0.60337970593E+03  0.60337970593E+03  0.25500000920E-02 0. -1.
    10030    2    1    2    0    0  0.00000000000E+00  0.00000000000E+00  0.89479506846E+03  0.21015544803E+04  0.19015449033E+04 0.  0.
        3    1    3    3  502    0  0.63026533369E+03  0.58984649922E+03  0.88783045558E+03  0.12383037638E+04  0.10100000352E+00 0.  1.
       -3    1    3    3    0  502 -0.63026533369E+03 -0.58984649922E+03  0.69646128878E+01  0.86325071649E+03  0.10100000352E+00 0. -1.
</event>
<event>
 5   0  0.4973411E-04  0.1879246E+04  0.7818609E-02  0.8665256E-01
       -2   -1    0    0    0  501  0.00000000000E+00  0.00000000000E+00  0.38778067915E+03  0.38778067916E+03  0.25500000920E-02 0. -1.
        2   -1    0    0  501    0  0.00000000000E+00  0.00000000000E+00 -0.22767808271E+04  0.22767808271E+04  0.25500000920E-02 0.  1.
    10030    2    1    2    0    0  0.00000000000E+00  0.00000000000E+00 -0.18890001479E+04  0.26645615062E+04  0.18792462483E+04 0.  0.
        1    1    3    3  502    0  0.15095178318E+03 -0.67176029185E+03 -0.37890100976E+02  0.68955347170E+03  0.50400001928E-02 0. -1.
       -1    1    3    3    0  502 -0.15095178318E+03  0.67176029185E+03 -0.18511100469E+04  0.19750080345E+04  0.50400001928E-02 0.  1.
</event>
<event>
 5   0  0.4802635E-04  0.1916831E+04  0.7818609E-02  0.8646524E-01
        2   -1    0    0  501    0  0.00000000000E+00  0.00000000000E+00  0.68605643503E+03  0.68605643503E+03  0.25500000920E-02 0.  1.
       -2   -1    0    0    0  501  0.00000000000E+00  0.00000000000E+00 -0.13388987210E+04  0.13388987210E+04  0.25500000920E-02 0. -1.
    10030    2    1    2    0    0  0.00000000000E+00  0.00000000000E+00 -0.65284228595E+03  0.20249551560E+04  0.19168308046E+04 0.  0.
        3    1    3    3  502    0 -0.64792716996E+03  0.29175502419E+02 -0.10718434138E+04  0.12528005194E+04  0.10100000352E+00 0. -1.
       -3    1    3    3    0  502  0.64792716996E+03 -0.29175502419E+02  0.41900112783E+03  0.77215463662E+03  0.10100000352E+00 0.  1.
</event>
<event>
 5   0  0.2376359E-04  0.1325928E+04  0.7818609E-02  0.9009253E-01
       -1   -1    0    0    0  501  0.00000000000E+00  0.00000000000E+00  0.43722499405E+03  0.43722499408E+03  0.50400001928E-02 0.  1.
        1   -1    0    0  501    0  0.00000000000E+00  0.00000000000E+00 -0.10052518617E+04  0.10052518617E+04  0.50400001928E-02 0. -1.
    10030    2    1    2    0    0  0.00000000000E+00  0.00000000000E+00 -0.56802686764E+03  0.14424768558E+04  0.13259279607E+04 0.  0.
        2    1    3    3  502    0 -0.55587711212E+02  0.60011271612E+03  0.16483285111E+02  0.60290709432E+03  0.25500000920E-02 0.  1.
       -2    1    3    3    0  502  0.55587711212E+02 -0.60011271612E+03 -0.58451015275E+03  0.83956976146E+03  0.25500000920E-02 0. -1.
</event>
<event>
 5   0  0.4761944E-04  0.1900558E+04  0.7818609E-02  0.8654579E-01
       -2   -1    0    0    0  501  0.00000000000E+00  0.00000000000E+00  0.52979072888E+03  0.52979072888E+03  0.25500000920E-02 0.  1.
        2   -1    0    0  501    0  0.00000000000E+00  0.00000000000E+00 -0.17045037476E+04  0.17045037476E+04  0.25500000920E-02 0. -1.
    10030    2    1    2    0    0  0.00000000000E+00  0.00000000000E+00 -0.11747130187E+04  0.22342944765E+04  0.19005581105E+04 0.  0.
        4    1    3    3  502    0  0.46978241064E+03 -0.81071630672E+03 -0.40120965097E+03  0.10192778033E+04  0.12699999809E+01 0.  1.
       -4    1    3    3    0  502 -0.46978241064E+03  0.81071630672E+03 -0.77350336772E+03  0.12150166732E+04  0.12699999809E+01 0. -1.
</event>
<event>
 5   0  0.2355414E-04  0.1880697E+04  0.7818609E-02  0.8664525E-01
        1   -1    0    0  501    0  0.00000000000E+00  0.00000000000E+00  0.21183664991E+04  0.21183664991E+04  0.50400001928E-02 0. -1.
       -1   -1    0    0    0  501  0.00000000000E+00  0.00000000000E+00 -0.41742317284E+03  0.41742317287E+03  0.50400001928E-02 0.  1.
    10030    2    1    2    0    0  0.00000000000E+00  0.00000000000E+00  0.17009433263E+04  0.25357896720E+04  0.18806969616E+04 0.  0.
        5    1    3    3  502    0 -0.15188674724E+03  0.25612931734E+03 -0.35215616134E+03  0.46120262700E+03  0.46999998093E+01 0.  1.
       -5    1    3    3    0  502  0.15188674724E+03 -0.25612931734E+03  0.20530994876E+04  0.20745870450E+04  0.46999998093E+01 0. -1.
</event>
<event>
 5   0  0.2376359E-04  0.1887121E+04  0.7818609E-02  0.8661294E-01
        1   -1    0    0  501    0  0.00000000000E+00  0.00000000000E+00  0.94752385638E+03  0.94752385639E+03  0.50400001928E-02 0.  1.
       -1   -1    0    0    0  501  0.00000000000E+00  0.00000000000E+00 -0.93961389317E+03  0.93961389318E+03  0.50400001928E-02 0. -1.
    10030    2    1    2    0    0  0.00000000000E+00  0.00000000000E+00  0.79099632123E+01  0.18871377496E+04  0.18871211721E+04 0.  0.
        2    1    3    3  502    0  0.18403612617E+02 -0.91710697821E+03  0.22505119587E+03  0.94449560254E+03  0.25500000920E-02 0.  1.
       -2    1    3    3    0  502 -0.18403612617E+02  0.91710697821E+03 -0.21714123266E+03  0.94264214703E+03  0.25500000920E-02 0. -1.
</event>
<event>
 5   0  0.1729375E-04  0.1856179E+04  0.7818609E-02  0.8676982E-01
       -3   -1    0    0    0  501  0.00000000000E+00  0.00000000000E+00  0.14605188637E+04  0.14605188672E+04  0.10100000352E+00 0. -1.
        3   -1    0    0  501    0  0.00000000000E+00  0.00000000000E+00 -0.58975634045E+03  0.58975634910E+03  0.10100000352E+00 0.  1.
    10030    2    1    2    0    0  0.00000000000E+00  0.00000000000E+00  0.87076252328E+03  0.20502752163E+04  0.18561791645E+04 0.  0.
        3    1    3    3  502    0 -0.10977412093E+03 -0.72337318707E+03 -0.19531725254E+03  0.75727667648E+03  0.10100000352E+00 0.  1.
       -3    1    3    3    0  502  0.10977412093E+03  0.72337318707E+03  0.10660797758E+04  0.12929985398E+04  0.10100000352E+00 0. -1.
</event>
<event>
 5   0  0.2376359E-04  0.1449757E+04  0.7818609E-02  0.8918569E-01
       -1   -1    0    0    0  501  0.00000000000E+00  0.00000000000E+00  0.73354463258E+03  0.73354463260E+03  0.50400001928E-02 0.  1.
        1   -1    0    0  501    0  0.00000000000E+00  0.00000000000E+00 -0.71631509441E+03  0.71631509443E+03  0.50400001928E-02 0. -1.
    10030    2    1    2    0    0  0.00000000000E+00  0.00000000000E+00  0.17229538166E+02  0.14498597270E+04  0.14497573490E+04 0.  0.
        2    1    3    3  502    0 -0.35221934360E+03 -0.71588813983E+02  0.63815558340E+03  0.73241106827E+03  0.25500000920E-02 0.  1.
       -2    1    3    3    0  502  0.35221934360E+03  0.71588813983E+02 -0.62092604523E+03  0.71744865876E+03  0.25500000920E-02 0. -1.
</event>
<event>
 5   0  0.2317458E-04  0.1710119E+04  0.7818609E-02  0.8755614E-01
       -1   -1    0    0    0  501  0.00000000000E+00  0.00000000000E+00  0.56485721286E+03  0.56485721288E+03  0.50400001928E-02 0.  1.
        1   -1    0    0  501    0  0.00000000000E+00  0.00000000000E+00 -0.12943572591E+04  0.12943572591E+04  0.50400001928E-02 0. -1.
    10030    2    1    2    0    0  0.00000000000E+00  0.00000000000E+00 -0.72950004624E+03  0.18592144720E+04  0.17101193337E+04 0.  0.
        3    1    3    3  502    0 -0.11858861499E+03  0.75554524696E+03  0.50968381795E+02  0.76649179118E+03  0.10100000352E+00 0.  1.
       -3    1    3    3    0  502  0.11858861499E+03 -0.75554524696E+03 -0.78046842804E+03  0.10927226808E+04  0.10100000352E+00 0. -1.
</event>
<event>
 5   0  0.2355414E-04  0.1878267E+04  0.7818609E-02  0.8665751E-01
       -1   -1    0    0    0  501  0.00000000000E+00  0.00000000000E+00  0.10090356888E+04  0.10090356888E+04  0.50400001928E-02 0. -1.
        1   -1    0    0  501    0  0.00000000000E+00  0.00000000000E+00 -0.87407380942E+03  0.87407380943E+03  0.50400001928E-02 0.  1.
    10030    2    1    2    0    0  0.00000000000E+00  0.00000000000E+00  0.13496187940E+03  0.18831094983E+04  0.18782669335E+04 0.  0.
        5    1    3    3  502    0 -0.72683046202E+03 -0.26281843606E+03 -0.46736754583E+03  0.90322232244E+03  0.46999998093E+01 0. -1.
       -5    1    3    3    0  502  0.72683046202E+03  0.26281843606E+03  0.60232942523E+03  0.97988717583E+03  0.46999998093E+01 0.  1.
</event>
<event>
 5   0  0.4839293E-04  0.2068765E+04  0.7818609E-02  0.8575129E-01
        2   -1    0    0  501    0  0.00000000000E+00  0.00000000000E+00  0.92725841453E+03  0.92725841454E+03  0.25500000920E-02 0. -1.
       -2   -1    0    0    0  501  0.00000000000E+00  0.00000000000E+00 -0.11538819679E+04  0.11538819679E+04  0.25500000920E-02 0.  1.
    10030    2    1    2    0    0  0.00000000000E+00  0.00000000000E+00 -0.22662355333E+03  0.20811403824E+04  0.20687646208E+04 0.  0.
        5    1    3    3  502    0 -0.61027095763E+03  0.34769855745E+03  0.65057240888E+03  0.95738784083E+03  0.46999998093E+01 0. -1.
       -5    1    3    3    0  502  0.61027095763E+03 -0.34769855745E+03 -0.87719596221E+03  0.11237525416E+04  0.46999998093E+01 0.  1.
</event>
<event>
 5   0  0.2261755E-04  0.1900705E+04  0.7818609E-02  0.8654506E-01
        1   -1    0    0  501    0  0.00000000000E+00  0.00000000000E+00  0.82176369356E+03  0.82176369358E+03  0.50400001928E-02 0. -1.
       -1   -1    0    0    0  501  0.00000000000E+00  0.00000000000E+00 -0.10990626910E+04  0.10990626910E+04  0.50400001928E-02 0.  1.
    10030    2    1    2    0    0  0.00000000000E+00  0.00000000000E+00 -0.27729899746E+03  0.19208263846E+04  0.19007049392E+04 0.  0.
        1    1    3    3  502    0  0.67030312184E+03 -0.48353524660E+03  0.33541911923E+03  0.89197454864E+03  0.50400001928E-02 0. -1.
       -1    1    3    3    0  502 -0.67030312184E+03  0.48353524660E+03 -0.61271811668E+03  0.10288518360E+04  0.50400001928E-02 0.  1.
</event>
<event>
 5   0  0.2355414E-04  0.1813125E+04  0.7818609E-02  0.8699351E-01
       -1   -1    0    0    0  501  0.00000000000E+00  0.00000000000E+00  0.48815892258E+03  0.48815892261E+03  0.50400001928E-02 0. -1.
        1   -1    0    0  501    0  0.00000000000E+00  0.00000000000E+00 -0.16835821520E+04  0.16835821520E+04  0.50400001928E-02 0.  1.
    10030    2    1    2    0    0  0.00000000000E+00  0.00000000000E+00 -0.11954232294E+04  0.21717410746E+04  0.18131250916E+04 0.  0.
        5    1    3    3  502    0  0.35400078760E+03 -0.43915740471E+03  0.25234538690E+03  0.61796121886E+03  0.46999998093E+01 0. -1.
       -5    1    3    3    0  502 -0.35400078760E+03  0.43915740471E+03 -0.14477686163E+04  0.15537798558E+04  0.46999998093E+01 0.  1.
</event>
<event>
 5   0  0.2510069E-04  0.1883509E+04  0.7818609E-02  0.8663109E-01
       -1   -1    0    0    0  501  0.00000000000E+00  0.00000000000E+00  0.61166736289E+03  0.61166736291E+03  0.50400001928E-02 0.  1.
        1   -1    0    0  501    0  0.00000000000E+00  0.00000000000E+00 -0.14499732422E+04  0.14499732422E+04  0.50400001928E-02 0. -1.
    10030    2    1    2    0    0  0.00000000000E+00  0.00000000000E+00 -0.83830587928E+03  0.20616406051E+04  0.18835087569E+04 0.  0.
        4    1    3    3  502    0 -0.41366568019E+03 -0.27906457312E+03  0.45507113554E+03  0.67534264062E+03  0.12699999809E+01 0.  1.
       -4    1    3    3    0  502  0.41366568019E+03  0.27906457312E+03 -0.12933770148E+04  0.13862979645E+04  0.12699999809E+01 0. -1.
</event>
<event>
 5   0  0.2376359E-04  0.1907602E+04  0.7818609E-02  0.8651082E-01
        1   -1    0    0  501    0  0.00000000000E+00  0.00000000000E+00  0.12787988698E+04  0.12787988698E+04  0.50400001928E-02 0. -1.
       -1   -1    0    0    0  501  0.00000000000E+00  0.00000000000E+00 -0.71139872882E+03  0.71139872884E+03  0.50400001928E-02 0.  1.
    10030    2    1    2    0    0  0.00000000000E+00  0.00000000000E+00  0.56740014095E+03  0.19901975986E+04  0.19076015207E+04 0.  0.
        2    1    3    3  502    0  0.49641996101E+03  0.32767176699E+01 -0.56599097337E+03  0.75285410041E+03  0.25500000920E-02 0.  1.
       -2    1    3    3    0  502 -0.49641996101E+03 -0.32767176699E+01  0.11333911143E+04  0.12373434982E+04  0.25500000920E-02 0. -1.
</event>
<event>
 5   0  0.4829134E-04  0.1813810E+04  0.7818609E-02  0.8698990E-01
        2   -1    0    0  501    0  0.00000000000E+00  0.00000000000E+00  0.97878733082E+03  0.97878733082E+03  0.25500000920E-02 0. -1.
       -2   -1    0    0    0  501  0.00000000000E+00  0.00000000000E+00 -0.84030140788E+03  0.84030140789E+03  0.25500000920E-02 0.  1.
    10030    2    1    2    0    0  0.00000000000E+00  0.00000000000E+00  0.13848592293E+03  0.18190887387E+04  0.18138096616E+04 0.  0.
        2    1    3    3  502    0 -0.87048459518E+03  0.12506726296E+03 -0.15296706485E+03  0.89262767919E+03  0.25500000920E-02 0.  1.
       -2    1    3    3    0  502  0.87048459518E+03 -0.12506726296E+03  0.29145298779E+03  0.92646105952E+03  0.25500000920E-02 0. -1.
</event>
<event>
 5   0  0.4802635E-04  0.1876950E+04  0.7818609E-02  0.8666416E-01
       -2   -1    0    0    0  501  0.00000000000E+00  0.00000000000E+00  0.14358960338E+04  0.14358960338E+04  0.25500000920E-02 0. -1.
        2   -1    0    0  501    0  0.00000000000E+00  0.00000000000E+00 -0.61336991010E+03  0.61336991010E+03  0.25500000920E-02 0.  1.
    10030    2    1    2    0    0  0.00000000000E+00  0.00000000000E+00  0.82252612368E+03  0.20492659439E+04  0.18769501018E+04 0.  0.
        3    1    3    3  502    0  0.86681733121E+03  0.34058661391E+03  0.28504778063E+03  0.97397318993E+03  0.10100000352E+00 0. -1.
       -3    1    3    3    0  502 -0.86681733121E+03 -0.34058661391E+03  0.53747834306E+03  0.10752927540E+04  0.10100000352E+00 0.  1.
</event>
<event>
 5   0  0.4761944E-04  0.1753147E+04  0.7818609E-02  0.8731620E-01
       -2   -1    0    0    0  501  0.00000000000E+00  0.00000000000E+00  0.31547052880E+03  0.31547052881E+03  0.25500000920E-02 0.  1.
        2   -1    0    0  501    0  0.00000000000E+00  0.00000000000E+00 -0.24356678396E+04  0.24356678396E+04  0.25500000920E-02 0. -1.
    10030    2    1    2    0    0  0.00000000000E+00  0.00000000000E+00 -0.21201973108E+04  0.27511383685E+04  0.17531473656E+04 0.  0.
        4    1    3    3  502    0  0.71292843372E+03 -0.49006768045E+03 -0.12817281918E+04  0.15463706068E+04  0.12699999809E+01 0.  1.
       -4    1    3    3    0  502 -0.71292843372E+03  0.49006768045E+03 -0.83846911906E+03  0.12047677617E+04  0.12699999809E+01 0. -1.
</event>
<event>
 5   0  0.2355414E-04  0.1910870E+04  0.7818609E-02  0.8649464E-01
       -1   -1    0    0    0  501  0.00000000000E+00  0.00000000000E+00  0.43023101725E+03  0.43023101728E+03  0.50400001928E-02 0.  1.
        1   -1    0    0  501    0  0.00000000000E+00  0.00000000000E+00 -0.21217816044E+04  0.21217816044E+04  0.50400001928E-02 0. -1.
    10030    2    1    2    0    0  0.00000000000E+00  0.00000000000E+00 -0.16915505872E+04  0.25520126217E+04  0.19108702291E+04 0.  0.
        5    1    3    3  502    0  0.93883069674E+03 -0.15117331219E+03 -0.96946614328E+03  0.13579923197E+04  0.46999998093E+01 0.  1.
       -5    1    3    3    0  502 -0.93883069674E+03  0.15117331219E+03 -0.72208444389E+03  0.11940203020E+04  0.46999998093E+01 0. -1.
</event>
<event>
 5   0  0.4973411E-04  0.1904669E+04  0.7818609E-02  0.8652536E-01
        2   -1    0    0  501    0  0.00000000000E+00  0.00000000000E+00  0.16989884438E+04  0.16989884438E+04  0.25500000920E-02 0.  1.
       -2   -1    0    0    0  501  0.00000000000E+00  0.00000000000E+00 -0.53381218523E+03  0.53381218523E+03  0.25500000920E-02 0. -1.
    10030    2    1    2    0    0  0.00000000000E+00  0.00000000000E+00  0.11651762586E+04  0.22328006290E+04  0.19046687207E+04 0.  0.
        1    1    3    3  502    0  0.16906710933E+03  0.65286054163E+03 -0.20565870472E+03  0.70505749916E+03  0.50400001928E-02 0. -1.
       -1    1    3    3    0  502 -0.16906710933E+03 -0.65286054163E+03  0.13708349633E+04  0.15277431299E+04  0.50400001928E-02 0.  1.
</event>
<event>
 5   0  0.4839293E-04  0.1904590E+04  0.7818609E-02  0.8652575E-01
       -2   -1    0    0    0  501  0.00000000000E+00  0.00000000000E+00  0.86795280857E+03  0.86795280857E+03  0.25500000920E-02 0.  1.
        2   -1    0    0  501    0  0.00000000000E+00  0.00000000000E+00 -0.10448325410E+04  0.10448325410E+04  0.25500000920E-02 0. -1.
    10030    2    1    2    0    0  0.00000000000E+00  0.00000000000E+00 -0.17687973246E+03  0.19127853496E+04  0.19045895500E+04 0.  0.
        5    1    3    3  502    0  0.49341416573E+03  0.16236444664E+03 -0.89001191594E+03  0.10305159159E+04  0.46999998093E+01 0. -1.
       -5    1    3    3    0  502 -0.49341416573E+03 -0.16236444664E+03  0.71313218348E+03  0.88226943367E+03  0.46999998093E+01 0.  1.
</event>
<event>
 5   0  0.2510069E-04  0.1907027E+04  0.7818609E-02  0.8651367E-01
        1   -1    0    0  501    0  0.00000000000E+00  0.00000000000E+00  0.95292668331E+03  0.95292668333E+03  0.50400001928E-02 0.  1.
       -1   -1    0    0    0  501  0.00000000000E+00  0.00000000000E+00 -0.95410053347E+03  0.95410053349E+03  0.50400001928E-02 0. -1.
    10030    2    1    2    0    0  0.00000000000E+00  0.00000000000E+00 -0.11738501574E+01  0.19070272168E+04  0.19070268555E+04 0.  0.
        4    1    3    3  502    0  0.12895267262E+03  0.63789645169E+03  0.69629595833E+03  0.95308464962E+03  0.12699999809E+01 0.  1.
       -4    1    3    3    0  502 -0.12895267262E+03 -0.63789645169E+03 -0.69746980849E+03  0.95394256719E+03  0.12699999809E+01 0. -1.
</event>
<event>
 5   0  0.2376359E-04  0.1775709E+04  0.7818609E-02  0.8719325E-01
       -1   -1    0    0    0  501  0.00000000000E+00  0.00000000000E+00  0.39748571120E+03  0.39748571124E+03  0.50400001928E-02 0.  1.
        1   -1    0    0  501    0  0.00000000000E+00  0.00000000000E+00 -0.19831797597E+04  0.19831797597E+04  0.50400001928E-02 0. -1.
    10030    2    1    2    0    0  0.00000000000E+00  0.00000000000E+00 -0.15856940485E+04  0.23806654710E+04  0.17757090046E+04 0.  0.
        2    1    3    3  502    0 -0.76299208758E+03  0.25692679179E+03 -0.12946953500E+04  0.15245997348E+04  0.25500000920E-02 0. -1.
       -2    1    3    3    0  502  0.76299208758E+03 -0.25692679179E+03 -0.29099869847E+03  0.85606573612E+03  0.25500000920E-02 0.  1.
</event>
<event>
 5   0  0.2376359E-04  0.2016618E+04  0.7818609E-02  0.8598890E-01
        1   -1    0    0  501    0  0.00000000000E+00  0.00000000000E+00  0.16290887155E+04  0.16290887155E+04  0.50400001928E-02 0.  1.
       -1   -1    0    0    0  501  0.00000000000E+00  0.00000000000E+00 -0.62408330756E+03  0.62408330758E+03  0.50400001928E-02 0. -1.
    10030    2    1    2    0    0  0.00000000000E+00  0.00000000000E+00  0.10050054080E+04  0.22531720231E+04  0.20166180342E+04 0.  0.
        2    1    3    3  502    0 -0.86279142359E+03 -0.33162097852E+03  0.52373280740E+02  0.92581017198E+03  0.25500000920E-02 0. -1.
       -2    1    3    3    0  502  0.86279142359E+03  0.33162097852E+03  0.95263212723E+03  0.13273618511E+04  0.25500000920E-02 0.  1.
</event>
<event>
 5   0  0.2355414E-04  0.1910773E+04  0.7818609E-02  0.8649512E-01
        1   -1    0    0  501    0  0.00000000000E+00  0.00000000000E+00  0.16009192190E+04  0.16009192190E+04  0.50400001928E-02 0.  1.
       -1   -1    0    0    0  501  0.00000000000E+00  0.00000000000E+00 -0.57014970064E+03  0.57014970066E+03  0.50400001928E-02 0. -1.
    10030    2    1    2    0    0  0.00000000000E+00  0.00000000000E+00  0.10307695184E+04  0.21710689197E+04  0.19107732608E+04 0.  0.
        5    1    3    3  502    0 -0.83863396796E+03 -0.10536154906E+03  0.93707604957E+01  0.84529160021E+03  0.46999998093E+01 0. -1.
       -5    1    3    3    0  502  0.83863396796E+03  0.10536154906E+03  0.10213987579E+04  0.13257773195E+04  0.46999998093E+01 0.  1.
</event>
<event>
 5   0  0.2376359E-04  0.1928941E+04  0.7818609E-02  0.8640583E-01
        1   -1    0    0  501    0  0.00000000000E+00  0.00000000000E+00  0.14996165912E+04  0.14996165912E+04  0.50400001928E-02 0.  1.
       -1   -1    0    0    0  501  0.00000000000E+00  0.00000000000E+00 -0.62029380581E+03  0.62029380583E+03  0.50400001928E-02 0. -1.
    10030    2    1    2    0    0  0.00000000000E+00  0.00000000000E+00  0.87932278536E+03  0.21199103970E+04  0.19289405202E+04 0.  0.
        2    1    3    3  502    0 -0.42186901441E+03  0.68032839402E+03  0.10308621014E+04  0.13051807772E+04  0.25500000920E-02 0.  1.
       -2    1    3    3    0  502  0.42186901441E+03 -0.68032839402E+03 -0.15153931608E+03  0.81472961979E+03  0.25500000920E-02 0. -1.
</event>
<event>
 5   0  0.4829134E-04  0.1741107E+04  0.7818609E-02  0.8738261E-01
       -2   -1    0    0    0  501  0.00000000000E+00  0.00000000000E+00  0.98857186209E+03  0.98857186210E+03  0.25500000920E-02 0.  1.
        2   -1    0    0  501    0  0.00000000000E+00  0.00000000000E+00 -0.76662427926E+03  0.76662427926E+03  0.25500000920E-02 0. -1.
    10030    2    1    2    0    0  0.00000000000E+00  0.00000000000E+00  0.22194758284E+03  0.17551961414E+04  0.17411067644E+04 0.  0.
        2    1    3    3  502    0 -0.13423161066E+03 -0.79360183168E+03  0.44538275435E+03  0.91988466148E+03  0.25500000920E-02 0.  1.
       -2    1    3    3    0  502  0.13423161066E+03  0.79360183168E+03 -0.22343517152E+03  0.83531147988E+03  0.25500000920E-02 0. -1.
</event>
<event>
 5   0  0.4829134E-04  0.1894022E+04  0.7818609E-02  0.8657838E-01
       -2   -1    0    0    0  501  0.00000000000E+00  0.00000000000E+00  0.82042753779E+03  0.82042753780E+03  0.25500000920E-02 0.  1.
        2   -1    0    0  501    0  0.00000000000E+00  0.00000000000E+00 -0.10931254408E+04  0.10931254408E+04  0.25500000920E-02 0. -1.
    10030    2    1    2    0    0  0.00000000000E+00  0.00000000000E+00 -0.27269790306E+03  0.19135529786E+04  0.18940224011E+04 0.  0.
        2    1    3    3  502    0  0.41291165886E+03 -0.36959837695E+03  0.63950939695E+03  0.84620994266E+03  0.25500000920E-02 0.  1.
       -2    1    3    3    0  502 -0.41291165886E+03  0.36959837695E+03 -0.91220730000E+03  0.10673430360E+04  0.25500000920E-02 0. -1.
</event>
<event>
 5   0  0.4802635E-04  0.1840054E+04  0.7818609E-02  0.8685285E-01
       -2   -1    0    0    0  501  0.00000000000E+00  0.00000000000E+00  0.47987667488E+03  0.47987667489E+03  0.25500000920E-02 0.  1.
        2   -1    0    0  501    0  0.00000000000E+00  0.00000000000E+00 -0.17638891081E+04  0.17638891081E+04  0.25500000920E-02 0. -1.
    10030    2    1    2    0    0  0.00000000000E+00  0.00000000000E+00 -0.12840124332E+04  0.22437657830E+04  0.18400535210E+04 0.  0.
        3    1    3    3  502    0 -0.52937370817E+03 -0.74719858502E+03 -0.53357547527E+03  0.10598325558E+04  0.10100000352E+00 0. -1.
       -3    1    3    3    0  502  0.52937370817E+03  0.74719858502E+03 -0.75043695797E+03  0.11839332272E+04  0.10100000352E+00 0.  1.
</event>
<event>
 5   0  0.2261755E-04  0.1877803E+04  0.7818609E-02  0.8665985E-01
        1   -1    0    0  501    0  0.00000000000E+00  0.00000000000E+00  0.15466694721E+04  0.15466694721E+04  0.50400001928E-02 0.  1.
       -1   -1    0    0    0  501  0.00000000000E+00  0.00000000000E+00 -0.56995757973E+03  0.56995757975E+03  0.50400001928E-02 0. -1.
    10030    2    1    2    0    0  0.00000000000E+00  0.00000000000E+00  0.97671189239E+03  0.21166270519E+04  0.18778029598E+04 0.  0.
        1    1    3    3  502    0  0.74963143071E+03  0.39686843057E+03  0.34555827742E+02  0.84890867492E+03  0.50400001928E-02 0. -1.
       -1    1    3    3    0  502 -0.74963143071E+03 -0.39686843057E+03  0.94215606464E+03  0.12677183770E+04  0.50400001928E-02 0.  1.
</event>
<event>
 5   0  0.2376359E-04  0.1658784E+04  0.7818609E-02  0.8785227E-01
       -1   -1    0    0    0  501  0.00000000000E+00  0.00000000000E+00  0.52860777227E+03  0.52860777230E+03  0.50400001928E-02 0.  1.
        1   -1    0    0  501    0  0.00000000000E+00  0.00000000000E+00 -0.13013254708E+04  0.13013254708E+04  0.50400001928E-02 0. -1.
    10030    2    1    2    0    0  0.00000000000E+00  0.00000000000E+00 -0.77271769850E+03  0.18299332431E+04  0.16587836003E+04 0.  0.
        2    1    3    3  502    0 -0.38903287326E+03 -0.42079834445E+03  0.27506311466E+03  0.63567093706E+03  0.25500000920E-02 0.  1.
       -2    1    3    3    0  502  0.38903287326E+03  0.42079834445E+03 -0.10477808132E+04  0.11942623060E+04  0.25500000920E-02 0. -1.
</event>
<event>
 5   0  0.2376359E-04  0.1955670E+04  0.7818609E-02  0.8627631E-01
       -1   -1    0    0    0  501  0.00000000000E+00  0.00000000000E+00  0.52740126320E+03  0.52740126322E+03  0.50400001928E-02 0. -1.
        1   -1    0    0  501    0  0.00000000000E+00  0.00000000000E+00 -0.18129675117E+04  0.18129675117E+04  0.50400001928E-02 0.  1.
    10030    2    1    2    0    0  0.00000000000E+00  0.00000000000E+00 -0.12855662485E+04  0.23403687749E+04  0.19556700702E+04 0.  0.
        2    1    3    3  502    0 -0.93278000718E+03  0.19915025141E+01 -0.99388805519E+03  0.13630465781E+04  0.25500000920E-02 0. -1.
       -2    1    3    3    0  502  0.93278000718E+03 -0.19915025141E+01 -0.29167819329E+03  0.97732219678E+03  0.25500000920E-02 0.  1.
</event>
<event>
 5   0  0.4802635E-04  0.1943067E+04  0.7818609E-02  0.8633711E-01
       -2   -1    0    0    0  501  0.00000000000E+00  0.00000000000E+00  0.97737357627E+03  0.97737357627E+03  0.25500000920E-02 0.  1.
        2   -1    0    0  501    0  0.00000000000E+00  0.00000000000E+00 -0.96572850013E+03  0.96572850013E+03  0.25500000920E-02 0. -1.
    10030    2    1    2    0    0  0.00000000000E+00  0.00000000000E+00  0.11645076141E+02  0.19431020764E+04  0.19430671814E+04 0.  0.
        3    1    3    3  502    0 -0.18478091833E+03  0.68113174834E+03 -0.66186681574E+03  0.96754955343E+03  0.10100000352E+00 0. -1.
       -3    1    3    3    0  502  0.18478091833E+03 -0.68113174834E+03  0.67351189188E+03  0.97555252297E+03  0.10100000352E+00 0.  1.
</event>
<event>
 5   0  0.4829134E-04  0.1890463E+04  0.7818609E-02  0.8659618E-01
        2   -1    0    0  501    0  0.00000000000E+00  0.00000000000E+00  0.17901587716E+04  0.17901587716E+04  0.25500000920E-02 0. -1.
       -2   -1    0    0    0  501  0.00000000000E+00  0.00000000000E+00 -0.49909708095E+03  0.49909708096E+03  0.25500000920E-02 0.  1.
    10030    2    1    2    0    0  0.00000000000E+00  0.00000000000E+00  0.12910616906E+04  0.22892558525E+04  0.18904634536E+04 0.  0.
        2    1    3    3  502    0 -0.55970593221E+03  0.74754595487E+03  0.46851946134E+03  0.10447995841E+04  0.25500000920E-02 0.  1.
       -2    1    3    3    0  502  0.55970593221E+03 -0.74754595487E+03  0.82254222928E+03  0.12444562685E+04  0.25500000920E-02 0. -1.
</event>
<event>
 5   0  0.4829134E-04  0.1884512E+04  0.7818609E-02  0.8662604E-01
       -2   -1    0    0    0  501  0.00000000000E+00  0.00000000000E+00  0.82773445311E+03  0.82773445311E+03  0.25500000920E-02 0. -1.
        2   -1    0    0  501    0  0.00000000000E+00  0.00000000000E+00 -0.10726226155E+04  0.10726226155E+04  0.25500000920E-02 0.  1.
    10030    2    1    2    0    0  0.00000000000E+00  0.00000000000E+00 -0.24488816237E+03  0.19003570686E+04  0.18845123444E+04 0.  0.
        2    1    3    3  502    0  0.51245346732E+03  0.56498811748E+03  0.43540379984E+03  0.87829186378E+03  0.25500000920E-02 0. -1.
       -2    1    3    3    0  502 -0.51245346732E+03 -0.56498811748E+03 -0.68029196221E+03  0.10220652048E+04  0.25500000920E-02 0.  1.
</event>
<event>
 5   0  0.2510069E-04  0.1904899E+04  0.7818609E-02  0.8652422E-01
        1   -1    0    0  501    0  0.00000000000E+00  0.00000000000E+00  0.99856507650E+03  0.99856507651E+03  0.50400001928E-02 0.  1.
       -1   -1    0    0    0  501  0.00000000000E+00  0.00000000000E+00 -0.90846347684E+03  0.90846347686E+03  0.50400001928E-02 0. -1.
    10030    2    1    2    0    0  0.00000000000E+00  0.00000000000E+00  0.90101599651E+02  0.19070285534E+04  0.19048988438E+04 0.  0.
        4    1    3    3  502    0 -0.46817142350E+03  0.82914475994E+03  0.22827475851E+02  0.95246428871E+03  0.12699999809E+01 0. -1.
       -4    1    3    3    0  502  0.46817142350E+03 -0.82914475994E+03  0.67274123799E+02  0.95456426465E+03  0.12699999809E+01 0.  1.
</event>
<event>
 5   0  0.1729375E-04  0.1895770E+04  0.7818609E-02  0.8656965E-01
        3   -1    0    0  501    0  0.00000000000E+00  0.00000000000E+00  0.15697344978E+04  0.15697345010E+04  0.10100000352E+00 0. -1.
       -3   -1    0    0    0  501  0.00000000000E+00  0.00000000000E+00 -0.57238071482E+03  0.57238072373E+03  0.10100000352E+00 0.  1.
    10030    2    1    2    0    0  0.00000000000E+00  0.00000000000E+00  0.99735378294E+03  0.21421152247E+04  0.18957697824E+04 0.  0.
        4    1    3    3  502    0  0.61438451496E+02 -0.87525239512E+03  0.93401876141E+02  0.88236441556E+03  0.12699999809E+01 0. -1.
       -4    1    3    3    0  502 -0.61438451496E+02  0.87525239512E+03  0.90395190679E+03  0.12597508092E+04  0.12699999809E+01 0.  1.
</event>
<event>
 5   0  0.4973411E-04  0.2057157E+04  0.7818609E-02  0.8580354E-01
        2   -1    0    0  501    0  0.00000000000E+00  0.00000000000E+00  0.69010853525E+03  0.69010853526E+03  0.25500000920E-02 0.  1.
       -2   -1    0    0    0  501  0.00000000000E+00  0.00000000000E+00 -0.15330542510E+04  0.15330542510E+04  0.25500000920E-02 0. -1.
    10030    2    1    2    0    0  0.00000000000E+00  0.00000000000E+00 -0.84294571571E+03  0.22231627862E+04  0.20571570904E+04 0.  0.
        1    1    3    3  502    0 -0.99413837359E+03  0.15564627759E+03 -0.19111214596E+03  0.10242366533E+04  0.50400001928E-02 0.  1.
       -1    1    3    3    0  502  0.99413837359E+03 -0.15564627759E+03 -0.65183356975E+03  0.11989261329E+04  0.50400001928E-02 0. -1.
</event>
<event>
 5   0  0.4802635E-04  0.1893723E+04  0.7818609E-02  0.8657987E-01
        2   -1    0    0  501    0  0.00000000000E+00  0.00000000000E+00  0.18790166669E+04  0.18790166669E+04  0.25500000920E-02 0.  1.
       -2   -1    0    0    0  501  0.00000000000E+00  0.00000000000E+00 -0.47713600025E+03  0.47713600026E+03  0.25500000920E-02 0. -1.
    10030    2    1    2    0    0  0.00000000000E+00  0.00000000000E+00  0.14018806667E+04  0.23561526672E+04  0.18937227853E+04 0.  0.
        3    1    3    3  502    0  0.10599880945E+02 -0.92649465961E+03  0.45826959675E+03  0.10336903527E+04  0.10100000352E+00 0. -1.
       -3    1    3    3    0  502 -0.10599880945E+02  0.92649465961E+03  0.94361106994E+03  0.13224623145E+04  0.10100000352E+00 0.  1.
</event>
<event>
 5   0  0.2376359E-04  0.1777659E+04  0.7818609E-02  0.8718271E-01
        1   -1    0    0  501    0  0.00000000000E+00  0.00000000000E+00  0.10995112916E+04  0.10995112916E+04  0.50400001928E-02 0. -1.
       -1   -1    0    0    0  501  0.00000000000E+00  0.00000000000E+00 -0.71851767546E+03  0.71851767548E+03  0.50400001928E-02 0.  1.
    10030    2    1    2    0    0  0.00000000000E+00  0.00000000000E+00  0.38099361612E+03  0.18180289671E+04  0.17776594695E+04 0.  0.
        2    1    3    3  502    0  0.25809378744E+03 -0.73823040613E+03  0.62248924114E+03  0.99954459180E+03  0.25500000920E-02 0. -1.
       -2    1    3    3    0  502 -0.25809378744E+03  0.73823040613E+03 -0.24149562502E+03  0.81848437527E+03  0.25500000920E-02 0.  1.
</event>
<event>
 5   0  0.4802635E-04  0.1900183E+04  0.7818609E-02  0.8654765E-01
       -2   -1    0    0    0  501  0.00000000000E+00  0.00000000000E+00  0.10415112536E+04  0.10415112536E+04  0.25500000920E-02 0. -1.
        2   -1    0    0  501    0  0.00000000000E+00  0.00000000000E+00 -0.86669600823E+03  0.86669600824E+03  0.25500000920E-02 0.  1.
    10030    2    1    2    0    0  0.00000000000E+00  0.00000000000E+00  0.17481524541E+03  0.19082072619E+04  0.19001827765E+04 0.  0.
        3    1    3    3  502    0 -0.62022988269E+03 -0.61740342434E+03  0.45883649548E+03  0.98813108218E+03  0.10100000352E+00 0. -1.
       -3    1    3    3    0  502  0.62022988269E+03  0.61740342434E+03 -0.28402125007E+03  0.92007617971E+03  0.10100000352E+00 0.  1.
</event>
<event>
 5   0  0.4829134E-04  0.1139938E+04  0.7818609E-02  0.9167117E-01
        2   -1    0    0  501    0  0.00000000000E+00  0.00000000000E+00  0.55363875721E+03  0.55363875721E+03  0.25500000920E-02 0.  1.
       -2   -1    0    0    0  501  0.00000000000E+00  0.00000000000E+00 -0.58678061784E+03  0.58678061784E+03  0.25500000920E-02 0. -1.
    10030    2    1    2    0    0  0.00000000000E+00  0.00000000000E+00 -0.33141860631E+02  0.11404193751E+04  0.11399377036E+04 0.  0.
        2    1    3    3  502    0 -0.48847902380E+03  0.22371019946E+02  0.27638769468E+03  0.56169598272E+03  0.25500000920E-02 0.  1.
       -2    1    3    3    0  502  0.48847902380E+03 -0.22371019946E+02 -0.30952955531E+03  0.57872339234E+03  0.25500000920E-02 0. -1.
</event>
<event>
 5   0  0.4839293E-04  0.1908622E+04  0.7818609E-02  0.8650577E-01
        2   -1    0    0  501    0  0.00000000000E+00  0.00000000000E+00  0.59831376741E+03  0.59831376742E+03  0.25500000920E-02 0. -1.
       -2   -1    0    0    0  501  0.00000000000E+00  0.00000000000E+00 -0.15221264672E+04  0.15221264672E+04  0.25500000920E-02 0.  1.
    10030    2    1    2    0    0  0.00000000000E+00  0.00000000000E+00 -0.92381269975E+03  0.21204402346E+04  0.19086217237E+04 0.  0.
        5    1    3    3  502    0 -0.92972585538E+03 -0.21466881731E+03 -0.47816859680E+03  0.10673050943E+04  0.46999998093E+01 0.  1.
       -5    1    3    3    0  502  0.92972585538E+03  0.21466881731E+03 -0.44564410295E+03  0.10531351403E+04  0.46999998093E+01 0. -1.
</event>
<event>
 5   0  0.2355414E-04  0.1163223E+04  0.7818609E-02  0.9145671E-01
        1   -1    0    0  501    0  0.00000000000E+00  0.00000000000E+00  0.76920917396E+03  0.76920917397E+03  0.50400001928E-02 0.  1.
       -1   -1    0    0    0  501  0.00000000000E+00  0.00000000000E+00 -0.43976562388E+03  0.43976562390E+03  0.50400001928E-02 0. -1.
    10030    2    1    2    0    0  0.00000000000E+00  0.00000000000E+00  0.32944355008E+03  0.12089747979E+04  0.11632226826E+04 0.  0.
        5    1    3    3  502    0  0.26600673938E+03  0.24672886565E+03  0.63714936230E+03  0.73322310276E+03  0.46999998093E+01 0.  1.
       -5    1    3    3    0  502 -0.26600673938E+03 -0.24672886565E+03 -0.30770581222E+03  0.47575169512E+03  0.46999998093E+01 0. -1.
</event>
<event>
 5   0  0.2355414E-04  0.1901147E+04  0.7818609E-02  0.8654286E-01
        1   -1    0    0  501    0  0.00000000000E+00  0.00000000000E+00  0.14220612678E+04  0.14220612678E+04  0.50400001928E-02 0.  1.
       -1   -1    0    0    0  501  0.00000000000E+00  0.00000000000E+00 -0.63540869841E+03  0.63540869843E+03  0.50400001928E-02 0. -1.
    10030    2    1    2    0    0  0.00000000000E+00  0.00000000000E+00  0.78665256940E+03  0.20574699662E+04  0.19011471266E+04 0.  0.
        5    1    3    3  502    0 -0.82792587149E+02 -0.46148002650E+03  0.12882093998E+04  0.13708843769E+04  0.46999998093E+01 0.  1.
       -5    1    3    3    0  502  0.82792587149E+02  0.46148002650E+03 -0.50155683036E+03  0.68658558929E+03  0.46999998093E+01 0. -1.
</event>
<event>
 5   0  0.4973411E-04  0.1864456E+04  0.7818609E-02  0.8672754E-01
       -2   -1    0    0    0  501  0.00000000000E+00  0.00000000000E+00  0.12843472352E+04  0.12843472352E+04  0.25500000920E-02 0.  1.
        2   -1    0    0  501    0  0.00000000000E+00  0.00000000000E+00 -0.67664644676E+03  0.67664644677E+03  0.25500000920E-02 0. -1.
    10030    2    1    2    0    0  0.00000000000E+00  0.00000000000E+00  0.60770078844E+03  0.19609936820E+04  0.18644559454E+04 0.  0.
        1    1    3    3  502    0  0.58626155581E+03  0.67755747673E+03  0.57459333877E+03  0.10643985396E+04  0.50400001928E-02 0.  1.
       -1    1    3    3    0  502 -0.58626155581E+03 -0.67755747673E+03  0.33107449664E+02  0.89659514238E+03  0.50400001928E-02 0. -1.
</event>
<event>
 5   0  0.2510069E-04  0.1851724E+04  0.7818609E-02  0.8679267E-01
       -1   -1    0    0    0  501  0.00000000000E+00  0.00000000000E+00  0.76680434102E+03  0.76680434104E+03  0.50400001928E-02 0.  1.
        1   -1    0    0  501    0  0.00000000000E+00  0.00000000000E+00 -0.11179129324E+04  0.11179129324E+04  0.50400001928E-02 0. -1.
    10030    2    1    2    0    0  0.00000000000E+00  0.00000000000E+00 -0.35110859135E+03  0.18847172734E+04  0.18517240501E+04 0.  0.
        4    1    3    3  502    0 -0.72436202465E+03  0.18420990805E+03  0.38061129233E+03  0.83874918881E+03  0.12699999809E+01 0.  1.
       -4    1    3    3    0  502  0.72436202465E+03 -0.18420990805E+03 -0.73171988368E+03  0.10459680846E+04  0.12699999809E+01 0. -1.
</event>
<event>
 5   0  0.4829134E-04  0.1878523E+04  0.7818609E-02  0.8665621E-01
       -2   -1    0    0    0  501  0.00000000000E+00  0.00000000000E+00  0.80401292542E+03  0.80401292542E+03  0.25500000920E-02 0.  1.
        2   -1    0    0  501    0  0.00000000000E+00  0.00000000000E+00 -0.10972616809E+04  0.10972616809E+04  0.25500000920E-02 0. -1.
    10030    2    1    2    0    0  0.00000000000E+00  0.00000000000E+00 -0.29324875552E+03  0.19012746064E+04  0.18785234351E+04 0.  0.
        2    1    3    3  502    0  0.11683377523E+03  0.26008037830E+03  0.75915613561E+03  0.81093154609E+03  0.25500000920E-02 0.  1.
       -2    1    3    3    0  502 -0.11683377523E+03 -0.26008037830E+03 -0.10524048911E+04  0.10903430603E+04  0.25500000920E-02 0. -1.
</event>
<event>
 5   0  0.2261755E-04  0.1715854E+04  0.7818609E-02  0.8752373E-01
        1   -1    0    0  501    0  0.00000000000E+00  0.00000000000E+00  0.92549261205E+03  0.92549261206E+03  0.50400001928E-02 0.  1.
       -1   -1    0    0    0  501  0.00000000000E+00  0.00000000000E+00 -0.79529438788E+03  0.79529438790E+03  0.50400001928E-02 0. -1.
    10030    2    1    2    0    0  0.00000000000E+00  0.00000000000E+00  0.13019822416E+03  0.17207870000E+04  0.17158543999E+04 0.  0.
        1    1    3    3  502    0  0.83317105352E+03 -0.16600293993E+03  0.18505944593E+03  0.86946994142E+03  0.50400001928E-02 0. -1.
       -1    1    3    3    0  502 -0.83317105352E+03  0.16600293993E+03 -0.54861221765E+02  0.85131705854E+03  0.50400001928E-02 0.  1.
</event>
<event>
 5   0  0.4761944E-04  0.1860282E+04  0.7818609E-02  0.8674883E-01
        2   -1    0    0  501    0  0.00000000000E+00  0.00000000000E+00  0.12272835271E+04  0.12272835271E+04  0.25500000920E-02 0. -1.
       -2   -1    0    0    0  501  0.00000000000E+00  0.00000000000E+00 -0.70494071890E+03  0.70494071891E+03  0.25500000920E-02 0.  1.
    10030    2    1    2    0    0  0.00000000000E+00  0.00000000000E+00  0.52234280819E+03  0.19322242460E+04  0.18602818409E+04 0.  0.
        4    1    3    3  502    0 -0.44123288939E+03 -0.28430790133E+03 -0.53640699123E+03  0.75050084516E+03  0.12699999809E+01 0.  1.
       -4    1    3    3    0  502  0.44123288939E+03  0.28430790133E+03  0.10587497994E+04  0.11817234008E+04  0.12699999809E+01 0. -1.
</event>
<event>
 5   0  0.2510069E-04  0.1749638E+04  0.7818609E-02  0.8733550E-01
        1   -1    0    0  501    0  0.00000000000E+00  0.00000000000E+00  0.37929493214E+03  0.37929493217E+03  0.50400001928E-02 0. -1.
       -1   -1    0    0    0  501  0.00000000000E+00  0.00000000000E+00 -0.20177119484E+04  0.20177119484E+04  0.50400001928E-02 0.  1.
    10030    2    1    2    0    0  0.00000000000E+00  0.00000000000E+00 -0.16384170163E+04  0.23970068806E+04  0.17496375814E+04 0.  0.
        4    1    3    3  502    0  0.47186651260E+03  0.36909463953E+03  0.54179757628E+02  0.60151967356E+03  0.12699999809E+01 0. -1.
       -4    1    3    3    0  502 -0.47186651260E+03 -0.36909463953E+03 -0.16925967739E+04  0.17954872070E+04  0.12699999809E+01 0.  1.
</event>
<event>
 5   0  0.1729375E-04  0.1974170E+04  0.7818609E-02  0.8618793E-01
        4   -1    0    0  501    0  0.00000000000E+00  0.00000000000E+00  0.49522975718E+03  0.49523138561E+03  0.12699999809E+01 0.  1.
       -4   -1    0    0    0  501  0.00000000000E+00  0.00000000000E+00 -0.19674386270E+04  0.19674390369E+04  0.12699999809E+01 0. -1.
    10030    2    1    2    0    0  0.00000000000E+00  0.00000000000E+00 -0.14722088698E+04  0.24626704225E+04  0.19741698644E+04 0.  0.
        4    1    3    3  502    0 -0.13178448436E+03  0.94327093915E+03 -0.41271060432E+03  0.10380071632E+04  0.12699999809E+01 0. -1.
       -4    1    3    3    0  502  0.13178448436E+03 -0.94327093915E+03 -0.10594982655E+04  0.14246632593E+04  0.12699999809E+01 0.  1.
</event>
<event>
 5   0  0.2510069E-04  0.1884777E+04  0.7818609E-02  0.8662471E-01
        1   -1    0    0  501    0  0.00000000000E+00  0.00000000000E+00  0.13356412782E+04  0.13356412782E+04  0.50400001928E-02 0. -1.
       -1   -1    0    0    0  501  0.00000000000E+00  0.00000000000E+00 -0.66492112484E+03  0.66492112486E+03  0.50400001928E-02 0.  1.
    10030    2    1    2    0    0  0.00000000000E+00  0.00000000000E+00  0.67072015339E+03  0.20005624031E+04  0.18847770172E+04 0.  0.
        4    1    3    3  502    0  0.17248844215E+03 -0.89943114734E+03  0.57119351171E+03  0.10793480867E+04  0.12699999809E+01 0. -1.
       -4    1    3    3    0  502 -0.17248844215E+03  0.89943114734E+03  0.99526641673E+02  0.92121431642E+03  0.12699999809E+01 0.  1.
</event>
<event>
 5   0  0.2355414E-04  0.1901949E+04  0.7818609E-02  0.8653887E-01
        1   -1    0    0  501    0  0.00000000000E+00  0.00000000000E+00  0.85779864157E+03  0.85779864158E+03  0.50400001928E-02 0. -1.
       -1   -1    0    0    0  501  0.00000000000E+00  0.00000000000E+00 -0.10542711313E+04  0.10542711314E+04  0.50400001928E-02 0.  1.
    10030    2    1    2    0    0  0.00000000000E+00  0.00000000000E+00 -0.19647248978E+03  0.19120697729E+04  0.19019488367E+04 0.  0.
        5    1    3    3  502    0 -0.69931939719E+03  0.35914061540E+03  0.43968175327E+03  0.90076175267E+03  0.46999998093E+01 0. -1.
       -5    1    3    3    0  502  0.69931939719E+03 -0.35914061540E+03 -0.63615424305E+03  0.10113080203E+04  0.46999998093E+01 0.  1.
</event>
<event>
 5   0  0.4973411E-04  0.1876902E+04  0.7818609E-02  0.8666440E-01
       -2   -1    0    0    0  501  0.00000000000E+00  0.00000000000E+00  0.34298985850E+03  0.34298985851E+03  0.25500000920E-02 0. -1.
        2   -1    0    0  501    0  0.00000000000E+00  0.00000000000E+00 -0.25676856732E+04  0.25676856732E+04  0.25500000920E-02 0.  1.
    10030    2    1    2    0    0  0.00000000000E+00  0.00000000000E+00 -0.22246958147E+04  0.29106755317E+04  0.18769018576E+04 0.  0.
        1    1    3    3  502    0 -0.19009719802E+03 -0.88753127326E+03 -0.14820779720E+04  0.17379309022E+04  0.50400001928E-02 0. -1.
       -1    1    3    3    0  502  0.19009719802E+03  0.88753127326E+03 -0.74261784269E+03  0.11727446295E+04  0.50400001928E-02 0.  1.
</event>
<event>
 5   0  0.2355414E-04  0.1955115E+04  0.7818609E-02  0.8627898E-01
        1   -1    0    0  501    0  0.00000000000E+00  0.00000000000E+00  0.12395896616E+04  0.12395896616E+04  0.50400001928E-02 0. -1.
       -1   -1    0    0    0  501  0.00000000000E+00  0.00000000000E+00 -0.77091550373E+03  0.77091550375E+03  0.50400001928E-02 0.  1.
    10030    2    1    2    0    0  0.00000000000E+00  0.00000000000E+00  0.46867415787E+03  0.20105051654E+04  0.19551152277E+04 0.  0.
        5    1    3    3  502    0  0.18764499082E+03  0.62218006623E+03 -0.51661066690E+03  0.83019717450E+03  0.46999998093E+01 0.  1.
       -5    1    3    3    0  502 -0.18764499082E+03 -0.62218006623E+03  0.98528482477E+03  0.11803079909E+04  0.46999998093E+01 0. -1.
</event>
<event>
 5   0  0.4973411E-04  0.2002556E+04  0.7818609E-02  0.8605427E-01
       -2   -1    0    0    0  501  0.00000000000E+00  0.00000000000E+00  0.93483028078E+03  0.93483028079E+03  0.25500000920E-02 0. -1.
        2   -1    0    0  501    0  0.00000000000E+00  0.00000000000E+00 -0.10724485944E+04  0.10724485944E+04  0.25500000920E-02 0.  1.
    10030    2    1    2    0    0  0.00000000000E+00  0.00000000000E+00 -0.13761831366E+03  0.20072788752E+04  0.20025557877E+04 0.  0.
        1    1    3    3  502    0 -0.99354562762E+03 -0.27438423868E+02  0.52603066621E+02  0.99531545949E+03  0.50400001928E-02 0. -1.
       -1    1    3    3    0  502  0.99354562762E+03  0.27438423868E+02 -0.19022138028E+03  0.10119634157E+04  0.50400001928E-02 0.  1.
</event>
<event>
 5   0  0.2317458E-04  0.1875513E+04  0.7818609E-02  0.8667142E-01
       -1   -1    0    0    0  501  0.00000000000E+00  0.00000000000E+00  0.10829911671E+04  0.10829911671E+04  0.50400001928E-02 0.  1.
        1   -1    0    0  501    0  0.00000000000E+00  0.00000000000E+00 -0.81199834232E+03  0.81199834234E+03  0.50400001928E-02 0. -1.
    10030    2    1    2    0    0  0.00000000000E+00  0.00000000000E+00  0.27099282478E+03  0.18949895094E+04  0.18755127645E+04 0.  0.
        3    1    3    3  502    0  0.87702142178E+03  0.28397282031E+03  0.30927050477E+03  0.97234530505E+03  0.10100000352E+00 0. -1.
       -3    1    3    3    0  502 -0.87702142178E+03 -0.28397282031E+03 -0.38277679992E+02  0.92264420440E+03  0.10100000352E+00 0.  1.
</event>
<event>
 5   0  0.2355414E-04  0.1894376E+04  0.7818609E-02  0.8657661E-01
        1   -1    0    0  501    0  0.00000000000E+00  0.00000000000E+00  0.15799882545E+04  0.15799882545E+04  0.50400001928E-02 0.  1.
       -1   -1    0    0    0  501  0.00000000000E+00  0.00000000000E+00 -0.56783002919E+03  0.56783002921E+03  0.50400001928E-02 0. -1.
    10030    2    1    2    0    0  0.00000000000E+00  0.00000000000E+00  0.10121582253E+04  0.21478182837E+04  0.18943756509E+04 0.  0.
        5    1    3    3  502    0  0.43005171000E+03  0.11371232785E+03  0.14541769859E+04  0.15206997610E+04  0.46999998093E+01 0.  1.
       -5    1    3    3    0  502 -0.43005171000E+03 -0.11371232785E+03 -0.44201876062E+03  0.62711852270E+03  0.46999998093E+01 0. -1.
</event>
<event>
 5   0  0.4761944E-04  0.1972465E+04  0.7818609E-02  0.8619603E-01
       -2   -1    0    0    0  501  0.00000000000E+00  0.00000000000E+00  0.52625038105E+03  0.52625038106E+03  0.25500000920E-02 0. -1.
        2   -1    0    0  501    0  0.00000000000E+00  0.00000000000E+00 -0.18482736151E+04  0.18482736151E+04  0.25500000920E-02 0.  1.
    10030    2    1    2    0    0  0.00000000000E+00  0.00000000000E+00 -0.13220232341E+04  0.23745239962E+04  0.19724651523E+04 0.  0.
        4    1    3    3  502    0  0.58378089212E+03  0.13015417830E+03  0.28299275308E+03  0.66168478246E+03  0.12699999809E+01 0. -1.
       -4    1    3    3    0  502 -0.58378089212E+03 -0.13015417830E+03 -0.16050159872E+04  0.17128392137E+04  0.12699999809E+01 0.  1.
</event>
<event>
 5   0  0.4829134E-04  0.1911510E+04  0.7818609E-02  0.8649148E-01
       -2   -1    0    0    0  501  0.00000000000E+00  0.00000000000E+00  0.10305130014E+04  0.10305130014E+04  0.25500000920E-02 0. -1.
        2   -1    0    0  501    0  0.00000000000E+00  0.00000000000E+00 -0.88641988703E+03  0.88641988704E+03  0.25500000920E-02 0.  1.
    10030    2    1    2    0    0  0.00000000000E+00  0.00000000000E+00  0.14409311440E+03  0.19169328885E+04  0.19115095797E+04 0.  0.
        2    1    3    3  502    0  0.39809137528E+03 -0.12274888483E+03  0.93467494907E+03  0.10233089916E+04  0.25500000920E-02 0. -1.
       -2    1    3    3    0  502 -0.39809137528E+03  0.12274888483E+03 -0.79058183467E+03  0.89362389690E+03  0.25500000920E-02 0.  1.
</event>
<event>
 5   0  0.2510069E-04  0.1994675E+04  0.7818609E-02  0.8609114E-01
        1   -1    0    0  501    0  0.00000000000E+00  0.00000000000E+00  0.14346197517E+04  0.14346197517E+04  0.50400001928E-02 0.  1.
       -1   -1    0    0    0  501  0.00000000000E+00  0.00000000000E+00 -0.69334191874E+03  0.69334191876E+03  0.50400001928E-02 0. -1.
    10030    2    1    2    0    0  0.00000000000E+00  0.00000000000E+00  0.74127783299E+03  0.21279616705E+04  0.19946749222E+04 0.  0.
        4    1    3    3  502    0 -0.11745757280E+03  0.26280359072E+03  0.13893378392E+04  0.14188457468E+04  0.12699999809E+01 0.  1.
       -4    1    3    3    0  502  0.11745757280E+03 -0.26280359072E+03 -0.64806000624E+03  0.70911592374E+03  0.12699999809E+01 0. -1.
</event>
<event>
 5   0  0.4839293E-04  0.1902481E+04  0.7818609E-02  0.8653622E-01
       -2   -1    0    0    0  501  0.00000000000E+00  0.00000000000E+00  0.46907124729E+03  0.46907124729E+03  0.25500000920E-02 0. -1.
        2   -1    0    0  501    0  0.00000000000E+00  0.00000000000E+00 -0.19290433725E+04  0.19290433725E+04  0.25500000920E-02 0.  1.
    10030    2    1    2    0    0  0.00000000000E+00  0.00000000000E+00 -0.14599721252E+04  0.23981146198E+04  0.19024813070E+04 0.  0.
        5    1    3    3  502    0 -0.20333271351E+03 -0.64186896880E+03 -0.15769732503E+04  0.17147030902E+04  0.46999998093E+01 0.  1.
       -5    1    3    3    0  502  0.20333271351E+03  0.64186896880E+03  0.11700112508E+03  0.68341152957E+03  0.46999998093E+01 0. -1.
</event>
<event>
 5   0  0.2261755E-04  0.1890874E+04  0.7818609E-02  0.8659412E-01
        1   -1    0    0  501    0  0.00000000000E+00  0.00000000000E+00  0.15348072029E+04  0.15348072029E+04  0.50400001928E-02 0. -1.
       -1   -1    0    0    0  501  0.00000000000E+00  0.00000000000E+00 -0.58238669254E+03  0.58238669256E+03  0.50400001928E-02 0.  1.
    10030    2    1    2    0    0  0.00000000000E+00  0.00000000000E+00  0.95242051031E+03  0.21171938954E+04  0.18908741794E+04 0.  0.
        1    1    3    3  502    0 -0.43050997258E+02  0.85576601795E+03  0.92361373936E+03  0.12598615818E+04  0.50400001928E-02 0. -1.
       -1    1    3    3    0  502  0.43050997258E+02 -0.85576601795E+03  0.28806770950E+02  0.85733231358E+03  0.50400001928E-02 0.  1.
</event>
<event>
 5   0  0.4761944E-04  0.1836302E+04  0.7818609E-02  0.8687229E-01
        2   -1    0    0  501    0  0.00000000000E+00  0.00000000000E+00  0.22726785761E+04  0.22726785761E+04  0.25500000920E-02 0. -1.
       -2   -1    0    0    0  501  0.00000000000E+00  0.00000000000E+00 -0.37092857861E+03  0.37092857862E+03  0.25500000920E-02 0.  1.
    10030    2    1    2    0    0  0.00000000000E+00  0.00000000000E+00  0.19017499974E+04  0.26436071547E+04  0.18363021907E+04 0.  0.
        4    1    3    3  502    0 -0.71579016678E+03  0.74300206437E+02  0.12999985448E+03  0.73128493666E+03  0.12699999809E+01 0.  1.
       -4    1    3    3    0  502  0.71579016678E+03 -0.74300206437E+02  0.17717501430E+04  0.19123222180E+04  0.12699999809E+01 0. -1.
</event>
<event>
 5   0  0.2376359E-04  0.1532085E+04  0.7818609E-02  0.8863393E-01
       -1   -1    0    0    0  501  0.00000000000E+00  0.00000000000E+00  0.30382140784E+03  0.30382140788E+03  0.50400001928E-02 0. -1.
        1   -1    0    0  501    0  0.00000000000E+00  0.00000000000E+00 -0.19314679953E+04  0.19314679953E+04  0.50400001928E-02 0.  1.
    10030    2    1    2    0    0  0.00000000000E+00  0.00000000000E+00 -0.16276465875E+04  0.22352894032E+04  0.15320852791E+04 0.  0.
        2    1    3    3  502    0  0.16175742458E+03 -0.36896793543E+03 -0.17644262099E+04  0.18098349792E+04  0.25500000920E-02 0.  1.
       -2    1    3    3    0  502 -0.16175742458E+03  0.36896793543E+03  0.13677962241E+03  0.42545442399E+03  0.25500000920E-02 0. -1.
</event>
<event>
 5   0  0.2376359E-04  0.1841616E+04  0.7818609E-02  0.8684476E-01
        1   -1    0    0  501    0  0.00000000000E+00  0.00000000000E+00  0.10612807980E+04  0.10612807980E+04  0.50400001928E-02 0.  1.
       -1   -1    0    0    0  501  0.00000000000E+00  0.00000000000E+00 -0.79892839674E+03  0.79892839676E+03  0.50400001928E-02 0. -1.
    10030    2    1    2    0    0  0.00000000000E+00  0.00000000000E+00  0.26235240123E+03  0.18602091947E+04  0.18416159930E+04 0.  0.
        2    1    3    3  502    0 -0.40343480208E+02 -0.88524548110E+02 -0.79372287595E+03  0.79966255122E+03  0.25500000920E-02 0. -1.
       -2    1    3    3    0  502  0.40343480208E+02  0.88524548110E+02  0.10560752772E+04  0.10605466435E+04  0.25500000920E-02 0.  1.
</event>
<event>
 5   0  0.4829134E-04  0.1894783E+04  0.7818609E-02  0.8657457E-01
        2   -1    0    0  501    0  0.00000000000E+00  0.00000000000E+00  0.13590235628E+04  0.13590235628E+04  0.25500000920E-02 0. -1.
       -2   -1    0    0    0  501  0.00000000000E+00  0.00000000000E+00 -0.66043814633E+03  0.66043814634E+03  0.25500000920E-02 0.  1.
    10030    2    1    2    0    0  0.00000000000E+00  0.00000000000E+00  0.69858541647E+03  0.20194617091E+04  0.18947833677E+04 0.  0.
        2    1    3    3  502    0  0.52326351891E+03  0.73093252276E+03  0.66811494701E+03  0.11200199308E+04  0.25500000920E-02 0. -1.
       -2    1    3    3    0  502 -0.52326351891E+03 -0.73093252276E+03  0.30470469466E+02  0.89944177831E+03  0.25500000920E-02 0.  1.
</event>
<event>
 5   0  0.2355414E-04  0.1995239E+04  0.7818609E-02  0.8608850E-01
       -1   -1    0    0    0  501  0.00000000000E+00  0.00000000000E+00  0.12373230530E+04  0.12373230530E+04  0.50400001928E-02 0.  1.
        1   -1    0    0  501    0  0.00000000000E+00  0.00000000000E+00 -0.80435332400E+03  0.80435332401E+03  0.50400001928E-02 0. -1.
    10030    2    1    2    0    0  0.00000000000E+00  0.00000000000E+00  0.43296972901E+03  0.20416763770E+04  0.19952392444E+04 0.  0.
        5    1    3    3  502    0  0.43631735199E+03 -0.85703506486E+03  0.48787611634E+03  0.10783909908E+04  0.46999998093E+01 0.  1.
       -5    1    3    3    0  502 -0.43631735199E+03  0.85703506486E+03 -0.54906387333E+02  0.96328538628E+03  0.46999998093E+01 0. -1.
</event>
<event>
 5   0  0.2261755E-04  0.1872274E+04  0.7818609E-02  0.8668782E-01
       -1   -1    0    0    0  501  0.00000000000E+00  0.00000000000E+00  0.70736774049E+03  0.70736774050E+03  0.50400001928E-02 0.  1.
        1   -1    0    0  501    0  0.00000000000E+00  0.00000000000E+00 -0.12388928250E+04  0.12388928250E+04  0.50400001928E-02 0. -1.
    10030    2    1    2    0    0  0.00000000000E+00  0.00000000000E+00 -0.53152508449E+03  0.19462605655E+04  0.18722743585E+04 0.  0.
        1    1    3    3  502    0  0.28222389160E+03 -0.20521663025E+03  0.63723511098E+03  0.72652100933E+03  0.50400001928E-02 0.  1.
       -1    1    3    3    0  502 -0.28222389160E+03  0.20521663025E+03 -0.11687601955E+04  0.12197395562E+04  0.50400001928E-02 0. -1.
</event>
<event>
 5   0  0.2355414E-04  0.1805376E+04  0.7818609E-02  0.8703446E-01
       -1   -1    0    0    0  501  0.00000000000E+00  0.00000000000E+00  0.87540265922E+03  0.87540265924E+03  0.50400001928E-02 0.  1.
        1   -1    0    0  501    0  0.00000000000E+00  0.00000000000E+00 -0.93082405837E+03  0.93082405839E+03  0.50400001928E-02 0. -1.
    10030    2    1    2    0    0  0.00000000000E+00  0.00000000000E+00 -0.55421399150E+02  0.18062267176E+04  0.18053762555E+04 0.  0.
        5    1    3    3  502    0 -0.17357354224E+03 -0.46194638820E+03  0.72849026636E+03  0.87991044903E+03  0.46999998093E+01 0.  1.
       -5    1    3    3    0  502  0.17357354224E+03  0.46194638820E+03 -0.78391166551E+03  0.92631626859E+03  0.46999998093E+01 0. -1.
</event>
<event>
 5   0  0.4829134E-04  0.1675421E+04  0.7818609E-02  0.8775508E-01
        2   -1    0    0  501    0  0.00000000000E+00  0.00000000000E+00  0.23352531026E+04  0.23352531026E+04  0.25500000920E-02 0.  1.
       -2   -1    0    0    0  501  0.00000000000E+00  0.00000000000E+00 -0.30050665694E+03  0.30050665695E+03  0.25500000920E-02 0. -1.
    10030    2    1    2    0    0  0.00000000000E+00  0.00000000000E+00  0.20347464456E+04  0.26357597595E+04  0.16754212640E+04 0.  0.
        2    1    3    3  502    0 -0.77782302688E+03  0.20221221642E+03  0.13891950123E+04  0.16049178246E+04  0.25500000920E-02 0. -1.
       -2    1    3    3    0  502  0.77782302688E+03 -0.20221221642E+03  0.64555143332E+03  0.10308419349E+04  0.25500000920E-02 0.  1.
</event>
<event>
 5   0  0.4829134E-04  0.1905236E+04  0.7818609E-02  0.8652254E-01
       -2   -1    0    0    0  501  0.00000000000E+00  0.00000000000E+00  0.55900038551E+03  0.55900038552E+03  0.25500000920E-02 0. -1.
        2   -1    0    0  501    0  0.00000000000E+00  0.00000000000E+00 -0.16234000511E+04  0.16234000511E+04  0.25500000920E-02 0.  1.
    10030    2    1    2    0    0  0.00000000000E+00  0.00000000000E+00 -0.10643996656E+04  0.21824004366E+04  0.19052362104E+04 0.  0.
        2    1    3    3  502    0 -0.33467750292E+03 -0.52374864866E+03  0.29473440608E+03  0.68788810723E+03  0.25500000920E-02 0. -1.
       -2    1    3    3    0  502  0.33467750292E+03  0.52374864866E+03 -0.13591340716E+04  0.14945123294E+04  0.25500000920E-02 0.  1.
</event>
<event>
 5   0  0.2261755E-04  0.1817705E+04  0.7818609E-02  0.8696941E-01
       -1   -1    0    0    0  501  0.00000000000E+00  0.00000000000E+00  0.50138221082E+03  0.50138221084E+03  0.50400001928E-02 0.  1.
        1   -1    0    0  501    0  0.00000000000E+00  0.00000000000E+00 -0.16474711681E+04  0.16474711681E+04  0.50400001928E-02 0. -1.
    10030    2    1    2    0    0  0.00000000000E+00  0.00000000000E+00 -0.11460889573E+04  0.21488533790E+04  0.18177048568E+04 0.  0.
        1    1    3    3  502    0 -0.55267806614E+03  0.10206944659E+03 -0.14174066185E+04  0.15247664539E+04  0.50400001928E-02 0. -1.
       -1    1    3    3    0  502  0.55267806614E+03 -0.10206944659E+03  0.27131766122E+03  0.62408692506E+03  0.50400001928E-02 0.  1.
</event>
<event>
 5   0  0.4802635E-04  0.1845570E+04  0.7818609E-02  0.8682434E-01
       -2   -1    0    0    0  501  0.00000000000E+00  0.00000000000E+00  0.70088664987E+03  0.70088664988E+03  0.25500000920E-02 0.  1.
        2   -1    0    0  501    0  0.00000000000E+00  0.00000000000E+00 -0.12149352757E+04  0.12149352757E+04  0.25500000920E-02 0. -1.
    10030    2    1    2    0    0  0.00000000000E+00  0.00000000000E+00 -0.51404862585E+03  0.19158219256E+04  0.18455697388E+04 0.  0.
        3    1    3    3  502    0 -0.91851692705E+03  0.40215467658E+02 -0.33903328523E+03  0.97991540850E+03  0.10100000352E+00 0. -1.
       -3    1    3    3    0  502  0.91851692705E+03 -0.40215467658E+02 -0.17501534063E+03  0.93590651711E+03  0.10100000352E+00 0.  1.
</event>
<event>
 5   0  0.4802635E-04  0.1923948E+04  0.7818609E-02  0.8643027E-01
       -2   -1    0    0    0  501  0.00000000000E+00  0.00000000000E+00  0.19063457335E+04  0.19063457335E+04  0.25500000920E-02 0. -1.
        2   -1    0    0  501    0  0.00000000000E+00  0.00000000000E+00 -0.48542832628E+03  0.48542832629E+03  0.25500000920E-02 0.  1.
    10030    2    1    2    0    0  0.00000000000E+00  0.00000000000E+00  0.14209174072E+04  0.23917740598E+04  0.19239482516E+04 0.  0.
        3    1    3    3  502    0 -0.13808712181E+03 -0.81751735318E+03  0.13169261829E+04  0.15561803422E+04  0.10100000352E+00 0. -1.
       -3    1    3    3    0  502  0.13808712181E+03  0.81751735318E+03  0.10399122432E+03  0.83559371761E+03  0.10100000352E+00 0.  1.
</event>
<event>
 5   0  0.4761944E-04  0.1977411E+04  0.7818609E-02  0.8617255E-01
       -2   -1    0    0    0  501  0.00000000000E+00  0.00000000000E+00  0.34150522724E+03  0.34150522725E+03  0.25500000920E-02 0.  1.
        2   -1    0    0  501    0  0.00000000000E+00  0.00000000000E+00 -0.28624400444E+04  0.28624400444E+04  0.25500000920E-02 0. -1.
    10030    2    1    2    0    0  0.00000000000E+00  0.00000000000E+00 -0.25209348172E+04  0.32039452717E+04  0.19774106684E+04 0.  0.
        4    1    3    3  502    0 -0.59137273777E+03  0.79056879982E+03 -0.13464470238E+04  0.16696232937E+04  0.12699999809E+01 0. -1.
       -4    1    3    3    0  502  0.59137273777E+03 -0.79056879982E+03 -0.11744877934E+04  0.15343219779E+04  0.12699999809E+01 0.  1.
</event>
<event>
 5   0  0.2510069E-04  0.1718627E+04  0.7818609E-02  0.8750812E-01
       -1   -1    0    0    0  501  0.00000000000E+00  0.00000000000E+00  0.51805633832E+03  0.51805633834E+03  0.50400001928E-02 0.  1.
        1   -1    0    0  501    0  0.00000000000E+00  0.00000000000E+00 -0.14253653195E+04  0.14253653195E+04  0.50400001928E-02 0. -1.
    10030    2    1    2    0    0  0.00000000000E+00  0.00000000000E+00 -0.90730898117E+03  0.19434216578E+04  0.17186268219E+04 0.  0.
        4    1    3    3  502    0  0.86946901714E+02 -0.54986070254E+03 -0.11938843975E+04  0.13172957615E+04  0.12699999809E+01 0. -1.
       -4    1    3    3    0  502 -0.86946901714E+02  0.54986070254E+03  0.28657541630E+03  0.62612589632E+03  0.12699999809E+01 0.  1.
</event>
<event>
 5   0  0.2510069E-04  0.1888080E+04  0.7818609E-02  0.8660813E-01
        1   -1    0    0  501    0  0.00000000000E+00  0.00000000000E+00  0.65299232904E+03  0.65299232906E+03  0.50400001928E-02 0.  1.
       -1   -1    0    0    0  501  0.00000000000E+00  0.00000000000E+00 -0.13648115165E+04  0.13648115165E+04  0.50400001928E-02 0. -1.
    10030    2    1    2    0    0  0.00000000000E+00  0.00000000000E+00 -0.71181918744E+03  0.20178038455E+04  0.18880799251E+04 0.  0.
        4    1    3    3  502    0  0.56760031434E+03 -0.33950436262E+03 -0.10758218635E+04  0.12628648479E+04  0.12699999809E+01 0. -1.
       -4    1    3    3    0  502 -0.56760031434E+03  0.33950436262E+03  0.36400267610E+03  0.75493899766E+03  0.12699999809E+01 0.  1.
</event>
<event>
 5   0  0.4839293E-04  0.1676603E+04  0.7818609E-02  0.8774822E-01
       -2   -1    0    0    0  501  0.00000000000E+00  0.00000000000E+00  0.22119458383E+04  0.22119458383E+04  0.25500000920E-02 0. -1.
        2   -1    0    0  501    0  0.00000000000E+00  0.00000000000E+00 -0.31770651950E+03  0.31770651951E+03  0.25500000920E-02 0.  1.
    10030    2    1    2    0    0  0.00000000000E+00  0.00000000000E+00  0.18942393188E+04  0.25296523578E+04  0.16766032490E+04 0.  0.
        5    1    3    3  502    0  0.10546559543E+03  0.71143645179E+03  0.15968884313E+04  0.17513821881E+04  0.46999998093E+01 0. -1.
       -5    1    3    3    0  502 -0.10546559543E+03 -0.71143645179E+03  0.29735088750E+03  0.77827016971E+03  0.46999998093E+01 0.  1.
</event>
<event>
 5   0  0.2510069E-04  0.1691300E+04  0.7818609E-02  0.8766342E-01
       -1   -1    0    0    0  501  0.00000000000E+00  0.00000000000E+00  0.24300399792E+04  0.24300399792E+04  0.50400001928E-02 0. -1.
        1   -1    0    0  501    0  0.00000000000E+00  0.00000000000E+00 -0.29428487052E+03  0.29428487057E+03  0.50400001928E-02 0.  1.
    10030    2    1    2    0    0  0.00000000000E+00  0.00000000000E+00  0.21357551086E+04  0.27243248497E+04  0.16913000925E+04 0.  0.
        4    1    3    3  502    0  0.44750260316E+03 -0.58613398905E+03  0.17345776747E+04  0.18848270360E+04  0.12699999809E+01 0. -1.
       -4    1    3    3    0  502 -0.44750260316E+03  0.58613398905E+03  0.40117743392E+03  0.83949781377E+03  0.12699999809E+01 0.  1.
</event>
<event>
 5   0  0.4802635E-04  0.1253255E+04  0.7818609E-02  0.9067478E-01
        2   -1    0    0  501    0  0.00000000000E+00  0.00000000000E+00  0.14202371999E+04  0.14202371999E+04  0.25500000920E-02 0.  1.
       -2   -1    0    0    0  501  0.00000000000E+00  0.00000000000E+00 -0.27647645086E+03  0.27647645087E+03  0.25500000920E-02 0. -1.
    10030    2    1    2    0    0  0.00000000000E+00  0.00000000000E+00  0.11437607490E+04  0.16967136508E+04  0.12532551862E+04 0.  0.
        3    1    3    3  502    0  0.40843777858E+03  0.35209717756E+03  0.10039846355E+04  0.11396398554E+04  0.10100000352E+00 0.  1.
       -3    1    3    3    0  502 -0.40843777858E+03 -0.35209717756E+03  0.13977611354E+03  0.55707379541E+03  0.10100000352E+00 0. -1.
</event>
<event>
 5   0  0.4839293E-04  0.1923767E+04  0.7818609E-02  0.8643116E-01
        2   -1    0    0  501    0  0.00000000000E+00  0.00000000000E+00  0.13036963482E+04  0.13036963482E+04  0.25500000920E-02 0.  1.
       -2   -1    0    0    0  501  0.00000000000E+00  0.00000000000E+00 -0.70968951451E+03  0.70968951451E+03  0.25500000920E-02 0. -1.
    10030    2    1    2    0    0  0.00000000000E+00  0.00000000000E+00  0.59400683366E+03  0.20133858627E+04  0.19237667514E+04 0.  0.
        5    1    3    3  502    0  0.38586498204E+01 -0.25586584828E+03 -0.67339914071E+03  0.72039622028E+03  0.46999998093E+01 0. -1.
       -5    1    3    3    0  502 -0.38586498204E+01  0.25586584828E+03  0.12674059744E+04  0.12929896424E+04  0.46999998093E+01 0.  1.
</event>
<event>
 5   0  0.2510069E-04  0.1875145E+04  0.7818609E-02  0.8667328E-01
       -1   -1    0    0    0  501  0.00000000000E+00  0.00000000000E+00  0.89710150210E+03  0.89710150212E+03  0.50400001928E-02 0.  1.
        1   -1    0    0  501    0  0.00000000000E+00  0.00000000000E+00 -0.97986926824E+03  0.97986926825E+03  0.50400001928E-02 0. -1.
    10030    2    1    2    0    0  0.00000000000E+00  0.00000000000E+00 -0.82767766137E+02  0.18769707704E+04  0.18751449997E+04 0.  0.
        4    1    3    3  502    0  0.44862629144E+03  0.26037993615E+03  0.74038701010E+03  0.90401205642E+03  0.12699999809E+01 0.  1.
       -4    1    3    3    0  502 -0.44862629144E+03 -0.26037993615E+03 -0.82315477624E+03  0.97295871396E+03  0.12699999809E+01 0. -1.
</event>
<event>
 5   0  0.2317458E-04  0.1850923E+04  0.7818609E-02  0.8679678E-01
        1   -1    0    0  501    0  0.00000000000E+00  0.00000000000E+00  0.82058304780E+03  0.82058304781E+03  0.50400001928E-02 0.  1.
       -1   -1    0    0    0  501  0.00000000000E+00  0.00000000000E+00 -0.10437445744E+04  0.10437445744E+04  0.50400001928E-02 0. -1.
    10030    2    1    2    0    0  0.00000000000E+00  0.00000000000E+00 -0.22316152662E+03  0.18643276222E+04  0.18509231254E+04 0.  0.
        3    1    3    3  502    0 -0.91587960045E+03  0.24058825458E+02 -0.24315921217E+03  0.94791385804E+03  0.10100000352E+00 0. -1.
       -3    1    3    3    0  502  0.91587960045E+03 -0.24058825458E+02  0.19997685554E+02  0.91641376420E+03  0.10100000352E+00 0.  1.
</event>
<event>
 5   0  0.2510069E-04  0.1920460E+04  0.7818609E-02  0.8644739E-01
        1   -1    0    0  501    0  0.00000000000E+00  0.00000000000E+00  0.20685396466E+04  0.20685396466E+04  0.50400001928E-02 0.  1.
       -1   -1    0    0    0  501  0.00000000000E+00  0.00000000000E+00 -0.44574532441E+03  0.44574532444E+03  0.50400001928E-02 0. -1.
    10030    2    1    2    0    0  0.00000000000E+00  0.00000000000E+00  0.16227943222E+04  0.25142849710E+04  0.19204602322E+04 0.  0.
        4    1    3    3  502    0  0.67607715545E+02  0.75197682215E+03  0.15881461727E+04  0.17584794065E+04  0.12699999809E+01 0.  1.
       -4    1    3    3    0  502 -0.67607715545E+02 -0.75197682215E+03  0.34648149479E+02  0.75580556456E+03  0.12699999809E+01 0. -1.
</event>
<event>
 5   0  0.4839293E-04  0.1911525E+04  0.7818609E-02  0.8649141E-01
        2   -1    0    0  501    0  0.00000000000E+00  0.00000000000E+00  0.15767947717E+04  0.15767947717E+04  0.25500000920E-02 0. -1.
       -2   -1    0    0    0  501  0.00000000000E+00  0.00000000000E+00 -0.57932838879E+03  0.57932838880E+03  0.25500000920E-02 0.  1.
    10030    2    1    2    0    0  0.00000000000E+00  0.00000000000E+00  0.99746638293E+03  0.21561231605E+04  0.19115250190E+04 0.  0.
        5    1    3    3  502    0 -0.81995198641E+03 -0.38709504738E+03  0.83954887299E+03  0.12357298393E+04  0.46999998093E+01 0. -1.
       -5    1    3    3    0  502  0.81995198641E+03  0.38709504738E+03  0.15791750995E+03  0.92039332118E+03  0.46999998093E+01 0.  1.
</event>
<event>
 5   0  0.2510069E-04  0.1955837E+04  0.7818609E-02  0.8627551E-01
        1   -1    0    0  501    0  0.00000000000E+00  0.00000000000E+00  0.63039905286E+03  0.63039905288E+03  0.50400001928E-02 0. -1.
       -1   -1    0    0    0  501  0.00000000000E+00  0.00000000000E+00 -0.15170146950E+04  0.15170146950E+04  0.50400001928E-02 0.  1.
    10030    2    1    2    0    0  0.00000000000E+00  0.00000000000E+00 -0.88661564214E+03  0.21474137479E+04  0.19558370351E+04 0.  0.
        4    1    3    3  502    0  0.40233919768E+03  0.55131343360E+03  0.32564984101E+03  0.75622269465E+03  0.12699999809E+01 0. -1.
       -4    1    3    3    0  502 -0.40233919768E+03 -0.55131343360E+03 -0.12122654831E+04  0.13911910532E+04  0.12699999809E+01 0.  1.
</event>
<event>
 5   0  0.2376359E-04  0.1406573E+04  0.7818609E-02  0.8949074E-01
        1   -1    0    0  501    0  0.00000000000E+00  0.00000000000E+00  0.20304354830E+04  0.20304354830E+04  0.50400001928E-02 0. -1.
       -1   -1    0    0    0  501  0.00000000000E+00  0.00000000000E+00 -0.24359897728E+03  0.24359897733E+03  0.50400001928E-02 0.  1.
    10030    2    1    2    0    0  0.00000000000E+00  0.00000000000E+00  0.17868365057E+04  0.22740344603E+04  0.14065731508E+04 0.  0.
        2    1    3    3  502    0  0.12260234208E+03 -0.10683036356E+03 -0.21278659238E+03  0.26780999750E+03  0.25500000920E-02 0.  1.
       -2    1    3    3    0  502 -0.12260234208E+03  0.10683036356E+03  0.19996230981E+04  0.20062244628E+04  0.25500000920E-02 0. -1.
</event>
<event>
 5   0  0.2355414E-04  0.1810740E+04  0.7818609E-02  0.8700609E-01
        1   -1    0    0  501    0  0.00000000000E+00  0.00000000000E+00  0.13521974156E+04  0.13521974156E+04  0.50400001928E-02 0.  1.
       -1   -1    0    0    0  501  0.00000000000E+00  0.00000000000E+00 -0.60619468091E+03  0.60619468093E+03  0.50400001928E-02 0. -1.
    10030    2    1    2    0    0  0.00000000000E+00  0.00000000000E+00  0.74600273465E+03  0.19583920965E+04  0.18107400486E+04 0.  0.
        5    1    3    3  502    0  0.59809626840E+03 -0.19001813920E+03 -0.33278003442E+03  0.71034546582E+03  0.46999998093E+01 0. -1.
       -5    1    3    3    0  502 -0.59809626840E+03  0.19001813920E+03  0.10787827691E+04  0.12480466307E+04  0.46999998093E+01 0.  1.
</event>
<event>
 5   0  0.4829134E-04  0.1882619E+04  0.7818609E-02  0.8663557E-01
        2   -1    0    0  501    0  0.00000000000E+00  0.00000000000E+00  0.14459281366E+04  0.14459281366E+04  0.25500000920E-02 0. -1.
       -2   -1    0    0    0  501  0.00000000000E+00  0.00000000000E+00 -0.61279918794E+03  0.61279918795E+03  0.25500000920E-02 0.  1.
    10030    2    1    2    0    0  0.00000000000E+00  0.00000000000E+00  0.83312894861E+03  0.20587273245E+04  0.18826190139E+04 0.  0.
        2    1    3    3  502    0 -0.45781373400E+03 -0.10520815512E+03 -0.47546303698E+03  0.66837659331E+03  0.25500000920E-02 0.  1.
       -2    1    3    3    0  502  0.45781373400E+03  0.10520815512E+03  0.13085919856E+04  0.13903507312E+04  0.25500000920E-02 0. -1.
</event>
<event>
 5   0  0.4761944E-04  0.1651073E+04  0.7818609E-02  0.8789772E-01
        2   -1    0    0  501    0  0.00000000000E+00  0.00000000000E+00  0.11805338833E+04  0.11805338833E+04  0.25500000920E-02 0. -1.
       -2   -1    0    0    0  501  0.00000000000E+00  0.00000000000E+00 -0.57729007824E+03  0.57729007825E+03  0.25500000920E-02 0.  1.
    10030    2    1    2    0    0  0.00000000000E+00  0.00000000000E+00  0.60324380507E+03  0.17578239616E+04  0.16510729819E+04 0.  0.
        4    1    3    3  502    0 -0.20179720091E+03  0.23055200963E+03  0.11177569532E+04  0.11589903186E+04  0.12699999809E+01 0. -1.
       -4    1    3    3    0  502  0.20179720091E+03 -0.23055200963E+03 -0.51451314809E+03  0.59883364293E+03  0.12699999809E+01 0.  1.
</event>
<event>
 5   0  0.4802635E-04  0.1923860E+04  0.7818609E-02  0.8643070E-01
        2   -1    0    0  501    0  0.00000000000E+00  0.00000000000E+00  0.69592183384E+03  0.69592183384E+03  0.25500000920E-02 0.  1.
       -2   -1    0    0    0  501  0.00000000000E+00  0.00000000000E+00 -0.13296160779E+04  0.13296160779E+04  0.25500000920E-02 0. -1.
    10030    2    1    2    0    0  0.00000000000E+00  0.00000000000E+00 -0.63369424408E+03  0.20255379118E+04  0.19238595159E+04 0.  0.
        3    1    3    3  502    0 -0.82005779077E+02  0.60703499886E+03 -0.10977281066E+04  0.12570693871E+04  0.10100000352E+00 0. -1.
       -3    1    3    3    0  502  0.82005779077E+02 -0.60703499886E+03  0.46403386255E+03  0.76846852469E+03  0.10100000352E+00 0.  1.
</event>
<event>
 5   0  0.2261755E-04  0.1925845E+04  0.7818609E-02  0.8642098E-01
       -1   -1    0    0    0  501  0.00000000000E+00  0.00000000000E+00  0.10629226968E+04  0.10629226968E+04  0.50400001928E-02 0. -1.
        1   -1    0    0  501    0  0.00000000000E+00  0.00000000000E+00 -0.87233026961E+03  0.87233026963E+03  0.50400001928E-02 0.  1.
    10030    2    1    2    0    0  0.00000000000E+00  0.00000000000E+00  0.19059242721E+03  0.19352529665E+04  0.19258448979E+04 0.  0.
        1    1    3    3  502    0  0.45345938908E+03  0.28629399214E+03 -0.70837948889E+03  0.88847688084E+03  0.50400001928E-02 0.  1.
       -1    1    3    3    0  502 -0.45345938908E+03 -0.28629399214E+03  0.89897191610E+03  0.10467760856E+04  0.50400001928E-02 0. -1.
</event>
<event>
 5   0  0.2317458E-04  0.1904274E+04  0.7818609E-02  0.8652732E-01
        1   -1    0    0  501    0  0.00000000000E+00  0.00000000000E+00  0.84088964019E+03  0.84088964020E+03  0.50400001928E-02 0. -1.
       -1   -1    0    0    0  501  0.00000000000E+00  0.00000000000E+00 -0.10781019903E+04  0.10781019904E+04  0.50400001928E-02 0.  1.
    10030    2    1    2    0    0  0.00000000000E+00  0.00000000000E+00 -0.23721235015E+03  0.19189916306E+04  0.19042739244E+04 0.  0.
        3    1    3    3  502    0  0.66782833746E+01 -0.10420622722E+03  0.83510210245E+03  0.84160505522E+03  0.10100000352E+00 0. -1.
       -3    1    3    3    0  502 -0.66782833746E+01  0.10420622722E+03 -0.10723144526E+04  0.10773865753E+04  0.10100000352E+00 0.  1.
</event>
<event>
 5   0  0.2355414E-04  0.1895330E+04  0.7818609E-02  0.8657184E-01
       -1   -1    0    0    0  501  0.00000000000E+00  0.00000000000E+00  0.67196018505E+03  0.67196018507E+03  0.50400001928E-02 0.  1.
        1   -1    0    0  501    0  0.00000000000E+00  0.00000000000E+00 -0.13364919789E+04  0.13364919789E+04  0.50400001928E-02 0. -1.
    10030    2    1    2    0    0  0.00000000000E+00  0.00000000000E+00 -0.66453179388E+03  0.20084521640E+04  0.18953304699E+04 0.  0.
        5    1    3    3  502    0  0.77463078617E+03  0.52392016914E+03 -0.16981206274E+03  0.95047536800E+03  0.46999998093E+01 0. -1.
       -5    1    3    3    0  502 -0.77463078617E+03 -0.52392016914E+03 -0.49471973114E+03  0.10579767960E+04  0.46999998093E+01 0.  1.
</event>
<event>
 5   0  0.2355414E-04  0.1880725E+04  0.7818609E-02  0.8664511E-01
        1   -1    0    0  501    0  0.00000000000E+00  0.00000000000E+00  0.11088080415E+04  0.11088080415E+04  0.50400001928E-02 0. -1.
       -1   -1    0    0    0  501  0.00000000000E+00  0.00000000000E+00 -0.79750616908E+03  0.79750616910E+03  0.50400001928E-02 0.  1.
    10030    2    1    2    0    0  0.00000000000E+00  0.00000000000E+00  0.31130187242E+03  0.19063142106E+04  0.18807245981E+04 0.  0.
        5    1    3    3  502    0 -0.39340621320E+03  0.75567464173E+02  0.10179792612E+04  0.10939756654E+04  0.46999998093E+01 0. -1.
       -5    1    3    3    0  502  0.39340621320E+03 -0.75567464173E+02 -0.70667738879E+03  0.81233854522E+03  0.46999998093E+01 0.  1.
</event>
<event>
 5   0  0.4829134E-04  0.1886112E+04  0.7818609E-02  0.8661801E-01
        2   -1    0    0  501    0  0.00000000000E+00  0.00000000000E+00  0.93831498964E+03  0.93831498965E+03  0.25500000920E-02 0. -1.
       -2   -1    0    0    0  501  0.00000000000E+00  0.00000000000E+00 -0.94782052289E+03  0.94782052289E+03  0.25500000920E-02 0.  1.
    10030    2    1    2    0    0  0.00000000000E+00  0.00000000000E+00 -0.95055332471E+01  0.18861355125E+04  0.18861115599E+04 0.  0.
        2    1    3    3  502    0 -0.69400940396E+03  0.48936904672E+02  0.63189519357E+03  0.93985924961E+03  0.25500000920E-02 0. -1.
       -2    1    3    3    0  502  0.69400940396E+03 -0.48936904672E+02 -0.64140072682E+03  0.94627626293E+03  0.25500000920E-02 0.  1.
</event>
<event>
 5   0  0.4829134E-04  0.1888840E+04  0.7818609E-02  0.8660432E-01
        2   -1    0    0  501    0  0.00000000000E+00  0.00000000000E+00  0.97577347030E+03  0.97577347030E+03  0.25500000920E-02 0. -1.
       -2   -1    0    0    0  501  0.00000000000E+00  0.00000000000E+00 -0.91407384227E+03  0.91407384228E+03  0.25500000920E-02 0.  1.
    10030    2    1    2    0    0  0.00000000000E+00  0.00000000000E+00  0.61699628028E+02  0.18898473126E+04  0.18888398611E+04 0.  0.
        2    1    3    3  502    0 -0.68761992787E+03  0.49845090645E+03  0.44417369015E+03  0.95841783079E+03  0.25500000920E-02 0. -1.
       -2    1    3    3    0  502  0.68761992787E+03 -0.49845090645E+03 -0.38247406212E+03  0.93142948179E+03  0.25500000920E-02 0.  1.
</event>
<event>
 5   0  0.2317458E-04  0.1899763E+04  0.7818609E-02  0.8654974E-01
        1   -1    0    0  501    0  0.00000000000E+00  0.00000000000E+00  0.10610685252E+04  0.10610685252E+04  0.50400001928E-02 0. -1.
       -1   -1    0    0    0  501  0.00000000000E+00  0.00000000000E+00 -0.85034568808E+03  0.85034568809E+03  0.50400001928E-02 0.  1.
    10030    2    1    2    0    0  0.00000000000E+00  0.00000000000E+00  0.21072283708E+03  0.19114142133E+04  0.18997631907E+04 0.  0.
        3    1    3    3  502    0  0.16418853019E+03  0.92392793674E+03 -0.42763517326E+02  0.93937715234E+03  0.10100000352E+00 0.  1.
       -3    1    3    3    0  502 -0.16418853019E+03 -0.92392793674E+03  0.25348635440E+03  0.97203706092E+03  0.10100000352E+00 0. -1.
</event>
<event>
 5   0  0.2261755E-04  0.1971377E+04  0.7818609E-02  0.8620121E-01
        1   -1    0    0  501    0  0.00000000000E+00  0.00000000000E+00  0.96402420066E+03  0.96402420067E+03  0.50400001928E-02 0. -1.
       -1   -1    0    0    0  501  0.00000000000E+00  0.00000000000E+00 -0.10078392269E+04  0.10078392269E+04  0.50400001928E-02 0.  1.
    10030    2    1    2    0    0  0.00000000000E+00  0.00000000000E+00 -0.43815026273E+02  0.19718634276E+04  0.19713765801E+04 0.  0.
        1    1    3    3  502    0 -0.23910421378E+03  0.79868720355E+03  0.50406389321E+03  0.97424457023E+03  0.50400001928E-02 0. -1.
       -1    1    3    3    0  502  0.23910421378E+03 -0.79868720355E+03 -0.54787891948E+03  0.99761885738E+03  0.50400001928E-02 0.  1.
</event>
<event>
 5   0  0.4802635E-04  0.1926229E+04  0.7818609E-02  0.8641910E-01
       -2   -1    0    0    0  501  0.00000000000E+00  0.00000000000E+00  0.31312817150E+03  0.31312817151E+03  0.25500000920E-02 0. -1.
        2   -1    0    0  501    0  0.00000000000E+00  0.00000000000E+00 -0.29623309453E+04  0.29623309453E+04  0.25500000920E-02 0.  1.
    10030    2    1    2    0    0  0.00000000000E+00  0.00000000000E+00 -0.26492027738E+04  0.32754591169E+04  0.19262287220E+04 0.  0.
        3    1    3    3  502    0  0.56628110576E+03 -0.25373798336E+03 -0.72103473019E+02  0.62470487109E+03  0.10100000352E+00 0. -1.
       -3    1    3    3    0  502 -0.56628110576E+03  0.25373798336E+03 -0.25770993008E+04  0.26507542458E+04  0.10100000352E+00 0.  1.
</event>
<event>
 5   0  0.4839293E-04  0.1771760E+04  0.7818609E-02  0.8721463E-01
        2   -1    0    0  501    0  0.00000000000E+00  0.00000000000E+00  0.10394142883E+04  0.10394142883E+04  0.25500000920E-02 0.  1.
       -2   -1    0    0    0  501  0.00000000000E+00  0.00000000000E+00 -0.75502484286E+03  0.75502484286E+03  0.25500000920E-02 0. -1.
    10030    2    1    2    0    0  0.00000000000E+00  0.00000000000E+00  0.28438944548E+03  0.17944391312E+04  0.17717602656E+04 0.  0.
        5    1    3    3  502    0 -0.99006757060E+01 -0.85701987050E+02 -0.75074742346E+03  0.75570274433E+03  0.46999998093E+01 0. -1.
       -5    1    3    3    0  502  0.99006757060E+01  0.85701987050E+02  0.10351368689E+04  0.10387363869E+04  0.46999998093E+01 0.  1.
</event>
<event>
 5   0  0.2376359E-04  0.1908030E+04  0.7818609E-02  0.8650870E-01
        1   -1    0    0  501    0  0.00000000000E+00  0.00000000000E+00  0.17266693032E+04  0.17266693032E+04  0.50400001928E-02 0. -1.
       -1   -1    0    0    0  501  0.00000000000E+00  0.00000000000E+00 -0.52711010104E+03  0.52711010106E+03  0.50400001928E-02 0.  1.
    10030    2    1    2    0    0  0.00000000000E+00  0.00000000000E+00  0.11995592022E+04  0.22537794043E+04  0.19080302208E+04 0.  0.
        2    1    3    3  502    0 -0.24644009615E+03 -0.26019541977E+03 -0.44457772241E+03  0.57103741448E+03  0.25500000920E-02 0.  1.
       -2    1    3    3    0  502  0.24644009615E+03  0.26019541977E+03  0.16441369246E+04  0.16827419898E+04  0.25500000920E-02 0. -1.
</event>
<event>
 5   0  0.2376359E-04  0.1755084E+04  0.7818609E-02  0.8730557E-01
       -1   -1    0    0    0  501  0.00000000000E+00  0.00000000000E+00  0.88428453703E+03  0.88428453704E+03  0.50400001928E-02 0. -1.
        1   -1    0    0  501    0  0.00000000000E+00  0.00000000000E+00 -0.87085044188E+03  0.87085044190E+03  0.50400001928E-02 0.  1.
    10030    2    1    2    0    0  0.00000000000E+00  0.00000000000E+00  0.13434095142E+02  0.17551349789E+04  0.17550835648E+04 0.  0.
        2    1    3    3  502    0 -0.52523782844E+03 -0.69207868137E+03 -0.11670416066E+03  0.87662280301E+03  0.25500000920E-02 0.  1.
       -2    1    3    3    0  502  0.52523782844E+03  0.69207868137E+03  0.13013825580E+03  0.87851217593E+03  0.25500000920E-02 0. -1.
</event>
<event>
 5   0  0.2317458E-04  0.2319711E+04  0.7818609E-02  0.8470190E-01
        1   -1    0    0  501    0  0.00000000000E+00  0.00000000000E+00  0.10065519031E+04  0.10065519032E+04  0.50400001928E-02 0. -1.
       -1   -1    0    0    0  501  0.00000000000E+00  0.00000000000E+00 -0.13365083492E+04  0.13365083492E+04  0.50400001928E-02 0.  1.
    10030    2    1    2    0    0  0.00000000000E+00  0.00000000000E+00 -0.32995644608E+03  0.23430602524E+04  0.23197112083E+04 0.  0.
        3    1    3    3  502    0  0.61745987884E+03 -0.25230986243E+03  0.79343930659E+03  0.10365630285E+04  0.10100000352E+00 0. -1.
       -3    1    3    3    0  502 -0.61745987884E+03  0.25230986243E+03 -0.11233957527E+04  0.13064972239E+04  0.10100000352E+00 0.  1.
</event>
<event>
 5   0  0.4802635E-04  0.1920362E+04  0.7818609E-02  0.8644787E-01
        2   -1    0    0  501    0  0.00000000000E+00  0.00000000000E+00  0.14536167756E+04  0.14536167756E+04  0.25500000920E-02 0. -1.
       -2   -1    0    0    0  501  0.00000000000E+00  0.00000000000E+00 -0.63424420026E+03  0.63424420026E+03  0.25500000920E-02 0.  1.
    10030    2    1    2    0    0  0.00000000000E+00  0.00000000000E+00  0.81937257536E+03  0.20878609759E+04  0.19203624755E+04 0.  0.
        3    1    3    3  502    0 -0.69340460292E+03  0.39348305543E+03 -0.17206315077E+03  0.81562527935E+03  0.10100000352E+00 0.  1.
       -3    1    3    3    0  502  0.69340460292E+03 -0.39348305543E+03  0.99143572613E+03  0.12722356965E+04  0.10100000352E+00 0. -1.
</event>
<event>
 5   0  0.2355414E-04  0.1999860E+04  0.7818609E-02  0.8606686E-01
       -1   -1    0    0    0  501  0.00000000000E+00  0.00000000000E+00  0.96397916911E+03  0.96397916913E+03  0.50400001928E-02 0. -1.
        1   -1    0    0  501    0  0.00000000000E+00  0.00000000000E+00 -0.10372213577E+04  0.10372213578E+04  0.50400001928E-02 0.  1.
    10030    2    1    2    0    0  0.00000000000E+00  0.00000000000E+00 -0.73242188634E+02  0.20012005269E+04  0.19998597777E+04 0.  0.
        5    1    3    3  502    0  0.22406815253E+03 -0.83056392099E+03 -0.54666343529E+03  0.10192673669E+04  0.46999998093E+01 0.  1.
       -5    1    3    3    0  502 -0.22406815253E+03  0.83056392099E+03  0.47342124666E+03  0.98193315995E+03  0.46999998093E+01 0. -1.
</event>
<event>
 5   0  0.2510069E-04  0.1895083E+04  0.7818609E-02  0.8657308E-01
        1   -1    0    0  501    0  0.00000000000E+00  0.00000000000E+00  0.65747642339E+03  0.65747642341E+03  0.50400001928E-02 0.  1.
       -1   -1    0    0    0  501  0.00000000000E+00  0.00000000000E+00 -0.13655775567E+04  0.13655775567E+04  0.50400001928E-02 0. -1.
    10030    2    1    2    0    0  0.00000000000E+00  0.00000000000E+00 -0.70810113335E+03  0.20230539802E+04  0.18950831622E+04 0.  0.
        4    1    3    3  502    0  0.12935148724E+03 -0.62288340406E+02 -0.13538983857E+04  0.13614896608E+04  0.12699999809E+01 0. -1.
       -4    1    3    3    0  502 -0.12935148724E+03  0.62288340406E+02  0.64579725238E+03  0.66156431938E+03  0.12699999809E+01 0.  1.
</event>
<event>
 5   0  0.4802635E-04  0.1912536E+04  0.7818609E-02  0.8648641E-01
       -2   -1    0    0    0  501  0.00000000000E+00  0.00000000000E+00  0.36183944770E+03  0.36183944771E+03  0.25500000920E-02 0.  1.
        2   -1    0    0  501    0  0.00000000000E+00  0.00000000000E+00 -0.25272216609E+04  0.25272216609E+04  0.25500000920E-02 0. -1.
    10030    2    1    2    0    0  0.00000000000E+00  0.00000000000E+00 -0.21653822132E+04  0.28890611086E+04  0.19125360023E+04 0.  0.
        3    1    3    3  502    0 -0.39325759419E+03 -0.54888716255E+03 -0.59807616693E+02  0.67786843400E+03  0.10100000352E+00 0.  1.
       -3    1    3    3    0  502  0.39325759419E+03  0.54888716255E+03 -0.21055745965E+04  0.22111926746E+04  0.10100000352E+00 0. -1.
</event>
<event>
 5   0  0.4839293E-04  0.1885687E+04  0.7818609E-02  0.8662014E-01
        2   -1    0    0  501    0  0.00000000000E+00  0.00000000000E+00  0.12240688436E+04  0.12240688436E+04  0.25500000920E-02 0.  1.
       -2   -1    0    0    0  501  0.00000000000E+00  0.00000000000E+00 -0.72622849559E+03  0.72622849559E+03  0.25500000920E-02 0. -1.
    10030    2    1    2    0    0  0.00000000000E+00  0.00000000000E+00  0.49784034800E+03  0.19502973392E+04  0.18856867977E+04 0.  0.
        5    1    3    3  502    0 -0.55286212961E+03 -0.30026344624E+03 -0.47736339166E+03  0.78975475256E+03  0.46999998093E+01 0. -1.
       -5    1    3    3    0  502  0.55286212961E+03  0.30026344624E+03  0.97520373966E+03  0.11605425866E+04  0.46999998093E+01 0.  1.
</event>
<event>
 5   0  0.4839293E-04  0.1037737E+04  0.7818609E-02  0.9268097E-01
        2   -1    0    0  501    0  0.00000000000E+00  0.00000000000E+00  0.50882323514E+03  0.50882323515E+03  0.25500000920E-02 0. -1.
       -2   -1    0    0    0  501  0.00000000000E+00  0.00000000000E+00 -0.52911258947E+03  0.52911258948E+03  0.25500000920E-02 0.  1.
    10030    2    1    2    0    0  0.00000000000E+00  0.00000000000E+00 -0.20289354330E+02  0.10379358246E+04  0.10377374996E+04 0.  0.
        5    1    3    3  502    0 -0.32203358815E+03 -0.31572478354E+03  0.24644853643E+03  0.51395208137E+03  0.46999998093E+01 0. -1.
       -5    1    3    3    0  502  0.32203358815E+03  0.31572478354E+03 -0.26673789076E+03  0.52398374326E+03  0.46999998093E+01 0.  1.
</event>
<event>
 5   0  0.4839293E-04  0.1935227E+04  0.7818609E-02  0.8637517E-01
       -2   -1    0    0    0  501  0.00000000000E+00  0.00000000000E+00  0.11339724313E+04  0.11339724313E+04  0.25500000920E-02 0.  1.
        2   -1    0    0  501    0  0.00000000000E+00  0.00000000000E+00 -0.82566055227E+03  0.82566055228E+03  0.25500000920E-02 0. -1.
    10030    2    1    2    0    0  0.00000000000E+00  0.00000000000E+00  0.30831187899E+03  0.19596329835E+04  0.19352274325E+04 0.  0.
        5    1    3    3  502    0  0.89850516873E+03 -0.22202409932E+02  0.51707462111E+03  0.10369150105E+04  0.46999998093E+01 0.  1.
       -5    1    3    3    0  502 -0.89850516873E+03  0.22202409932E+02 -0.20876274212E+03  0.92271797302E+03  0.46999998093E+01 0. -1.
</event>
<event>
 5   0  0.4829134E-04  0.1860040E+04  0.7818609E-02  0.8675007E-01
        2   -1    0    0  501    0  0.00000000000E+00  0.00000000000E+00  0.10920755392E+04  0.10920755392E+04  0.25500000920E-02 0. -1.
       -2   -1    0    0    0  501  0.00000000000E+00  0.00000000000E+00 -0.79201251238E+03  0.79201251238E+03  0.25500000920E-02 0.  1.
    10030    2    1    2    0    0  0.00000000000E+00  0.00000000000E+00  0.30006302681E+03  0.18840880516E+04  0.18600403130E+04 0.  0.
        2    1    3    3  502    0  0.92699163084E+03  0.66987874029E+01  0.74372227363E+02  0.92999440085E+03  0.25500000920E-02 0.  1.
       -2    1    3    3    0  502 -0.92699163084E+03 -0.66987874029E+01  0.22569079945E+03  0.95409365073E+03  0.25500000920E-02 0. -1.
</event>
<event>
 5   0  0.4761944E-04  0.1823592E+04  0.7818609E-02  0.8693853E-01
        2   -1    0    0  501    0  0.00000000000E+00  0.00000000000E+00  0.15360108707E+04  0.15360108707E+04  0.25500000920E-02 0. -1.
       -2   -1    0    0    0  501  0.00000000000E+00  0.00000000000E+00 -0.54125393185E+03  0.54125393186E+03  0.25500000920E-02 0.  1.
    10030    2    1    2    0    0  0.00000000000E+00  0.00000000000E+00  0.99475693880E+03  0.20772648025E+04  0.18235919753E+04 0.  0.
        4    1    3    3  502    0  0.36972557642E+03 -0.26018422216E+03  0.13993444562E+04  0.14705642969E+04  0.12699999809E+01 0. -1.
       -4    1    3    3    0  502 -0.36972557642E+03  0.26018422216E+03 -0.40458751743E+03  0.60670050559E+03  0.12699999809E+01 0.  1.
</event>
<event>
 5   0  0.4839293E-04  0.2040670E+04  0.7818609E-02  0.8587839E-01
        2   -1    0    0  501    0  0.00000000000E+00  0.00000000000E+00  0.11717145157E+04  0.11717145157E+04  0.25500000920E-02 0. -1.
       -2   -1    0    0    0  501  0.00000000000E+00  0.00000000000E+00 -0.88851328111E+03  0.88851328112E+03  0.25500000920E-02 0.  1.
    10030    2    1    2    0    0  0.00000000000E+00  0.00000000000E+00  0.28320123460E+03  0.20602277968E+04  0.20406703888E+04 0.  0.
        5    1    3    3  502    0  0.56578457895E+03 -0.84892198443E+03  0.15852714049E+03  0.10324406374E+04  0.46999998093E+01 0.  1.
       -5    1    3    3    0  502 -0.56578457895E+03  0.84892198443E+03  0.12467409411E+03  0.10277871595E+04  0.46999998093E+01 0. -1.
</event>
<event>
 5   0  0.4839293E-04  0.1454588E+04  0.7818609E-02  0.8915226E-01
        2   -1    0    0  501    0  0.00000000000E+00  0.00000000000E+00  0.29421676901E+03  0.29421676902E+03  0.25500000920E-02 0. -1.
       -2   -1    0    0    0  501  0.00000000000E+00  0.00000000000E+00 -0.17978470825E+04  0.17978470825E+04  0.25500000920E-02 0.  1.
    10030    2    1    2    0    0  0.00000000000E+00  0.00000000000E+00 -0.15036303135E+04  0.20920638516E+04  0.14545882714E+04 0.  0.
        5    1    3    3  502    0  0.63877412119E+03 -0.80578850433E+02 -0.26533447886E+03  0.69638337481E+03  0.46999998093E+01 0. -1.
       -5    1    3    3    0  502 -0.63877412119E+03  0.80578850433E+02 -0.12382958347E+04  0.13956804768E+04  0.46999998093E+01 0.  1.
</event>
<event>
 5   0  0.4973411E-04  0.1912576E+04  0.7818609E-02  0.8648622E-01
        2   -1    0    0  501    0  0.00000000000E+00  0.00000000000E+00  0.42779072446E+03  0.42779072446E+03  0.25500000920E-02 0. -1.
       -2   -1    0    0    0  501  0.00000000000E+00  0.00000000000E+00 -0.21376967900E+04  0.21376967900E+04  0.25500000920E-02 0.  1.
    10030    2    1    2    0    0  0.00000000000E+00  0.00000000000E+00 -0.17099060656E+04  0.25654875145E+04  0.19125761250E+04 0.  0.
        1    1    3    3  502    0 -0.11618178005E+03  0.87151238824E+03 -0.35045435247E+03  0.94649368833E+03  0.50400001928E-02 0.  1.
       -1    1    3    3    0  502  0.11618178005E+03 -0.87151238824E+03 -0.13594517131E+04  0.16189938262E+04  0.50400001928E-02 0. -1.
</event>
<event>
 5   0  0.1729375E-04  0.1723319E+04  0.7818609E-02  0.8748175E-01
        3   -1    0    0  501    0  0.00000000000E+00  0.00000000000E+00  0.39867637140E+03  0.39867638419E+03  0.10100000352E+00 0.  1.
       -3   -1    0    0    0  501  0.00000000000E+00  0.00000000000E+00 -0.18623055436E+04  0.18623055463E+04  0.10100000352E+00 0. -1.
    10030    2    1    2    0    0  0.00000000000E+00  0.00000000000E+00 -0.14636291722E+04  0.22609819305E+04  0.17233191627E+04 0.  0.
        3    1    3    3  502    0 -0.45948037252E+03 -0.72135524711E+03 -0.86930250979E+03  0.12194927097E+04  0.10100000352E+00 0.  1.
       -3    1    3    3    0  502  0.45948037252E+03  0.72135524711E+03 -0.59432666242E+03  0.10414892208E+04  0.10100000352E+00 0. -1.
</event>
<event>
 5   0  0.4973411E-04  0.1932290E+04  0.7818609E-02  0.8638948E-01
        2   -1    0    0  501    0  0.00000000000E+00  0.00000000000E+00  0.14516333140E+04  0.14516333140E+04  0.25500000920E-02 0.  1.
       -2   -1    0    0    0  501  0.00000000000E+00  0.00000000000E+00 -0.64302505928E+03  0.64302505929E+03  0.25500000920E-02 0. -1.
    10030    2    1    2    0    0  0.00000000000E+00  0.00000000000E+00  0.80860825469E+03  0.20946583733E+04  0.19322904521E+04 0.  0.
        1    1    3    3  502    0 -0.80510685451E+03  0.22542344198E+03 -0.12055368476E+03  0.84471650056E+03  0.50400001928E-02 0. -1.
       -1    1    3    3    0  502  0.80510685451E+03 -0.22542344198E+03  0.92916193945E+03  0.12499418727E+04  0.50400001928E-02 0.  1.
</event>
<event>
 5   0  0.2376359E-04  0.1728883E+04  0.7818609E-02  0.8745061E-01
        1   -1    0    0  501    0  0.00000000000E+00  0.00000000000E+00  0.66147664354E+03  0.66147664356E+03  0.50400001928E-02 0.  1.
       -1   -1    0    0    0  501  0.00000000000E+00  0.00000000000E+00 -0.11296834856E+04  0.11296834856E+04  0.50400001928E-02 0. -1.
    10030    2    1    2    0    0  0.00000000000E+00  0.00000000000E+00 -0.46820684205E+03  0.17911601292E+04  0.17288831543E+04 0.  0.
        2    1    3    3  502    0 -0.19319652346E+03  0.12561745311E+03 -0.10972744856E+04  0.11212118167E+04  0.25500000920E-02 0. -1.
       -2    1    3    3    0  502  0.19319652346E+03 -0.12561745311E+03  0.62906764353E+03  0.66994831245E+03  0.25500000920E-02 0.  1.
</event>
<event>
 5   0  0.4802635E-04  0.1878116E+04  0.7818609E-02  0.8665827E-01
        2   -1    0    0  501    0  0.00000000000E+00  0.00000000000E+00  0.10839775065E+04  0.10839775065E+04  0.25500000920E-02 0. -1.
       -2   -1    0    0    0  501  0.00000000000E+00  0.00000000000E+00 -0.81351340292E+03  0.81351340293E+03  0.25500000920E-02 0.  1.
    10030    2    1    2    0    0  0.00000000000E+00  0.00000000000E+00  0.27046410353E+03  0.18974909094E+04  0.18781163222E+04 0.  0.
        3    1    3    3  502    0 -0.34256571071E+03  0.26470315133E+03  0.97714186924E+03  0.10687493941E+04  0.10100000352E+00 0. -1.
       -3    1    3    3    0  502  0.34256571071E+03 -0.26470315133E+03 -0.70667776571E+03  0.82874151533E+03  0.10100000352E+00 0.  1.
</event>
<event>
 5   0  0.2510069E-04  0.1861384E+04  0.7818609E-02  0.8674320E-01
        1   -1    0    0  501    0  0.00000000000E+00  0.00000000000E+00  0.62950002289E+03  0.62950002291E+03  0.50400001928E-02 0.  1.
       -1   -1    0    0    0  501  0.00000000000E+00  0.00000000000E+00 -0.13759933473E+04  0.13759933473E+04  0.50400001928E-02 0. -1.
    10030    2    1    2    0    0  0.00000000000E+00  0.00000000000E+00 -0.74649332445E+03  0.20054933703E+04  0.18613842630E+04 0.  0.
        4    1    3    3  502    0  0.12987713350E+03 -0.15622057435E+03  0.60531758380E+03  0.63850131387E+03  0.12699999809E+01 0.  1.
       -4    1    3    3    0  502 -0.12987713350E+03  0.15622057435E+03 -0.13518109083E+04  0.13669920564E+04  0.12699999809E+01 0. -1.
</event>
<event>
 5   0  0.2261755E-04  0.1878935E+04  0.7818609E-02  0.8665413E-01
        1   -1    0    0  501    0  0.00000000000E+00  0.00000000000E+00  0.43553903772E+03  0.43553903775E+03  0.50400001928E-02 0. -1.
       -1   -1    0    0    0  501  0.00000000000E+00  0.00000000000E+00 -0.20264528692E+04  0.20264528692E+04  0.50400001928E-02 0.  1.
    10030    2    1    2    0    0  0.00000000000E+00  0.00000000000E+00 -0.15909138315E+04  0.24619919070E+04  0.18789351587E+04 0.  0.
        1    1    3    3  502    0  0.63498346104E+03  0.27078723441E+03  0.39521160361E+02  0.69144171429E+03  0.50400001928E-02 0. -1.
       -1    1    3    3    0  502 -0.63498346104E+03 -0.27078723441E+03 -0.16304349918E+04  0.17705501927E+04  0.50400001928E-02 0.  1.
</event>
<event>
 5   0  0.2355414E-04  0.1992171E+04  0.7818609E-02  0.8610290E-01
        1   -1    0    0  501    0  0.00000000000E+00  0.00000000000E+00  0.16878831302E+04  0.16878831302E+04  0.50400001928E-02 0. -1.
       -1   -1    0    0    0  501  0.00000000000E+00  0.00000000000E+00 -0.58782858083E+03  0.58782858085E+03  0.50400001928E-02 0.  1.
    10030    2    1    2    0    0  0.00000000000E+00  0.00000000000E+00  0.11000545494E+04  0.22757117111E+04  0.19921706203E+04 0.  0.
        5    1    3    3  502    0  0.54922905143E+03  0.71620568055E+02  0.14957351308E+04  0.15950008552E+04  0.46999998093E+01 0. -1.
       -5    1    3    3    0  502 -0.54922905143E+03 -0.71620568055E+02 -0.39568058143E+03  0.68071085581E+03  0.46999998093E+01 0.  1.
</event>
<event>
 5   0  0.4761944E-04  0.1948468E+04  0.7818609E-02  0.8631100E-01
        2   -1    0    0  501    0  0.00000000000E+00  0.00000000000E+00  0.78731031331E+03  0.78731031332E+03  0.25500000920E-02 0. -1.
       -2   -1    0    0    0  501  0.00000000000E+00  0.00000000000E+00 -0.12055366528E+04  0.12055366528E+04  0.25500000920E-02 0.  1.
    10030    2    1    2    0    0  0.00000000000E+00  0.00000000000E+00 -0.41822633948E+03  0.19928469661E+04  0.19484675413E+04 0.  0.
        4    1    3    3  502    0  0.65560737926E+03  0.25195899164E+03  0.48141287361E+03  0.85150709744E+03  0.12699999809E+01 0. -1.
       -4    1    3    3    0  502 -0.65560737926E+03 -0.25195899164E+03 -0.89963921308E+03  0.11413398687E+04  0.12699999809E+01 0.  1.
</event>
<event>
 5   0  0.2376359E-04  0.1910795E+04  0.7818609E-02  0.8649502E-01
       -1   -1    0    0    0  501  0.00000000000E+00  0.00000000000E+00  0.18109557520E+04  0.18109557520E+04  0.50400001928E-02 0. -1.
        1   -1    0    0  501    0  0.00000000000E+00  0.00000000000E+00 -0.50403437273E+03  0.50403437276E+03  0.50400001928E-02 0.  1.
    10030    2    1    2    0    0  0.00000000000E+00  0.00000000000E+00  0.13069213793E+04  0.23149901248E+04  0.19107945432E+04 0.  0.
        2    1    3    3  502    0  0.89116115734E+03 -0.18502401632E+03  0.30152794557E+03  0.95881238881E+03  0.25500000920E-02 0.  1.
       -2    1    3    3    0  502 -0.89116115734E+03  0.18502401632E+03  0.10053934337E+04  0.13561777360E+04  0.25500000920E-02 0. -1.
</event>
<event>
 5   0  0.4829134E-04  0.1902338E+04  0.7818609E-02  0.8653693E-01
        2   -1    0    0  501    0  0.00000000000E+00  0.00000000000E+00  0.19956955308E+04  0.19956955308E+04  0.25500000920E-02 0. -1.
       -2   -1    0    0    0  501  0.00000000000E+00  0.00000000000E+00 -0.45333692705E+03  0.45333692705E+03  0.25500000920E-02 0.  1.
    10030    2    1    2    0    0  0.00000000000E+00  0.00000000000E+00  0.15423586038E+04  0.24490324579E+04  0.19023380134E+04 0.  0.
        2    1    3    3  502    0  0.77205718504E+03 -0.51122562048E+03  0.49119688659E+03  0.10481881097E+04  0.25500000920E-02 0.  1.
       -2    1    3    3    0  502 -0.77205718504E+03  0.51122562048E+03  0.10511617172E+04  0.14008443481E+04  0.25500000920E-02 0. -1.
</event>
<event>
 5   0  0.4973411E-04  0.1849159E+04  0.7818609E-02  0.8680585E-01
       -2   -1    0    0    0  501  0.00000000000E+00  0.00000000000E+00  0.52273558011E+03  0.52273558012E+03  0.25500000920E-02 0.  1.
        2   -1    0    0  501    0  0.00000000000E+00  0.00000000000E+00 -0.16353343699E+04  0.16353343699E+04  0.25500000920E-02 0. -1.
    10030    2    1    2    0    0  0.00000000000E+00  0.00000000000E+00 -0.11125987898E+04  0.21580699501E+04  0.18491592258E+04 0.  0.
        1    1    3    3  502    0 -0.60366503165E+03 -0.58067879836E+03 -0.10131653446E+04  0.13145734490E+04  0.50400001928E-02 0. -1.
       -1    1    3    3    0  502  0.60366503165E+03  0.58067879836E+03 -0.99433445276E+02  0.84349650109E+03  0.50400001928E-02 0.  1.
</event>
<event>
 5   0  0.4839293E-04  0.1911924E+04  0.7818609E-02  0.8648944E-01
        2   -1    0    0  501    0  0.00000000000E+00  0.00000000000E+00  0.11722913580E+04  0.11722913580E+04  0.25500000920E-02 0.  1.
       -2   -1    0    0    0  501  0.00000000000E+00  0.00000000000E+00 -0.77955300157E+03  0.77955300158E+03  0.25500000920E-02 0. -1.
    10030    2    1    2    0    0  0.00000000000E+00  0.00000000000E+00  0.39273835640E+03  0.19518443596E+04  0.19119238968E+04 0.  0.
        5    1    3    3  502    0  0.89321805158E+03 -0.30760427284E+02  0.54265132111E+03  0.10455989852E+04  0.46999998093E+01 0.  1.
       -5    1    3    3    0  502 -0.89321805158E+03  0.30760427284E+02 -0.14991296470E+03  0.90624537435E+03  0.46999998093E+01 0. -1.
</event>
<event>
 5   0  0.2376359E-04  0.1930057E+04  0.7818609E-02  0.8640038E-01
        1   -1    0    0  501    0  0.00000000000E+00  0.00000000000E+00  0.88565125709E+03  0.88565125711E+03  0.50400001928E-02 0. -1.
       -1   -1    0    0    0  501  0.00000000000E+00  0.00000000000E+00 -0.10515201344E+04  0.10515201344E+04  0.50400001928E-02 0.  1.
    10030    2    1    2    0    0  0.00000000000E+00  0.00000000000E+00 -0.16586887733E+03  0.19371713915E+04  0.19300571276E+04 0.  0.
        2    1    3    3  502    0  0.45790572426E+03  0.71068301648E+03  0.38411091245E+03  0.92859528068E+03  0.25500000920E-02 0. -1.
       -2    1    3    3    0  502 -0.45790572426E+03 -0.71068301648E+03 -0.54997978978E+03  0.10085761109E+04  0.25500000920E-02 0.  1.
</event>
<event>
 5   0  0.2510069E-04  0.1715002E+04  0.7818609E-02  0.8752854E-01
       -1   -1    0    0    0  501  0.00000000000E+00  0.00000000000E+00  0.11775837045E+04  0.11775837045E+04  0.50400001928E-02 0.  1.
        1   -1    0    0  501    0  0.00000000000E+00  0.00000000000E+00 -0.62442113710E+03  0.62442113712E+03  0.50400001928E-02 0. -1.
    10030    2    1    2    0    0  0.00000000000E+00  0.00000000000E+00  0.55316256738E+03  0.18020048416E+04  0.17150022225E+04 0.  0.
        4    1    3    3  502    0  0.29209656245E+03  0.34481714473E+02 -0.56976040539E+03  0.64120037655E+03  0.12699999809E+01 0. -1.
       -4    1    3    3    0  502 -0.29209656245E+03 -0.34481714473E+02  0.11229229728E+04  0.11608044651E+04  0.12699999809E+01 0.  1.
</event>
<event>
 5   0  0.4761944E-04  0.1669531E+04  0.7818609E-02  0.8778935E-01
       -2   -1    0    0    0  501  0.00000000000E+00  0.00000000000E+00  0.67518910160E+03  0.67518910161E+03  0.25500000920E-02 0. -1.
        2   -1    0    0  501    0  0.00000000000E+00  0.00000000000E+00 -0.10320563212E+04  0.10320563212E+04  0.25500000920E-02 0.  1.
    10030    2    1    2    0    0  0.00000000000E+00  0.00000000000E+00 -0.35686721961E+03  0.17072454228E+04  0.16695306889E+04 0.  0.
        4    1    3    3  502    0 -0.39070700838E+03 -0.66787349323E+03  0.14189114022E+03  0.78666490828E+03  0.12699999809E+01 0. -1.
       -4    1    3    3    0  502  0.39070700838E+03  0.66787349323E+03 -0.49875835983E+03  0.92058051454E+03  0.12699999809E+01 0.  1.
</event>
<event>
 5   0  0.4802635E-04  0.1910195E+04  0.7818609E-02  0.8649798E-01
        2   -1    0    0  501    0  0.00000000000E+00  0.00000000000E+00  0.15417148300E+04  0.15417148300E+04  0.25500000920E-02 0.  1.
       -2   -1    0    0    0  501  0.00000000000E+00  0.00000000000E+00 -0.59168586821E+03  0.59168586821E+03  0.25500000920E-02 0. -1.
    10030    2    1    2    0    0  0.00000000000E+00  0.00000000000E+00  0.95002896181E+03  0.21334006982E+04  0.19101946264E+04 0.  0.
        3    1    3    3  502    0  0.39148063853E+03  0.65090810851E+03 -0.17167191200E+03  0.77872312900E+03  0.10100000352E+00 0. -1.
       -3    1    3    3    0  502 -0.39148063853E+03 -0.65090810851E+03  0.11217008738E+04  0.13546775692E+04  0.10100000352E+00 0.  1.
</event>
<event>
 5   0  0.2261755E-04  0.1453605E+04  0.7818609E-02  0.8915905E-01
       -1   -1    0    0    0  501  0.00000000000E+00  0.00000000000E+00  0.46490648413E+03  0.46490648416E+03  0.50400001928E-02 0. -1.
        1   -1    0    0  501    0  0.00000000000E+00  0.00000000000E+00 -0.11362322353E+04  0.11362322353E+04  0.50400001928E-02 0.  1.
    10030    2    1    2    0    0  0.00000000000E+00  0.00000000000E+00 -0.67132575113E+03  0.16011387194E+04  0.14536048069E+04 0.  0.
        1    1    3    3  502    0  0.65833990024E+02 -0.32997019109E+03 -0.10452748542E+04  0.10980956070E+04  0.50400001928E-02 0.  1.
       -1    1    3    3    0  502 -0.65833990024E+02  0.32997019109E+03  0.37394910307E+03  0.50304311243E+03  0.50400001928E-02 0. -1.
</event>
<event>
 5   0  0.2317458E-04  0.1848211E+04  0.7818609E-02  0.8681073E-01
       -1   -1    0    0    0  501  0.00000000000E+00  0.00000000000E+00  0.25303863893E+04  0.25303863893E+04  0.50400001928E-02 0. -1.
        1   -1    0    0  501    0  0.00000000000E+00  0.00000000000E+00 -0.33748646076E+03  0.33748646080E+03  0.50400001928E-02 0.  1.
    10030    2    1    2    0    0  0.00000000000E+00  0.00000000000E+00  0.21928999285E+04  0.28678728501E+04  0.18482111859E+04 0.  0.
        3    1    3    3  502    0  0.65217610327E+03  0.11502251613E+03  0.96345527596E+02  0.66921320951E+03  0.10100000352E+00 0.  1.
       -3    1    3    3    0  502 -0.65217610327E+03 -0.11502251613E+03  0.20965544009E+04  0.21986596406E+04  0.10100000352E+00 0. -1.
</event>
<event>
 5   0  0.2376359E-04  0.1889530E+04  0.7818609E-02  0.8660086E-01
       -1   -1    0    0    0  501  0.00000000000E+00  0.00000000000E+00  0.12121908171E+04  0.12121908171E+04  0.50400001928E-02 0.  1.
        1   -1    0    0  501    0  0.00000000000E+00  0.00000000000E+00 -0.73633699790E+03  0.73633699791E+03  0.50400001928E-02 0. -1.
    10030    2    1    2    0    0  0.00000000000E+00  0.00000000000E+00  0.47585381918E+03  0.19485278150E+04  0.18895300444E+04 0.  0.
        2    1    3    3  502    0  0.35603964214E+03 -0.38727326587E+03 -0.57132809338E+03  0.77663414780E+03  0.25500000920E-02 0. -1.
       -2    1    3    3    0  502 -0.35603964214E+03  0.38727326587E+03  0.10471819126E+04  0.11718936672E+04  0.25500000920E-02 0.  1.
</event>
<event>
 5   0  0.2376359E-04  0.1920417E+04  0.7818609E-02  0.8644760E-01
        1   -1    0    0  501    0  0.00000000000E+00  0.00000000000E+00  0.10742637929E+04  0.10742637929E+04  0.50400001928E-02 0.  1.
       -1   -1    0    0    0  501  0.00000000000E+00  0.00000000000E+00 -0.85826251668E+03  0.85826251669E+03  0.50400001928E-02 0. -1.
    10030    2    1    2    0    0  0.00000000000E+00  0.00000000000E+00  0.21600127619E+03  0.19325263096E+04  0.19204169823E+04 0.  0.
        2    1    3    3  502    0 -0.37207336446E+03 -0.10988866695E+03 -0.77588070977E+03  0.86747045106E+03  0.25500000920E-02 0. -1.
       -2    1    3    3    0  502  0.37207336446E+03  0.10988866695E+03  0.99188198596E+03  0.10650558585E+04  0.25500000920E-02 0.  1.
</event>
<event>
 5   0  0.4839293E-04  0.1923533E+04  0.7818609E-02  0.8643230E-01
       -2   -1    0    0    0  501  0.00000000000E+00  0.00000000000E+00  0.11475704770E+04  0.11475704770E+04  0.25500000920E-02 0. -1.
        2   -1    0    0  501    0  0.00000000000E+00  0.00000000000E+00 -0.80604626382E+03  0.80604626382E+03  0.25500000920E-02 0.  1.
    10030    2    1    2    0    0  0.00000000000E+00  0.00000000000E+00  0.34152421317E+03  0.19536167408E+04  0.19235330987E+04 0.  0.
        5    1    3    3  502    0  0.37733641943E+03 -0.85101259977E+03  0.41613442948E+03  0.10197034725E+04  0.46999998093E+01 0.  1.
       -5    1    3    3    0  502 -0.37733641943E+03  0.85101259977E+03 -0.74610216308E+02  0.93391326833E+03  0.46999998093E+01 0. -1.
</event>
<event>
 5   0  0.2355414E-04  0.1969951E+04  0.7818609E-02  0.8620800E-01
        1   -1    0    0  501    0  0.00000000000E+00  0.00000000000E+00  0.10565446996E+04  0.10565446996E+04  0.50400001928E-02 0.  1.
       -1   -1    0    0    0  501  0.00000000000E+00  0.00000000000E+00 -0.91825459788E+03  0.91825459789E+03  0.50400001928E-02 0. -1.
    10030    2    1    2    0    0  0.00000000000E+00  0.00000000000E+00  0.13829010170E+03  0.19747992975E+04  0.19699512971E+04 0.  0.
        5    1    3    3  502    0 -0.95370953737E+03 -0.23721812754E+02  0.31475889825E+03  0.10045993530E+04  0.46999998093E+01 0. -1.
       -5    1    3    3    0  502  0.95370953737E+03  0.23721812754E+02 -0.17646879655E+03  0.97019994446E+03  0.46999998093E+01 0.  1.
</event>
<event>
 5   0  0.2317458E-04  0.1831255E+04  0.7818609E-02  0.8689853E-01
       -1   -1    0    0    0  501  0.00000000000E+00  0.00000000000E+00  0.64697975187E+03  0.64697975189E+03  0.50400001928E-02 0. -1.
        1   -1    0    0  501    0  0.00000000000E+00  0.00000000000E+00 -0.12958273917E+04  0.12958273917E+04  0.50400001928E-02 0.  1.
    10030    2    1    2    0    0  0.00000000000E+00  0.00000000000E+00 -0.64884763987E+03  0.19428071436E+04  0.18312553993E+04 0.  0.
        3    1    3    3  502    0  0.78283042916E+03  0.14628343019E+03  0.15493125384E+03  0.81131130054E+03  0.10100000352E+00 0. -1.
       -3    1    3    3    0  502 -0.78283042916E+03 -0.14628343019E+03 -0.80377889371E+03  0.11314958431E+04  0.10100000352E+00 0.  1.
</event>
<event>
 5   0  0.2355414E-04  0.1933723E+04  0.7818609E-02  0.8638250E-01
       -1   -1    0    0    0  501  0.00000000000E+00  0.00000000000E+00  0.11556801737E+04  0.11556801737E+04  0.50400001928E-02 0. -1.
        1   -1    0    0  501    0  0.00000000000E+00  0.00000000000E+00 -0.80889291726E+03  0.80889291727E+03  0.50400001928E-02 0.  1.
    10030    2    1    2    0    0  0.00000000000E+00  0.00000000000E+00  0.34678725644E+03  0.19645730910E+04  0.19337233589E+04 0.  0.
        5    1    3    3  502    0 -0.73069327998E+03 -0.24688029801E+03  0.76573624687E+03  0.10868471101E+04  0.46999998093E+01 0. -1.
       -5    1    3    3    0  502  0.73069327998E+03  0.24688029801E+03 -0.41894899043E+03  0.87772598089E+03  0.46999998093E+01 0.  1.
</event>
<event>
 5   0  0.2261755E-04  0.1890258E+04  0.7818609E-02  0.8659721E-01
       -1   -1    0    0    0  501  0.00000000000E+00  0.00000000000E+00  0.11432741935E+04  0.11432741935E+04  0.50400001928E-02 0. -1.
        1   -1    0    0  501    0  0.00000000000E+00  0.00000000000E+00 -0.78132519988E+03  0.78132519990E+03  0.50400001928E-02 0.  1.
    10030    2    1    2    0    0  0.00000000000E+00  0.00000000000E+00  0.36194899359E+03  0.19245993934E+04  0.18902581176E+04 0.  0.
        1    1    3    3  502    0 -0.33167782237E+03 -0.43456624480E+03  0.96596179458E+03  0.11099280101E+04  0.50400001928E-02 0. -1.
       -1    1    3    3    0  502  0.33167782237E+03  0.43456624480E+03 -0.60401280099E+03  0.81467138329E+03  0.50400001928E-02 0.  1.
</event>
<event>
 5   0  0.4829134E-04  0.1902614E+04  0.7818609E-02  0.8653556E-01
        2   -1    0    0  501    0  0.00000000000E+00  0.00000000000E+00  0.10315917818E+04  0.10315917818E+04  0.25500000920E-02 0.  1.
       -2   -1    0    0    0  501  0.00000000000E+00  0.00000000000E+00 -0.87727079900E+03  0.87727079900E+03  0.25500000920E-02 0. -1.
    10030    2    1    2    0    0  0.00000000000E+00  0.00000000000E+00  0.15432098285E+03  0.19088625809E+04  0.19026143558E+04 0.  0.
        2    1    3    3  502    0 -0.83495312646E+03  0.25119022905E+03  0.45885975162E+03  0.98528956465E+03  0.25500000920E-02 0. -1.
       -2    1    3    3    0  502  0.83495312646E+03 -0.25119022905E+03 -0.30453876877E+03  0.92357301620E+03  0.25500000920E-02 0.  1.
</event>
<event>
 5   0  0.4973411E-04  0.1888165E+04  0.7818609E-02  0.8660770E-01
       -2   -1    0    0    0  501  0.00000000000E+00  0.00000000000E+00  0.51346137929E+03  0.51346137930E+03  0.25500000920E-02 0.  1.
        2   -1    0    0  501    0  0.00000000000E+00  0.00000000000E+00 -0.17358499525E+04  0.17358499525E+04  0.25500000920E-02 0. -1.
    10030    2    1    2    0    0  0.00000000000E+00  0.00000000000E+00 -0.12223885732E+04  0.22493113318E+04  0.18881651526E+04 0.  0.
        1    1    3    3  502    0  0.13601087067E+03 -0.88025413769E+03 -0.23837182123E+03  0.92204524241E+03  0.50400001928E-02 0.  1.
       -1    1    3    3    0  502 -0.13601087067E+03  0.88025413769E+03 -0.98401675196E+03  0.13272660894E+04  0.50400001928E-02 0. -1.
</event>
<event>
 5   0  0.2355414E-04  0.1919481E+04  0.7818609E-02  0.8645220E-01
       -1   -1    0    0    0  501  0.00000000000E+00  0.00000000000E+00  0.72268251811E+03  0.72268251813E+03  0.50400001928E-02 0. -1.
        1   -1    0    0  501    0  0.00000000000E+00  0.00000000000E+00 -0.12745596256E+04  0.12745596256E+04  0.50400001928E-02 0.  1.
    10030    2    1    2    0    0  0.00000000000E+00  0.00000000000E+00 -0.55187710746E+03  0.19972421437E+04  0.19194811379E+04 0.  0.
        5    1    3    3  502    0 -0.67097579592E+03 -0.57014993330E+03 -0.67324557241E+03  0.11084047798E+04  0.46999998093E+01 0. -1.
       -5    1    3    3    0  502  0.67097579592E+03  0.57014993330E+03  0.12136846495E+03  0.88883736388E+03  0.46999998093E+01 0.  1.
</event>
<event>
 5   0  0.2376359E-04  0.1895610E+04  0.7818609E-02  0.8657045E-01
        1   -1    0    0  501    0  0.00000000000E+00  0.00000000000E+00  0.91931332695E+03  0.91931332697E+03  0.50400001928E-02 0.  1.
       -1   -1    0    0    0  501  0.00000000000E+00  0.00000000000E+00 -0.97717990656E+03  0.97717990658E+03  0.50400001928E-02 0. -1.
    10030    2    1    2    0    0  0.00000000000E+00  0.00000000000E+00 -0.57866579613E+02  0.18964932335E+04  0.18956102036E+04 0.  0.
        2    1    3    3  502    0  0.77963651012E+03  0.41830478067E+03 -0.36897767816E+03  0.95862219066E+03  0.25500000920E-02 0. -1.
       -2    1    3    3    0  502 -0.77963651012E+03 -0.41830478067E+03  0.31111109855E+03  0.93787104289E+03  0.25500000920E-02 0.  1.
</event>
<event>
 5   0  0.2317458E-04  0.1844970E+04  0.7818609E-02  0.8682744E-01
        1   -1    0    0  501    0  0.00000000000E+00  0.00000000000E+00  0.10025309172E+04  0.10025309172E+04  0.50400001928E-02 0. -1.
       -1   -1    0    0    0  501  0.00000000000E+00  0.00000000000E+00 -0.84883035701E+03  0.84883035703E+03  0.50400001928E-02 0.  1.
    10030    2    1    2    0    0  0.00000000000E+00  0.00000000000E+00  0.15370056018E+03  0.18513612742E+04  0.18449701097E+04 0.  0.
        3    1    3    3  502    0 -0.41453179637E+03  0.66060639724E+03 -0.41754421588E+03  0.88463585994E+03  0.10100000352E+00 0.  1.
       -3    1    3    3    0  502  0.41453179637E+03 -0.66060639724E+03  0.57124477607E+03  0.96672541430E+03  0.10100000352E+00 0. -1.
</event>
<event>
 5   0  0.4829134E-04  0.1985032E+04  0.7818609E-02  0.8613651E-01
       -2   -1    0    0    0  501  0.00000000000E+00  0.00000000000E+00  0.89766195348E+03  0.89766195348E+03  0.25500000920E-02 0. -1.
        2   -1    0    0  501    0  0.00000000000E+00  0.00000000000E+00 -0.10973935146E+04  0.10973935146E+04  0.25500000920E-02 0.  1.
    10030    2    1    2    0    0  0.00000000000E+00  0.00000000000E+00 -0.19973156114E+03  0.19950554681E+04  0.19850323988E+04 0.  0.
        2    1    3    3  502    0  0.71263693591E+03 -0.65758579731E+03 -0.31263717383E+03  0.10188289777E+04  0.25500000920E-02 0.  1.
       -2    1    3    3    0  502 -0.71263693591E+03  0.65758579731E+03  0.11290561269E+03  0.97622649044E+03  0.25500000920E-02 0. -1.
</event>
<event>
 5   0  0.4802635E-04  0.1857889E+04  0.7818609E-02  0.8676107E-01
        2   -1    0    0  501    0  0.00000000000E+00  0.00000000000E+00  0.19392716157E+04  0.19392716157E+04  0.25500000920E-02 0.  1.
       -2   -1    0    0    0  501  0.00000000000E+00  0.00000000000E+00 -0.44498022336E+03  0.44498022337E+03  0.25500000920E-02 0. -1.
    10030    2    1    2    0    0  0.00000000000E+00  0.00000000000E+00  0.14942913923E+04  0.23842518391E+04  0.18578886045E+04 0.  0.
        3    1    3    3  502    0  0.10114519504E+03 -0.74714164876E+03  0.14435559547E+04  0.16285898190E+04  0.10100000352E+00 0.  1.
       -3    1    3    3    0  502 -0.10114519504E+03  0.74714164876E+03  0.50735437599E+02  0.75566202010E+03  0.10100000352E+00 0. -1.
</event>
<event>
 5   0  0.2261755E-04  0.2159592E+04  0.7818609E-02  0.8535438E-01
       -1   -1    0    0    0  501  0.00000000000E+00  0.00000000000E+00  0.67135880810E+03  0.67135880812E+03  0.50400001928E-02 0. -1.
        1   -1    0    0  501    0  0.00000000000E+00  0.00000000000E+00 -0.17367158134E+04  0.17367158134E+04  0.50400001928E-02 0.  1.
    10030    2    1    2    0    0  0.00000000000E+00  0.00000000000E+00 -0.10653570053E+04  0.24080746215E+04  0.21595920527E+04 0.  0.
        1    1    3    3  502    0  0.46598720299E+03  0.67773268852E+03 -0.13128171850E+04  0.15491786959E+04  0.50400001928E-02 0.  1.
       -1    1    3    3    0  502 -0.46598720299E+03 -0.67773268852E+03  0.24746017975E+03  0.85889592561E+03  0.50400001928E-02 0. -1.
</event>
<event>
 5   0  0.4829134E-04  0.1886353E+04  0.7818609E-02  0.8661679E-01
        2   -1    0    0  501    0  0.00000000000E+00  0.00000000000E+00  0.22581172683E+04  0.22581172683E+04  0.25500000920E-02 0.  1.
       -2   -1    0    0    0  501  0.00000000000E+00  0.00000000000E+00 -0.39394855032E+03  0.39394855033E+03  0.25500000920E-02 0. -1.
    10030    2    1    2    0    0  0.00000000000E+00  0.00000000000E+00  0.18641687180E+04  0.26520658186E+04  0.18863531210E+04 0.  0.
        2    1    3    3  502    0 -0.66748875005E+03 -0.46651848372E+03  0.16010452962E+04  0.17962535365E+04  0.25500000920E-02 0.  1.
       -2    1    3    3    0  502  0.66748875005E+03  0.46651848372E+03  0.26312342182E+03  0.85581228211E+03  0.25500000920E-02 0. -1.
</event>
<event>
 5   0  0.2510069E-04  0.1910129E+04  0.7818609E-02  0.8649831E-01
        1   -1    0    0  501    0  0.00000000000E+00  0.00000000000E+00  0.15098487941E+04  0.15098487941E+04  0.50400001928E-02 0. -1.
       -1   -1    0    0    0  501  0.00000000000E+00  0.00000000000E+00 -0.60413246322E+03  0.60413246324E+03  0.50400001928E-02 0.  1.
    10030    2    1    2    0    0  0.00000000000E+00  0.00000000000E+00  0.90571633087E+03  0.21139812573E+04  0.19101294941E+04 0.  0.
        4    1    3    3  502    0 -0.60213008920E+03 -0.69870310700E+03  0.17862254850E+03  0.93949683543E+03  0.12699999809E+01 0.  1.
       -4    1    3    3    0  502  0.60213008920E+03  0.69870310700E+03  0.72709378237E+03  0.11744844219E+04  0.12699999809E+01 0. -1.
</event>
<event>
 5   0  0.2317458E-04  0.1125962E+04  0.7818609E-02  0.9180250E-01
       -1   -1    0    0    0  501  0.00000000000E+00  0.00000000000E+00  0.69149542129E+03  0.69149542131E+03  0.50400001928E-02 0.  1.
        1   -1    0    0  501    0  0.00000000000E+00  0.00000000000E+00 -0.45835114130E+03  0.45835114133E+03  0.50400001928E-02 0. -1.
    10030    2    1    2    0    0  0.00000000000E+00  0.00000000000E+00  0.23314427999E+03  0.11498465626E+04  0.11259621940E+04 0.  0.
        3    1    3    3  502    0 -0.45895067156E+03  0.31762161844E+03  0.41330931643E+02  0.55966728289E+03  0.10100000352E+00 0. -1.
       -3    1    3    3    0  502  0.45895067156E+03 -0.31762161844E+03  0.19181334835E+03  0.59017927974E+03  0.10100000352E+00 0.  1.
</event>
<event>
 5   0  0.4839293E-04  0.1895583E+04  0.7818609E-02  0.8657058E-01
        2   -1    0    0  501    0  0.00000000000E+00  0.00000000000E+00  0.17532354869E+04  0.17532354869E+04  0.25500000920E-02 0.  1.
       -2   -1    0    0    0  501  0.00000000000E+00  0.00000000000E+00 -0.51237177196E+03  0.51237177196E+03  0.25500000920E-02 0. -1.
    10030    2    1    2    0    0  0.00000000000E+00  0.00000000000E+00  0.12408637149E+04  0.22656072589E+04  0.18955826261E+04 0.  0.
        5    1    3    3  502    0  0.11851489704E+03  0.90577481315E+03  0.92235385354E+03  0.12981650566E+04  0.46999998093E+01 0.  1.
       -5    1    3    3    0  502 -0.11851489704E+03 -0.90577481315E+03  0.31850986139E+03  0.96744220228E+03  0.46999998093E+01 0. -1.
</event>
<event>
 5   0  0.4829134E-04  0.1795635E+04  0.7818609E-02  0.8708624E-01
       -2   -1    0    0    0  501  0.00000000000E+00  0.00000000000E+00  0.36890331323E+03  0.36890331324E+03  0.25500000920E-02 0.  1.
        2   -1    0    0  501    0  0.00000000000E+00  0.00000000000E+00 -0.21850600806E+04  0.21850600806E+04  0.25500000920E-02 0. -1.
    10030    2    1    2    0    0  0.00000000000E+00  0.00000000000E+00 -0.18161567674E+04  0.25539633939E+04  0.17956345991E+04 0.  0.
        2    1    3    3  502    0  0.87398164620E+01 -0.26999136828E+03 -0.21258884262E+04  0.21429823434E+04  0.25500000920E-02 0. -1.
       -2    1    3    3    0  502 -0.87398164620E+01  0.26999136828E+03  0.30973165885E+03  0.41098105046E+03  0.25500000920E-02 0.  1.
</event>
<event>
 5   0  0.1729375E-04  0.1899331E+04  0.7818609E-02  0.8655189E-01
       -3   -1    0    0    0  501  0.00000000000E+00  0.00000000000E+00  0.93887889837E+03  0.93887890381E+03  0.10100000352E+00 0.  1.
        3   -1    0    0  501    0  0.00000000000E+00  0.00000000000E+00 -0.96057649326E+03  0.96057649857E+03  0.10100000352E+00 0. -1.
    10030    2    1    2    0    0  0.00000000000E+00  0.00000000000E+00 -0.21697594886E+02  0.18994554024E+04  0.18993314719E+04 0.  0.
        1    1    3    3  502    0  0.21564612727E+03 -0.29952573574E+03 -0.88591794373E+03  0.95972366940E+03  0.50400001928E-02 0. -1.
       -1    1    3    3    0  502 -0.21564612727E+03  0.29952573574E+03  0.86422034884E+03  0.93973173297E+03  0.50400001928E-02 0.  1.
</event>
<event>
 5   0  0.2355414E-04  0.1862220E+04  0.7818609E-02  0.8673894E-01
       -1   -1    0    0    0  501  0.00000000000E+00  0.00000000000E+00  0.88205930527E+03  0.88205930528E+03  0.50400001928E-02 0.  1.
        1   -1    0    0  501    0  0.00000000000E+00  0.00000000000E+00 -0.98288818083E+03  0.98288818084E+03  0.50400001928E-02 0. -1.
    10030    2    1    2    0    0  0.00000000000E+00  0.00000000000E+00 -0.10082887556E+03  0.18649474861E+04  0.18622198216E+04 0.  0.
        5    1    3    3  502    0 -0.71289195428E+03  0.16339521126E+03 -0.62747945208E+03  0.96367291459E+03  0.46999998093E+01 0. -1.
       -5    1    3    3    0  502  0.71289195428E+03 -0.16339521126E+03  0.52665057651E+03  0.90127457153E+03  0.46999998093E+01 0.  1.
</event>
<event>
 5   0  0.2376359E-04  0.1894507E+04  0.7818609E-02  0.8657595E-01
        1   -1    0    0  501    0  0.00000000000E+00  0.00000000000E+00  0.19696834270E+04  0.19696834270E+04  0.50400001928E-02 0. -1.
       -1   -1    0    0    0  501  0.00000000000E+00  0.00000000000E+00 -0.45555001842E+03  0.45555001845E+03  0.50400001928E-02 0.  1.
    10030    2    1    2    0    0  0.00000000000E+00  0.00000000000E+00  0.15141334086E+04  0.24252334454E+04  0.18945071354E+04 0.  0.
        2    1    3    3  502    0 -0.31312380244E+03  0.33168423644E+03  0.18198357025E+04  0.18761297750E+04  0.25500000920E-02 0. -1.
       -2    1    3    3    0  502  0.31312380244E+03 -0.33168423644E+03 -0.30570229397E+03  0.54910367045E+03  0.25500000920E-02 0.  1.
</event>
<event>
 5   0  0.2261755E-04  0.1587567E+04  0.7818609E-02  0.8828223E-01
        1   -1    0    0  501    0  0.00000000000E+00  0.00000000000E+00  0.11475119394E+04  0.11475119395E+04  0.50400001928E-02 0. -1.
       -1   -1    0    0    0  501  0.00000000000E+00  0.00000000000E+00 -0.54909396053E+03  0.54909396055E+03  0.50400001928E-02 0.  1.
    10030    2    1    2    0    0  0.00000000000E+00  0.00000000000E+00  0.59841797892E+03  0.16966059000E+04  0.15875665348E+04 0.  0.
        1    1    3    3  502    0  0.46374595254E+03 -0.12310316241E+03  0.97499990112E+03  0.10866643936E+04  0.50400001928E-02 0. -1.
       -1    1    3    3    0  502 -0.46374595254E+03  0.12310316241E+03 -0.37658192220E+03  0.60994150641E+03  0.50400001928E-02 0.  1.
</event>
<event>
 5   0  0.4829134E-04  0.1989656E+04  0.7818609E-02  0.8611472E-01
       -2   -1    0    0    0  501  0.00000000000E+00  0.00000000000E+00  0.79283655531E+03  0.79283655532E+03  0.25500000920E-02 0.  1.
        2   -1    0    0  501    0  0.00000000000E+00  0.00000000000E+00 -0.12482803506E+04  0.12482803506E+04  0.25500000920E-02 0. -1.
    10030    2    1    2    0    0  0.00000000000E+00  0.00000000000E+00 -0.45544379532E+03  0.20411169060E+04  0.19896555413E+04 0.  0.
        2    1    3    3  502    0 -0.78080250968E+03 -0.48485327408E+03 -0.61828809623E+03  0.11077072837E+04  0.25500000920E-02 0. -1.
       -2    1    3    3    0  502  0.78080250968E+03  0.48485327408E+03  0.16284430091E+03  0.93340962222E+03  0.25500000920E-02 0.  1.
</event>
<event>
 5   0  0.2261755E-04  0.1881627E+04  0.7818609E-02  0.8664056E-01
        1   -1    0    0  501    0  0.00000000000E+00  0.00000000000E+00  0.95637562400E+03  0.95637562401E+03  0.50400001928E-02 0.  1.
       -1   -1    0    0    0  501  0.00000000000E+00  0.00000000000E+00 -0.92550507215E+03  0.92550507216E+03  0.50400001928E-02 0. -1.
    10030    2    1    2    0    0  0.00000000000E+00  0.00000000000E+00  0.30870551851E+02  0.18818806962E+04  0.18816274774E+04 0.  0.
        1    1    3    3  502    0  0.31133766013E+03  0.85136743840E+03 -0.23633822343E+03  0.93681023140E+03  0.50400001928E-02 0. -1.
       -1    1    3    3    0  502 -0.31133766013E+03 -0.85136743840E+03  0.26720877528E+03  0.94507046478E+03  0.50400001928E-02 0.  1.
</event>
<event>
 5   0  0.1729375E-04  0.1990924E+04  0.7818609E-02  0.8610876E-01
       -4   -1    0    0    0  501  0.00000000000E+00  0.00000000000E+00  0.11929587817E+04  0.11929594577E+04  0.12699999809E+01 0.  1.
        4   -1    0    0  501    0  0.00000000000E+00  0.00000000000E+00 -0.83065999974E+03  0.83066097059E+03  0.12699999809E+01 0. -1.
    10030    2    1    2    0    0  0.00000000000E+00  0.00000000000E+00  0.36229878195E+03  0.20236204283E+04  0.19909242151E+04 0.  0.
        2    1    3    3  502    0 -0.56833449254E+03  0.31087873045E+03 -0.58710417708E+03  0.87426597510E+03  0.25500000920E-02 0. -1.
       -2    1    3    3    0  502  0.56833449254E+03 -0.31087873045E+03  0.94940295904E+03  0.11493544532E+04  0.25500000920E-02 0.  1.
</event>
<event>
 5   0  0.2317458E-04  0.1996150E+04  0.7818609E-02  0.8608423E-01
        1   -1    0    0  501    0  0.00000000000E+00  0.00000000000E+00  0.71576217029E+03  0.71576217031E+03  0.50400001928E-02 0. -1.
       -1   -1    0    0    0  501  0.00000000000E+00  0.00000000000E+00 -0.13917384762E+04  0.13917384762E+04  0.50400001928E-02 0.  1.
    10030    2    1    2    0    0  0.00000000000E+00  0.00000000000E+00 -0.67597630594E+03  0.21075006465E+04  0.19961500467E+04 0.  0.
        3    1    3    3  502    0 -0.27104089549E+03  0.89292703344E+03  0.35842247747E+02  0.93384502515E+03  0.10100000352E+00 0. -1.
       -3    1    3    3    0  502  0.27104089549E+03 -0.89292703344E+03 -0.71181855369E+03  0.11736556214E+04  0.10100000352E+00 0.  1.
</event>
<event>
 5   0  0.1729375E-04  0.1896445E+04  0.7818609E-02  0.8656628E-01
        3   -1    0    0  501    0  0.00000000000E+00  0.00000000000E+00  0.52063241735E+03  0.52063242715E+03  0.10100000352E+00 0. -1.
       -3   -1    0    0    0  501  0.00000000000E+00  0.00000000000E+00 -0.17269874723E+04  0.17269874752E+04  0.10100000352E+00 0.  1.
    10030    2    1    2    0    0  0.00000000000E+00  0.00000000000E+00 -0.12063550549E+04  0.22476199024E+04  0.18964447545E+04 0.  0.
        4    1    3    3  502    0 -0.12916352203E+03  0.45997153374E+03  0.36755794503E+03  0.60279140930E+03  0.12699999809E+01 0. -1.
       -4    1    3    3    0  502  0.12916352203E+03 -0.45997153374E+03 -0.15739130000E+04  0.16448284931E+04  0.12699999809E+01 0.  1.
</event>
<event>
 5   0  0.2355414E-04  0.1896748E+04  0.7818609E-02  0.8656477E-01
       -1   -1    0    0    0  501  0.00000000000E+00  0.00000000000E+00  0.69495877102E+03  0.69495877104E+03  0.50400001928E-02 0.  1.
        1   -1    0    0  501    0  0.00000000000E+00  0.00000000000E+00 -0.12941972257E+04  0.12941972257E+04  0.50400001928E-02 0. -1.
    10030    2    1    2    0    0  0.00000000000E+00  0.00000000000E+00 -0.59923845471E+03  0.19891559968E+04  0.18967484952E+04 0.  0.
        5    1    3    3  502    0  0.20261707539E+03  0.33677390921E+03  0.60551770365E+03  0.72190312688E+03  0.46999998093E+01 0.  1.
       -5    1    3    3    0  502 -0.20261707539E+03 -0.33677390921E+03 -0.12047561584E+04  0.12672528699E+04  0.46999998093E+01 0. -1.
</event>
<event>
 5   0  0.4829134E-04  0.1947587E+04  0.7818609E-02  0.8631525E-01
        2   -1    0    0  501    0  0.00000000000E+00  0.00000000000E+00  0.14091965812E+04  0.14091965812E+04  0.25500000920E-02 0. -1.
       -2   -1    0    0    0  501  0.00000000000E+00  0.00000000000E+00 -0.67291807468E+03  0.67291807469E+03  0.25500000920E-02 0.  1.
    10030    2    1    2    0    0  0.00000000000E+00  0.00000000000E+00  0.73627850649E+03  0.20821146559E+04  0.19475870715E+04 0.  0.
        2    1    3    3  502    0  0.13047571220E+03 -0.84947928651E+03 -0.12134590822E+03  0.86796532139E+03  0.25500000920E-02 0.  1.
       -2    1    3    3    0  502 -0.13047571220E+03  0.84947928651E+03  0.85762441471E+03  0.12141493345E+04  0.25500000920E-02 0. -1.
</event>
<event>
 5   0  0.1729375E-04  0.1879834E+04  0.7818609E-02  0.8664960E-01
        3   -1    0    0  501    0  0.00000000000E+00  0.00000000000E+00  0.90908761810E+03  0.90908762371E+03  0.10100000352E+00 0. -1.
       -3   -1    0    0    0  501  0.00000000000E+00  0.00000000000E+00 -0.97179226785E+03  0.97179227310E+03  0.10100000352E+00 0.  1.
    10030    2    1    2    0    0  0.00000000000E+00  0.00000000000E+00 -0.62704649745E+02  0.18808798968E+04  0.18798343845E+04 0.  0.
        1    1    3    3  502    0 -0.79981893088E+03  0.38687666657E+03  0.27551101230E+03  0.93020975874E+03  0.50400001928E-02 0. -1.
       -1    1    3    3    0  502  0.79981893088E+03 -0.38687666657E+03 -0.33821566205E+03  0.95067013807E+03  0.50400001928E-02 0.  1.
</event>
<event>
 5   0  0.2261755E-04  0.1168977E+04  0.7818609E-02  0.9140452E-01
        1   -1    0    0  501    0  0.00000000000E+00  0.00000000000E+00  0.14179954308E+04  0.14179954308E+04  0.50400001928E-02 0. -1.
       -1   -1    0    0    0  501  0.00000000000E+00  0.00000000000E+00 -0.24092252765E+03  0.24092252770E+03  0.50400001928E-02 0.  1.
    10030    2    1    2    0    0  0.00000000000E+00  0.00000000000E+00  0.11770729032E+04  0.16589179585E+04  0.11689774051E+04 0.  0.
        1    1    3    3  502    0  0.51077751882E+02 -0.12445080655E+03 -0.21865423066E+03  0.25672283225E+03  0.50400001928E-02 0.  1.
       -1    1    3    3    0  502 -0.51077751882E+02  0.12445080655E+03  0.13957271338E+04  0.14021951263E+04  0.50400001928E-02 0. -1.
</event>
<event>
 5   0  0.4829134E-04  0.1522445E+04  0.7818609E-02  0.8869663E-01
       -2   -1    0    0    0  501  0.00000000000E+00  0.00000000000E+00  0.51970010865E+03  0.51970010866E+03  0.25500000920E-02 0. -1.
        2   -1    0    0  501    0  0.00000000000E+00  0.00000000000E+00 -0.11149886346E+04  0.11149886346E+04  0.25500000920E-02 0.  1.
    10030    2    1    2    0    0  0.00000000000E+00  0.00000000000E+00 -0.59528852592E+03  0.16346887432E+04  0.15224450263E+04 0.  0.
        2    1    3    3  502    0  0.32264183744E+03  0.64377501936E+03 -0.56265167061E+03  0.91384951347E+03  0.25500000920E-02 0.  1.
       -2    1    3    3    0  502 -0.32264183744E+03 -0.64377501936E+03 -0.32636855308E+02  0.72083922975E+03  0.25500000920E-02 0. -1.
</event>
<event>
 5   0  0.2376359E-04  0.2185483E+04  0.7818609E-02  0.8524495E-01
       -1   -1    0    0    0  501  0.00000000000E+00  0.00000000000E+00  0.66773038449E+03  0.66773038451E+03  0.50400001928E-02 0. -1.
        1   -1    0    0  501    0  0.00000000000E+00  0.00000000000E+00 -0.17882724317E+04  0.17882724317E+04  0.50400001928E-02 0.  1.
    10030    2    1    2    0    0  0.00000000000E+00  0.00000000000E+00 -0.11205420472E+04  0.24560028163E+04  0.21854828651E+04 0.  0.
        2    1    3    3  502    0 -0.52619607575E+02  0.37716191390E+03 -0.17112898500E+04  0.17531494184E+04  0.25500000920E-02 0.  1.
       -2    1    3    3    0  502  0.52619607575E+02 -0.37716191390E+03  0.59074780278E+03  0.70285339787E+03  0.25500000920E-02 0. -1.
</event>
<event>
 5   0  0.2376359E-04  0.1374788E+04  0.7818609E-02  0.8972273E-01
       -1   -1    0    0    0  501  0.00000000000E+00  0.00000000000E+00  0.29634578294E+03  0.29634578298E+03  0.50400001928E-02 0.  1.
        1   -1    0    0  501    0  0.00000000000E+00  0.00000000000E+00 -0.15944557360E+04  0.15944557360E+04  0.50400001928E-02 0. -1.
    10030    2    1    2    0    0  0.00000000000E+00  0.00000000000E+00 -0.12981099531E+04  0.18908015190E+04  0.13747875959E+04 0.  0.
        2    1    3    3  502    0  0.19420072017E+03  0.57819522433E+03 -0.21307714643E+03  0.64608475256E+03  0.25500000920E-02 0.  1.
       -2    1    3    3    0  502 -0.19420072017E+03 -0.57819522433E+03 -0.10850328066E+04  0.12447167664E+04  0.25500000920E-02 0. -1.
</event>
<event>
 5   0  0.2510069E-04  0.1979466E+04  0.7818609E-02  0.8616282E-01
        1   -1    0    0  501    0  0.00000000000E+00  0.00000000000E+00  0.17722856301E+04  0.17722856301E+04  0.50400001928E-02 0.  1.
       -1   -1    0    0    0  501  0.00000000000E+00  0.00000000000E+00 -0.55271629619E+03  0.55271629622E+03  0.50400001928E-02 0. -1.
    10030    2    1    2    0    0  0.00000000000E+00  0.00000000000E+00  0.12195693339E+04  0.23250019263E+04  0.19794657353E+04 0.  0.
        4    1    3    3  502    0  0.77795050901E+03 -0.35944748302E+02  0.13272002290E+04  0.15388180789E+04  0.12699999809E+01 0.  1.
       -4    1    3    3    0  502 -0.77795050901E+03  0.35944748302E+02 -0.10763089508E+03  0.78618384737E+03  0.12699999809E+01 0. -1.
</event>
<event>
 5   0  0.2510069E-04  0.1877272E+04  0.7818609E-02  0.8666253E-01
        1   -1    0    0  501    0  0.00000000000E+00  0.00000000000E+00  0.27476839968E+03  0.27476839973E+03  0.50400001928E-02 0. -1.
       -1   -1    0    0    0  501  0.00000000000E+00  0.00000000000E+00 -0.32064726468E+04  0.32064726468E+04  0.50400001928E-02 0.  1.
    10030    2    1    2    0    0  0.00000000000E+00  0.00000000000E+00 -0.29317042471E+04  0.34812410465E+04  0.18772718054E+04 0.  0.
        4    1    3    3  502    0 -0.23646242213E+01  0.93329852845E+03 -0.12805589377E+04  0.15845770857E+04  0.12699999809E+01 0. -1.
       -4    1    3    3    0  502  0.23646242213E+01 -0.93329852845E+03 -0.16511453094E+04  0.18966639608E+04  0.12699999809E+01 0.  1.
</event>
<event>
 5   0  0.2355414E-04  0.1921874E+04  0.7818609E-02  0.8644044E-01
       -1   -1    0    0    0  501  0.00000000000E+00  0.00000000000E+00  0.11457547246E+04  0.11457547247E+04  0.50400001928E-02 0. -1.
        1   -1    0    0  501    0  0.00000000000E+00  0.00000000000E+00 -0.80593138428E+03  0.80593138429E+03  0.50400001928E-02 0.  1.
    10030    2    1    2    0    0  0.00000000000E+00  0.00000000000E+00  0.33982334037E+03  0.19516861089E+04  0.19218737641E+04 0.  0.
        5    1    3    3  502    0  0.66584739147E+03  0.51439343725E+03 -0.30142627259E+03  0.89377471704E+03  0.46999998093E+01 0. -1.
       -5    1    3    3    0  502 -0.66584739147E+03 -0.51439343725E+03  0.64124961296E+03  0.10579113919E+04  0.46999998093E+01 0.  1.
</event>
<event>
 5   0  0.2317458E-04  0.1918383E+04  0.7818609E-02  0.8645760E-01
       -1   -1    0    0    0  501  0.00000000000E+00  0.00000000000E+00  0.79202090801E+03  0.79202090802E+03  0.50400001928E-02 0.  1.
        1   -1    0    0  501    0  0.00000000000E+00  0.00000000000E+00 -0.11616469267E+04  0.11616469267E+04  0.50400001928E-02 0. -1.
    10030    2    1    2    0    0  0.00000000000E+00  0.00000000000E+00 -0.36962601869E+03  0.19536678347E+04  0.19183833336E+04 0.  0.
        3    1    3    3  502    0 -0.78765789964E+03 -0.19015792712E+03 -0.70756074504E+03  0.10757356656E+04  0.10100000352E+00 0. -1.
       -3    1    3    3    0  502  0.78765789964E+03  0.19015792712E+03  0.33793472635E+03  0.87793216913E+03  0.10100000352E+00 0.  1.
</event>
<event>
 5   0  0.4839293E-04  0.1891085E+04  0.7818609E-02  0.8659307E-01
       -2   -1    0    0    0  501  0.00000000000E+00  0.00000000000E+00  0.57509599212E+03  0.57509599213E+03  0.25500000920E-02 0. -1.
        2   -1    0    0  501    0  0.00000000000E+00  0.00000000000E+00 -0.15546106757E+04  0.15546106757E+04  0.25500000920E-02 0.  1.
    10030    2    1    2    0    0  0.00000000000E+00  0.00000000000E+00 -0.97951468355E+03  0.21297066678E+04  0.18910847352E+04 0.  0.
        5    1    3    3  502    0  0.29891770765E+03  0.38345571804E+03 -0.14030339118E+04  0.14848960675E+04  0.46999998093E+01 0.  1.
       -5    1    3    3    0  502 -0.29891770765E+03 -0.38345571804E+03  0.42351922821E+03  0.64481060033E+03  0.46999998093E+01 0. -1.
</event>
<event>
 5   0  0.2355414E-04  0.1835809E+04  0.7818609E-02  0.8687485E-01
       -1   -1    0    0    0  501  0.00000000000E+00  0.00000000000E+00  0.13555692265E+04  0.13555692266E+04  0.50400001928E-02 0.  1.
        1   -1    0    0  501    0  0.00000000000E+00  0.00000000000E+00 -0.62154621589E+03  0.62154621591E+03  0.50400001928E-02 0. -1.
    10030    2    1    2    0    0  0.00000000000E+00  0.00000000000E+00  0.73402301065E+03  0.19771154425E+04  0.18358092746E+04 0.  0.
        5    1    3    3  502    0  0.51890808857E+03  0.67252499884E+03 -0.75694912234E+01  0.84949094500E+03  0.46999998093E+01 0. -1.
       -5    1    3    3    0  502 -0.51890808857E+03 -0.67252499884E+03  0.74159250187E+03  0.11276244975E+04  0.46999998093E+01 0.  1.
</event>
<event>
 5   0  0.4973411E-04  0.1698722E+04  0.7818609E-02  0.8762093E-01
       -2   -1    0    0    0  501  0.00000000000E+00  0.00000000000E+00  0.32710625220E+03  0.32710625221E+03  0.25500000920E-02 0.  1.
        2   -1    0    0  501    0  0.00000000000E+00  0.00000000000E+00 -0.22054431880E+04  0.22054431880E+04  0.25500000920E-02 0. -1.
    10030    2    1    2    0    0  0.00000000000E+00  0.00000000000E+00 -0.18783369358E+04  0.25325494402E+04  0.16987221735E+04 0.  0.
        1    1    3    3  502    0 -0.78174186818E+03  0.19865341133E+03 -0.13359454169E+04  0.15605555688E+04  0.50400001928E-02 0. -1.
       -1    1    3    3    0  502  0.78174186818E+03 -0.19865341133E+03 -0.54239151889E+03  0.97199387142E+03  0.50400001928E-02 0.  1.
</event>
<event>
 5   0  0.2317458E-04  0.1893144E+04  0.7818609E-02  0.8658276E-01
       -1   -1    0    0    0  501  0.00000000000E+00  0.00000000000E+00  0.61284570039E+03  0.61284570041E+03  0.50400001928E-02 0. -1.
        1   -1    0    0  501    0  0.00000000000E+00  0.00000000000E+00 -0.14620299615E+04  0.14620299615E+04  0.50400001928E-02 0.  1.
    10030    2    1    2    0    0  0.00000000000E+00  0.00000000000E+00 -0.84918426108E+03  0.20748756619E+04  0.18931442372E+04 0.  0.
        3    1    3    3  502    0 -0.60975385840E+03  0.41892262113E+03  0.22260429791E+03  0.77255978019E+03  0.10100000352E+00 0. -1.
       -3    1    3    3    0  502  0.60975385840E+03 -0.41892262113E+03 -0.10717885590E+04  0.13023158817E+04  0.10100000352E+00 0.  1.
</event>
<event>
 5   0  0.2510069E-04  0.1891794E+04  0.7818609E-02  0.8658952E-01
       -1   -1    0    0    0  501  0.00000000000E+00  0.00000000000E+00  0.77880327247E+03  0.77880327248E+03  0.50400001928E-02 0.  1.
        1   -1    0    0  501    0  0.00000000000E+00  0.00000000000E+00 -0.11488415633E+04  0.11488415633E+04  0.50400001928E-02 0. -1.
    10030    2    1    2    0    0  0.00000000000E+00  0.00000000000E+00 -0.37003829081E+03  0.19276448358E+04  0.18917944593E+04 0.  0.
        4    1    3    3  502    0  0.76755695081E+03 -0.54132307045E+03 -0.29914895144E+03  0.98573122472E+03  0.12699999809E+01 0.  1.
       -4    1    3    3    0  502 -0.76755695081E+03  0.54132307045E+03 -0.70889339369E+02  0.94191361105E+03  0.12699999809E+01 0. -1.
</event>
<event>
 5   0  0.4973411E-04  0.1957984E+04  0.7818609E-02  0.8626520E-01
        2   -1    0    0  501    0  0.00000000000E+00  0.00000000000E+00  0.12562893802E+04  0.12562893802E+04  0.25500000920E-02 0. -1.
       -2   -1    0    0    0  501  0.00000000000E+00  0.00000000000E+00 -0.76290154482E+03  0.76290154483E+03  0.25500000920E-02 0.  1.
    10030    2    1    2    0    0  0.00000000000E+00  0.00000000000E+00  0.49338783540E+03  0.20191909251E+04  0.19579837680E+04 0.  0.
        1    1    3    3  502    0  0.29433110548E+03 -0.82343462478E+03  0.70062387934E+03  0.11205129188E+04  0.50400001928E-02 0. -1.
       -1    1    3    3    0  502 -0.29433110548E+03  0.82343462478E+03 -0.20723604394E+03  0.89867800623E+03  0.50400001928E-02 0.  1.
</event>
<event>
 5   0  0.4802635E-04  0.1904589E+04  0.7818609E-02  0.8652576E-01
       -2   -1    0    0    0  501  0.00000000000E+00  0.00000000000E+00  0.11207667195E+04  0.11207667195E+04  0.25500000920E-02 0.  1.
        2   -1    0    0  501    0  0.00000000000E+00  0.00000000000E+00 -0.80914680980E+03  0.80914680980E+03  0.25500000920E-02 0. -1.
    10030    2    1    2    0    0  0.00000000000E+00  0.00000000000E+00  0.31161990966E+03  0.19299135293E+04  0.19045890009E+04 0.  0.
        3    1    3    3  502    0  0.19776036825E+03  0.10850214395E+03 -0.78168541176E+03  0.81358095581E+03  0.10100000352E+00 0. -1.
       -3    1    3    3    0  502 -0.19776036825E+03 -0.10850214395E+03  0.10933053214E+04  0.11163325735E+04  0.10100000352E+00 0.  1.
</event>
<event>
 5   0  0.4973411E-04  0.1862968E+04  0.7818609E-02  0.8673512E-01
       -2   -1    0    0    0  501  0.00000000000E+00  0.00000000000E+00  0.74538237030E+03  0.74538237031E+03  0.25500000920E-02 0. -1.
        2   -1    0    0  501    0  0.00000000000E+00  0.00000000000E+00 -0.11640500137E+04  0.11640500137E+04  0.25500000920E-02 0.  1.
    10030    2    1    2    0    0  0.00000000000E+00  0.00000000000E+00 -0.41866764343E+03  0.19094323840E+04  0.18629679100E+04 0.  0.
        1    1    3    3  502    0 -0.13824350168E+02 -0.34920332760E+03  0.67564111519E+03  0.76067403875E+03  0.50400001928E-02 0. -1.
       -1    1    3    3    0  502  0.13824350168E+02  0.34920332760E+03 -0.10943087586E+04  0.11487583453E+04  0.50400001928E-02 0.  1.
</event>
<event>
 5   0  0.4802635E-04  0.1721200E+04  0.7818609E-02  0.8749365E-01
       -2   -1    0    0    0  501  0.00000000000E+00  0.00000000000E+00  0.44366673070E+03  0.44366673071E+03  0.25500000920E-02 0. -1.
        2   -1    0    0  501    0  0.00000000000E+00  0.00000000000E+00 -0.16693445630E+04  0.16693445630E+04  0.25500000920E-02 0.  1.
    10030    2    1    2    0    0  0.00000000000E+00  0.00000000000E+00 -0.12256778323E+04  0.21130112937E+04  0.17212003308E+04 0.  0.
        3    1    3    3  502    0  0.76994238832E+02 -0.32564672632E+03 -0.15862087290E+04  0.16211206140E+04  0.10100000352E+00 0.  1.
       -3    1    3    3    0  502 -0.76994238832E+02  0.32564672632E+03  0.36053089663E+03  0.49189067972E+03  0.10100000352E+00 0. -1.
</event>
<event>
 5   0  0.4829134E-04  0.1697691E+04  0.7818609E-02  0.8762682E-01
        2   -1    0    0  501    0  0.00000000000E+00  0.00000000000E+00  0.10650589436E+04  0.10650589436E+04  0.25500000920E-02 0. -1.
       -2   -1    0    0    0  501  0.00000000000E+00  0.00000000000E+00 -0.67652493750E+03  0.67652493750E+03  0.25500000920E-02 0.  1.
    10030    2    1    2    0    0  0.00000000000E+00  0.00000000000E+00  0.38853400610E+03  0.17415838811E+04  0.16976912973E+04 0.  0.
        2    1    3    3  502    0 -0.70598661387E+03 -0.39683763061E+03 -0.66553761522E+02  0.81260482844E+03  0.25500000920E-02 0. -1.
       -2    1    3    3    0  502  0.70598661387E+03  0.39683763061E+03  0.45508776762E+03  0.92897905266E+03  0.25500000920E-02 0.  1.
</event>
<event>
 5   0  0.4973411E-04  0.1872932E+04  0.7818609E-02  0.8668448E-01
        2   -1    0    0  501    0  0.00000000000E+00  0.00000000000E+00  0.22782789693E+04  0.22782789693E+04  0.25500000920E-02 0.  1.
       -2   -1    0    0    0  501  0.00000000000E+00  0.00000000000E+00 -0.38492604741E+03  0.38492604742E+03  0.25500000920E-02 0. -1.
    10030    2    1    2    0    0  0.00000000000E+00  0.00000000000E+00  0.18933529219E+04  0.26632050167E+04  0.18729323731E+04 0.  0.
        1    1    3    3  502    0  0.49893928001E+03 -0.70574384429E+03  0.14592752348E+04  0.16960244662E+04  0.50400001928E-02 0.  1.
       -1    1    3    3    0  502 -0.49893928001E+03  0.70574384429E+03  0.43407768705E+03  0.96718055052E+03  0.50400001928E-02 0. -1.
</event>
<event>
 5   0  0.2355414E-04  0.1896231E+04  0.7818609E-02  0.8656735E-01
        1   -1    0    0  501    0  0.00000000000E+00  0.00000000000E+00  0.13650362475E+04  0.13650362475E+04  0.50400001928E-02 0.  1.
       -1   -1    0    0    0  501  0.00000000000E+00  0.00000000000E+00 -0.65853444945E+03  0.65853444947E+03  0.50400001928E-02 0. -1.
    10030    2    1    2    0    0  0.00000000000E+00  0.00000000000E+00  0.70650179805E+03  0.20235706970E+04  0.18962314139E+04 0.  0.
        5    1    3    3  502    0  0.86284925881E+03  0.14671852246E+03  0.74223710109E+03  0.11475945157E+04  0.46999998093E+01 0.  1.
       -5    1    3    3    0  502 -0.86284925881E+03 -0.14671852246E+03 -0.35735303037E+02  0.87597618127E+03  0.46999998093E+01 0. -1.
</event>
<event>
 5   0  0.2355414E-04  0.1172427E+04  0.7818609E-02  0.9137339E-01
       -1   -1    0    0    0  501  0.00000000000E+00  0.00000000000E+00  0.38411463326E+03  0.38411463329E+03  0.50400001928E-02 0. -1.
        1   -1    0    0  501    0  0.00000000000E+00  0.00000000000E+00 -0.89464502707E+03  0.89464502709E+03  0.50400001928E-02 0.  1.
    10030    2    1    2    0    0  0.00000000000E+00  0.00000000000E+00 -0.51053039381E+03  0.12787596604E+04  0.11724269640E+04 0.  0.
        5    1    3    3  502    0  0.54096178168E+03 -0.58852878139E+02 -0.17501682535E+02  0.54445542462E+03  0.46999998093E+01 0. -1.
       -5    1    3    3    0  502 -0.54096178168E+03  0.58852878139E+02 -0.49302871128E+03  0.73430423576E+03  0.46999998093E+01 0.  1.
</event>
<event>
 5   0  0.4829134E-04  0.1862361E+04  0.7818609E-02  0.8673822E-01
       -2   -1    0    0    0  501  0.00000000000E+00  0.00000000000E+00  0.91967176318E+03  0.91967176318E+03  0.25500000920E-02 0. -1.
        2   -1    0    0  501    0  0.00000000000E+00  0.00000000000E+00 -0.94283294750E+03  0.94283294750E+03  0.25500000920E-02 0.  1.
    10030    2    1    2    0    0  0.00000000000E+00  0.00000000000E+00 -0.23161184321E+02  0.18625047107E+04  0.18623606946E+04 0.  0.
        2    1    3    3  502    0 -0.31400438037E+03 -0.29320171802E+03 -0.83779872616E+03  0.94152679405E+03  0.25500000920E-02 0.  1.
       -2    1    3    3    0  502  0.31400438037E+03  0.29320171802E+03  0.81463754184E+03  0.92097791663E+03  0.25500000920E-02 0. -1.
</event>
<event>
 5   0  0.2317458E-04  0.1938136E+04  0.7818609E-02  0.8636103E-01
        1   -1    0    0  501    0  0.00000000000E+00  0.00000000000E+00  0.28793459016E+04  0.28793459016E+04  0.50400001928E-02 0.  1.
       -1   -1    0    0    0  501  0.00000000000E+00  0.00000000000E+00 -0.32614788166E+03  0.32614788170E+03  0.50400001928E-02 0. -1.
    10030    2    1    2    0    0  0.00000000000E+00  0.00000000000E+00  0.25531980199E+04  0.32054937833E+04  0.19381357707E+04 0.  0.
        3    1    3    3  502    0 -0.34855877505E+03 -0.50896024415E+03  0.25126750654E+04  0.25872900387E+04  0.10100000352E+00 0.  1.
       -3    1    3    3    0  502  0.34855877505E+03  0.50896024415E+03  0.40522954506E+02  0.61820374459E+03  0.10100000352E+00 0. -1.
</event>
<event>
 5   0  0.2355414E-04  0.1838668E+04  0.7818609E-02  0.8686002E-01
       -1   -1    0    0    0  501  0.00000000000E+00  0.00000000000E+00  0.57416161532E+03  0.57416161534E+03  0.50400001928E-02 0.  1.
        1   -1    0    0  501    0  0.00000000000E+00  0.00000000000E+00 -0.14720153175E+04  0.14720153175E+04  0.50400001928E-02 0. -1.
    10030    2    1    2    0    0  0.00000000000E+00  0.00000000000E+00 -0.89785370218E+03  0.20461769328E+04  0.18386676616E+04 0.  0.
        5    1    3    3  502    0  0.37980520874E+03  0.89021465449E+01  0.48270346178E+03  0.61429306264E+03  0.46999998093E+01 0.  1.
       -5    1    3    3    0  502 -0.37980520874E+03 -0.89021465449E+01 -0.13805571640E+04  0.14318838702E+04  0.46999998093E+01 0. -1.
</event>
<event>
 5   0  0.1729375E-04  0.1858270E+04  0.7818609E-02  0.8675912E-01
       -4   -1    0    0    0  501  0.00000000000E+00  0.00000000000E+00  0.12838150299E+04  0.12838156581E+04  0.12699999809E+01 0. -1.
        4   -1    0    0  501    0  0.00000000000E+00  0.00000000000E+00 -0.67244086964E+03  0.67244206892E+03  0.12699999809E+01 0.  1.
    10030    2    1    2    0    0  0.00000000000E+00  0.00000000000E+00  0.61137416025E+03  0.19562577270E+04  0.18582696065E+04 0.  0.
        1    1    3    3  502    0 -0.28863687557E+03  0.15606619658E+03  0.12207903292E+04  0.12641190338E+04  0.50400001928E-02 0. -1.
       -1    1    3    3    0  502  0.28863687557E+03 -0.15606619658E+03 -0.60941616894E+03  0.69213869321E+03  0.50400001928E-02 0.  1.
</event>
<event>
 5   0  0.4802635E-04  0.1854276E+04  0.7818609E-02  0.8677957E-01
       -2   -1    0    0    0  501  0.00000000000E+00  0.00000000000E+00  0.55482862300E+03  0.55482862300E+03  0.25500000920E-02 0.  1.
        2   -1    0    0  501    0  0.00000000000E+00  0.00000000000E+00 -0.15492793626E+04  0.15492793626E+04  0.25500000920E-02 0. -1.
    10030    2    1    2    0    0  0.00000000000E+00  0.00000000000E+00 -0.99445073957E+03  0.21041079856E+04  0.18542756380E+04 0.  0.
        3    1    3    3  502    0  0.62979529621E+03 -0.52728083391E+03 -0.92672582690E+01  0.82143355496E+03  0.10100000352E+00 0.  1.
       -3    1    3    3    0  502 -0.62979529621E+03  0.52728083391E+03 -0.98518348130E+03  0.12826744306E+04  0.10100000352E+00 0. -1.
</event>
<event>
 5   0  0.2355414E-04  0.2037084E+04  0.7818609E-02  0.8589476E-01
        1   -1    0    0  501    0  0.00000000000E+00  0.00000000000E+00  0.19616135205E+04  0.19616135205E+04  0.50400001928E-02 0. -1.
       -1   -1    0    0    0  501  0.00000000000E+00  0.00000000000E+00 -0.52886460780E+03  0.52886460782E+03  0.50400001928E-02 0.  1.
    10030    2    1    2    0    0  0.00000000000E+00  0.00000000000E+00  0.14327489127E+04  0.24904781284E+04  0.20370841566E+04 0.  0.
        5    1    3    3  502    0  0.46564164224E+03  0.74619220151E+03  0.13442816555E+04  0.16064682381E+04  0.46999998093E+01 0. -1.
       -5    1    3    3    0  502 -0.46564164224E+03 -0.74619220151E+03  0.88467257247E+02  0.88400989032E+03  0.46999998093E+01 0.  1.
</event>
<event>
 5   0  0.4829134E-04  0.1712970E+04  0.7818609E-02  0.8754001E-01
        2   -1    0    0  501    0  0.00000000000E+00  0.00000000000E+00  0.65509250026E+03  0.65509250026E+03  0.25500000920E-02 0. -1.
       -2   -1    0    0    0  501  0.00000000000E+00  0.00000000000E+00 -0.11197911525E+04  0.11197911525E+04  0.25500000920E-02 0.  1.
    10030    2    1    2    0    0  0.00000000000E+00  0.00000000000E+00 -0.46469865222E+03  0.17748836527E+04  0.17129702693E+04 0.  0.
        2    1    3    3  502    0  0.64539383259E+03  0.22226133723E+03  0.30368214509E+03  0.74709848509E+03  0.25500000920E-02 0. -1.
       -2    1    3    3    0  502 -0.64539383259E+03 -0.22226133723E+03 -0.76838079732E+03  0.10277851677E+04  0.25500000920E-02 0.  1.
</event>
<event>
 5   0  0.2261755E-04  0.1869923E+04  0.7818609E-02  0.8669974E-01
       -1   -1    0    0    0  501  0.00000000000E+00  0.00000000000E+00  0.41313663769E+03  0.41313663772E+03  0.50400001928E-02 0. -1.
        1   -1    0    0  501    0  0.00000000000E+00  0.00000000000E+00 -0.21158940586E+04  0.21158940586E+04  0.50400001928E-02 0.  1.
    10030    2    1    2    0    0  0.00000000000E+00  0.00000000000E+00 -0.17027574209E+04  0.25290306963E+04  0.18699233750E+04 0.  0.
        1    1    3    3  502    0  0.57405430261E+03 -0.34234832947E+01  0.14671293933E+03  0.59251561092E+03  0.50400001928E-02 0. -1.
       -1    1    3    3    0  502 -0.57405430261E+03  0.34234832947E+01 -0.18494703602E+04  0.19365150854E+04  0.50400001928E-02 0.  1.
</event>
<event>
 5   0  0.4802635E-04  0.1862258E+04  0.7818609E-02  0.8673874E-01
        2   -1    0    0  501    0  0.00000000000E+00  0.00000000000E+00  0.19250447899E+04  0.19250447899E+04  0.25500000920E-02 0. -1.
       -2   -1    0    0    0  501  0.00000000000E+00  0.00000000000E+00 -0.45037982508E+03  0.45037982509E+03  0.25500000920E-02 0.  1.
    10030    2    1    2    0    0  0.00000000000E+00  0.00000000000E+00  0.14746649649E+04  0.23754246150E+04  0.18622581301E+04 0.  0.
        3    1    3    3  502    0  0.34626889779E+03  0.79384517196E+03  0.30119302235E+03  0.91695668029E+03  0.10100000352E+00 0. -1.
       -3    1    3    3    0  502 -0.34626889779E+03 -0.79384517196E+03  0.11734719425E+04  0.14584679347E+04  0.10100000352E+00 0.  1.
</event>
<event>
 5   0  0.2376359E-04  0.1868943E+04  0.7818609E-02  0.8670472E-01
        1   -1    0    0  501    0  0.00000000000E+00  0.00000000000E+00  0.38014059407E+03  0.38014059410E+03  0.50400001928E-02 0.  1.
       -1   -1    0    0    0  501  0.00000000000E+00  0.00000000000E+00 -0.22971432500E+04  0.22971432500E+04  0.50400001928E-02 0. -1.
    10030    2    1    2    0    0  0.00000000000E+00  0.00000000000E+00 -0.19170026559E+04  0.26772838441E+04  0.18689434446E+04 0.  0.
        2    1    3    3  502    0 -0.75762039054E+03  0.53916097134E+03 -0.10909927370E+04  0.14335091075E+04  0.25500000920E-02 0. -1.
       -2    1    3    3    0  502  0.75762039054E+03 -0.53916097134E+03 -0.82600991891E+03  0.12437747366E+04  0.25500000920E-02 0.  1.
</event>
<event>
 5   0  0.2317458E-04  0.1921689E+04  0.7818609E-02  0.8644135E-01
       -1   -1    0    0    0  501  0.00000000000E+00  0.00000000000E+00  0.14396241801E+04  0.14396241801E+04  0.50400001928E-02 0. -1.
        1   -1    0    0  501    0  0.00000000000E+00  0.00000000000E+00 -0.64129400907E+03  0.64129400909E+03  0.50400001928E-02 0.  1.
    10030    2    1    2    0    0  0.00000000000E+00  0.00000000000E+00  0.79833017098E+03  0.20809181892E+04  0.19216892173E+04 0.  0.
        3    1    3    3  502    0  0.24399282357E+03  0.44152287897E+02  0.14043826936E+04  0.14261040225E+04  0.10100000352E+00 0. -1.
       -3    1    3    3    0  502 -0.24399282357E+03 -0.44152287897E+02 -0.60605252266E+03  0.65481416669E+03  0.10100000352E+00 0.  1.
</event>
<event>
 5   0  0.2355414E-04  0.1885118E+04  0.7818609E-02  0.8662300E-01
        1   -1    0    0  501    0  0.00000000000E+00  0.00000000000E+00  0.11348589492E+04  0.11348589492E+04  0.50400001928E-02 0. -1.
       -1   -1    0    0    0  501  0.00000000000E+00  0.00000000000E+00 -0.78284418996E+03  0.78284418997E+03  0.50400001928E-02 0.  1.
    10030    2    1    2    0    0  0.00000000000E+00  0.00000000000E+00  0.35201475924E+03  0.19177031392E+04  0.18851182826E+04 0.  0.
        5    1    3    3  502    0  0.21050189456E+03 -0.28650435361E+02  0.11101743106E+04  0.11303278219E+04  0.46999998093E+01 0. -1.
       -5    1    3    3    0  502 -0.21050189456E+03  0.28650435361E+02 -0.75815955132E+03  0.78737531731E+03  0.46999998093E+01 0.  1.
</event>
<event>
 5   0  0.2376359E-04  0.1871912E+04  0.7818609E-02  0.8668966E-01
        1   -1    0    0  501    0  0.00000000000E+00  0.00000000000E+00  0.16859799771E+04  0.16859799771E+04  0.50400001928E-02 0. -1.
       -1   -1    0    0    0  501  0.00000000000E+00  0.00000000000E+00 -0.51958693904E+03  0.51958693906E+03  0.50400001928E-02 0.  1.
    10030    2    1    2    0    0  0.00000000000E+00  0.00000000000E+00  0.11663930381E+04  0.22055669162E+04  0.18719115103E+04 0.  0.
        2    1    3    3  502    0 -0.92769929716E+03 -0.12308985292E+03  0.60130001627E+03  0.11123573200E+04  0.25500000920E-02 0. -1.
       -2    1    3    3    0  502  0.92769929716E+03  0.12308985292E+03  0.56509302181E+03  0.10932095962E+04  0.25500000920E-02 0.  1.
</event>
<event>
 5   0  0.4761944E-04  0.1960009E+04  0.7818609E-02  0.8625549E-01
        2   -1    0    0  501    0  0.00000000000E+00  0.00000000000E+00  0.64851925181E+03  0.64851925181E+03  0.25500000920E-02 0.  1.
       -2   -1    0    0    0  501  0.00000000000E+00  0.00000000000E+00 -0.14809259790E+04  0.14809259790E+04  0.25500000920E-02 0. -1.
    10030    2    1    2    0    0  0.00000000000E+00  0.00000000000E+00 -0.83240672723E+03  0.21294452308E+04  0.19600091917E+04 0.  0.
        4    1    3    3  502    0 -0.48038196654E+03  0.49035909938E+03  0.34367922334E+03  0.76768216182E+03  0.12699999809E+01 0.  1.
       -4    1    3    3    0  502  0.48038196654E+03 -0.49035909938E+03 -0.11760859506E+04  0.13617630690E+04  0.12699999809E+01 0. -1.
</event>
<event>
 5   0  0.2510069E-04  0.2010455E+04  0.7818609E-02  0.8601748E-01
        1   -1    0    0  501    0  0.00000000000E+00  0.00000000000E+00  0.10025631185E+04  0.10025631185E+04  0.50400001928E-02 0. -1.
       -1   -1    0    0    0  501  0.00000000000E+00  0.00000000000E+00 -0.10078986149E+04  0.10078986149E+04  0.50400001928E-02 0.  1.
    10030    2    1    2    0    0  0.00000000000E+00  0.00000000000E+00 -0.53354963398E+01  0.20104617334E+04  0.20104546536E+04 0.  0.
        4    1    3    3  502    0 -0.50420662112E+03 -0.86890846503E+03 -0.38081545648E+02  0.10053248502E+04  0.12699999809E+01 0.  1.
       -4    1    3    3    0  502  0.50420662112E+03  0.86890846503E+03  0.32746049308E+02  0.10051368832E+04  0.12699999809E+01 0. -1.
</event>
<event>
 5   0  0.2355414E-04  0.1982175E+04  0.7818609E-02  0.8615000E-01
        1   -1    0    0  501    0  0.00000000000E+00  0.00000000000E+00  0.87471296044E+03  0.87471296046E+03  0.50400001928E-02 0.  1.
       -1   -1    0    0    0  501  0.00000000000E+00  0.00000000000E+00 -0.11229447647E+04  0.11229447647E+04  0.50400001928E-02 0. -1.
    10030    2    1    2    0    0  0.00000000000E+00  0.00000000000E+00 -0.24823180424E+03  0.19976577252E+04  0.19821749061E+04 0.  0.
        5    1    3    3  502    0  0.43748515690E+03 -0.52412002843E+03 -0.84815443358E+03  0.10887989254E+04  0.46999998093E+01 0. -1.
       -5    1    3    3    0  502 -0.43748515690E+03  0.52412002843E+03  0.59992262935E+03  0.90885879977E+03  0.46999998093E+01 0.  1.
</event>
<event>
 5   0  0.2376359E-04  0.1926808E+04  0.7818609E-02  0.8641626E-01
       -1   -1    0    0    0  501  0.00000000000E+00  0.00000000000E+00  0.19290515405E+04  0.19290515406E+04  0.50400001928E-02 0.  1.
        1   -1    0    0  501    0  0.00000000000E+00  0.00000000000E+00 -0.48114153567E+03  0.48114153570E+03  0.50400001928E-02 0. -1.
    10030    2    1    2    0    0  0.00000000000E+00  0.00000000000E+00  0.14479100049E+04  0.24101930763E+04  0.19268075365E+04 0.  0.
        2    1    3    3  502    0  0.36409194984E+03  0.33893513223E+03 -0.30807793555E+03  0.58510852513E+03  0.25500000920E-02 0. -1.
       -2    1    3    3    0  502 -0.36409194984E+03 -0.33893513223E+03  0.17559879404E+04  0.18250845511E+04  0.25500000920E-02 0.  1.
</event>
<event>
 5   0  0.4973411E-04  0.1765112E+04  0.7818609E-02  0.8725076E-01
       -2   -1    0    0    0  501  0.00000000000E+00  0.00000000000E+00  0.57865106317E+03  0.57865106317E+03  0.25500000920E-02 0.  1.
        2   -1    0    0  501    0  0.00000000000E+00  0.00000000000E+00 -0.13460698142E+04  0.13460698142E+04  0.25500000920E-02 0. -1.
    10030    2    1    2    0    0  0.00000000000E+00  0.00000000000E+00 -0.76741875108E+03  0.19247208774E+04  0.17651115875E+04 0.  0.
        1    1    3    3  502    0 -0.85172447063E+03  0.17298217912E+03 -0.55103649806E+03  0.10290765911E+04  0.50400001928E-02 0. -1.
       -1    1    3    3    0  502  0.85172447063E+03 -0.17298217912E+03 -0.21638225302E+03  0.89564428631E+03  0.50400001928E-02 0.  1.
</event>
<event>
 5   0  0.4802635E-04  0.1858060E+04  0.7818609E-02  0.8676019E-01
       -2   -1    0    0    0  501  0.00000000000E+00  0.00000000000E+00  0.42376036920E+03  0.42376036921E+03  0.25500000920E-02 0.  1.
        2   -1    0    0  501    0  0.00000000000E+00  0.00000000000E+00 -0.20367571483E+04  0.20367571483E+04  0.25500000920E-02 0. -1.
    10030    2    1    2    0    0  0.00000000000E+00  0.00000000000E+00 -0.16129967791E+04  0.24605175175E+04  0.18580602371E+04 0.  0.
        3    1    3    3  502    0 -0.29052705358E+03  0.64589802270E+03 -0.10293458210E+02  0.70830515322E+03  0.10100000352E+00 0.  1.
       -3    1    3    3    0  502  0.29052705358E+03 -0.64589802270E+03 -0.16027033209E+04  0.17522123643E+04  0.10100000352E+00 0. -1.
</event>
<event>
 5   0  0.4802635E-04  0.1737061E+04  0.7818609E-02  0.8740505E-01
       -2   -1    0    0    0  501  0.00000000000E+00  0.00000000000E+00  0.48806612599E+03  0.48806612600E+03  0.25500000920E-02 0.  1.
        2   -1    0    0  501    0  0.00000000000E+00  0.00000000000E+00 -0.15455807990E+04  0.15455807990E+04  0.25500000920E-02 0. -1.
    10030    2    1    2    0    0  0.00000000000E+00  0.00000000000E+00 -0.10575146730E+04  0.20336469250E+04  0.17370614646E+04 0.  0.
        3    1    3    3  502    0 -0.71594314150E+02 -0.80874923108E+03 -0.16763666831E+03  0.82903747042E+03  0.10100000352E+00 0.  1.
       -3    1    3    3    0  502  0.71594314150E+02  0.80874923108E+03 -0.88987800465E+03  0.12046094545E+04  0.10100000352E+00 0. -1.
</event>
<event>
 5   0  0.2510069E-04  0.1893964E+04  0.7818609E-02  0.8657867E-01
        1   -1    0    0  501    0  0.00000000000E+00  0.00000000000E+00  0.10962172547E+04  0.10962172547E+04  0.50400001928E-02 0.  1.
       -1   -1    0    0    0  501  0.00000000000E+00  0.00000000000E+00 -0.81806288465E+03  0.81806288466E+03  0.50400001928E-02 0. -1.
    10030    2    1    2    0    0  0.00000000000E+00  0.00000000000E+00  0.27815437007E+03  0.19142801394E+04  0.18939637268E+04 0.  0.
        4    1    3    3  502    0  0.72972176267E+03 -0.44283526462E+03 -0.27541466275E+03  0.89691235462E+03  0.12699999809E+01 0.  1.
       -4    1    3    3    0  502 -0.72972176267E+03  0.44283526462E+03  0.55356903283E+03  0.10173677848E+04  0.12699999809E+01 0. -1.
</event>
<event>
 5   0  0.4973411E-04  0.1801751E+04  0.7818609E-02  0.8705369E-01
       -2   -1    0    0    0  501  0.00000000000E+00  0.00000000000E+00  0.51873401690E+03  0.51873401690E+03  0.25500000920E-02 0.  1.
        2   -1    0    0  501    0  0.00000000000E+00  0.00000000000E+00 -0.15645328176E+04  0.15645328176E+04  0.25500000920E-02 0. -1.
    10030    2    1    2    0    0  0.00000000000E+00  0.00000000000E+00 -0.10457988007E+04  0.20832668345E+04  0.18017506965E+04 0.  0.
        1    1    3    3  502    0  0.13702656989E+02 -0.75285138769E+03  0.48949726475E+02  0.75456547132E+03  0.50400001928E-02 0.  1.
       -1    1    3    3    0  502 -0.13702656989E+02  0.75285138769E+03 -0.10947485272E+04  0.13287013632E+04  0.50400001928E-02 0. -1.
</event>
<event>
 5   0  0.2376359E-04  0.1876419E+04  0.7818609E-02  0.8666684E-01
       -1   -1    0    0    0  501  0.00000000000E+00  0.00000000000E+00  0.13887052284E+04  0.13887052284E+04  0.50400001928E-02 0. -1.
        1   -1    0    0  501    0  0.00000000000E+00  0.00000000000E+00 -0.63385471975E+03  0.63385471977E+03  0.50400001928E-02 0.  1.
    10030    2    1    2    0    0  0.00000000000E+00  0.00000000000E+00  0.75485050862E+03  0.20225599481E+04  0.18764193171E+04 0.  0.
        2    1    3    3  502    0  0.92407614780E+03  0.13532460435E+03  0.47388153237E+03  0.10472789419E+04  0.25500000920E-02 0.  1.
       -2    1    3    3    0  502 -0.92407614780E+03 -0.13532460435E+03  0.28096897625E+03  0.97528100622E+03  0.25500000920E-02 0. -1.
</event>
<event>
 5   0  0.2317458E-04  0.1893868E+04  0.7818609E-02  0.8657914E-01
       -1   -1    0    0    0  501  0.00000000000E+00  0.00000000000E+00  0.12012930306E+04  0.12012930307E+04  0.50400001928E-02 0. -1.
        1   -1    0    0  501    0  0.00000000000E+00  0.00000000000E+00 -0.74643273633E+03  0.74643273635E+03  0.50400001928E-02 0.  1.
    10030    2    1    2    0    0  0.00000000000E+00  0.00000000000E+00  0.45486029431E+03  0.19477257670E+04  0.18938684685E+04 0.  0.
        3    1    3    3  502    0  0.27226316829E+02  0.20652532363E+03  0.11774363465E+04  0.11957216825E+04  0.10100000352E+00 0. -1.
       -3    1    3    3    0  502 -0.27226316829E+02 -0.20652532363E+03 -0.72257605224E+03  0.75200408450E+03  0.10100000352E+00 0.  1.
</event>
<event>
 5   0  0.2355414E-04  0.1180869E+04  0.7818609E-02  0.9129768E-01
        1   -1    0    0  501    0  0.00000000000E+00  0.00000000000E+00  0.10433867565E+04  0.10433867565E+04  0.50400001928E-02 0.  1.
       -1   -1    0    0    0  501  0.00000000000E+00  0.00000000000E+00 -0.33411674934E+03  0.33411674938E+03  0.50400001928E-02 0. -1.
    10030    2    1    2    0    0  0.00000000000E+00  0.00000000000E+00  0.70927000711E+03  0.13775035058E+04  0.11808691569E+04 0.  0.
        5    1    3    3  502    0 -0.98117728793E+02 -0.43844964736E+03  0.80146678706E+03  0.91882331421E+03  0.46999998093E+01 0.  1.
       -5    1    3    3    0  502  0.98117728793E+02  0.43844964736E+03 -0.92196779949E+02  0.45868019164E+03  0.46999998093E+01 0. -1.
</event>
<event>
 5   0  0.4829134E-04  0.1925606E+04  0.7818609E-02  0.8642215E-01
        2   -1    0    0  501    0  0.00000000000E+00  0.00000000000E+00  0.92660855133E+03  0.92660855134E+03  0.25500000920E-02 0.  1.
       -2   -1    0    0    0  501  0.00000000000E+00  0.00000000000E+00 -0.10004112468E+04  0.10004112468E+04  0.25500000920E-02 0. -1.
    10030    2    1    2    0    0  0.00000000000E+00  0.00000000000E+00 -0.73802695454E+02  0.19270197981E+04  0.19256059993E+04 0.  0.
        2    1    3    3  502    0  0.89851788486E+03  0.34577825040E+03 -0.27269923631E+02  0.96314102633E+03  0.25500000920E-02 0. -1.
       -2    1    3    3    0  502 -0.89851788486E+03 -0.34577825040E+03 -0.46532771823E+02  0.96387877180E+03  0.25500000920E-02 0.  1.
</event>
<event>
 5   0  0.4973411E-04  0.1614428E+04  0.7818609E-02  0.8811733E-01
        2   -1    0    0  501    0  0.00000000000E+00  0.00000000000E+00  0.11694331491E+04  0.11694331491E+04  0.25500000920E-02 0. -1.
       -2   -1    0    0    0  501  0.00000000000E+00  0.00000000000E+00 -0.55718839505E+03  0.55718839506E+03  0.25500000920E-02 0.  1.
    10030    2    1    2    0    0  0.00000000000E+00  0.00000000000E+00  0.61224475402E+03  0.17266215441E+04  0.16144281705E+04 0.  0.
        1    1    3    3  502    0 -0.69142241805E+03  0.37668265129E+03  0.11588524515E+03  0.79585436484E+03  0.50400001928E-02 0. -1.
       -1    1    3    3    0  502  0.69142241805E+03 -0.37668265129E+03  0.49635950887E+03  0.93076717929E+03  0.50400001928E-02 0.  1.
</event>
<event>
 5   0  0.4839293E-04  0.1474240E+04  0.7818609E-02  0.8901766E-01
       -2   -1    0    0    0  501  0.00000000000E+00  0.00000000000E+00  0.55106731370E+03  0.55106731370E+03  0.25500000920E-02 0. -1.
        2   -1    0    0  501    0  0.00000000000E+00  0.00000000000E+00 -0.98598827822E+03  0.98598827822E+03  0.25500000920E-02 0.  1.
    10030    2    1    2    0    0  0.00000000000E+00  0.00000000000E+00 -0.43492096452E+03  0.15370555919E+04  0.14742400236E+04 0.  0.
        5    1    3    3  502    0 -0.47162091797E+03 -0.14278329131E+03 -0.78900646525E+03  0.93025085367E+03  0.46999998093E+01 0.  1.
       -5    1    3    3    0  502  0.47162091797E+03  0.14278329131E+03  0.35408550073E+03  0.60680473825E+03  0.46999998093E+01 0. -1.
</event>
<event>
 5   0  0.1729375E-04  0.1916012E+04  0.7818609E-02  0.8646927E-01
       -3   -1    0    0    0  501  0.00000000000E+00  0.00000000000E+00  0.98543744433E+03  0.98543744950E+03  0.10100000352E+00 0.  1.
        3   -1    0    0  501    0  0.00000000000E+00  0.00000000000E+00 -0.93133861771E+03  0.93133862319E+03  0.10100000352E+00 0. -1.
    10030    2    1    2    0    0  0.00000000000E+00  0.00000000000E+00  0.54098826614E+02  0.19167760727E+04  0.19160124816E+04 0.  0.
        3    1    3    3  502    0  0.15042227943E+02 -0.32963558222E+03 -0.87269217523E+03  0.93299385239E+03  0.10100000352E+00 0. -1.
       -3    1    3    3    0  502 -0.15042227943E+02  0.32963558222E+03  0.92679100185E+03  0.98378222030E+03  0.10100000352E+00 0.  1.
</event>
<event>
 5   0  0.2376359E-04  0.1913267E+04  0.7818609E-02  0.8648281E-01
        1   -1    0    0  501    0  0.00000000000E+00  0.00000000000E+00  0.14184658423E+04  0.14184658423E+04  0.50400001928E-02 0. -1.
       -1   -1    0    0    0  501  0.00000000000E+00  0.00000000000E+00 -0.64516723307E+03  0.64516723309E+03  0.50400001928E-02 0.  1.
    10030    2    1    2    0    0  0.00000000000E+00  0.00000000000E+00  0.77329860922E+03  0.20636330754E+04  0.19132670307E+04 0.  0.
        2    1    3    3  502    0  0.39638662556E+03 -0.52086576790E+03  0.11391351796E+04  0.13137931582E+04  0.25500000920E-02 0. -1.
       -2    1    3    3    0  502 -0.39638662556E+03  0.52086576790E+03 -0.36583657042E+03  0.74983991715E+03  0.25500000920E-02 0.  1.
</event>
<event>
 5   0  0.4761944E-04  0.2154797E+04  0.7818609E-02  0.8537482E-01
        2   -1    0    0  501    0  0.00000000000E+00  0.00000000000E+00  0.17825702787E+04  0.17825702788E+04  0.25500000920E-02 0. -1.
       -2   -1    0    0    0  501  0.00000000000E+00  0.00000000000E+00 -0.65118762581E+03  0.65118762581E+03  0.25500000920E-02 0.  1.
    10030    2    1    2    0    0  0.00000000000E+00  0.00000000000E+00  0.11313826529E+04  0.24337579046E+04  0.21547971669E+04 0.  0.
        4    1    3    3  502    0  0.51583662850E+03 -0.31439692864E+03 -0.44190708277E+03  0.74847601080E+03  0.12699999809E+01 0.  1.
       -4    1    3    3    0  502 -0.51583662850E+03  0.31439692864E+03  0.15732897357E+04  0.16852818938E+04  0.12699999809E+01 0. -1.
</event>
<event>
 5   0  0.4973411E-04  0.1894022E+04  0.7818609E-02  0.8657838E-01
        2   -1    0    0  501    0  0.00000000000E+00  0.00000000000E+00  0.79386724926E+03  0.79386724926E+03  0.25500000920E-02 0.  1.
       -2   -1    0    0    0  501  0.00000000000E+00  0.00000000000E+00 -0.11296980389E+04  0.11296980389E+04  0.25500000920E-02 0. -1.
    10030    2    1    2    0    0  0.00000000000E+00  0.00000000000E+00 -0.33583078962E+03  0.19235652881E+04  0.18940224651E+04 0.  0.
        1    1    3    3  502    0 -0.15877040375E+03  0.93018604934E+02 -0.11113669342E+04  0.11264976539E+04  0.50400001928E-02 0. -1.
       -1    1    3    3    0  502  0.15877040375E+03 -0.93018604934E+02  0.77553614454E+03  0.79706763420E+03  0.50400001928E-02 0.  1.
</event>
<event>
 5   0  0.2261755E-04  0.1898308E+04  0.7818609E-02  0.8655699E-01
        1   -1    0    0  501    0  0.00000000000E+00  0.00000000000E+00  0.94596379298E+03  0.94596379299E+03  0.50400001928E-02 0.  1.
       -1   -1    0    0    0  501  0.00000000000E+00  0.00000000000E+00 -0.95235508163E+03  0.95235508164E+03  0.50400001928E-02 0. -1.
    10030    2    1    2    0    0  0.00000000000E+00  0.00000000000E+00 -0.63912886469E+01  0.18983188746E+04  0.18983081155E+04 0.  0.
        1    1    3    3  502    0  0.24685932935E+03 -0.18445205929E+03 -0.90093751719E+03  0.95218196821E+03  0.50400001928E-02 0. -1.
       -1    1    3    3    0  502 -0.24685932935E+03  0.18445205929E+03  0.89454622855E+03  0.94613690642E+03  0.50400001928E-02 0.  1.
</event>
<event>
 5   0  0.2355414E-04  0.1463259E+04  0.7818609E-02  0.8909260E-01
       -1   -1    0    0    0  501  0.00000000000E+00  0.00000000000E+00  0.43434962167E+03  0.43434962170E+03  0.50400001928E-02 0.  1.
        1   -1    0    0  501    0  0.00000000000E+00  0.00000000000E+00 -0.12323754846E+04  0.12323754846E+04  0.50400001928E-02 0. -1.
    10030    2    1    2    0    0  0.00000000000E+00  0.00000000000E+00 -0.79802586288E+03  0.16667251063E+04  0.14632591370E+04 0.  0.
        5    1    3    3  502    0 -0.18890773002E+03 -0.69090954535E+03 -0.22923104481E+03  0.75207120157E+03  0.46999998093E+01 0.  1.
       -5    1    3    3    0  502  0.18890773002E+03  0.69090954535E+03 -0.56879481807E+03  0.91465390470E+03  0.46999998093E+01 0. -1.
</event>
<event>
 5   0  0.4839293E-04  0.1874379E+04  0.7818609E-02  0.8667716E-01
        2   -1    0    0  501    0  0.00000000000E+00  0.00000000000E+00  0.68816336732E+03  0.68816336733E+03  0.25500000920E-02 0. -1.
       -2   -1    0    0    0  501  0.00000000000E+00  0.00000000000E+00 -0.12763302928E+04  0.12763302928E+04  0.25500000920E-02 0.  1.
    10030    2    1    2    0    0  0.00000000000E+00  0.00000000000E+00 -0.58816692547E+03  0.19644936601E+04  0.18743785659E+04 0.  0.
        5    1    3    3  502    0  0.79823550930E+03  0.26106901782E+02 -0.80800501325E+03  0.11361142944E+04  0.46999998093E+01 0.  1.
       -5    1    3    3    0  502 -0.79823550930E+03 -0.26106901782E+02  0.21983808778E+03  0.82837936567E+03  0.46999998093E+01 0. -1.
</event>
<event>
 5   0  0.4839293E-04  0.1922462E+04  0.7818609E-02  0.8643756E-01
       -2   -1    0    0    0  501  0.00000000000E+00  0.00000000000E+00  0.76369440019E+03  0.76369440020E+03  0.25500000920E-02 0.  1.
        2   -1    0    0  501    0  0.00000000000E+00  0.00000000000E+00 -0.12098616414E+04  0.12098616414E+04  0.25500000920E-02 0. -1.
    10030    2    1    2    0    0  0.00000000000E+00  0.00000000000E+00 -0.44616724122E+03  0.19735560416E+04  0.19224615061E+04 0.  0.
        5    1    3    3  502    0 -0.10824075635E+02  0.68233356505E+03  0.47184668962E+03  0.82967321465E+03  0.46999998093E+01 0.  1.
       -5    1    3    3    0  502  0.10824075635E+02 -0.68233356505E+03 -0.91801393083E+03  0.11438828270E+04  0.46999998093E+01 0. -1.
</event>
<event>
 5   0  0.4839293E-04  0.1898094E+04  0.7818609E-02  0.8655806E-01
        2   -1    0    0  501    0  0.00000000000E+00  0.00000000000E+00  0.18495119812E+04  0.18495119812E+04  0.25500000920E-02 0. -1.
       -2   -1    0    0    0  501  0.00000000000E+00  0.00000000000E+00 -0.48698805869E+03  0.48698805869E+03  0.25500000920E-02 0.  1.
    10030    2    1    2    0    0  0.00000000000E+00  0.00000000000E+00  0.13625239225E+04  0.23365000399E+04  0.18980940432E+04 0.  0.
        5    1    3    3  502    0 -0.54228896424E+03  0.54397136076E+03 -0.48719849826E+01  0.76813279340E+03  0.46999998093E+01 0.  1.
       -5    1    3    3    0  502  0.54228896424E+03 -0.54397136076E+03  0.13673959075E+04  0.15683672465E+04  0.46999998093E+01 0. -1.
</event>
<event>
 5   0  0.4761944E-04  0.1786887E+04  0.7818609E-02  0.8713304E-01
        2   -1    0    0  501    0  0.00000000000E+00  0.00000000000E+00  0.11057270620E+04  0.11057270620E+04  0.25500000920E-02 0. -1.
       -2   -1    0    0    0  501  0.00000000000E+00  0.00000000000E+00 -0.72191569895E+03  0.72191569896E+03  0.25500000920E-02 0.  1.
    10030    2    1    2    0    0  0.00000000000E+00  0.00000000000E+00  0.38381136308E+03  0.18276427610E+04  0.17868874893E+04 0.  0.
        4    1    3    3  502    0 -0.70202319181E+03 -0.13898053609E+03  0.73897693321E+03  0.10287082541E+04  0.12699999809E+01 0. -1.
       -4    1    3    3    0  502  0.70202319181E+03  0.13898053609E+03 -0.35516557013E+03  0.79893450693E+03  0.12699999809E+01 0.  1.
</event>
<event>
 5   0  0.4761944E-04  0.1754662E+04  0.7818609E-02  0.8730788E-01
        2   -1    0    0  501    0  0.00000000000E+00  0.00000000000E+00  0.18592781483E+04  0.18592781483E+04  0.25500000920E-02 0. -1.
       -2   -1    0    0    0  501  0.00000000000E+00  0.00000000000E+00 -0.41398304999E+03  0.41398305000E+03  0.25500000920E-02 0.  1.
    10030    2    1    2    0    0  0.00000000000E+00  0.00000000000E+00  0.14452950983E+04  0.22732611983E+04  0.17546619488E+04 0.  0.
        4    1    3    3  502    0 -0.74749013347E+03 -0.13678613128E+03  0.15458530795E+03  0.77546771415E+03  0.12699999809E+01 0.  1.
       -4    1    3    3    0  502  0.74749013347E+03  0.13678613128E+03  0.12907097903E+04  0.14977934841E+04  0.12699999809E+01 0. -1.
</event>
<event>
 5   0  0.2355414E-04  0.1840178E+04  0.7818609E-02  0.8685220E-01
        1   -1    0    0  501    0  0.00000000000E+00  0.00000000000E+00  0.63865906886E+03  0.63865906888E+03  0.50400001928E-02 0.  1.
       -1   -1    0    0    0  501  0.00000000000E+00  0.00000000000E+00 -0.13255334077E+04  0.13255334077E+04  0.50400001928E-02 0. -1.
    10030    2    1    2    0    0  0.00000000000E+00  0.00000000000E+00 -0.68687433881E+03  0.19641924766E+04  0.18401781782E+04 0.  0.
        5    1    3    3  502    0 -0.31989089913E+03 -0.70846677818E+03  0.18196124289E+03  0.79836542199E+03  0.46999998093E+01 0.  1.
       -5    1    3    3    0  502  0.31989089913E+03  0.70846677818E+03 -0.86883558170E+03  0.11658270546E+04  0.46999998093E+01 0. -1.
</event>
<event>
 5   0  0.4802635E-04  0.1936612E+04  0.7818609E-02  0.8636844E-01
        2   -1    0    0  501    0  0.00000000000E+00  0.00000000000E+00  0.88092478117E+03  0.88092478118E+03  0.25500000920E-02 0.  1.
       -2   -1    0    0    0  501  0.00000000000E+00  0.00000000000E+00 -0.10643543379E+04  0.10643543379E+04  0.25500000920E-02 0. -1.
    10030    2    1    2    0    0  0.00000000000E+00  0.00000000000E+00 -0.18342955676E+03  0.19452791191E+04  0.19366115896E+04 0.  0.
        3    1    3    3  502    0 -0.48179061278E+03  0.81150368013E+03 -0.30937721522E+03  0.99316397887E+03  0.10100000352E+00 0. -1.
       -3    1    3    3    0  502  0.48179061278E+03 -0.81150368013E+03  0.12594765845E+03  0.95211514025E+03  0.10100000352E+00 0.  1.
</event>
<event>
 5   0  0.4829134E-04  0.1894663E+04  0.7818609E-02  0.8657517E-01
        2   -1    0    0  501    0  0.00000000000E+00  0.00000000000E+00  0.13174720849E+04  0.13174720849E+04  0.25500000920E-02 0. -1.
       -2   -1    0    0    0  501  0.00000000000E+00  0.00000000000E+00 -0.68118128480E+03  0.68118128481E+03  0.25500000920E-02 0.  1.
    10030    2    1    2    0    0  0.00000000000E+00  0.00000000000E+00  0.63629080006E+03  0.19986533697E+04  0.18946633764E+04 0.  0.
        2    1    3    3  502    0 -0.53360540743E+02 -0.76080485845E+03 -0.27462712582E+03  0.81061176786E+03  0.25500000920E-02 0.  1.
       -2    1    3    3    0  502  0.53360540743E+02  0.76080485845E+03  0.91091792588E+03  0.11880416018E+04  0.25500000920E-02 0. -1.
</event>
<event>
 5   0  0.2317458E-04  0.1846356E+04  0.7818609E-02  0.8682029E-01
       -1   -1    0    0    0  501  0.00000000000E+00  0.00000000000E+00  0.58833854703E+03  0.58833854705E+03  0.50400001928E-02 0. -1.
        1   -1    0    0  501    0  0.00000000000E+00  0.00000000000E+00 -0.14485834887E+04  0.14485834887E+04  0.50400001928E-02 0.  1.
    10030    2    1    2    0    0  0.00000000000E+00  0.00000000000E+00 -0.86024494168E+03  0.20369220358E+04  0.18463558758E+04 0.  0.
        3    1    3    3  502    0  0.25623958283E+03 -0.70317007352E+03  0.16617421948E+03  0.76662947864E+03  0.10100000352E+00 0. -1.
       -3    1    3    3    0  502 -0.25623958283E+03  0.70317007352E+03 -0.10264191612E+04  0.12702925571E+04  0.10100000352E+00 0.  1.
</event>
<event>
 5   0  0.4839293E-04  0.1825252E+04  0.7818609E-02  0.8692985E-01
        2   -1    0    0  501    0  0.00000000000E+00  0.00000000000E+00  0.25550278111E+04  0.25550278111E+04  0.25500000920E-02 0. -1.
       -2   -1    0    0    0  501  0.00000000000E+00  0.00000000000E+00 -0.32597939021E+03  0.32597939022E+03  0.25500000920E-02 0.  1.
    10030    2    1    2    0    0  0.00000000000E+00  0.00000000000E+00  0.22290484209E+04  0.28810072014E+04  0.18252522104E+04 0.  0.
        5    1    3    3  502    0 -0.44652365419E+03 -0.53338598249E+03  0.18208196802E+03  0.71906878193E+03  0.46999998093E+01 0.  1.
       -5    1    3    3    0  502  0.44652365419E+03  0.53338598249E+03  0.20469664529E+04  0.21619384194E+04  0.46999998093E+01 0. -1.
</event>
<event>
 5   0  0.4829134E-04  0.1887950E+04  0.7818609E-02  0.8660878E-01
        2   -1    0    0  501    0  0.00000000000E+00  0.00000000000E+00  0.16008022028E+04  0.16008022028E+04  0.25500000920E-02 0.  1.
       -2   -1    0    0    0  501  0.00000000000E+00  0.00000000000E+00 -0.55665133280E+03  0.55665133281E+03  0.25500000920E-02 0. -1.
    10030    2    1    2    0    0  0.00000000000E+00  0.00000000000E+00  0.10441508700E+04  0.21574535356E+04  0.18879498720E+04 0.  0.
        2    1    3    3  502    0  0.23683661991E+03  0.69344145943E+03 -0.15796706323E+03  0.74960405233E+03  0.25500000920E-02 0. -1.
       -2    1    3    3    0  502 -0.23683661991E+03 -0.69344145943E+03  0.12021179333E+04  0.14078494833E+04  0.25500000920E-02 0.  1.
</event>
<event>
 5   0  0.2261755E-04  0.1664372E+04  0.7818609E-02  0.8781949E-01
        1   -1    0    0  501    0  0.00000000000E+00  0.00000000000E+00  0.54525724086E+03  0.54525724089E+03  0.50400001928E-02 0.  1.
       -1   -1    0    0    0  501  0.00000000000E+00  0.00000000000E+00 -0.12701036972E+04  0.12701036972E+04  0.50400001928E-02 0. -1.
    10030    2    1    2    0    0  0.00000000000E+00  0.00000000000E+00 -0.72484645637E+03  0.18153609381E+04  0.16643716383E+04 0.  0.
        1    1    3    3  502    0  0.29827783453E+03  0.71138767831E+03 -0.70298449992E+03  0.10436614885E+04  0.50400001928E-02 0. -1.
       -1    1    3    3    0  502 -0.29827783453E+03 -0.71138767831E+03 -0.21861956457E+02  0.77169944964E+03  0.50400001928E-02 0.  1.
</event>
<event>
 5   0  0.4839293E-04  0.1899334E+04  0.7818609E-02  0.8655188E-01
        2   -1    0    0  501    0  0.00000000000E+00  0.00000000000E+00  0.95153093233E+03  0.95153093233E+03  0.25500000920E-02 0. -1.
       -2   -1    0    0    0  501  0.00000000000E+00  0.00000000000E+00 -0.94780682625E+03  0.94780682625E+03  0.25500000920E-02 0.  1.
    10030    2    1    2    0    0  0.00000000000E+00  0.00000000000E+00  0.37241060761E+01  0.18993377586E+04  0.18993341076E+04 0.  0.
        5    1    3    3  502    0  0.63909568751E+03  0.22424638704E+03 -0.66380857628E+03  0.94836367277E+03  0.46999998093E+01 0.  1.
       -5    1    3    3    0  502 -0.63909568751E+03 -0.22424638704E+03  0.66753268235E+03  0.95097408582E+03  0.46999998093E+01 0. -1.
</event>
<event>
 5   0  0.1729375E-04  0.1903308E+04  0.7818609E-02  0.8653211E-01
       -4   -1    0    0    0  501  0.00000000000E+00  0.00000000000E+00  0.13887885941E+04  0.13887891747E+04  0.12699999809E+01 0.  1.
        4   -1    0    0  501    0  0.00000000000E+00  0.00000000000E+00 -0.65211072615E+03  0.65211196282E+03  0.12699999809E+01 0. -1.
    10030    2    1    2    0    0  0.00000000000E+00  0.00000000000E+00  0.73667786792E+03  0.20409011376E+04  0.19033084806E+04 0.  0.
        4    1    3    3  502    0 -0.19309402952E+03  0.13689904095E+03 -0.62004235903E+03  0.66368726938E+03  0.12699999809E+01 0. -1.
       -4    1    3    3    0  502  0.19309402952E+03 -0.13689904095E+03  0.13567202269E+04  0.13772138682E+04  0.12699999809E+01 0.  1.
</event>
<event>
 5   0  0.4802635E-04  0.1927613E+04  0.7818609E-02  0.8641233E-01
        2   -1    0    0  501    0  0.00000000000E+00  0.00000000000E+00  0.12045582304E+04  0.12045582304E+04  0.25500000920E-02 0. -1.
       -2   -1    0    0    0  501  0.00000000000E+00  0.00000000000E+00 -0.77117287918E+03  0.77117287919E+03  0.25500000920E-02 0.  1.
    10030    2    1    2    0    0  0.00000000000E+00  0.00000000000E+00  0.43338535119E+03  0.19757311096E+04  0.19276126568E+04 0.  0.
        3    1    3    3  502    0  0.49022870215E+03  0.63263497453E+03 -0.33371463020E+03  0.86713127958E+03  0.10100000352E+00 0.  1.
       -3    1    3    3    0  502 -0.49022870215E+03 -0.63263497453E+03  0.76709998138E+03  0.11085998300E+04  0.10100000352E+00 0. -1.
</event>
<event>
 5   0  0.2376359E-04  0.1951553E+04  0.7818609E-02  0.8629612E-01
        1   -1    0    0  501    0  0.00000000000E+00  0.00000000000E+00  0.50600115088E+03  0.50600115091E+03  0.50400001928E-02 0.  1.
       -1   -1    0    0    0  501  0.00000000000E+00  0.00000000000E+00 -0.18816948887E+04  0.18816948887E+04  0.50400001928E-02 0. -1.
    10030    2    1    2    0    0  0.00000000000E+00  0.00000000000E+00 -0.13756937378E+04  0.23876960396E+04  0.19515530014E+04 0.  0.
        2    1    3    3  502    0  0.29065205455E+03  0.26067924640E+03 -0.17819651414E+04  0.18242346481E+04  0.25500000920E-02 0. -1.
       -2    1    3    3    0  502 -0.29065205455E+03 -0.26067924640E+03  0.40627140357E+03  0.56346139148E+03  0.25500000920E-02 0.  1.
</event>
<event>
 5   0  0.2355414E-04  0.1816549E+04  0.7818609E-02  0.8697548E-01
        1   -1    0    0  501    0  0.00000000000E+00  0.00000000000E+00  0.15099810568E+04  0.15099810568E+04  0.50400001928E-02 0.  1.
       -1   -1    0    0    0  501  0.00000000000E+00  0.00000000000E+00 -0.54633975621E+03  0.54633975623E+03  0.50400001928E-02 0. -1.
    10030    2    1    2    0    0  0.00000000000E+00  0.00000000000E+00  0.96364130060E+03  0.20563208130E+04  0.18165491268E+04 0.  0.
        5    1    3    3  502    0 -0.47754200085E+03  0.31125040655E+03 -0.31863318311E+03  0.65304852310E+03  0.46999998093E+01 0. -1.
       -5    1    3    3    0  502  0.47754200085E+03 -0.31125040655E+03  0.12822744837E+04  0.14032722899E+04  0.46999998093E+01 0.  1.
</event>
<event>
 5   0  0.4829134E-04  0.1892571E+04  0.7818609E-02  0.8658563E-01
       -2   -1    0    0    0  501  0.00000000000E+00  0.00000000000E+00  0.85747085383E+03  0.85747085383E+03  0.25500000920E-02 0. -1.
        2   -1    0    0  501    0  0.00000000000E+00  0.00000000000E+00 -0.10442994446E+04  0.10442994446E+04  0.25500000920E-02 0.  1.
    10030    2    1    2    0    0  0.00000000000E+00  0.00000000000E+00 -0.18682859077E+03  0.19017702984E+04  0.18925710940E+04 0.  0.
        2    1    3    3  502    0 -0.42970692388E+03  0.43239035451E+03 -0.82070500078E+03  0.10223336820E+04  0.25500000920E-02 0.  1.
       -2    1    3    3    0  502  0.42970692388E+03 -0.43239035451E+03  0.63387641001E+03  0.87943661641E+03  0.25500000920E-02 0. -1.
</event>
<event>
 5   0  0.4973411E-04  0.1848083E+04  0.7818609E-02  0.8681139E-01
        2   -1    0    0  501    0  0.00000000000E+00  0.00000000000E+00  0.10614148554E+04  0.10614148554E+04  0.25500000920E-02 0.  1.
       -2   -1    0    0    0  501  0.00000000000E+00  0.00000000000E+00 -0.80444772326E+03  0.80444772327E+03  0.25500000920E-02 0. -1.
    10030    2    1    2    0    0  0.00000000000E+00  0.00000000000E+00  0.25696713211E+03  0.18658625786E+04  0.18480830759E+04 0.  0.
        1    1    3    3  502    0  0.17633309771E+03 -0.63712602317E+03  0.78031839488E+03  0.10227021698E+04  0.50400001928E-02 0.  1.
       -1    1    3    3    0  502 -0.17633309771E+03  0.63712602317E+03 -0.52335126277E+03  0.84316040882E+03  0.50400001928E-02 0. -1.
</event>
<event>
 5   0  0.2510069E-04  0.2049649E+04  0.7818609E-02  0.8583754E-01
       -1   -1    0    0    0  501  0.00000000000E+00  0.00000000000E+00  0.62840037625E+03  0.62840037627E+03  0.50400001928E-02 0.  1.
        1   -1    0    0  501    0  0.00000000000E+00  0.00000000000E+00 -0.16713310336E+04  0.16713310336E+04  0.50400001928E-02 0. -1.
    10030    2    1    2    0    0  0.00000000000E+00  0.00000000000E+00 -0.10429306573E+04  0.22997314098E+04  0.20496487995E+04 0.  0.
        4    1    3    3  502    0 -0.45529887849E+03  0.48848673951E+03  0.35078446673E+03  0.75429948855E+03  0.12699999809E+01 0.  1.
       -4    1    3    3    0  502  0.45529887849E+03 -0.48848673951E+03 -0.13937151240E+04  0.15454319213E+04  0.12699999809E+01 0. -1.
</event>
<event>
 5   0  0.2317458E-04  0.1940619E+04  0.7818609E-02  0.8634898E-01
       -1   -1    0    0    0  501  0.00000000000E+00  0.00000000000E+00  0.16442386249E+04  0.16442386249E+04  0.50400001928E-02 0. -1.
        1   -1    0    0  501    0  0.00000000000E+00  0.00000000000E+00 -0.57260564357E+03  0.57260564359E+03  0.50400001928E-02 0.  1.
    10030    2    1    2    0    0  0.00000000000E+00  0.00000000000E+00  0.10716329813E+04  0.22168442685E+04  0.19406187838E+04 0.  0.
        3    1    3    3  502    0  0.61839744864E+03 -0.63627168864E+03  0.87176457868E+02  0.89154742513E+03  0.10100000352E+00 0. -1.
       -3    1    3    3    0  502 -0.61839744864E+03  0.63627168864E+03  0.98445652345E+03  0.13252968434E+04  0.10100000352E+00 0.  1.
</event>
<event>
 5   0  0.4829134E-04  0.1905038E+04  0.7818609E-02  0.8652353E-01
       -2   -1    0    0    0  501  0.00000000000E+00  0.00000000000E+00  0.84409919373E+03  0.84409919373E+03  0.25500000920E-02 0. -1.
        2   -1    0    0  501    0  0.00000000000E+00  0.00000000000E+00 -0.10748650869E+04  0.10748650869E+04  0.25500000920E-02 0.  1.
    10030    2    1    2    0    0  0.00000000000E+00  0.00000000000E+00 -0.23076589313E+03  0.19189642806E+04  0.19050383232E+04 0.  0.
        2    1    3    3  502    0 -0.58608170226E+03 -0.36376895229E+03  0.54628494025E+03  0.87991297770E+03  0.25500000920E-02 0. -1.
       -2    1    3    3    0  502  0.58608170226E+03  0.36376895229E+03 -0.77705083338E+03  0.10390513029E+04  0.25500000920E-02 0.  1.
</event>
<event>
 5   0  0.2317458E-04  0.1616905E+04  0.7818609E-02  0.8810229E-01
        1   -1    0    0  501    0  0.00000000000E+00  0.00000000000E+00  0.64337914481E+03  0.64337914483E+03  0.50400001928E-02 0. -1.
       -1   -1    0    0    0  501  0.00000000000E+00  0.00000000000E+00 -0.10158790385E+04  0.10158790385E+04  0.50400001928E-02 0.  1.
    10030    2    1    2    0    0  0.00000000000E+00  0.00000000000E+00 -0.37249989370E+03  0.16592581833E+04  0.16169049286E+04 0.  0.
        3    1    3    3  502    0  0.80264601976E+03  0.96257100610E+02 -0.17655176738E+03  0.82745187124E+03  0.10100000352E+00 0.  1.
       -3    1    3    3    0  502 -0.80264601976E+03 -0.96257100610E+02 -0.19594812632E+03  0.83180631210E+03  0.10100000352E+00 0. -1.
</event>
<event>
 5   0  0.2261755E-04  0.1959009E+04  0.7818609E-02  0.8626029E-01
        1   -1    0    0  501    0  0.00000000000E+00  0.00000000000E+00  0.76329596395E+03  0.76329596396E+03  0.50400001928E-02 0. -1.
       -1   -1    0    0    0  501  0.00000000000E+00  0.00000000000E+00 -0.12569556686E+04  0.12569556686E+04  0.50400001928E-02 0.  1.
    10030    2    1    2    0    0  0.00000000000E+00  0.00000000000E+00 -0.49365970466E+03  0.20202516326E+04  0.19590091258E+04 0.  0.
        1    1    3    3  502    0  0.56757627679E+03 -0.46509266989E+01  0.57641485603E+03  0.80896140042E+03  0.50400001928E-02 0. -1.
       -1    1    3    3    0  502 -0.56757627679E+03  0.46509266989E+01 -0.10700745607E+04  0.12112902322E+04  0.50400001928E-02 0.  1.
</event>
<event>
 5   0  0.2376359E-04  0.1573526E+04  0.7818609E-02  0.8836979E-01
       -1   -1    0    0    0  501  0.00000000000E+00  0.00000000000E+00  0.65960825718E+03  0.65960825719E+03  0.50400001928E-02 0. -1.
        1   -1    0    0  501    0  0.00000000000E+00  0.00000000000E+00 -0.93842988079E+03  0.93842988081E+03  0.50400001928E-02 0.  1.
    10030    2    1    2    0    0  0.00000000000E+00  0.00000000000E+00 -0.27882162362E+03  0.15980381380E+04  0.15735261017E+04 0.  0.
        2    1    3    3  502    0 -0.54322987993E+03 -0.20646950466E+03  0.39919762219E+03  0.70504404144E+03  0.25500000920E-02 0. -1.
       -2    1    3    3    0  502  0.54322987993E+03  0.20646950466E+03 -0.67801924580E+03  0.89299409656E+03  0.25500000920E-02 0.  1.
</event>
<event>
 5   0  0.4761944E-04  0.1838289E+04  0.7818609E-02  0.8686199E-01
        2   -1    0    0  501    0  0.00000000000E+00  0.00000000000E+00  0.30180792988E+04  0.30180792988E+04  0.25500000920E-02 0.  1.
       -2   -1    0    0    0  501  0.00000000000E+00  0.00000000000E+00 -0.27992198702E+03  0.27992198703E+03  0.25500000920E-02 0. -1.
    10030    2    1    2    0    0  0.00000000000E+00  0.00000000000E+00  0.27381573118E+04  0.32980012858E+04  0.18382891550E+04 0.  0.
        4    1    3    3  502    0  0.80998474629E+03 -0.40377731901E+03  0.10813921275E+04  0.14101496229E+04  0.12699999809E+01 0. -1.
       -4    1    3    3    0  502 -0.80998474629E+03  0.40377731901E+03  0.16567651843E+04  0.18878516630E+04  0.12699999809E+01 0.  1.
</event>
<event>
 5   0  0.1729375E-04  0.1907421E+04  0.7818609E-02  0.8651171E-01
       -4   -1    0    0    0  501  0.00000000000E+00  0.00000000000E+00  0.96701536582E+03  0.96701619978E+03  0.12699999809E+01 0. -1.
        4   -1    0    0  501    0  0.00000000000E+00  0.00000000000E+00 -0.94058732823E+03  0.94058818562E+03  0.12699999809E+01 0.  1.
    10030    2    1    2    0    0  0.00000000000E+00  0.00000000000E+00  0.26428037588E+02  0.19076043854E+04  0.19074213090E+04 0.  0.
        3    1    3    3  502    0  0.50138814271E+03  0.45416416992E+03 -0.65909215624E+03  0.94448803249E+03  0.10100000352E+00 0.  1.
       -3    1    3    3    0  502 -0.50138814271E+03 -0.45416416992E+03  0.68552019383E+03  0.96311635291E+03  0.10100000352E+00 0. -1.
</event>
<event>
 5   0  0.4761944E-04  0.2021013E+04  0.7818609E-02  0.8596859E-01
        2   -1    0    0  501    0  0.00000000000E+00  0.00000000000E+00  0.28251444848E+04  0.28251444848E+04  0.25500000920E-02 0. -1.
       -2   -1    0    0    0  501  0.00000000000E+00  0.00000000000E+00 -0.36144096614E+03  0.36144096615E+03  0.25500000920E-02 0.  1.
    10030    2    1    2    0    0  0.00000000000E+00  0.00000000000E+00  0.24637035187E+04  0.31865854509E+04  0.20210125701E+04 0.  0.
        4    1    3    3  502    0  0.19330461059E+03  0.95497612783E+03  0.80943226978E+03  0.12666997630E+04  0.12699999809E+01 0. -1.
       -4    1    3    3    0  502 -0.19330461059E+03 -0.95497612783E+03  0.16542712489E+04  0.19198856880E+04  0.12699999809E+01 0.  1.
</event>
<event>
 5   0  0.4973411E-04  0.1680252E+04  0.7818609E-02  0.8772708E-01
        2   -1    0    0  501    0  0.00000000000E+00  0.00000000000E+00  0.13499392815E+04  0.13499392815E+04  0.25500000920E-02 0.  1.
       -2   -1    0    0    0  501  0.00000000000E+00  0.00000000000E+00 -0.52284717591E+03  0.52284717592E+03  0.25500000920E-02 0. -1.
    10030    2    1    2    0    0  0.00000000000E+00  0.00000000000E+00  0.82709210563E+03  0.18727864575E+04  0.16802522918E+04 0.  0.
        1    1    3    3  502    0  0.15644500809E+03  0.45877695349E+03 -0.35127519199E+03  0.59861974085E+03  0.50400001928E-02 0. -1.
       -1    1    3    3    0  502 -0.15644500809E+03 -0.45877695349E+03  0.11783672976E+04  0.12741667166E+04  0.50400001928E-02 0.  1.
</event>
<event>
 5   0  0.1729375E-04  0.1900972E+04  0.7818609E-02  0.8654373E-01
        4   -1    0    0  501    0  0.00000000000E+00  0.00000000000E+00  0.16233622166E+04  0.16233627134E+04  0.12699999809E+01 0. -1.
       -4   -1    0    0    0  501  0.00000000000E+00  0.00000000000E+00 -0.55651246311E+03  0.55651391222E+03  0.12699999809E+01 0.  1.
    10030    2    1    2    0    0  0.00000000000E+00  0.00000000000E+00  0.10668497535E+04  0.21798766256E+04  0.19009717795E+04 0.  0.
        4    1    3    3  502    0  0.60877880435E+03  0.60772467661E+03  0.99707433099E+03  0.13168522125E+04  0.12699999809E+01 0. -1.
       -4    1    3    3    0  502 -0.60877880435E+03 -0.60772467661E+03  0.69775422555E+02  0.86302441314E+03  0.12699999809E+01 0.  1.
</event>
<event>
 5   0  0.4802635E-04  0.1814515E+04  0.7818609E-02  0.8698618E-01
        2   -1    0    0  501    0  0.00000000000E+00  0.00000000000E+00  0.59426894870E+03  0.59426894871E+03  0.25500000920E-02 0. -1.
       -2   -1    0    0    0  501  0.00000000000E+00  0.00000000000E+00 -0.13850906253E+04  0.13850906253E+04  0.25500000920E-02 0.  1.
    10030    2    1    2    0    0  0.00000000000E+00  0.00000000000E+00 -0.79082167656E+03  0.19793595740E+04  0.18145151967E+04 0.  0.
        3    1    3    3  502    0  0.31172003544E+03  0.22216286516E+03  0.50186727147E+03  0.63118657109E+03  0.10100000352E+00 0. -1.
       -3    1    3    3    0  502 -0.31172003544E+03 -0.22216286516E+03 -0.12926889480E+04  0.13481730029E+04  0.10100000352E+00 0.  1.
</event>
<event>
 5   0  0.4761944E-04  0.1883170E+04  0.7818609E-02  0.8663279E-01
        2   -1    0    0  501    0  0.00000000000E+00  0.00000000000E+00  0.14962746716E+04  0.14962746716E+04  0.25500000920E-02 0. -1.
       -2   -1    0    0    0  501  0.00000000000E+00  0.00000000000E+00 -0.59252659006E+03  0.59252659006E+03  0.25500000920E-02 0.  1.
    10030    2    1    2    0    0  0.00000000000E+00  0.00000000000E+00  0.90374808159E+03  0.20888012617E+04  0.18831702302E+04 0.  0.
        4    1    3    3  502    0 -0.63130027646E+02  0.39798401212E+03 -0.49205222977E+03  0.63599817926E+03  0.12699999809E+01 0.  1.
       -4    1    3    3    0  502  0.63130027646E+02 -0.39798401212E+03  0.13958003114E+04  0.14528030825E+04  0.12699999809E+01 0. -1.
</event>
<event>
 5   0  0.2317458E-04  0.1901100E+04  0.7818609E-02  0.8654309E-01
       -1   -1    0    0    0  501  0.00000000000E+00  0.00000000000E+00  0.76262186441E+03  0.76262186442E+03  0.50400001928E-02 0.  1.
        1   -1    0    0  501    0  0.00000000000E+00  0.00000000000E+00 -0.11847876731E+04  0.11847876731E+04  0.50400001928E-02 0. -1.
    10030    2    1    2    0    0  0.00000000000E+00  0.00000000000E+00 -0.42216580872E+03  0.19474095376E+04  0.19010996652E+04 0.  0.
        3    1    3    3  502    0  0.39712508599E+03  0.85749546275E+03 -0.10592666710E+03  0.95090865574E+03  0.10100000352E+00 0.  1.
       -3    1    3    3    0  502 -0.39712508599E+03 -0.85749546275E+03 -0.31623914162E+03  0.99650088181E+03  0.10100000352E+00 0. -1.
</event>
<event>
 5   0  0.2376359E-04  0.1934094E+04  0.7818609E-02  0.8638069E-01
        1   -1    0    0  501    0  0.00000000000E+00  0.00000000000E+00  0.72452926566E+03  0.72452926568E+03  0.50400001928E-02 0.  1.
       -1   -1    0    0    0  501  0.00000000000E+00  0.00000000000E+00 -0.12907413687E+04  0.12907413687E+04  0.50400001928E-02 0. -1.
    10030    2    1    2    0    0  0.00000000000E+00  0.00000000000E+00 -0.56621210304E+03  0.20152706344E+04  0.19340939957E+04 0.  0.
        2    1    3    3  502    0  0.80489901161E+03 -0.24250058710E+03 -0.78119774661E+03  0.11475795715E+04  0.25500000920E-02 0. -1.
       -2    1    3    3    0  502 -0.80489901161E+03  0.24250058710E+03  0.21498564357E+03  0.86769106287E+03  0.25500000920E-02 0.  1.
</event>
<event>
 5   0  0.2355414E-04  0.1726163E+04  0.7818609E-02  0.8746582E-01
        1   -1    0    0  501    0  0.00000000000E+00  0.00000000000E+00  0.20840072553E+04  0.20840072553E+04  0.50400001928E-02 0. -1.
       -1   -1    0    0    0  501  0.00000000000E+00  0.00000000000E+00 -0.35744114850E+03  0.35744114854E+03  0.50400001928E-02 0.  1.
    10030    2    1    2    0    0  0.00000000000E+00  0.00000000000E+00  0.17265661068E+04  0.24414484038E+04  0.17261633142E+04 0.  0.
        5    1    3    3  502    0 -0.36107137903E+03 -0.16239440224E+03  0.19479771401E+04  0.19878082179E+04  0.46999998093E+01 0. -1.
       -5    1    3    3    0  502  0.36107137903E+03  0.16239440224E+03 -0.22141103333E+03  0.45364018596E+03  0.46999998093E+01 0.  1.
</event>
<event>
 5   0  0.4761944E-04  0.1900676E+04  0.7818609E-02  0.8654520E-01
        2   -1    0    0  501    0  0.00000000000E+00  0.00000000000E+00  0.11317292699E+04  0.11317292699E+04  0.25500000920E-02 0. -1.
       -2   -1    0    0    0  501  0.00000000000E+00  0.00000000000E+00 -0.79801942229E+03  0.79801942229E+03  0.25500000920E-02 0.  1.
    10030    2    1    2    0    0  0.00000000000E+00  0.00000000000E+00  0.33370984765E+03  0.19297486922E+04  0.19006756043E+04 0.  0.
        4    1    3    3  502    0  0.48271250197E+03 -0.95721155783E+02  0.99228911599E+03  0.11076159993E+04  0.12699999809E+01 0. -1.
       -4    1    3    3    0  502 -0.48271250197E+03  0.95721155783E+02 -0.65857926835E+03  0.82213269295E+03  0.12699999809E+01 0.  1.
</event>
<event>
 5   0  0.2261755E-04  0.1244934E+04  0.7818609E-02  0.9074411E-01
       -1   -1    0    0    0  501  0.00000000000E+00  0.00000000000E+00  0.33060962166E+03  0.33060962170E+03  0.50400001928E-02 0.  1.
        1   -1    0    0  501    0  0.00000000000E+00  0.00000000000E+00 -0.11719709193E+04  0.11719709193E+04  0.50400001928E-02 0. -1.
    10030    2    1    2    0    0  0.00000000000E+00  0.00000000000E+00 -0.84136129763E+03  0.15025805410E+04  0.12449335119E+04 0.  0.
        1    1    3    3  502    0 -0.14210087607E+03  0.44466789597E+03 -0.91765171645E+03  0.10295663502E+04  0.50400001928E-02 0. -1.
       -1    1    3    3    0  502  0.14210087607E+03 -0.44466789597E+03  0.76290418822E+02  0.47301419082E+03  0.50400001928E-02 0.  1.
</event>
<event>
 5   0  0.2355414E-04  0.1883202E+04  0.7818609E-02  0.8663264E-01
       -1   -1    0    0    0  501  0.00000000000E+00  0.00000000000E+00  0.87119768288E+03  0.87119768289E+03  0.50400001928E-02 0. -1.
        1   -1    0    0  501    0  0.00000000000E+00  0.00000000000E+00 -0.10176932415E+04  0.10176932415E+04  0.50400001928E-02 0.  1.
    10030    2    1    2    0    0  0.00000000000E+00  0.00000000000E+00 -0.14649555859E+03  0.18888909244E+04  0.18832015228E+04 0.  0.
        5    1    3    3  502    0 -0.29628356660E+03 -0.89370383983E+03 -0.83247789324E+02  0.94522102685E+03  0.46999998093E+01 0.  1.
       -5    1    3    3    0  502  0.29628356660E+03  0.89370383983E+03 -0.63247769266E+02  0.94366989752E+03  0.46999998093E+01 0. -1.
</event>
<event>
 5   0  0.2261755E-04  0.1937223E+04  0.7818609E-02  0.8636547E-01
        1   -1    0    0  501    0  0.00000000000E+00  0.00000000000E+00  0.11739512811E+04  0.11739512811E+04  0.50400001928E-02 0. -1.
       -1   -1    0    0    0  501  0.00000000000E+00  0.00000000000E+00 -0.79918856583E+03  0.79918856584E+03  0.50400001928E-02 0.  1.
    10030    2    1    2    0    0  0.00000000000E+00  0.00000000000E+00  0.37476271525E+03  0.19731398469E+04  0.19372232093E+04 0.  0.
        1    1    3    3  502    0 -0.25454666323E+03 -0.93196677349E+03  0.25833180844E+03  0.10000456959E+04  0.50400001928E-02 0. -1.
       -1    1    3    3    0  502  0.25454666323E+03  0.93196677349E+03  0.11643090681E+03  0.97309415101E+03  0.50400001928E-02 0.  1.
</event>
<event>
 5   0  0.2376359E-04  0.1917638E+04  0.7818609E-02  0.8646127E-01
       -1   -1    0    0    0  501  0.00000000000E+00  0.00000000000E+00  0.32696460587E+03  0.32696460591E+03  0.50400001928E-02 0. -1.
        1   -1    0    0  501    0  0.00000000000E+00  0.00000000000E+00 -0.28117214903E+04  0.28117214903E+04  0.50400001928E-02 0.  1.
    10030    2    1    2    0    0  0.00000000000E+00  0.00000000000E+00 -0.24847568844E+04  0.31386860962E+04  0.19176375142E+04 0.  0.
        2    1    3    3  502    0  0.76730934830E+03 -0.25023416276E+03 -0.39513077061E+03  0.89861510008E+03  0.25500000920E-02 0. -1.
       -2    1    3    3    0  502 -0.76730934830E+03  0.25023416276E+03 -0.20896261138E+04  0.22400709961E+04  0.25500000920E-02 0.  1.
</event>
<event>
 5   0  0.4839293E-04  0.1861644E+04  0.7818609E-02  0.8674188E-01
       -2   -1    0    0    0  501  0.00000000000E+00  0.00000000000E+00  0.52099376551E+03  0.52099376552E+03  0.25500000920E-02 0.  1.
        2   -1    0    0  501    0  0.00000000000E+00  0.00000000000E+00 -0.16630319199E+04  0.16630319200E+04  0.25500000920E-02 0. -1.
    10030    2    1    2    0    0  0.00000000000E+00  0.00000000000E+00 -0.11420381544E+04  0.21840256855E+04  0.18616436417E+04 0.  0.
        5    1    3    3  502    0 -0.12299903999E+02  0.64329368645E+03  0.21808895499E+03  0.67938423367E+03  0.46999998093E+01 0.  1.
       -5    1    3    3    0  502  0.12299903999E+02 -0.64329368645E+03 -0.13601271094E+04  0.15046414518E+04  0.46999998093E+01 0. -1.
</event>
<event>
 5   0  0.4761944E-04  0.1929659E+04  0.7818609E-02  0.8640232E-01
       -2   -1    0    0    0  501  0.00000000000E+00  0.00000000000E+00  0.12913346933E+04  0.12913346933E+04  0.25500000920E-02 0. -1.
        2   -1    0    0  501    0  0.00000000000E+00  0.00000000000E+00 -0.72087900180E+03  0.72087900181E+03  0.25500000920E-02 0.  1.
    10030    2    1    2    0    0  0.00000000000E+00  0.00000000000E+00  0.57045569145E+03  0.20122136951E+04  0.19296591043E+04 0.  0.
        4    1    3    3  502    0 -0.16779633822E+03  0.90632177368E+03 -0.12138178723E+02  0.92180459797E+03  0.12699999809E+01 0.  1.
       -4    1    3    3    0  502  0.16779633822E+03 -0.90632177368E+03  0.58259387018E+03  0.10904090971E+04  0.12699999809E+01 0. -1.
</event>
<event>
 5   0  0.2317458E-04  0.1634106E+04  0.7818609E-02  0.8799865E-01
       -1   -1    0    0    0  501  0.00000000000E+00  0.00000000000E+00  0.12795209330E+04  0.12795209330E+04  0.50400001928E-02 0.  1.
        1   -1    0    0  501    0  0.00000000000E+00  0.00000000000E+00 -0.52173857986E+03  0.52173857989E+03  0.50400001928E-02 0. -1.
    10030    2    1    2    0    0  0.00000000000E+00  0.00000000000E+00  0.75778235317E+03  0.18012595129E+04  0.16341057916E+04 0.  0.
        3    1    3    3  502    0 -0.12489292667E+03  0.56058937403E+03 -0.26168739860E+03  0.63114102560E+03  0.10100000352E+00 0. -1.
       -3    1    3    3    0  502  0.12489292667E+03 -0.56058937403E+03  0.10194697518E+04  0.11701184873E+04  0.10100000352E+00 0.  1.
</event>
<event>
 5   0  0.2376359E-04  0.1844088E+04  0.7818609E-02  0.8683199E-01
       -1   -1    0    0    0  501  0.00000000000E+00  0.00000000000E+00  0.81501824095E+03  0.81501824096E+03  0.50400001928E-02 0. -1.
        1   -1    0    0  501    0  0.00000000000E+00  0.00000000000E+00 -0.10431245213E+04  0.10431245213E+04  0.50400001928E-02 0.  1.
    10030    2    1    2    0    0  0.00000000000E+00  0.00000000000E+00 -0.22810628031E+03  0.18581427622E+04  0.18440884062E+04 0.  0.
        2    1    3    3  502    0 -0.27406391109E+03 -0.71133820919E+03  0.40860269793E+03  0.86490996062E+03  0.25500000920E-02 0. -1.
       -2    1    3    3    0  502  0.27406391109E+03  0.71133820919E+03 -0.63670897825E+03  0.99323280161E+03  0.25500000920E-02 0.  1.
</event>
<event>
 5   0  0.4761944E-04  0.1029198E+04  0.7818609E-02  0.9277089E-01
        2   -1    0    0  501    0  0.00000000000E+00  0.00000000000E+00  0.16631853268E+04  0.16631853268E+04  0.25500000920E-02 0.  1.
       -2   -1    0    0    0  501  0.00000000000E+00  0.00000000000E+00 -0.15921975178E+03  0.15921975180E+03  0.25500000920E-02 0. -1.
    10030    2    1    2    0    0  0.00000000000E+00  0.00000000000E+00  0.15039655751E+04  0.18224050786E+04  0.10291976582E+04 0.  0.
        4    1    3    3  502    0  0.18737648037E+03  0.19707572644E+03 -0.21597431819E+02  0.27279451847E+03  0.12699999809E+01 0. -1.
       -4    1    3    3    0  502 -0.18737648037E+03 -0.19707572644E+03  0.15255630069E+04  0.15496105602E+04  0.12699999809E+01 0.  1.
</event>
<event>
 5   0  0.2261755E-04  0.1873227E+04  0.7818609E-02  0.8668299E-01
        1   -1    0    0  501    0  0.00000000000E+00  0.00000000000E+00  0.88352311031E+03  0.88352311033E+03  0.50400001928E-02 0.  1.
       -1   -1    0    0    0  501  0.00000000000E+00  0.00000000000E+00 -0.99289414386E+03  0.99289414387E+03  0.50400001928E-02 0. -1.
    10030    2    1    2    0    0  0.00000000000E+00  0.00000000000E+00 -0.10937103355E+03  0.18764172542E+04  0.18732270788E+04 0.  0.
        1    1    3    3  502    0  0.38892041448E+03 -0.43593204815E+03 -0.78801771957E+03  0.98095247886E+03  0.50400001928E-02 0. -1.
       -1    1    3    3    0  502 -0.38892041448E+03  0.43593204815E+03  0.67864668602E+03  0.89546477534E+03  0.50400001928E-02 0.  1.
</event>
<event>
 5   0  0.4973411E-04  0.1927344E+04  0.7818609E-02  0.8641364E-01
       -2   -1    0    0    0  501  0.00000000000E+00  0.00000000000E+00  0.58547134567E+03  0.58547134567E+03  0.25500000920E-02 0.  1.
        2   -1    0    0  501    0  0.00000000000E+00  0.00000000000E+00 -0.15861808023E+04  0.15861808023E+04  0.25500000920E-02 0. -1.
    10030    2    1    2    0    0  0.00000000000E+00  0.00000000000E+00 -0.10007094566E+04  0.21716521480E+04  0.19273436734E+04 0.  0.
        1    1    3    3  502    0  0.54089594428E+03  0.98508657243E+02  0.39141733800E+03  0.67489251782E+03  0.50400001928E-02 0.  1.
       -1    1    3    3    0  502 -0.54089594428E+03 -0.98508657243E+02 -0.13921267946E+04  0.14967596302E+04  0.50400001928E-02 0. -1.
</event>
<event>
 5   0  0.2261755E-04  0.2255600E+04  0.7818609E-02  0.8495636E-01
        1   -1    0    0  501    0  0.00000000000E+00  0.00000000000E+00  0.10344397684E+04  0.10344397684E+04  0.50400001928E-02 0. -1.
       -1   -1    0    0    0  501  0.00000000000E+00  0.00000000000E+00 -0.12295857923E+04  0.12295857923E+04  0.50400001928E-02 0.  1.
    10030    2    1    2    0    0  0.00000000000E+00  0.00000000000E+00 -0.19514602387E+03  0.22640255607E+04  0.22555996473E+04 0.  0.
        1    1    3    3  502    0  0.95289212890E+03  0.55147020557E+03 -0.34304668492E+03  0.11531712037E+04  0.50400001928E-02 0. -1.
       -1    1    3    3    0  502 -0.95289212890E+03 -0.55147020557E+03  0.14790066105E+03  0.11108543570E+04  0.50400001928E-02 0.  1.
</event>
<event>
 5   0  0.2261755E-04  0.1947873E+04  0.7818609E-02  0.8631387E-01
        1   -1    0    0  501    0  0.00000000000E+00  0.00000000000E+00  0.14133555952E+04  0.14133555952E+04  0.50400001928E-02 0. -1.
       -1   -1    0    0    0  501  0.00000000000E+00  0.00000000000E+00 -0.67113496355E+03  0.67113496357E+03  0.50400001928E-02 0.  1.
    10030    2    1    2    0    0  0.00000000000E+00  0.00000000000E+00  0.74222063166E+03  0.20844905588E+04  0.19478730512E+04 0.  0.
        1    1    3    3  502    0 -0.29092998993E+03  0.90991692202E+03  0.57405094479E+03  0.11145059674E+04  0.50400001928E-02 0. -1.
       -1    1    3    3    0  502  0.29092998993E+03 -0.90991692202E+03  0.16816968687E+03  0.96998459144E+03  0.50400001928E-02 0.  1.
</event>
<event>
 5   0  0.4839293E-04  0.1841038E+04  0.7818609E-02  0.8684775E-01
        2   -1    0    0  501    0  0.00000000000E+00  0.00000000000E+00  0.66968409320E+03  0.66968409320E+03  0.25500000920E-02 0.  1.
       -2   -1    0    0    0  501  0.00000000000E+00  0.00000000000E+00 -0.12653065538E+04  0.12653065538E+04  0.25500000920E-02 0. -1.
    10030    2    1    2    0    0  0.00000000000E+00  0.00000000000E+00 -0.59562246064E+03  0.19349906470E+04  0.18410384810E+04 0.  0.
        5    1    3    3  502    0 -0.23832579221E+03  0.63028512553E+03 -0.95693080060E+03  0.11703833431E+04  0.46999998093E+01 0. -1.
       -5    1    3    3    0  502  0.23832579221E+03 -0.63028512553E+03  0.36130833996E+03  0.76460730393E+03  0.46999998093E+01 0.  1.
</event>
<event>
 5   0  0.2355414E-04  0.1948555E+04  0.7818609E-02  0.8631058E-01
        1   -1    0    0  501    0  0.00000000000E+00  0.00000000000E+00  0.91512900080E+03  0.91512900082E+03  0.50400001928E-02 0. -1.
       -1   -1    0    0    0  501  0.00000000000E+00  0.00000000000E+00 -0.10372486707E+04  0.10372486707E+04  0.50400001928E-02 0.  1.
    10030    2    1    2    0    0  0.00000000000E+00  0.00000000000E+00 -0.12211966985E+03  0.19523776715E+04  0.19485546845E+04 0.  0.
        5    1    3    3  502    0 -0.47841898613E+03 -0.71628601005E+03 -0.51719345720E+03  0.10047196309E+04  0.46999998093E+01 0.  1.
       -5    1    3    3    0  502  0.47841898613E+03  0.71628601005E+03  0.39507378736E+03  0.94765804061E+03  0.46999998093E+01 0. -1.
</event>
<event>
 5   0  0.4802635E-04  0.9437514E+03  0.7818609E-02  0.9372484E-01
        2   -1    0    0  501    0  0.00000000000E+00  0.00000000000E+00  0.15016883507E+04  0.15016883508E+04  0.25500000920E-02 0.  1.
       -2   -1    0    0    0  501  0.00000000000E+00  0.00000000000E+00 -0.14827754650E+03  0.14827754653E+03  0.25500000920E-02 0. -1.
    10030    2    1    2    0    0  0.00000000000E+00  0.00000000000E+00  0.13534108042E+04  0.16499658973E+04  0.94375137464E+03 0.  0.
        3    1    3    3  502    0 -0.97855027596E+02 -0.31394001082E+03  0.85031855092E+02  0.33965329882E+03  0.10100000352E+00 0. -1.
       -3    1    3    3    0  502  0.97855027596E+02  0.31394001082E+03  0.12683789492E+04  0.13103125985E+04  0.10100000352E+00 0.  1.
</event>
<event>
 5   0  0.4761944E-04  0.1842832E+04  0.7818609E-02  0.8683848E-01
       -2   -1    0    0    0  501  0.00000000000E+00  0.00000000000E+00  0.48607294057E+03  0.48607294058E+03  0.25500000920E-02 0. -1.
        2   -1    0    0  501    0  0.00000000000E+00  0.00000000000E+00 -0.17466673870E+04  0.17466673870E+04  0.25500000920E-02 0.  1.
    10030    2    1    2    0    0  0.00000000000E+00  0.00000000000E+00 -0.12605944464E+04  0.22327403276E+04  0.18428323342E+04 0.  0.
        4    1    3    3  502    0  0.57490365049E+03  0.20461821308E+03 -0.14667473214E+04  0.15886258648E+04  0.12699999809E+01 0.  1.
       -4    1    3    3    0  502 -0.57490365049E+03 -0.20461821308E+03  0.20615287495E+03  0.64411446283E+03  0.12699999809E+01 0. -1.
</event>
<event>
 5   0  0.4802635E-04  0.1890144E+04  0.7818609E-02  0.8659778E-01
       -2   -1    0    0    0  501  0.00000000000E+00  0.00000000000E+00  0.36401323518E+03  0.36401323519E+03  0.25500000920E-02 0.  1.
        2   -1    0    0  501    0  0.00000000000E+00  0.00000000000E+00 -0.24536511585E+04  0.24536511585E+04  0.25500000920E-02 0. -1.
    10030    2    1    2    0    0  0.00000000000E+00  0.00000000000E+00 -0.20896379233E+04  0.28176643937E+04  0.18901444349E+04 0.  0.
        3    1    3    3  502    0  0.44922899508E+03  0.83007763931E+03 -0.11167126234E+04  0.14621500165E+04  0.10100000352E+00 0. -1.
       -3    1    3    3    0  502 -0.44922899508E+03 -0.83007763931E+03 -0.97292529988E+03  0.13555143771E+04  0.10100000352E+00 0.  1.
</event>
<event>
 5   0  0.4973411E-04  0.1930609E+04  0.7818609E-02  0.8639769E-01
       -2   -1    0    0    0  501  0.00000000000E+00  0.00000000000E+00  0.77253247521E+03  0.77253247521E+03  0.25500000920E-02 0. -1.
        2   -1    0    0  501    0  0.00000000000E+00  0.00000000000E+00 -0.12061795284E+04  0.12061795284E+04  0.25500000920E-02 0.  1.
    10030    2    1    2    0    0  0.00000000000E+00  0.00000000000E+00 -0.43364705315E+03  0.19787120036E+04  0.19306090817E+04 0.  0.
        1    1    3    3  502    0  0.61462963252E+03 -0.73836843326E+03 -0.31327093746E+03  0.10104930523E+04  0.50400001928E-02 0.  1.
       -1    1    3    3    0  502 -0.61462963252E+03  0.73836843326E+03 -0.12037611569E+03  0.96821895130E+03  0.50400001928E-02 0. -1.
</event>
<event>
 5   0  0.2376359E-04  0.1187914E+04  0.7818609E-02  0.9123502E-01
       -1   -1    0    0    0  501  0.00000000000E+00  0.00000000000E+00  0.31128257728E+03  0.31128257732E+03  0.50400001928E-02 0.  1.
        1   -1    0    0  501    0  0.00000000000E+00  0.00000000000E+00 -0.11333268262E+04  0.11333268262E+04  0.50400001928E-02 0. -1.
    10030    2    1    2    0    0  0.00000000000E+00  0.00000000000E+00 -0.82204424889E+03  0.14446094035E+04  0.11879139622E+04 0.  0.
        2    1    3    3  502    0  0.92704071782E+02 -0.38071245086E+03  0.13180731808E+03  0.41341164022E+03  0.25500000920E-02 0.  1.
       -2    1    3    3    0  502 -0.92704071782E+02  0.38071245086E+03 -0.95385156697E+03  0.10311977633E+04  0.25500000920E-02 0. -1.
</event>
<event>
 5   0  0.2510069E-04  0.1890568E+04  0.7818609E-02  0.8659565E-01
        1   -1    0    0  501    0  0.00000000000E+00  0.00000000000E+00  0.11208463495E+04  0.11208463495E+04  0.50400001928E-02 0.  1.
       -1   -1    0    0    0  501  0.00000000000E+00  0.00000000000E+00 -0.79722095666E+03  0.79722095668E+03  0.50400001928E-02 0. -1.
    10030    2    1    2    0    0  0.00000000000E+00  0.00000000000E+00  0.32362539284E+03  0.19180673062E+04  0.18905683791E+04 0.  0.
        4    1    3    3  502    0 -0.27127032199E+03 -0.87614948396E+03  0.39390882719E+03  0.99819401064E+03  0.12699999809E+01 0.  1.
       -4    1    3    3    0  502  0.27127032199E+03  0.87614948396E+03 -0.70283434347E+02  0.91987329556E+03  0.12699999809E+01 0. -1.
</event>
<event>
 5   0  0.4839293E-04  0.1732133E+04  0.7818609E-02  0.8743247E-01
       -2   -1    0    0    0  501  0.00000000000E+00  0.00000000000E+00  0.55736224031E+03  0.55736224031E+03  0.25500000920E-02 0. -1.
        2   -1    0    0  501    0  0.00000000000E+00  0.00000000000E+00 -0.13457512793E+04  0.13457512793E+04  0.25500000920E-02 0.  1.
    10030    2    1    2    0    0  0.00000000000E+00  0.00000000000E+00 -0.78838903895E+03  0.19031135196E+04  0.17321327292E+04 0.  0.
        5    1    3    3  502    0  0.53068249696E+03  0.63802501846E+03 -0.66633136441E+03  0.10642929174E+04  0.46999998093E+01 0.  1.
       -5    1    3    3    0  502 -0.53068249696E+03 -0.63802501846E+03 -0.12205767453E+03  0.83882060220E+03  0.46999998093E+01 0. -1.
</event>
<event>
 5   0  0.2261755E-04  0.1883740E+04  0.7818609E-02  0.8662993E-01
        1   -1    0    0  501    0  0.00000000000E+00  0.00000000000E+00  0.12215198275E+04  0.12215198275E+04  0.50400001928E-02 0.  1.
       -1   -1    0    0    0  501  0.00000000000E+00  0.00000000000E+00 -0.72624220748E+03  0.72624220749E+03  0.50400001928E-02 0. -1.
    10030    2    1    2    0    0  0.00000000000E+00  0.00000000000E+00  0.49527762002E+03  0.19477620350E+04  0.18837401689E+04 0.  0.
        1    1    3    3  502    0  0.72909977910E+03 -0.42497807585E+03 -0.18481784105E+03  0.86391578712E+03  0.50400001928E-02 0. -1.
       -1    1    3    3    0  502 -0.72909977910E+03  0.42497807585E+03  0.68009546107E+03  0.10838462479E+04  0.50400001928E-02 0.  1.
</event>
<event>
 5   0  0.2510069E-04  0.1844614E+04  0.7818609E-02  0.8682927E-01
       -1   -1    0    0    0  501  0.00000000000E+00  0.00000000000E+00  0.83936493980E+03  0.83936493982E+03  0.50400001928E-02 0.  1.
        1   -1    0    0  501    0  0.00000000000E+00  0.00000000000E+00 -0.10134455400E+04  0.10134455400E+04  0.50400001928E-02 0. -1.
    10030    2    1    2    0    0  0.00000000000E+00  0.00000000000E+00 -0.17408060023E+03  0.18528104799E+04  0.18446144906E+04 0.  0.
        4    1    3    3  502    0 -0.90269072042E+03 -0.53006197958E+02  0.95395034636E+02  0.90926454857E+03  0.12699999809E+01 0.  1.
       -4    1    3    3    0  502  0.90269072042E+03  0.53006197958E+02 -0.26947563487E+03  0.94354593129E+03  0.12699999809E+01 0. -1.
</event>
<event>
 5   0  0.2355414E-04  0.1502298E+04  0.7818609E-02  0.8882927E-01
       -1   -1    0    0    0  501  0.00000000000E+00  0.00000000000E+00  0.49039473734E+03  0.49039473737E+03  0.50400001928E-02 0.  1.
        1   -1    0    0  501    0  0.00000000000E+00  0.00000000000E+00 -0.11505515995E+04  0.11505515995E+04  0.50400001928E-02 0. -1.
    10030    2    1    2    0    0  0.00000000000E+00  0.00000000000E+00 -0.66015686216E+03  0.16409463369E+04  0.15022975064E+04 0.  0.
        5    1    3    3  502    0 -0.82595189158E+02 -0.73957002914E+03 -0.21859746552E+03  0.77562409400E+03  0.46999998093E+01 0.  1.
       -5    1    3    3    0  502  0.82595189158E+02  0.73957002914E+03 -0.44155939664E+03  0.86532224288E+03  0.46999998093E+01 0. -1.
</event>
<event>
 5   0  0.4761944E-04  0.1626176E+04  0.7818609E-02  0.8804627E-01
       -2   -1    0    0    0  501  0.00000000000E+00  0.00000000000E+00  0.82490388101E+03  0.82490388102E+03  0.25500000920E-02 0.  1.
        2   -1    0    0  501    0  0.00000000000E+00  0.00000000000E+00 -0.80144111274E+03  0.80144111274E+03  0.25500000920E-02 0. -1.
    10030    2    1    2    0    0  0.00000000000E+00  0.00000000000E+00  0.23462768275E+02  0.16263449938E+04  0.16261757400E+04 0.  0.
        4    1    3    3  502    0  0.46633901817E+03 -0.63634424799E+03  0.20848566426E+03  0.81601100907E+03  0.12699999809E+01 0. -1.
       -4    1    3    3    0  502 -0.46633901817E+03  0.63634424799E+03 -0.18502289598E+03  0.81033398470E+03  0.12699999809E+01 0.  1.
</event>
<event>
 5   0  0.2261755E-04  0.1812783E+04  0.7818609E-02  0.8699531E-01
       -1   -1    0    0    0  501  0.00000000000E+00  0.00000000000E+00  0.11152589586E+04  0.11152589586E+04  0.50400001928E-02 0.  1.
        1   -1    0    0  501    0  0.00000000000E+00  0.00000000000E+00 -0.73664088846E+03  0.73664088848E+03  0.50400001928E-02 0. -1.
    10030    2    1    2    0    0  0.00000000000E+00  0.00000000000E+00  0.37861807009E+03  0.18518998470E+04  0.18127827781E+04 0.  0.
        1    1    3    3  502    0 -0.66411933184E+03 -0.61672109234E+03  0.17696705523E+03  0.92342662477E+03  0.50400001928E-02 0. -1.
       -1    1    3    3    0  502  0.66411933184E+03  0.61672109234E+03  0.20165101486E+03  0.92847322228E+03  0.50400001928E-02 0.  1.
</event>
<event>
 5   0  0.4829134E-04  0.1945162E+04  0.7818609E-02  0.8632697E-01
        2   -1    0    0  501    0  0.00000000000E+00  0.00000000000E+00  0.16408768748E+04  0.16408768748E+04  0.25500000920E-02 0.  1.
       -2   -1    0    0    0  501  0.00000000000E+00  0.00000000000E+00 -0.57646866406E+03  0.57646866406E+03  0.25500000920E-02 0. -1.
    10030    2    1    2    0    0  0.00000000000E+00  0.00000000000E+00  0.10644082107E+04  0.22173455389E+04  0.19451623068E+04 0.  0.
        2    1    3    3  502    0 -0.54504047708E+03  0.74227852467E+02 -0.38211162109E+03  0.66976726310E+03  0.25500000920E-02 0. -1.
       -2    1    3    3    0  502  0.54504047708E+03 -0.74227852467E+02  0.14465198318E+04  0.15475782758E+04  0.25500000920E-02 0.  1.
</event>
<event>
 5   0  0.4839293E-04  0.1952130E+04  0.7818609E-02  0.8629334E-01
        2   -1    0    0  501    0  0.00000000000E+00  0.00000000000E+00  0.11569090599E+04  0.11569090599E+04  0.25500000920E-02 0.  1.
       -2   -1    0    0    0  501  0.00000000000E+00  0.00000000000E+00 -0.82348972283E+03  0.82348972283E+03  0.25500000920E-02 0. -1.
    10030    2    1    2    0    0  0.00000000000E+00  0.00000000000E+00  0.33341933704E+03  0.19803987827E+04  0.19521298328E+04 0.  0.
        5    1    3    3  502    0  0.23009818600E+03  0.36402886869E+03 -0.72188451898E+03  0.84059594406E+03  0.46999998093E+01 0. -1.
       -5    1    3    3    0  502 -0.23009818600E+03 -0.36402886869E+03  0.10553038560E+04  0.11398028386E+04  0.46999998093E+01 0.  1.
</event>
<event>
 5   0  0.2317458E-04  0.1758040E+04  0.7818609E-02  0.8728937E-01
       -1   -1    0    0    0  501  0.00000000000E+00  0.00000000000E+00  0.59870128973E+03  0.59870128975E+03  0.50400001928E-02 0.  1.
        1   -1    0    0  501    0  0.00000000000E+00  0.00000000000E+00 -0.12905875441E+04  0.12905875441E+04  0.50400001928E-02 0. -1.
    10030    2    1    2    0    0  0.00000000000E+00  0.00000000000E+00 -0.69188625433E+03  0.18892888338E+04  0.17580403035E+04 0.  0.
        3    1    3    3  502    0 -0.32995223447E+03  0.77626631824E+03 -0.61183865051E+03  0.10420193944E+04  0.10100000352E+00 0. -1.
       -3    1    3    3    0  502  0.32995223447E+03 -0.77626631824E+03 -0.80047603828E+02  0.84726943941E+03  0.10100000352E+00 0.  1.
</event>
<event>
 5   0  0.2355414E-04  0.1928749E+04  0.7818609E-02  0.8640677E-01
        1   -1    0    0  501    0  0.00000000000E+00  0.00000000000E+00  0.15782546643E+04  0.15782546643E+04  0.50400001928E-02 0. -1.
       -1   -1    0    0    0  501  0.00000000000E+00  0.00000000000E+00 -0.58926991992E+03  0.58926991994E+03  0.50400001928E-02 0.  1.
    10030    2    1    2    0    0  0.00000000000E+00  0.00000000000E+00  0.98898474437E+03  0.21675245842E+04  0.19287488169E+04 0.  0.
        5    1    3    3  502    0 -0.94435176053E+02 -0.35958760145E+03  0.14944674117E+04  0.15400247336E+04  0.46999998093E+01 0. -1.
       -5    1    3    3    0  502  0.94435176053E+02  0.35958760145E+03 -0.50548266730E+03  0.62749985063E+03  0.46999998093E+01 0.  1.
</event>
<event>
 5   0  0.4829134E-04  0.1893611E+04  0.7818609E-02  0.8658043E-01
        2   -1    0    0  501    0  0.00000000000E+00  0.00000000000E+00  0.10040153644E+04  0.10040153644E+04  0.25500000920E-02 0. -1.
       -2   -1    0    0    0  501  0.00000000000E+00  0.00000000000E+00 -0.89285542375E+03  0.89285542376E+03  0.25500000920E-02 0.  1.
    10030    2    1    2    0    0  0.00000000000E+00  0.00000000000E+00  0.11115994063E+03  0.18968707881E+04  0.18936109037E+04 0.  0.
        2    1    3    3  502    0 -0.69224677769E+03 -0.64023984490E+03  0.14133051175E+03  0.95346052554E+03  0.25500000920E-02 0.  1.
       -2    1    3    3    0  502  0.69224677769E+03  0.64023984490E+03 -0.30170571123E+02  0.94341026260E+03  0.25500000920E-02 0. -1.
</event>
<event>
 5   0  0.2510069E-04  0.1936537E+04  0.7818609E-02  0.8636880E-01
        1   -1    0    0  501    0  0.00000000000E+00  0.00000000000E+00  0.13420576739E+04  0.13420576739E+04  0.50400001928E-02 0.  1.
       -1   -1    0    0    0  501  0.00000000000E+00  0.00000000000E+00 -0.69858713514E+03  0.69858713516E+03  0.50400001928E-02 0. -1.
    10030    2    1    2    0    0  0.00000000000E+00  0.00000000000E+00  0.64347053879E+03  0.20406448091E+04  0.19365373486E+04 0.  0.
        4    1    3    3  502    0 -0.55172902623E+03  0.75483763733E+03  0.58697691149E+03  0.11039602731E+04  0.12699999809E+01 0.  1.
       -4    1    3    3    0  502  0.55172902623E+03 -0.75483763733E+03  0.56493627302E+02  0.93668453598E+03  0.12699999809E+01 0. -1.
</event>
<event>
 5   0  0.4802635E-04  0.1908842E+04  0.7818609E-02  0.8650468E-01
       -2   -1    0    0    0  501  0.00000000000E+00  0.00000000000E+00  0.13372728382E+04  0.13372728382E+04  0.25500000920E-02 0. -1.
        2   -1    0    0  501    0  0.00000000000E+00  0.00000000000E+00 -0.68117660390E+03  0.68117660391E+03  0.25500000920E-02 0.  1.
    10030    2    1    2    0    0  0.00000000000E+00  0.00000000000E+00  0.65609623426E+03  0.20184494421E+04  0.19088415025E+04 0.  0.
        3    1    3    3  502    0 -0.37394918142E+03 -0.56885076613E+03 -0.37931036440E+03  0.77929811186E+03  0.10100000352E+00 0.  1.
       -3    1    3    3    0  502  0.37394918142E+03  0.56885076613E+03  0.10354065987E+04  0.12391513302E+04  0.10100000352E+00 0. -1.
</event>
<event>
 5   0  0.4839293E-04  0.1892568E+04  0.7818609E-02  0.8658564E-01
       -2   -1    0    0    0  501  0.00000000000E+00  0.00000000000E+00  0.86268921386E+03  0.86268921386E+03  0.25500000920E-02 0. -1.
        2   -1    0    0  501    0  0.00000000000E+00  0.00000000000E+00 -0.10379795183E+04  0.10379795183E+04  0.25500000920E-02 0.  1.
    10030    2    1    2    0    0  0.00000000000E+00  0.00000000000E+00 -0.17529030448E+03  0.19006687322E+04  0.18925683445E+04 0.  0.
        5    1    3    3  502    0  0.56919518528E+03  0.44820708281E+03 -0.69898609280E+03  0.10067156480E+04  0.46999998093E+01 0.  1.
       -5    1    3    3    0  502 -0.56919518528E+03 -0.44820708281E+03  0.52369578832E+03  0.89395308419E+03  0.46999998093E+01 0. -1.
</event>
<event>
 5   0  0.4973411E-04  0.1913747E+04  0.7818609E-02  0.8648044E-01
       -2   -1    0    0    0  501  0.00000000000E+00  0.00000000000E+00  0.48470959433E+03  0.48470959434E+03  0.25500000920E-02 0. -1.
        2   -1    0    0  501    0  0.00000000000E+00  0.00000000000E+00 -0.18889802730E+04  0.18889802730E+04  0.25500000920E-02 0.  1.
    10030    2    1    2    0    0  0.00000000000E+00  0.00000000000E+00 -0.14042706787E+04  0.23736898674E+04  0.19137469653E+04 0.  0.
        1    1    3    3  502    0 -0.37808522628E+03 -0.82103314929E+03 -0.10915357440E+04  0.14172135164E+04  0.50400001928E-02 0.  1.
       -1    1    3    3    0  502  0.37808522628E+03  0.82103314929E+03 -0.31273493469E+03  0.95647635097E+03  0.50400001928E-02 0. -1.
</event>
<event>
 5   0  0.2261755E-04  0.1940581E+04  0.7818609E-02  0.8634916E-01
        1   -1    0    0  501    0  0.00000000000E+00  0.00000000000E+00  0.10807090914E+04  0.10807090914E+04  0.50400001928E-02 0. -1.
       -1   -1    0    0    0  501  0.00000000000E+00  0.00000000000E+00 -0.87115393212E+03  0.87115393214E+03  0.50400001928E-02 0.  1.
    10030    2    1    2    0    0  0.00000000000E+00  0.00000000000E+00  0.20955515929E+03  0.19518630236E+04  0.19405813299E+04 0.  0.
        1    1    3    3  502    0  0.72720668298E+03  0.58480647337E+03 -0.16254148482E+03  0.94723170628E+03  0.50400001928E-02 0.  1.
       -1    1    3    3    0  502 -0.72720668298E+03 -0.58480647337E+03  0.37209664411E+03  0.10046313173E+04  0.50400001928E-02 0. -1.
</event>
<event>
 5   0  0.4973411E-04  0.1886559E+04  0.7818609E-02  0.8661576E-01
        2   -1    0    0  501    0  0.00000000000E+00  0.00000000000E+00  0.96365086324E+03  0.96365086324E+03  0.25500000920E-02 0.  1.
       -2   -1    0    0    0  501  0.00000000000E+00  0.00000000000E+00 -0.92333847230E+03  0.92333847230E+03  0.25500000920E-02 0. -1.
    10030    2    1    2    0    0  0.00000000000E+00  0.00000000000E+00  0.40312390937E+02  0.18869893355E+04  0.18865586828E+04 0.  0.
        1    1    3    3  502    0  0.76333994793E+03 -0.43265492651E+03 -0.32618539853E+03  0.93609565524E+03  0.50400001928E-02 0. -1.
       -1    1    3    3    0  502 -0.76333994793E+03  0.43265492651E+03  0.36649778946E+03  0.95089368030E+03  0.50400001928E-02 0.  1.
</event>
<event>
 5   0  0.2261755E-04  0.1905931E+04  0.7818609E-02  0.8651910E-01
       -1   -1    0    0    0  501  0.00000000000E+00  0.00000000000E+00  0.10550465664E+04  0.10550465664E+04  0.50400001928E-02 0.  1.
        1   -1    0    0  501    0  0.00000000000E+00  0.00000000000E+00 -0.86076084043E+03  0.86076084045E+03  0.50400001928E-02 0. -1.
    10030    2    1    2    0    0  0.00000000000E+00  0.00000000000E+00  0.19428572596E+03  0.19158074069E+04  0.19059305016E+04 0.  0.
        1    1    3    3  502    0  0.50091920378E+03  0.75386068439E+03 -0.20259159504E+03  0.92750705366E+03  0.50400001928E-02 0. -1.
       -1    1    3    3    0  502 -0.50091920378E+03 -0.75386068439E+03  0.39687732100E+03  0.98830035320E+03  0.50400001928E-02 0.  1.
</event>
<event>
 5   0  0.4761944E-04  0.1896171E+04  0.7818609E-02  0.8656765E-01
        2   -1    0    0  501    0  0.00000000000E+00  0.00000000000E+00  0.12126426369E+04  0.12126426369E+04  0.25500000920E-02 0.  1.
       -2   -1    0    0    0  501  0.00000000000E+00  0.00000000000E+00 -0.74124539699E+03  0.74124539700E+03  0.25500000920E-02 0. -1.
    10030    2    1    2    0    0  0.00000000000E+00  0.00000000000E+00  0.47139723993E+03  0.19538880339E+04  0.18961706388E+04 0.  0.
        4    1    3    3  502    0  0.78729865775E+03 -0.46144408661E+03 -0.29215059911E+02  0.91303064253E+03  0.12699999809E+01 0.  1.
       -4    1    3    3    0  502 -0.78729865775E+03  0.46144408661E+03  0.50061229984E+03  0.10408573914E+04  0.12699999809E+01 0. -1.
</event>
<event>
 5   0  0.2261755E-04  0.1830923E+04  0.7818609E-02  0.8690025E-01
       -1   -1    0    0    0  501  0.00000000000E+00  0.00000000000E+00  0.48288390498E+03  0.48288390501E+03  0.50400001928E-02 0.  1.
        1   -1    0    0  501    0  0.00000000000E+00  0.00000000000E+00 -0.17355519051E+04  0.17355519051E+04  0.50400001928E-02 0. -1.
    10030    2    1    2    0    0  0.00000000000E+00  0.00000000000E+00 -0.12526680001E+04  0.22184358101E+04  0.18309233531E+04 0.  0.
        1    1    3    3  502    0  0.16616791517E+03 -0.37384391304E+03 -0.16186284067E+04  0.16695295644E+04  0.50400001928E-02 0. -1.
       -1    1    3    3    0  502 -0.16616791517E+03  0.37384391304E+03  0.36596040661E+03  0.54890624571E+03  0.50400001928E-02 0.  1.
</event>
<event>
 5   0  0.4839293E-04  0.1018536E+04  0.7818609E-02  0.9288446E-01
       -2   -1    0    0    0  501  0.00000000000E+00  0.00000000000E+00  0.45128092851E+03  0.45128092852E+03  0.25500000920E-02 0.  1.
        2   -1    0    0  501    0  0.00000000000E+00  0.00000000000E+00 -0.57470565838E+03  0.57470565839E+03  0.25500000920E-02 0. -1.
    10030    2    1    2    0    0  0.00000000000E+00  0.00000000000E+00 -0.12342472987E+03  0.10259865869E+04  0.10185356216E+04 0.  0.
        5    1    3    3  502    0 -0.33683831811E+03 -0.13611506753E+03 -0.42117613842E+03  0.55623627509E+03  0.46999998093E+01 0. -1.
       -5    1    3    3    0  502  0.33683831811E+03  0.13611506753E+03  0.29775140855E+03  0.46975031181E+03  0.46999998093E+01 0.  1.
</event>
<event>
 5   0  0.4839293E-04  0.1936727E+04  0.7818609E-02  0.8636788E-01
       -2   -1    0    0    0  501  0.00000000000E+00  0.00000000000E+00  0.88126670202E+03  0.88126670202E+03  0.25500000920E-02 0. -1.
        2   -1    0    0  501    0  0.00000000000E+00  0.00000000000E+00 -0.10640678175E+04  0.10640678175E+04  0.25500000920E-02 0.  1.
    10030    2    1    2    0    0  0.00000000000E+00  0.00000000000E+00 -0.18280111552E+03  0.19453345196E+04  0.19367266573E+04 0.  0.
        5    1    3    3  502    0 -0.45429910648E+03 -0.43576595987E+03  0.64768622378E+03  0.90321602311E+03  0.46999998093E+01 0. -1.
       -5    1    3    3    0  502  0.45429910648E+03  0.43576595987E+03 -0.83048733929E+03  0.10421184965E+04  0.46999998093E+01 0.  1.
</event>
<event>
 5   0  0.4829134E-04  0.1734109E+04  0.7818609E-02  0.8742146E-01
       -2   -1    0    0    0  501  0.00000000000E+00  0.00000000000E+00  0.26018588096E+03  0.26018588097E+03  0.25500000920E-02 0. -1.
        2   -1    0    0  501    0  0.00000000000E+00  0.00000000000E+00 -0.28894093326E+04  0.28894093326E+04  0.25500000920E-02 0.  1.
    10030    2    1    2    0    0  0.00000000000E+00  0.00000000000E+00 -0.26292234517E+04  0.31495952136E+04  0.17341090077E+04 0.  0.
        2    1    3    3  502    0  0.74926767042E+03 -0.31973006278E+03 -0.18538736385E+04  0.20249634126E+04  0.25500000920E-02 0.  1.
       -2    1    3    3    0  502 -0.74926767042E+03  0.31973006278E+03 -0.77534981321E+03  0.11246318010E+04  0.25500000920E-02 0. -1.
</event>
<event>
 5   0  0.4829134E-04  0.1939358E+04  0.7818609E-02  0.8635509E-01
        2   -1    0    0  501    0  0.00000000000E+00  0.00000000000E+00  0.86827266644E+03  0.86827266644E+03  0.25500000920E-02 0.  1.
       -2   -1    0    0    0  501  0.00000000000E+00  0.00000000000E+00 -0.10829291269E+04  0.10829291269E+04  0.25500000920E-02 0. -1.
    10030    2    1    2    0    0  0.00000000000E+00  0.00000000000E+00 -0.21465646048E+03  0.19512017934E+04  0.19393584100E+04 0.  0.
        2    1    3    3  502    0 -0.87438981612E+02 -0.34934177979E+03 -0.10131555207E+04  0.10752531626E+04  0.25500000920E-02 0. -1.
       -2    1    3    3    0  502  0.87438981612E+02  0.34934177979E+03  0.79849906019E+03  0.87594863076E+03  0.25500000920E-02 0.  1.
</event>
<event>
 5   0  0.4973411E-04  0.1359630E+04  0.7818609E-02  0.8983570E-01
        2   -1    0    0  501    0  0.00000000000E+00  0.00000000000E+00  0.66598847528E+03  0.66598847529E+03  0.25500000920E-02 0. -1.
       -2   -1    0    0    0  501  0.00000000000E+00  0.00000000000E+00 -0.69392900984E+03  0.69392900984E+03  0.25500000920E-02 0.  1.
    10030    2    1    2    0    0  0.00000000000E+00  0.00000000000E+00 -0.27940534557E+02  0.13599174851E+04  0.13596304251E+04 0.  0.
        1    1    3    3  502    0  0.11600989644E+03  0.43634928564E+03 -0.52229969340E+03  0.69040275557E+03  0.50400001928E-02 0.  1.
       -1    1    3    3    0  502 -0.11600989644E+03 -0.43634928564E+03  0.49435915884E+03  0.66951472956E+03  0.50400001928E-02 0. -1.
</event>
<event>
 5   0  0.2355414E-04  0.1872332E+04  0.7818609E-02  0.8668752E-01
        1   -1    0    0  501    0  0.00000000000E+00  0.00000000000E+00  0.11550072560E+04  0.11550072560E+04  0.50400001928E-02 0. -1.
       -1   -1    0    0    0  501  0.00000000000E+00  0.00000000000E+00 -0.75878906822E+03  0.75878906824E+03  0.50400001928E-02 0.  1.
    10030    2    1    2    0    0  0.00000000000E+00  0.00000000000E+00  0.39621818776E+03  0.19137963242E+04  0.18723321068E+04 0.  0.
        5    1    3    3  502    0 -0.29343140933E+02 -0.86025977681E+03  0.57433217375E+03  0.10347885964E+04  0.46999998093E+01 0. -1.
       -5    1    3    3    0  502  0.29343140933E+02  0.86025977681E+03 -0.17811398599E+03  0.87900772779E+03  0.46999998093E+01 0.  1.
</event>
<event>
 5   0  0.2317458E-04  0.1776546E+04  0.7818609E-02  0.8718872E-01
        1   -1    0    0  501    0  0.00000000000E+00  0.00000000000E+00  0.60664947186E+03  0.60664947188E+03  0.50400001928E-02 0. -1.
       -1   -1    0    0    0  501  0.00000000000E+00  0.00000000000E+00 -0.13006344396E+04  0.13006344396E+04  0.50400001928E-02 0.  1.
    10030    2    1    2    0    0  0.00000000000E+00  0.00000000000E+00 -0.69398496773E+03  0.19072839115E+04  0.17765463077E+04 0.  0.
        3    1    3    3  502    0  0.33661463528E+03 -0.65104801205E+03  0.19179213259E+03  0.75759960336E+03  0.10100000352E+00 0. -1.
       -3    1    3    3    0  502 -0.33661463528E+03  0.65104801205E+03 -0.88577710032E+03  0.11496843081E+04  0.10100000352E+00 0.  1.
</event>
<event>
 5   0  0.4802635E-04  0.1801526E+04  0.7818609E-02  0.8705488E-01
        2   -1    0    0  501    0  0.00000000000E+00  0.00000000000E+00  0.12937874152E+04  0.12937874152E+04  0.25500000920E-02 0. -1.
       -2   -1    0    0    0  501  0.00000000000E+00  0.00000000000E+00 -0.62713088060E+03  0.62713088060E+03  0.25500000920E-02 0.  1.
    10030    2    1    2    0    0  0.00000000000E+00  0.00000000000E+00  0.66665653463E+03  0.19209182958E+04  0.18015260653E+04 0.  0.
        3    1    3    3  502    0 -0.13194383527E+03  0.12002218237E+03 -0.60811246758E+03  0.63373123906E+03  0.10100000352E+00 0.  1.
       -3    1    3    3    0  502  0.13194383527E+03 -0.12002218237E+03  0.12747690022E+04  0.12871870568E+04  0.10100000352E+00 0. -1.
</event>
<event>
 5   0  0.2261755E-04  0.1917129E+04  0.7818609E-02  0.8646377E-01
       -1   -1    0    0    0  501  0.00000000000E+00  0.00000000000E+00  0.68906908498E+03  0.68906908499E+03  0.50400001928E-02 0. -1.
        1   -1    0    0  501    0  0.00000000000E+00  0.00000000000E+00 -0.13334595289E+04  0.13334595289E+04  0.50400001928E-02 0.  1.
    10030    2    1    2    0    0  0.00000000000E+00  0.00000000000E+00 -0.64439044388E+03  0.20225286139E+04  0.19171288297E+04 0.  0.
        1    1    3    3  502    0  0.78048080263E+03 -0.12876619071E+03 -0.89336101861E+03  0.11932413523E+04  0.50400001928E-02 0. -1.
       -1    1    3    3    0  502 -0.78048080263E+03  0.12876619071E+03  0.24897057473E+03  0.82928726160E+03  0.50400001928E-02 0.  1.
</event>
<event>
 5   0  0.4829134E-04  0.1830529E+04  0.7818609E-02  0.8690231E-01
        2   -1    0    0  501    0  0.00000000000E+00  0.00000000000E+00  0.18447090351E+04  0.18447090351E+04  0.25500000920E-02 0. -1.
       -2   -1    0    0    0  501  0.00000000000E+00  0.00000000000E+00 -0.45411442608E+03  0.45411442609E+03  0.25500000920E-02 0.  1.
    10030    2    1    2    0    0  0.00000000000E+00  0.00000000000E+00  0.13905946090E+04  0.22988234612E+04  0.18305288687E+04 0.  0.
        2    1    3    3  502    0  0.40474468116E+03 -0.32612897818E+03  0.16413682090E+04  0.17217049588E+04  0.25500000920E-02 0. -1.
       -2    1    3    3    0  502 -0.40474468116E+03  0.32612897818E+03 -0.25077360005E+03  0.57711850241E+03  0.25500000920E-02 0.  1.
</event>
<event>
 5   0  0.2510069E-04  0.1736589E+04  0.7818609E-02  0.8740767E-01
       -1   -1    0    0    0  501  0.00000000000E+00  0.00000000000E+00  0.65031201233E+03  0.65031201234E+03  0.50400001928E-02 0. -1.
        1   -1    0    0  501    0  0.00000000000E+00  0.00000000000E+00 -0.11593434357E+04  0.11593434357E+04  0.50400001928E-02 0.  1.
    10030    2    1    2    0    0  0.00000000000E+00  0.00000000000E+00 -0.50903142339E+03  0.18096554481E+04  0.17365885669E+04 0.  0.
        4    1    3    3  502    0  0.61718417367E+03  0.54165182176E+03 -0.54857727939E+03  0.98754323683E+03  0.12699999809E+01 0. -1.
       -4    1    3    3    0  502 -0.61718417367E+03 -0.54165182176E+03  0.39545856004E+02  0.82211221124E+03  0.12699999809E+01 0.  1.
</event>
<event>
 5   0  0.2261755E-04  0.1888855E+04  0.7818609E-02  0.8660424E-01
        1   -1    0    0  501    0  0.00000000000E+00  0.00000000000E+00  0.10752342121E+04  0.10752342121E+04  0.50400001928E-02 0.  1.
       -1   -1    0    0    0  501  0.00000000000E+00  0.00000000000E+00 -0.82953358623E+03  0.82953358624E+03  0.50400001928E-02 0. -1.
    10030    2    1    2    0    0  0.00000000000E+00  0.00000000000E+00  0.24570062589E+03  0.19047677984E+04  0.18888545651E+04 0.  0.
        1    1    3    3  502    0 -0.11392861148E+02  0.86145499266E+03 -0.26733111220E+03  0.90205344922E+03  0.50400001928E-02 0. -1.
       -1    1    3    3    0  502  0.11392861148E+02 -0.86145499266E+03  0.51303173809E+03  0.10027143491E+04  0.50400001928E-02 0.  1.
</event>
<event>
 5   0  0.2376359E-04  0.2132581E+04  0.7818609E-02  0.8547025E-01
       -1   -1    0    0    0  501  0.00000000000E+00  0.00000000000E+00  0.59751338588E+03  0.59751338590E+03  0.50400001928E-02 0.  1.
        1   -1    0    0  501    0  0.00000000000E+00  0.00000000000E+00 -0.19028458285E+04  0.19028458285E+04  0.50400001928E-02 0. -1.
    10030    2    1    2    0    0  0.00000000000E+00  0.00000000000E+00 -0.13053324426E+04  0.25003592144E+04  0.21325813971E+04 0.  0.
        2    1    3    3  502    0 -0.19018420629E+03 -0.94211198546E+01  0.57741740968E+03  0.60800465033E+03  0.25500000920E-02 0.  1.
       -2    1    3    3    0  502  0.19018420629E+03  0.94211198546E+01 -0.18827498523E+04  0.18923545641E+04  0.25500000920E-02 0. -1.
</event>
<event>
 5   0  0.2317458E-04  0.1867902E+04  0.7818609E-02  0.8671001E-01
       -1   -1    0    0    0  501  0.00000000000E+00  0.00000000000E+00  0.68786327249E+03  0.68786327251E+03  0.50400001928E-02 0.  1.
        1   -1    0    0  501    0  0.00000000000E+00  0.00000000000E+00 -0.12680785522E+04  0.12680785522E+04  0.50400001928E-02 0. -1.
    10030    2    1    2    0    0  0.00000000000E+00  0.00000000000E+00 -0.58021527973E+03  0.19559418247E+04  0.18679022059E+04 0.  0.
        3    1    3    3  502    0 -0.92532098927E+03  0.12192882282E+03 -0.32606383367E+03  0.98863704404E+03  0.10100000352E+00 0.  1.
       -3    1    3    3    0  502  0.92532098927E+03 -0.12192882282E+03 -0.25415144606E+03  0.96730478070E+03  0.10100000352E+00 0. -1.
</event>
<event>
 5   0  0.4761944E-04  0.1950276E+04  0.7818609E-02  0.8630228E-01
       -2   -1    0    0    0  501  0.00000000000E+00  0.00000000000E+00  0.58784206547E+03  0.58784206547E+03  0.25500000920E-02 0. -1.
        2   -1    0    0  501    0  0.00000000000E+00  0.00000000000E+00 -0.16176007361E+04  0.16176007361E+04  0.25500000920E-02 0.  1.
    10030    2    1    2    0    0  0.00000000000E+00  0.00000000000E+00 -0.10297586706E+04  0.22054428015E+04  0.19502756295E+04 0.  0.
        4    1    3    3  502    0  0.81728470713E+02 -0.87078097690E+03 -0.27236882311E+02  0.87503286413E+03  0.12699999809E+01 0. -1.
       -4    1    3    3    0  502 -0.81728470713E+02  0.87078097690E+03 -0.10025217883E+04  0.13304099374E+04  0.12699999809E+01 0.  1.
</event>
<event>
 5   0  0.4761944E-04  0.1885173E+04  0.7818609E-02  0.8662272E-01
       -2   -1    0    0    0  501  0.00000000000E+00  0.00000000000E+00  0.82081694752E+03  0.82081694753E+03  0.25500000920E-02 0. -1.
        2   -1    0    0  501    0  0.00000000000E+00  0.00000000000E+00 -0.10824210981E+04  0.10824210981E+04  0.25500000920E-02 0.  1.
    10030    2    1    2    0    0  0.00000000000E+00  0.00000000000E+00 -0.26160415053E+03  0.19032380456E+04  0.18851732882E+04 0.  0.
        4    1    3    3  502    0  0.44583608870E+03  0.14740144518E+03  0.69432459656E+03  0.83820359241E+03  0.12699999809E+01 0. -1.
       -4    1    3    3    0  502 -0.44583608870E+03 -0.14740144518E+03 -0.95592874709E+03  0.10650344532E+04  0.12699999809E+01 0.  1.
</event>
<event>
 5   0  0.2376359E-04  0.1307920E+04  0.7818609E-02  0.9023308E-01
        1   -1    0    0  501    0  0.00000000000E+00  0.00000000000E+00  0.13922948689E+04  0.13922948689E+04  0.50400001928E-02 0.  1.
       -1   -1    0    0    0  501  0.00000000000E+00  0.00000000000E+00 -0.30716443860E+03  0.30716443865E+03  0.50400001928E-02 0. -1.
    10030    2    1    2    0    0  0.00000000000E+00  0.00000000000E+00  0.10851304303E+04  0.16994593076E+04  0.13079196792E+04 0.  0.
        2    1    3    3  502    0  0.62729493912E+03  0.14376261618E+03  0.39161081822E+03  0.75334299188E+03  0.25500000920E-02 0. -1.
       -2    1    3    3    0  502 -0.62729493912E+03 -0.14376261618E+03  0.69351961210E+03  0.94611631570E+03  0.25500000920E-02 0.  1.
</event>
<event>
 5   0  0.4761944E-04  0.2016437E+04  0.7818609E-02  0.8598974E-01
        2   -1    0    0  501    0  0.00000000000E+00  0.00000000000E+00  0.10731032009E+04  0.10731032009E+04  0.25500000920E-02 0.  1.
       -2   -1    0    0    0  501  0.00000000000E+00  0.00000000000E+00 -0.94725714414E+03  0.94725714414E+03  0.25500000920E-02 0. -1.
    10030    2    1    2    0    0  0.00000000000E+00  0.00000000000E+00  0.12584605673E+03  0.20203603450E+04  0.20164371286E+04 0.  0.
        4    1    3    3  502    0 -0.76454224380E+03  0.57802752836E+03 -0.25051527585E+03  0.99065644016E+03  0.12699999809E+01 0. -1.
       -4    1    3    3    0  502  0.76454224380E+03 -0.57802752836E+03  0.37636133259E+03  0.10297039049E+04  0.12699999809E+01 0.  1.
</event>
<event>
 5   0  0.4973411E-04  0.1922604E+04  0.7818609E-02  0.8643686E-01
       -2   -1    0    0    0  501  0.00000000000E+00  0.00000000000E+00  0.80068637158E+03  0.80068637159E+03  0.25500000920E-02 0.  1.
        2   -1    0    0  501    0  0.00000000000E+00  0.00000000000E+00 -0.11541368661E+04  0.11541368661E+04  0.25500000920E-02 0. -1.
    10030    2    1    2    0    0  0.00000000000E+00  0.00000000000E+00 -0.35345049456E+03  0.19548232377E+04  0.19226041295E+04 0.  0.
        1    1    3    3  502    0 -0.17846684341E+03 -0.69157640468E+03  0.47746459944E+03  0.85912791914E+03  0.50400001928E-02 0.  1.
       -1    1    3    3    0  502  0.17846684341E+03  0.69157640468E+03 -0.83091509400E+03  0.10956953186E+04  0.50400001928E-02 0. -1.
</event>
<event>
 5   0  0.4761944E-04  0.1930333E+04  0.7818609E-02  0.8639903E-01
       -2   -1    0    0    0  501  0.00000000000E+00  0.00000000000E+00  0.83846759054E+03  0.83846759054E+03  0.25500000920E-02 0.  1.
        2   -1    0    0  501    0  0.00000000000E+00  0.00000000000E+00 -0.11110106120E+04  0.11110106120E+04  0.25500000920E-02 0. -1.
    10030    2    1    2    0    0  0.00000000000E+00  0.00000000000E+00 -0.27254302150E+03  0.19494782026E+04  0.19303330189E+04 0.  0.
        4    1    3    3  502    0 -0.83233270194E+03  0.43745973342E+03 -0.35613703749E+03  0.10054769751E+04  0.12699999809E+01 0. -1.
       -4    1    3    3    0  502  0.83233270194E+03 -0.43745973342E+03  0.83594015991E+02  0.94400122748E+03  0.12699999809E+01 0.  1.
</event>
<event>
 5   0  0.2355414E-04  0.1700550E+04  0.7818609E-02  0.8761051E-01
        1   -1    0    0  501    0  0.00000000000E+00  0.00000000000E+00  0.22777364456E+04  0.22777364456E+04  0.50400001928E-02 0.  1.
       -1   -1    0    0    0  501  0.00000000000E+00  0.00000000000E+00 -0.31740616289E+03  0.31740616293E+03  0.50400001928E-02 0. -1.
    10030    2    1    2    0    0  0.00000000000E+00  0.00000000000E+00  0.19603302827E+04  0.25951426086E+04  0.17005500114E+04 0.  0.
        5    1    3    3  502    0 -0.17046580571E+03  0.89185707442E+02 -0.28373455440E+03  0.34284117123E+03  0.46999998093E+01 0. -1.
       -5    1    3    3    0  502  0.17046580571E+03 -0.89185707442E+02  0.22440648371E+04  0.22523014373E+04  0.46999998093E+01 0.  1.
</event>
<event>
 5   0  0.4839293E-04  0.1817077E+04  0.7818609E-02  0.8697271E-01
        2   -1    0    0  501    0  0.00000000000E+00  0.00000000000E+00  0.13181602269E+04  0.13181602269E+04  0.25500000920E-02 0. -1.
       -2   -1    0    0    0  501  0.00000000000E+00  0.00000000000E+00 -0.62620758452E+03  0.62620758453E+03  0.25500000920E-02 0.  1.
    10030    2    1    2    0    0  0.00000000000E+00  0.00000000000E+00  0.69195264233E+03  0.19443678114E+04  0.18170766981E+04 0.  0.
        5    1    3    3  502    0 -0.63281344773E+03 -0.24703305052E+01 -0.35158058018E+03  0.72394057527E+03  0.46999998093E+01 0.  1.
       -5    1    3    3    0  502  0.63281344773E+03  0.24703305052E+01  0.10435332225E+04  0.12204272361E+04  0.46999998093E+01 0. -1.
</event>
<event>
 5   0  0.2355414E-04  0.1627910E+04  0.7818609E-02  0.8803583E-01
       -1   -1    0    0    0  501  0.00000000000E+00  0.00000000000E+00  0.11204554336E+04  0.11204554336E+04  0.50400001928E-02 0.  1.
        1   -1    0    0  501    0  0.00000000000E+00  0.00000000000E+00 -0.59129796953E+03  0.59129796955E+03  0.50400001928E-02 0. -1.
    10030    2    1    2    0    0  0.00000000000E+00  0.00000000000E+00  0.52915746402E+03  0.17117534031E+04  0.16279103450E+04 0.  0.
        5    1    3    3  502    0 -0.25607185205E+03 -0.74896625499E+02 -0.54399848416E+03  0.60591974608E+03  0.46999998093E+01 0. -1.
       -5    1    3    3    0  502  0.25607185205E+03  0.74896625499E+02  0.10731559482E+04  0.11058336570E+04  0.46999998093E+01 0.  1.
</event>
<event>
 5   0  0.2317458E-04  0.2045347E+04  0.7818609E-02  0.8585708E-01
       -1   -1    0    0    0  501  0.00000000000E+00  0.00000000000E+00  0.42092074962E+03  0.42092074965E+03  0.50400001928E-02 0. -1.
        1   -1    0    0  501    0  0.00000000000E+00  0.00000000000E+00 -0.24846979532E+04  0.24846979532E+04  0.50400001928E-02 0.  1.
    10030    2    1    2    0    0  0.00000000000E+00  0.00000000000E+00 -0.20637772035E+04  0.29056187028E+04  0.20453468411E+04 0.  0.
        3    1    3    3  502    0 -0.75607008841E+02 -0.31445885432E+03  0.34635659668E+03  0.47388151801E+03  0.10100000352E+00 0. -1.
       -3    1    3    3    0  502  0.75607008841E+02  0.31445885432E+03 -0.24101338002E+04  0.24317371848E+04  0.10100000352E+00 0.  1.
</event>
<event>
 5   0  0.4839293E-04  0.1867951E+04  0.7818609E-02  0.8670976E-01
        2   -1    0    0  501    0  0.00000000000E+00  0.00000000000E+00  0.19719760088E+04  0.19719760088E+04  0.25500000920E-02 0. -1.
       -2   -1    0    0    0  501  0.00000000000E+00  0.00000000000E+00 -0.44235353622E+03  0.44235353623E+03  0.25500000920E-02 0.  1.
    10030    2    1    2    0    0  0.00000000000E+00  0.00000000000E+00  0.15296224726E+04  0.24143295451E+04  0.18679513493E+04 0.  0.
        5    1    3    3  502    0 -0.67307826267E+03 -0.62004345719E+03  0.10059250391E+04  0.13599248180E+04  0.46999998093E+01 0. -1.
       -5    1    3    3    0  502  0.67307826267E+03  0.62004345719E+03  0.52369743354E+03  0.10544047270E+04  0.46999998093E+01 0.  1.
</event>
<event>
 5   0  0.2261755E-04  0.1901533E+04  0.7818609E-02  0.8654094E-01
        1   -1    0    0  501    0  0.00000000000E+00  0.00000000000E+00  0.89852764627E+03  0.89852764628E+03  0.50400001928E-02 0. -1.
       -1   -1    0    0    0  501  0.00000000000E+00  0.00000000000E+00 -0.10060421283E+04  0.10060421283E+04  0.50400001928E-02 0.  1.
    10030    2    1    2    0    0  0.00000000000E+00  0.00000000000E+00 -0.10751448203E+03  0.19045697746E+04  0.19015327140E+04 0.  0.
        1    1    3    3  502    0 -0.15161428470E+03  0.90719893522E+03  0.18737582790E+03  0.93867273333E+03  0.50400001928E-02 0. -1.
       -1    1    3    3    0  502  0.15161428470E+03 -0.90719893522E+03 -0.29489030993E+03  0.96589704126E+03  0.50400001928E-02 0.  1.
</event>
<event>
 5   0  0.2510069E-04  0.1917528E+04  0.7818609E-02  0.8646181E-01
       -1   -1    0    0    0  501  0.00000000000E+00  0.00000000000E+00  0.13132008367E+04  0.13132008367E+04  0.50400001928E-02 0. -1.
        1   -1    0    0  501    0  0.00000000000E+00  0.00000000000E+00 -0.69999059919E+03  0.69999059921E+03  0.50400001928E-02 0.  1.
    10030    2    1    2    0    0  0.00000000000E+00  0.00000000000E+00  0.61321023753E+03  0.20131914359E+04  0.19175278257E+04 0.  0.
        4    1    3    3  502    0  0.82335426811E+03 -0.12093446113E+03  0.80647715931E+03  0.11588547865E+04  0.12699999809E+01 0. -1.
       -4    1    3    3    0  502 -0.82335426811E+03  0.12093446113E+03 -0.19326692178E+03  0.85433664948E+03  0.12699999809E+01 0.  1.
</event>
<event>
 5   0  0.2355414E-04  0.1952040E+04  0.7818609E-02  0.8629378E-01
        1   -1    0    0  501    0  0.00000000000E+00  0.00000000000E+00  0.18141487256E+04  0.18141487256E+04  0.50400001928E-02 0. -1.
       -1   -1    0    0    0  501  0.00000000000E+00  0.00000000000E+00 -0.52510308031E+03  0.52510308034E+03  0.50400001928E-02 0.  1.
    10030    2    1    2    0    0  0.00000000000E+00  0.00000000000E+00  0.12890456453E+04  0.23392518060E+04  0.19520400447E+04 0.  0.
        5    1    3    3  502    0 -0.68192368074E+03 -0.46716847683E+03  0.12664334200E+04  0.15123299869E+04  0.46999998093E+01 0. -1.
       -5    1    3    3    0  502  0.68192368074E+03  0.46716847683E+03  0.22612225339E+02  0.82692181905E+03  0.46999998093E+01 0.  1.
</event>
<event>
 5   0  0.2261755E-04  0.1902021E+04  0.7818609E-02  0.8653851E-01
       -1   -1    0    0    0  501  0.00000000000E+00  0.00000000000E+00  0.86630905815E+03  0.86630905816E+03  0.50400001928E-02 0. -1.
        1   -1    0    0  501    0  0.00000000000E+00  0.00000000000E+00 -0.10439931919E+04  0.10439931919E+04  0.50400001928E-02 0.  1.
    10030    2    1    2    0    0  0.00000000000E+00  0.00000000000E+00 -0.17768413374E+03  0.19103022501E+04  0.19020207768E+04 0.  0.
        1    1    3    3  502    0  0.41505803067E+03  0.10035899260E+03  0.76460813268E+03  0.87576862973E+03  0.50400001928E-02 0. -1.
       -1    1    3    3    0  502 -0.41505803067E+03 -0.10035899260E+03 -0.94229226642E+03  0.10345336203E+04  0.50400001928E-02 0.  1.
</event>
<event>
 5   0  0.2261755E-04  0.1885546E+04  0.7818609E-02  0.8662085E-01
        1   -1    0    0  501    0  0.00000000000E+00  0.00000000000E+00  0.13901353902E+04  0.13901353902E+04  0.50400001928E-02 0.  1.
       -1   -1    0    0    0  501  0.00000000000E+00  0.00000000000E+00 -0.63937740331E+03  0.63937740333E+03  0.50400001928E-02 0. -1.
    10030    2    1    2    0    0  0.00000000000E+00  0.00000000000E+00  0.75075798687E+03  0.20295127935E+04  0.18855462403E+04 0.  0.
        1    1    3    3  502    0 -0.56123686846E+03 -0.21736460882E+03 -0.40569046518E+03  0.72582294622E+03  0.50400001928E-02 0. -1.
       -1    1    3    3    0  502  0.56123686846E+03  0.21736460882E+03  0.11564484521E+04  0.13036898473E+04  0.50400001928E-02 0.  1.
</event>
<event>
 5   0  0.4761944E-04  0.1149251E+04  0.7818609E-02  0.9158474E-01
        2   -1    0    0  501    0  0.00000000000E+00  0.00000000000E+00  0.84194778301E+03  0.84194778301E+03  0.25500000920E-02 0.  1.
       -2   -1    0    0    0  501  0.00000000000E+00  0.00000000000E+00 -0.39217957649E+03  0.39217957650E+03  0.25500000920E-02 0. -1.
    10030    2    1    2    0    0  0.00000000000E+00  0.00000000000E+00  0.44976820652E+03  0.12341273595E+04  0.11492514520E+04 0.  0.
        4    1    3    3  502    0 -0.30584665214E+03 -0.18977888230E+03 -0.25611932697E+03  0.44176568602E+03  0.12699999809E+01 0.  1.
       -4    1    3    3    0  502  0.30584665214E+03  0.18977888230E+03  0.70588753349E+03  0.79236167350E+03  0.12699999809E+01 0. -1.
</event>
<event>
 5   0  0.2510069E-04  0.1785300E+04  0.7818609E-02  0.8714156E-01
        1   -1    0    0  501    0  0.00000000000E+00  0.00000000000E+00  0.11732529106E+04  0.11732529106E+04  0.50400001928E-02 0.  1.
       -1   -1    0    0    0  501  0.00000000000E+00  0.00000000000E+00 -0.67915818495E+03  0.67915818496E+03  0.50400001928E-02 0. -1.
    10030    2    1    2    0    0  0.00000000000E+00  0.00000000000E+00  0.49409472561E+03  0.18524110955E+04  0.17853003302E+04 0.  0.
        4    1    3    3  502    0  0.22491005282E+03  0.60488344210E+03 -0.39286454678E+03  0.75552145926E+03  0.12699999809E+01 0. -1.
       -4    1    3    3    0  502 -0.22491005282E+03 -0.60488344210E+03  0.88695927239E+03  0.10968896363E+04  0.12699999809E+01 0.  1.
</event>
<event>
 5   0  0.2261755E-04  0.1791643E+04  0.7818609E-02  0.8710756E-01
       -1   -1    0    0    0  501  0.00000000000E+00  0.00000000000E+00  0.83448510921E+03  0.83448510923E+03  0.50400001928E-02 0. -1.
        1   -1    0    0  501    0  0.00000000000E+00  0.00000000000E+00 -0.96166633685E+03  0.96166633686E+03  0.50400001928E-02 0.  1.
    10030    2    1    2    0    0  0.00000000000E+00  0.00000000000E+00 -0.12718122764E+03  0.17961514461E+04  0.17916430874E+04 0.  0.
        1    1    3    3  502    0  0.39121141903E+03 -0.66833648608E+03  0.38784929502E+03  0.86611033286E+03  0.50400001928E-02 0. -1.
       -1    1    3    3    0  502 -0.39121141903E+03  0.66833648608E+03 -0.51503052266E+03  0.93004111323E+03  0.50400001928E-02 0.  1.
</event>
<event>
 5   0  0.2317458E-04  0.1856777E+04  0.7818609E-02  0.8676676E-01
       -1   -1    0    0    0  501  0.00000000000E+00  0.00000000000E+00  0.36047274154E+03  0.36047274158E+03  0.50400001928E-02 0. -1.
        1   -1    0    0  501    0  0.00000000000E+00  0.00000000000E+00 -0.23910405769E+04  0.23910405769E+04  0.50400001928E-02 0.  1.
    10030    2    1    2    0    0  0.00000000000E+00  0.00000000000E+00 -0.20305678354E+04  0.27515133185E+04  0.18567767254E+04 0.  0.
        3    1    3    3  502    0  0.51069971949E+03  0.73774748392E+03 -0.66205177768E+03  0.11150776296E+04  0.10100000352E+00 0. -1.
       -3    1    3    3    0  502 -0.51069971949E+03 -0.73774748392E+03 -0.13685160577E+04  0.16364356889E+04  0.10100000352E+00 0.  1.
</event>
<event>
 5   0  0.2317458E-04  0.1919552E+04  0.7818609E-02  0.8645185E-01
       -1   -1    0    0    0  501  0.00000000000E+00  0.00000000000E+00  0.79013638660E+03  0.79013638661E+03  0.50400001928E-02 0.  1.
        1   -1    0    0  501    0  0.00000000000E+00  0.00000000000E+00 -0.11658367331E+04  0.11658367331E+04  0.50400001928E-02 0. -1.
    10030    2    1    2    0    0  0.00000000000E+00  0.00000000000E+00 -0.37570034646E+03  0.19559731197E+04  0.19195520557E+04 0.  0.
        3    1    3    3  502    0  0.51118395295E+03  0.53785870795E+03 -0.80814409409E+03  0.10971316742E+04  0.10100000352E+00 0. -1.
       -3    1    3    3    0  502 -0.51118395295E+03 -0.53785870795E+03  0.43244374763E+03  0.85884144551E+03  0.10100000352E+00 0.  1.
</event>
<event>
 5   0  0.4761944E-04  0.1864965E+04  0.7818609E-02  0.8672495E-01
       -2   -1    0    0    0  501  0.00000000000E+00  0.00000000000E+00  0.94188208334E+03  0.94188208334E+03  0.25500000920E-02 0.  1.
        2   -1    0    0  501    0  0.00000000000E+00  0.00000000000E+00 -0.92317665345E+03  0.92317665345E+03  0.25500000920E-02 0. -1.
    10030    2    1    2    0    0  0.00000000000E+00  0.00000000000E+00  0.18705429887E+02  0.18650587368E+04  0.18649649323E+04 0.  0.
        4    1    3    3  502    0 -0.37984904939E+03 -0.37083738136E+01 -0.84229030954E+03  0.92398789538E+03  0.12699999809E+01 0. -1.
       -4    1    3    3    0  502  0.37984904939E+03  0.37083738136E+01  0.86099573943E+03  0.94107084142E+03  0.12699999809E+01 0.  1.
</event>
<event>
 5   0  0.2376359E-04  0.1880604E+04  0.7818609E-02  0.8664572E-01
       -1   -1    0    0    0  501  0.00000000000E+00  0.00000000000E+00  0.14985324788E+04  0.14985324788E+04  0.50400001928E-02 0.  1.
        1   -1    0    0  501    0  0.00000000000E+00  0.00000000000E+00 -0.59002220685E+03  0.59002220688E+03  0.50400001928E-02 0. -1.
    10030    2    1    2    0    0  0.00000000000E+00  0.00000000000E+00  0.90851027191E+03  0.20885546856E+04  0.18806035629E+04 0.  0.
        2    1    3    3  502    0 -0.49223246345E+03  0.17025185828E+03  0.13236948844E+04  0.14224790474E+04  0.25500000920E-02 0.  1.
       -2    1    3    3    0  502  0.49223246345E+03 -0.17025185828E+03 -0.41518461253E+03  0.66607563820E+03  0.25500000920E-02 0. -1.
</event>
<event>
 5   0  0.2510069E-04  0.1772739E+04  0.7818609E-02  0.8720932E-01
        1   -1    0    0  501    0  0.00000000000E+00  0.00000000000E+00  0.10634038450E+04  0.10634038450E+04  0.50400001928E-02 0. -1.
       -1   -1    0    0    0  501  0.00000000000E+00  0.00000000000E+00 -0.73880793190E+03  0.73880793192E+03  0.50400001928E-02 0.  1.
    10030    2    1    2    0    0  0.00000000000E+00  0.00000000000E+00  0.32459591308E+03  0.18022117769E+04  0.17727393441E+04 0.  0.
        4    1    3    3  502    0  0.36706771704E+02 -0.64820089312E+03 -0.45117273676E+03  0.79061383509E+03  0.12699999809E+01 0.  1.
       -4    1    3    3    0  502 -0.36706771704E+02  0.64820089312E+03  0.77576864984E+03  0.10115979418E+04  0.12699999809E+01 0. -1.
</event>
<event>
 5   0  0.4761944E-04  0.1503638E+04  0.7818609E-02  0.8882037E-01
        2   -1    0    0  501    0  0.00000000000E+00  0.00000000000E+00  0.66486912123E+03  0.66486912124E+03  0.25500000920E-02 0. -1.
       -2   -1    0    0    0  501  0.00000000000E+00  0.00000000000E+00 -0.85014003536E+03  0.85014003536E+03  0.25500000920E-02 0.  1.
    10030    2    1    2    0    0  0.00000000000E+00  0.00000000000E+00 -0.18527091412E+03  0.15150091566E+04  0.15036380658E+04 0.  0.
        4    1    3    3  502    0 -0.36913648048E+03  0.32903926603E+03 -0.66322335182E+03  0.82728193931E+03  0.12699999809E+01 0.  1.
       -4    1    3    3    0  502  0.36913648048E+03 -0.32903926603E+03  0.47795243769E+03  0.68772721729E+03  0.12699999809E+01 0. -1.
</event>
<event>
 5   0  0.4839293E-04  0.1956673E+04  0.7818609E-02  0.8627149E-01
       -2   -1    0    0    0  501  0.00000000000E+00  0.00000000000E+00  0.52465567682E+03  0.52465567683E+03  0.25500000920E-02 0.  1.
        2   -1    0    0  501    0  0.00000000000E+00  0.00000000000E+00 -0.18243255541E+04  0.18243255541E+04  0.25500000920E-02 0. -1.
    10030    2    1    2    0    0  0.00000000000E+00  0.00000000000E+00 -0.12996698773E+04  0.23489812309E+04  0.19566734611E+04 0.  0.
        5    1    3    3  502    0 -0.68584632023E+02  0.58618975394E+03  0.28685949477E+03  0.65622613413E+03  0.46999998093E+01 0.  1.
       -5    1    3    3    0  502  0.68584632023E+02 -0.58618975394E+03 -0.15865293720E+04  0.16927550968E+04  0.46999998093E+01 0. -1.
</event>
<event>
 5   0  0.2510069E-04  0.2110492E+04  0.7818609E-02  0.8556636E-01
       -1   -1    0    0    0  501  0.00000000000E+00  0.00000000000E+00  0.98673920449E+03  0.98673920450E+03  0.50400001928E-02 0.  1.
        1   -1    0    0  501    0  0.00000000000E+00  0.00000000000E+00 -0.11285091485E+04  0.11285091485E+04  0.50400001928E-02 0. -1.
    10030    2    1    2    0    0  0.00000000000E+00  0.00000000000E+00 -0.14176994401E+03  0.21152483530E+04  0.21104920938E+04 0.  0.
        4    1    3    3  502    0 -0.63588541089E+03 -0.14610191712E+03 -0.90211921789E+03  0.11133358533E+04  0.12699999809E+01 0. -1.
       -4    1    3    3    0  502  0.63588541089E+03  0.14610191712E+03  0.76034927388E+03  0.10019124998E+04  0.12699999809E+01 0.  1.
</event>
<event>
 5   0  0.4761944E-04  0.1890696E+04  0.7818609E-02  0.8659501E-01
        2   -1    0    0  501    0  0.00000000000E+00  0.00000000000E+00  0.11766663680E+04  0.11766663680E+04  0.25500000920E-02 0. -1.
       -2   -1    0    0    0  501  0.00000000000E+00  0.00000000000E+00 -0.75950409469E+03  0.75950409469E+03  0.25500000920E-02 0.  1.
    10030    2    1    2    0    0  0.00000000000E+00  0.00000000000E+00  0.41716227327E+03  0.19361704627E+04  0.18906960883E+04 0.  0.
        4    1    3    3  502    0 -0.25740541346E+03 -0.77576704425E+02 -0.71953152958E+03  0.76811648004E+03  0.12699999809E+01 0.  1.
       -4    1    3    3    0  502  0.25740541346E+03  0.77576704425E+02  0.11366938029E+04  0.11680539826E+04  0.12699999809E+01 0. -1.
</event>
<event>
 5   0  0.4802635E-04  0.1890315E+04  0.7818609E-02  0.8659692E-01
        2   -1    0    0  501    0  0.00000000000E+00  0.00000000000E+00  0.10394577956E+04  0.10394577956E+04  0.25500000920E-02 0. -1.
       -2   -1    0    0    0  501  0.00000000000E+00  0.00000000000E+00 -0.85941254879E+03  0.85941254879E+03  0.25500000920E-02 0.  1.
    10030    2    1    2    0    0  0.00000000000E+00  0.00000000000E+00  0.18004524683E+03  0.18988703444E+04  0.18903153954E+04 0.  0.
        3    1    3    3  502    0 -0.72126957341E+02 -0.40069507922E+03  0.94685665391E+03  0.10306776304E+04  0.10100000352E+00 0. -1.
       -3    1    3    3    0  502  0.72126957341E+02  0.40069507922E+03 -0.76681140708E+03  0.86819271404E+03  0.10100000352E+00 0.  1.
</event>
<event>
 5   0  0.2355414E-04  0.2158414E+04  0.7818609E-02  0.8535939E-01
       -1   -1    0    0    0  501  0.00000000000E+00  0.00000000000E+00  0.86575506592E+03  0.86575506593E+03  0.50400001928E-02 0.  1.
        1   -1    0    0  501    0  0.00000000000E+00  0.00000000000E+00 -0.13452860649E+04  0.13452860649E+04  0.50400001928E-02 0. -1.
    10030    2    1    2    0    0  0.00000000000E+00  0.00000000000E+00 -0.47953099898E+03  0.22110411308E+04  0.21584144420E+04 0.  0.
        5    1    3    3  502    0 -0.11519004058E+03 -0.52985533721E+03  0.71607177631E+03  0.89821840476E+03  0.46999998093E+01 0.  1.
       -5    1    3    3    0  502  0.11519004058E+03  0.52985533721E+03 -0.11956027753E+04  0.13128227261E+04  0.46999998093E+01 0. -1.
</event>
<event>
 5   0  0.4829134E-04  0.1094575E+04  0.7818609E-02  0.9210496E-01
       -2   -1    0    0    0  501  0.00000000000E+00  0.00000000000E+00  0.90602185583E+03  0.90602185583E+03  0.25500000920E-02 0.  1.
        2   -1    0    0  501    0  0.00000000000E+00  0.00000000000E+00 -0.33059192429E+03  0.33059192430E+03  0.25500000920E-02 0. -1.
    10030    2    1    2    0    0  0.00000000000E+00  0.00000000000E+00  0.57542993154E+03  0.12366137801E+04  0.10945748193E+04 0.  0.
        2    1    3    3  502    0  0.25164379336E+02 -0.19934545086E+03  0.86284443518E+03  0.88593023094E+03  0.25500000920E-02 0.  1.
       -2    1    3    3    0  502 -0.25164379336E+02  0.19934545086E+03 -0.28741450364E+03  0.35068354920E+03  0.25500000920E-02 0. -1.
</event>
<event>
 5   0  0.1729375E-04  0.1823042E+04  0.7818609E-02  0.8694141E-01
       -3   -1    0    0    0  501  0.00000000000E+00  0.00000000000E+00  0.75207182510E+03  0.75207183189E+03  0.10100000352E+00 0. -1.
        3   -1    0    0  501    0  0.00000000000E+00  0.00000000000E+00 -0.11047759684E+04  0.11047759731E+04  0.10100000352E+00 0.  1.
    10030    2    1    2    0    0  0.00000000000E+00  0.00000000000E+00 -0.35270414333E+03  0.18568478049E+04  0.18230423906E+04 0.  0.
        2    1    3    3  502    0 -0.82211227988E+03  0.15414963307E+03 -0.54534067188E+03  0.99851247289E+03  0.25500000920E-02 0.  1.
       -2    1    3    3    0  502  0.82211227988E+03 -0.15414963307E+03  0.19263652854E+03  0.85833533205E+03  0.25500000920E-02 0. -1.
</event>
<event>
 5   0  0.4829134E-04  0.1817959E+04  0.7818609E-02  0.8696807E-01
       -2   -1    0    0    0  501  0.00000000000E+00  0.00000000000E+00  0.46108878875E+03  0.46108878876E+03  0.25500000920E-02 0.  1.
        2   -1    0    0  501    0  0.00000000000E+00  0.00000000000E+00 -0.17919404793E+04  0.17919404793E+04  0.25500000920E-02 0. -1.
    10030    2    1    2    0    0  0.00000000000E+00  0.00000000000E+00 -0.13308516905E+04  0.22530292680E+04  0.18179589270E+04 0.  0.
        2    1    3    3  502    0 -0.46807036057E+03  0.12217714433E+03  0.28830691867E+03  0.56315006561E+03  0.25500000920E-02 0.  1.
       -2    1    3    3    0  502  0.46807036057E+03 -0.12217714433E+03 -0.16191586092E+04  0.16898792024E+04  0.25500000920E-02 0. -1.
</event>
<event>
 5   0  0.2317458E-04  0.1884254E+04  0.7818609E-02  0.8662734E-01
       -1   -1    0    0    0  501  0.00000000000E+00  0.00000000000E+00  0.97030657540E+03  0.97030657541E+03  0.50400001928E-02 0. -1.
        1   -1    0    0  501    0  0.00000000000E+00  0.00000000000E+00 -0.91476598312E+03  0.91476598313E+03  0.50400001928E-02 0.  1.
    10030    2    1    2    0    0  0.00000000000E+00  0.00000000000E+00  0.55540592278E+02  0.18850725585E+04  0.18842541744E+04 0.  0.
        3    1    3    3  502    0 -0.81106596491E+03 -0.43286683235E+03 -0.17823597737E+03  0.93646663999E+03  0.10100000352E+00 0.  1.
       -3    1    3    3    0  502  0.81106596491E+03  0.43286683235E+03  0.23377656965E+03  0.94860591855E+03  0.10100000352E+00 0. -1.
</event>
<event>
 5   0  0.4802635E-04  0.1896702E+04  0.7818609E-02  0.8656500E-01
       -2   -1    0    0    0  501  0.00000000000E+00  0.00000000000E+00  0.13771696504E+04  0.13771696504E+04  0.25500000920E-02 0. -1.
        2   -1    0    0  501    0  0.00000000000E+00  0.00000000000E+00 -0.65305633275E+03  0.65305633276E+03  0.25500000920E-02 0.  1.
    10030    2    1    2    0    0  0.00000000000E+00  0.00000000000E+00  0.72411331769E+03  0.20302259832E+04  0.18967017283E+04 0.  0.
        3    1    3    3  502    0 -0.19825199473E+03  0.89430659159E+03  0.99250008071E+02  0.92137869927E+03  0.10100000352E+00 0. -1.
       -3    1    3    3    0  502  0.19825199473E+03 -0.89430659159E+03  0.62486330962E+03  0.11088472839E+04  0.10100000352E+00 0.  1.
</event>
<event>
 5   0  0.2510069E-04  0.1953058E+04  0.7818609E-02  0.8628888E-01
       -1   -1    0    0    0  501  0.00000000000E+00  0.00000000000E+00  0.13169828298E+04  0.13169828298E+04  0.50400001928E-02 0.  1.
        1   -1    0    0  501    0  0.00000000000E+00  0.00000000000E+00 -0.72408614447E+03  0.72408614448E+03  0.50400001928E-02 0. -1.
    10030    2    1    2    0    0  0.00000000000E+00  0.00000000000E+00  0.59289668536E+03  0.20410689743E+04  0.19530581349E+04 0.  0.
        4    1    3    3  502    0 -0.67202924150E+03  0.67893749994E+03  0.50812967449E+03  0.10820244033E+04  0.12699999809E+01 0.  1.
       -4    1    3    3    0  502  0.67202924150E+03 -0.67893749994E+03  0.84767010870E+02  0.95904457106E+03  0.12699999809E+01 0. -1.
</event>
<event>
 5   0  0.2261755E-04  0.1927977E+04  0.7818609E-02  0.8641054E-01
       -1   -1    0    0    0  501  0.00000000000E+00  0.00000000000E+00  0.94124104207E+03  0.94124104208E+03  0.50400001928E-02 0.  1.
        1   -1    0    0  501    0  0.00000000000E+00  0.00000000000E+00 -0.98728559836E+03  0.98728559838E+03  0.50400001928E-02 0. -1.
    10030    2    1    2    0    0  0.00000000000E+00  0.00000000000E+00 -0.46044556297E+02  0.19285266405E+04  0.19279768935E+04 0.  0.
        1    1    3    3  502    0 -0.88886310115E+03 -0.36251700822E+03 -0.11123773949E+03  0.96636950932E+03  0.50400001928E-02 0. -1.
       -1    1    3    3    0  502  0.88886310115E+03  0.36251700822E+03  0.65193183189E+02  0.96215713114E+03  0.50400001928E-02 0.  1.
</event>
<event>
 5   0  0.4829134E-04  0.1862708E+04  0.7818609E-02  0.8673645E-01
       -2   -1    0    0    0  501  0.00000000000E+00  0.00000000000E+00  0.86050771709E+03  0.86050771709E+03  0.25500000920E-02 0.  1.
        2   -1    0    0  501    0  0.00000000000E+00  0.00000000000E+00 -0.10080329805E+04  0.10080329805E+04  0.25500000920E-02 0. -1.
    10030    2    1    2    0    0  0.00000000000E+00  0.00000000000E+00 -0.14752526336E+03  0.18685406975E+04  0.18627078770E+04 0.  0.
        2    1    3    3  502    0 -0.18872204176E+03 -0.58269142347E+03 -0.77758268498E+03  0.98983843935E+03  0.25500000920E-02 0. -1.
       -2    1    3    3    0  502  0.18872204176E+03  0.58269142347E+03  0.63005742161E+03  0.87870225820E+03  0.25500000920E-02 0.  1.
</event>
<event>
 5   0  0.2317458E-04  0.1937648E+04  0.7818609E-02  0.8636340E-01
        1   -1    0    0  501    0  0.00000000000E+00  0.00000000000E+00  0.34501228674E+03  0.34501228678E+03  0.50400001928E-02 0. -1.
       -1   -1    0    0    0  501  0.00000000000E+00  0.00000000000E+00 -0.27205413062E+04  0.27205413062E+04  0.50400001928E-02 0.  1.
    10030    2    1    2    0    0  0.00000000000E+00  0.00000000000E+00 -0.23755290194E+04  0.30655535929E+04  0.19376482418E+04 0.  0.
        3    1    3    3  502    0  0.42562245594E+03  0.82209738803E+03 -0.73576656062E+03  0.11825189353E+04  0.10100000352E+00 0. -1.
       -3    1    3    3    0  502 -0.42562245594E+03 -0.82209738803E+03 -0.16397624588E+04  0.18830346577E+04  0.10100000352E+00 0.  1.
</event>
<event>
 5   0  0.4761944E-04  0.1915530E+04  0.7818609E-02  0.8647164E-01
        2   -1    0    0  501    0  0.00000000000E+00  0.00000000000E+00  0.10320529821E+04  0.10320529821E+04  0.25500000920E-02 0. -1.
       -2   -1    0    0    0  501  0.00000000000E+00  0.00000000000E+00 -0.88882466301E+03  0.88882466302E+03  0.25500000920E-02 0.  1.
    10030    2    1    2    0    0  0.00000000000E+00  0.00000000000E+00  0.14322831909E+03  0.19208776451E+04  0.19155303642E+04 0.  0.
        4    1    3    3  502    0  0.25132425904E+03 -0.53910308135E+03  0.82438707716E+03  0.10165685818E+04  0.12699999809E+01 0. -1.
       -4    1    3    3    0  502 -0.25132425904E+03  0.53910308135E+03 -0.68115875807E+03  0.90430906338E+03  0.12699999809E+01 0.  1.
</event>
<event>
 5   0  0.4802635E-04  0.1890878E+04  0.7818609E-02  0.8659410E-01
        2   -1    0    0  501    0  0.00000000000E+00  0.00000000000E+00  0.22585861324E+04  0.22585861324E+04  0.25500000920E-02 0. -1.
       -2   -1    0    0    0  501  0.00000000000E+00  0.00000000000E+00 -0.39575852394E+03  0.39575852394E+03  0.25500000920E-02 0.  1.
    10030    2    1    2    0    0  0.00000000000E+00  0.00000000000E+00  0.18628276085E+04  0.26543446564E+04  0.18908778004E+04 0.  0.
        3    1    3    3  502    0 -0.38651081165E+03 -0.73864291166E+03  0.15574209653E+04  0.17665061652E+04  0.10100000352E+00 0. -1.
       -3    1    3    3    0  502  0.38651081165E+03  0.73864291166E+03  0.30540664322E+03  0.88783849116E+03  0.10100000352E+00 0.  1.
</event>
<event>
 5   0  0.1729375E-04  0.1604583E+04  0.7818609E-02  0.8817737E-01
       -4   -1    0    0    0  501  0.00000000000E+00  0.00000000000E+00  0.43243817439E+03  0.43244003928E+03  0.12699999809E+01 0. -1.
        4   -1    0    0  501    0  0.00000000000E+00  0.00000000000E+00 -0.14884661767E+04  0.14884667185E+04  0.12699999809E+01 0.  1.
    10030    2    1    2    0    0  0.00000000000E+00  0.00000000000E+00 -0.10560280023E+04  0.19209067578E+04  0.16045833199E+04 0.  0.
        2    1    3    3  502    0 -0.27015097444E+03  0.71358814587E+03 -0.23117625669E+03  0.79726535895E+03  0.25500000920E-02 0. -1.
       -2    1    3    3    0  502  0.27015097444E+03 -0.71358814587E+03 -0.82485174566E+03  0.11236413989E+04  0.25500000920E-02 0.  1.
</event>
<event>
 5   0  0.2510069E-04  0.1909075E+04  0.7818609E-02  0.8650352E-01
        1   -1    0    0  501    0  0.00000000000E+00  0.00000000000E+00  0.15514099698E+04  0.15514099698E+04  0.50400001928E-02 0.  1.
       -1   -1    0    0    0  501  0.00000000000E+00  0.00000000000E+00 -0.58729939442E+03  0.58729939444E+03  0.50400001928E-02 0. -1.
    10030    2    1    2    0    0  0.00000000000E+00  0.00000000000E+00  0.96411057536E+03  0.21387093642E+04  0.19090753110E+04 0.  0.
        4    1    3    3  502    0 -0.14185562987E+03 -0.19696936670E+03  0.15162557236E+04  0.15355627579E+04  0.12699999809E+01 0.  1.
       -4    1    3    3    0  502  0.14185562987E+03  0.19696936670E+03 -0.55214514823E+03  0.60314660636E+03  0.12699999809E+01 0. -1.
</event>
<event>
 5   0  0.2317458E-04  0.1445820E+04  0.7818609E-02  0.8921304E-01
       -1   -1    0    0    0  501  0.00000000000E+00  0.00000000000E+00  0.58579242768E+03  0.58579242770E+03  0.50400001928E-02 0.  1.
        1   -1    0    0  501    0  0.00000000000E+00  0.00000000000E+00 -0.89212254218E+03  0.89212254220E+03  0.50400001928E-02 0. -1.
    10030    2    1    2    0    0  0.00000000000E+00  0.00000000000E+00 -0.30633011451E+03  0.14779149699E+04  0.14458196704E+04 0.  0.
        3    1    3    3  502    0  0.17502645488E+03 -0.51698307839E+03 -0.63770541062E+03  0.83938904221E+03  0.10100000352E+00 0. -1.
       -3    1    3    3    0  502 -0.17502645488E+03  0.51698307839E+03  0.33137529612E+03  0.63852592768E+03  0.10100000352E+00 0.  1.
</event>
<event>
 5   0  0.2355414E-04  0.1630973E+04  0.7818609E-02  0.8801743E-01
       -1   -1    0    0    0  501  0.00000000000E+00  0.00000000000E+00  0.56311673704E+03  0.56311673706E+03  0.50400001928E-02 0.  1.
        1   -1    0    0  501    0  0.00000000000E+00  0.00000000000E+00 -0.11809601031E+04  0.11809601031E+04  0.50400001928E-02 0. -1.
    10030    2    1    2    0    0  0.00000000000E+00  0.00000000000E+00 -0.61784336607E+03  0.17440768402E+04  0.16309732062E+04 0.  0.
        5    1    3    3  502    0 -0.17251460110E+03 -0.78689944017E+03 -0.44428725783E+03  0.91999199671E+03  0.46999998093E+01 0. -1.
       -5    1    3    3    0  502  0.17251460110E+03  0.78689944017E+03 -0.17355610823E+03  0.82408484347E+03  0.46999998093E+01 0.  1.
</event>
<event>
 5   0  0.4761944E-04  0.1965513E+04  0.7818609E-02  0.8622916E-01
        2   -1    0    0  501    0  0.00000000000E+00  0.00000000000E+00  0.88237265208E+03  0.88237265208E+03  0.25500000920E-02 0.  1.
       -2   -1    0    0    0  501  0.00000000000E+00  0.00000000000E+00 -0.10945605459E+04  0.10945605459E+04  0.25500000920E-02 0. -1.
    10030    2    1    2    0    0  0.00000000000E+00  0.00000000000E+00 -0.21218789378E+03  0.19769331979E+04  0.19655129526E+04 0.  0.
        4    1    3    3  502    0 -0.92759565082E+03 -0.29258622984E+03  0.35322716608E+02  0.97328808712E+03  0.12699999809E+01 0.  1.
       -4    1    3    3    0  502  0.92759565082E+03  0.29258622984E+03 -0.24751061039E+03  0.10036451108E+04  0.12699999809E+01 0. -1.
</event>
<event>
 5   0  0.4973411E-04  0.1900336E+04  0.7818609E-02  0.8654689E-01
       -2   -1    0    0    0  501  0.00000000000E+00  0.00000000000E+00  0.69287598938E+03  0.69287598938E+03  0.25500000920E-02 0.  1.
        2   -1    0    0  501    0  0.00000000000E+00  0.00000000000E+00 -0.13030026684E+04  0.13030026684E+04  0.25500000920E-02 0. -1.
    10030    2    1    2    0    0  0.00000000000E+00  0.00000000000E+00 -0.61012667900E+03  0.19958786578E+04  0.19003360366E+04 0.  0.
        1    1    3    3  502    0  0.91754720524E+02  0.24887279212E+03 -0.12633294145E+04  0.12908748216E+04  0.50400001928E-02 0. -1.
       -1    1    3    3    0  502 -0.91754720524E+02 -0.24887279212E+03  0.65320273549E+03  0.70500383621E+03  0.50400001928E-02 0.  1.
</event>
<event>
 5   0  0.4839293E-04  0.1895845E+04  0.7818609E-02  0.8656927E-01
        2   -1    0    0  501    0  0.00000000000E+00  0.00000000000E+00  0.71368304680E+03  0.71368304680E+03  0.25500000920E-02 0. -1.
       -2   -1    0    0    0  501  0.00000000000E+00  0.00000000000E+00 -0.12590418241E+04  0.12590418241E+04  0.25500000920E-02 0.  1.
    10030    2    1    2    0    0  0.00000000000E+00  0.00000000000E+00 -0.54535877733E+03  0.19727248709E+04  0.18958447248E+04 0.  0.
        5    1    3    3  502    0  0.66754888203E+02  0.34008938915E+03 -0.11907373662E+04  0.12401590918E+04  0.46999998093E+01 0.  1.
       -5    1    3    3    0  502 -0.66754888203E+02 -0.34008938915E+03  0.64537858890E+03  0.73256577911E+03  0.46999998093E+01 0. -1.
</event>
<event>
 5   0  0.4761944E-04  0.1832727E+04  0.7818609E-02  0.8689087E-01
       -2   -1    0    0    0  501  0.00000000000E+00  0.00000000000E+00  0.10043208310E+04  0.10043208310E+04  0.25500000920E-02 0. -1.
        2   -1    0    0  501    0  0.00000000000E+00  0.00000000000E+00 -0.83610957435E+03  0.83610957435E+03  0.25500000920E-02 0.  1.
    10030    2    1    2    0    0  0.00000000000E+00  0.00000000000E+00  0.16821125663E+03  0.18404304053E+04  0.18327272165E+04 0.  0.
        4    1    3    3  502    0 -0.41314585869E+03  0.93667393646E+02  0.90008328006E+03  0.99479375004E+03  0.12699999809E+01 0. -1.
       -4    1    3    3    0  502  0.41314585869E+03 -0.93667393646E+02 -0.73187202343E+03  0.84563665529E+03  0.12699999809E+01 0.  1.
</event>
<event>
 5   0  0.4829134E-04  0.1888881E+04  0.7818609E-02  0.8660411E-01
        2   -1    0    0  501    0  0.00000000000E+00  0.00000000000E+00  0.16737150501E+04  0.16737150501E+04  0.25500000920E-02 0. -1.
       -2   -1    0    0    0  501  0.00000000000E+00  0.00000000000E+00 -0.53292703355E+03  0.53292703356E+03  0.25500000920E-02 0.  1.
    10030    2    1    2    0    0  0.00000000000E+00  0.00000000000E+00  0.11407880166E+04  0.22066420837E+04  0.18888811468E+04 0.  0.
        2    1    3    3  502    0  0.27890761658E+03 -0.83460297344E+03  0.97104039763E+03  0.13104468840E+04  0.25500000920E-02 0. -1.
       -2    1    3    3    0  502 -0.27890761658E+03  0.83460297344E+03  0.16974761894E+03  0.89619519972E+03  0.25500000920E-02 0.  1.
</event>
<event>
 5   0  0.4839293E-04  0.1926361E+04  0.7818609E-02  0.8641845E-01
        2   -1    0    0  501    0  0.00000000000E+00  0.00000000000E+00  0.95500471803E+03  0.95500471803E+03  0.25500000920E-02 0. -1.
       -2   -1    0    0    0  501  0.00000000000E+00  0.00000000000E+00 -0.97142618640E+03  0.97142618641E+03  0.25500000920E-02 0.  1.
    10030    2    1    2    0    0  0.00000000000E+00  0.00000000000E+00 -0.16421468373E+02  0.19264309044E+04  0.19263609124E+04 0.  0.
        5    1    3    3  502    0  0.69658164749E+02  0.89588416490E+03 -0.35497079773E+03  0.96617133785E+03  0.46999998093E+01 0.  1.
       -5    1    3    3    0  502 -0.69658164749E+02 -0.89588416490E+03  0.33854932936E+03  0.96025956660E+03  0.46999998093E+01 0. -1.
</event>
<event>
 5   0  0.4839293E-04  0.1808071E+04  0.7818609E-02  0.8702019E-01
        2   -1    0    0  501    0  0.00000000000E+00  0.00000000000E+00  0.15044158274E+04  0.15044158274E+04  0.25500000920E-02 0.  1.
       -2   -1    0    0    0  501  0.00000000000E+00  0.00000000000E+00 -0.54325397461E+03  0.54325397462E+03  0.25500000920E-02 0. -1.
    10030    2    1    2    0    0  0.00000000000E+00  0.00000000000E+00  0.96116185278E+03  0.20476698020E+04  0.18080706598E+04 0.  0.
        5    1    3    3  502    0 -0.50626299498E+03  0.74749299765E+03  0.53381867053E+03  0.10488243250E+04  0.46999998093E+01 0.  1.
       -5    1    3    3    0  502  0.50626299498E+03 -0.74749299765E+03  0.42734318224E+03  0.99884547705E+03  0.46999998093E+01 0. -1.
</event>
<event>
 5   0  0.2376359E-04  0.1810903E+04  0.7818609E-02  0.8700523E-01
       -1   -1    0    0    0  501  0.00000000000E+00  0.00000000000E+00  0.48209456883E+03  0.48209456886E+03  0.50400001928E-02 0. -1.
        1   -1    0    0  501    0  0.00000000000E+00  0.00000000000E+00 -0.17005846395E+04  0.17005846395E+04  0.50400001928E-02 0.  1.
    10030    2    1    2    0    0  0.00000000000E+00  0.00000000000E+00 -0.12184900707E+04  0.21826792084E+04  0.18109032206E+04 0.  0.
        2    1    3    3  502    0  0.38455639111E+03 -0.24395705510E+03 -0.15524972790E+04  0.16179142326E+04  0.25500000920E-02 0.  1.
       -2    1    3    3    0  502 -0.38455639111E+03  0.24395705510E+03  0.33400720832E+03  0.56476497580E+03  0.25500000920E-02 0. -1.
</event>
<event>
 5   0  0.2376359E-04  0.1875525E+04  0.7818609E-02  0.8667136E-01
        1   -1    0    0  501    0  0.00000000000E+00  0.00000000000E+00  0.13079013638E+04  0.13079013638E+04  0.50400001928E-02 0. -1.
       -1   -1    0    0    0  501  0.00000000000E+00  0.00000000000E+00 -0.67237374299E+03  0.67237374301E+03  0.50400001928E-02 0.  1.
    10030    2    1    2    0    0  0.00000000000E+00  0.00000000000E+00  0.63552762082E+03  0.19802751068E+04  0.18755250310E+04 0.  0.
        2    1    3    3  502    0  0.17628405062E+02  0.93746506873E+03  0.30116914563E+03  0.98481184499E+03  0.25500000920E-02 0. -1.
       -2    1    3    3    0  502 -0.17628405062E+02 -0.93746506873E+03  0.33435847520E+03  0.99546326185E+03  0.25500000920E-02 0.  1.
</event>
<event>
 5   0  0.2376359E-04  0.1868239E+04  0.7818609E-02  0.8670829E-01
       -1   -1    0    0    0  501  0.00000000000E+00  0.00000000000E+00  0.15537949693E+04  0.15537949693E+04  0.50400001928E-02 0.  1.
        1   -1    0    0  501    0  0.00000000000E+00  0.00000000000E+00 -0.56157925310E+03  0.56157925312E+03  0.50400001928E-02 0. -1.
    10030    2    1    2    0    0  0.00000000000E+00  0.00000000000E+00  0.99221571616E+03  0.21153742224E+04  0.18682387624E+04 0.  0.
        2    1    3    3  502    0 -0.79336099540E+03 -0.39260579298E+03  0.15828125632E+03  0.89922963353E+03  0.25500000920E-02 0.  1.
       -2    1    3    3    0  502  0.79336099540E+03  0.39260579298E+03  0.83393445984E+03  0.12161445889E+04  0.25500000920E-02 0. -1.
</event>
<event>
 5   0  0.2355414E-04  0.1884787E+04  0.7818609E-02  0.8662466E-01
        1   -1    0    0  501    0  0.00000000000E+00  0.00000000000E+00  0.14103797808E+04  0.14103797808E+04  0.50400001928E-02 0. -1.
       -1   -1    0    0    0  501  0.00000000000E+00  0.00000000000E+00 -0.62969274905E+03  0.62969274907E+03  0.50400001928E-02 0.  1.
    10030    2    1    2    0    0  0.00000000000E+00  0.00000000000E+00  0.78068703176E+03  0.20400725299E+04  0.18847874378E+04 0.  0.
        5    1    3    3  502    0 -0.63115030787E+03  0.13540233576E+03 -0.35280858335E+03  0.73564970614E+03  0.46999998093E+01 0.  1.
       -5    1    3    3    0  502  0.63115030787E+03 -0.13540233576E+03  0.11334956151E+04  0.13044228237E+04  0.46999998093E+01 0. -1.
</event>
<event>
 5   0  0.4802635E-04  0.1872608E+04  0.7818609E-02  0.8668613E-01
       -2   -1    0    0    0  501  0.00000000000E+00  0.00000000000E+00  0.57759947602E+03  0.57759947603E+03  0.25500000920E-02 0.  1.
        2   -1    0    0  501    0  0.00000000000E+00  0.00000000000E+00 -0.15177735602E+04  0.15177735602E+04  0.25500000920E-02 0. -1.
    10030    2    1    2    0    0  0.00000000000E+00  0.00000000000E+00 -0.94017408419E+03  0.20953730362E+04  0.18726080349E+04 0.  0.
        3    1    3    3  502    0 -0.38226791734E+03 -0.68799567744E+03 -0.10375644697E+04  0.13023082783E+04  0.10100000352E+00 0.  1.
       -3    1    3    3    0  502  0.38226791734E+03  0.68799567744E+03  0.97390385536E+02  0.79306475789E+03  0.10100000352E+00 0. -1.
</event>
<event>
 5   0  0.2317458E-04  0.1967326E+04  0.7818609E-02  0.8622051E-01
        1   -1    0    0  501    0  0.00000000000E+00  0.00000000000E+00  0.85549821843E+03  0.85549821844E+03  0.50400001928E-02 0. -1.
       -1   -1    0    0    0  501  0.00000000000E+00  0.00000000000E+00 -0.11310281527E+04  0.11310281527E+04  0.50400001928E-02 0.  1.
    10030    2    1    2    0    0  0.00000000000E+00  0.00000000000E+00 -0.27552993426E+03  0.19865263711E+04  0.19673256666E+04 0.  0.
        3    1    3    3  502    0  0.44912257137E+03  0.13981204200E+03 -0.10101028039E+04  0.11142558843E+04  0.10100000352E+00 0.  1.
       -3    1    3    3    0  502 -0.44912257137E+03 -0.13981204200E+03  0.73457286960E+03  0.87227048681E+03  0.10100000352E+00 0. -1.
</event>
<event>
 5   0  0.2376359E-04  0.1946088E+04  0.7818609E-02  0.8632250E-01
        1   -1    0    0  501    0  0.00000000000E+00  0.00000000000E+00  0.70745587471E+03  0.70745587473E+03  0.50400001928E-02 0.  1.
       -1   -1    0    0    0  501  0.00000000000E+00  0.00000000000E+00 -0.13383367824E+04  0.13383367824E+04  0.50400001928E-02 0. -1.
    10030    2    1    2    0    0  0.00000000000E+00  0.00000000000E+00 -0.63088090767E+03  0.20457926571E+04  0.19460875819E+04 0.  0.
        2    1    3    3  502    0  0.74789587785E+03 -0.34339506921E+03 -0.86121781827E+03  0.11912029836E+04  0.25500000920E-02 0. -1.
       -2    1    3    3    0  502 -0.74789587785E+03  0.34339506921E+03  0.23033691061E+03  0.85458967350E+03  0.25500000920E-02 0.  1.
</event>
<event>
 5   0  0.2355414E-04  0.1865116E+04  0.7818609E-02  0.8672418E-01
       -1   -1    0    0    0  501  0.00000000000E+00  0.00000000000E+00  0.78807436098E+03  0.78807436100E+03  0.50400001928E-02 0.  1.
        1   -1    0    0  501    0  0.00000000000E+00  0.00000000000E+00 -0.11035309671E+04  0.11035309671E+04  0.50400001928E-02 0. -1.
    10030    2    1    2    0    0  0.00000000000E+00  0.00000000000E+00 -0.31545660615E+03  0.18916053281E+04  0.18651160412E+04 0.  0.
        5    1    3    3  502    0  0.32725805271E+03  0.46821734175E+03  0.58984079724E+03  0.82113310022E+03  0.46999998093E+01 0.  1.
       -5    1    3    3    0  502 -0.32725805271E+03 -0.46821734175E+03 -0.90529740340E+03  0.10704722279E+04  0.46999998093E+01 0. -1.
</event>
<event>
 5   0  0.4829134E-04  0.1915297E+04  0.7818609E-02  0.8647279E-01
        2   -1    0    0  501    0  0.00000000000E+00  0.00000000000E+00  0.81585227306E+03  0.81585227306E+03  0.25500000920E-02 0.  1.
       -2   -1    0    0    0  501  0.00000000000E+00  0.00000000000E+00 -0.11240890395E+04  0.11240890395E+04  0.25500000920E-02 0. -1.
    10030    2    1    2    0    0  0.00000000000E+00  0.00000000000E+00 -0.30823676641E+03  0.19399413125E+04  0.19152969461E+04 0.  0.
        2    1    3    3  502    0  0.57520401283E+02 -0.37311865974E+03  0.73729933195E+03  0.82833352927E+03  0.25500000920E-02 0.  1.
       -2    1    3    3    0  502 -0.57520401283E+02  0.37311865974E+03 -0.10455360984E+04  0.11116077833E+04  0.25500000920E-02 0. -1.
</event>
<event>
 5   0  0.4761944E-04  0.1876329E+04  0.7818609E-02  0.8666730E-01
       -2   -1    0    0    0  501  0.00000000000E+00  0.00000000000E+00  0.88925680207E+03  0.88925680208E+03  0.25500000920E-02 0. -1.
        2   -1    0    0  501    0  0.00000000000E+00  0.00000000000E+00 -0.98976184734E+03  0.98976184734E+03  0.25500000920E-02 0.  1.
    10030    2    1    2    0    0  0.00000000000E+00  0.00000000000E+00 -0.10050504526E+03  0.18790186494E+04  0.18763288147E+04 0.  0.
        4    1    3    3  502    0 -0.56441110324E+02 -0.41908825900E+03  0.78840266127E+03  0.89465129350E+03  0.12699999809E+01 0. -1.
       -4    1    3    3    0  502  0.56441110324E+02  0.41908825900E+03 -0.88890770653E+03  0.98436735592E+03  0.12699999809E+01 0.  1.
</event>
<event>
 5   0  0.2317458E-04  0.1818610E+04  0.7818609E-02  0.8696465E-01
        1   -1    0    0  501    0  0.00000000000E+00  0.00000000000E+00  0.12207036776E+04  0.12207036776E+04  0.50400001928E-02 0. -1.
       -1   -1    0    0    0  501  0.00000000000E+00  0.00000000000E+00 -0.67734342052E+03  0.67734342054E+03  0.50400001928E-02 0.  1.
    10030    2    1    2    0    0  0.00000000000E+00  0.00000000000E+00  0.54336025708E+03  0.18980470982E+04  0.18186100236E+04 0.  0.
        3    1    3    3  502    0  0.84722238379E+03 -0.17503055908E+03 -0.20576633700E+02  0.86535823349E+03  0.10100000352E+00 0.  1.
       -3    1    3    3    0  502 -0.84722238379E+03  0.17503055908E+03  0.56393689077E+03  0.10326888647E+04  0.10100000352E+00 0. -1.
</event>
<event>
 5   0  0.4829134E-04  0.1908828E+04  0.7818609E-02  0.8650474E-01
       -2   -1    0    0    0  501  0.00000000000E+00  0.00000000000E+00  0.37290012894E+03  0.37290012895E+03  0.25500000920E-02 0.  1.
        2   -1    0    0  501    0  0.00000000000E+00  0.00000000000E+00 -0.24427622153E+04  0.24427622153E+04  0.25500000920E-02 0. -1.
    10030    2    1    2    0    0  0.00000000000E+00  0.00000000000E+00 -0.20698620864E+04  0.28156623443E+04  0.19088282742E+04 0.  0.
        2    1    3    3  502    0 -0.48028331550E+03 -0.32828749491E+03 -0.21509893763E+04  0.22282728826E+04  0.25500000920E-02 0. -1.
       -2    1    3    3    0  502  0.48028331550E+03  0.32828749491E+03  0.81127289939E+02  0.58738946164E+03  0.25500000920E-02 0.  1.
</event>
<event>
 5   0  0.2355414E-04  0.1909382E+04  0.7818609E-02  0.8650200E-01
        1   -1    0    0  501    0  0.00000000000E+00  0.00000000000E+00  0.50212197720E+03  0.50212197723E+03  0.50400001928E-02 0. -1.
       -1   -1    0    0    0  501  0.00000000000E+00  0.00000000000E+00 -0.18151671655E+04  0.18151671655E+04  0.50400001928E-02 0.  1.
    10030    2    1    2    0    0  0.00000000000E+00  0.00000000000E+00 -0.13130451883E+04  0.23172891427E+04  0.19093824406E+04 0.  0.
        5    1    3    3  502    0  0.39663616143E+03 -0.72839852630E+03 -0.82731463846E+02  0.83351739201E+03  0.46999998093E+01 0. -1.
       -5    1    3    3    0  502 -0.39663616143E+03  0.72839852630E+03 -0.12303137244E+04  0.14837717507E+04  0.46999998093E+01 0.  1.
</event>
<event>
 5   0  0.2510069E-04  0.1552299E+04  0.7818609E-02  0.8850401E-01
        1   -1    0    0  501    0  0.00000000000E+00  0.00000000000E+00  0.75181796864E+03  0.75181796866E+03  0.50400001928E-02 0.  1.
       -1   -1    0    0    0  501  0.00000000000E+00  0.00000000000E+00 -0.80126797166E+03  0.80126797167E+03  0.50400001928E-02 0. -1.
    10030    2    1    2    0    0  0.00000000000E+00  0.00000000000E+00 -0.49450003013E+02  0.15530859403E+04  0.15522985007E+04 0.  0.
        4    1    3    3  502    0 -0.66866828800E+02  0.45507684127E+03  0.60076406123E+03  0.75662750043E+03  0.12699999809E+01 0.  1.
       -4    1    3    3    0  502  0.66866828800E+02 -0.45507684127E+03 -0.65021406424E+03  0.79645843990E+03  0.12699999809E+01 0. -1.
</event>
<event>
 5   0  0.2376359E-04  0.1873543E+04  0.7818609E-02  0.8668139E-01
       -1   -1    0    0    0  501  0.00000000000E+00  0.00000000000E+00  0.55511300743E+03  0.55511300746E+03  0.50400001928E-02 0.  1.
        1   -1    0    0  501    0  0.00000000000E+00  0.00000000000E+00 -0.15808320336E+04  0.15808320336E+04  0.50400001928E-02 0. -1.
    10030    2    1    2    0    0  0.00000000000E+00  0.00000000000E+00 -0.10257190262E+04  0.21359450411E+04  0.18735425530E+04 0.  0.
        2    1    3    3  502    0 -0.95575506044E+02 -0.91376776412E+03 -0.30439981110E+03  0.96786644177E+03  0.25500000920E-02 0.  1.
       -2    1    3    3    0  502  0.95575506044E+02  0.91376776412E+03 -0.72131921509E+03  0.11680785993E+04  0.25500000920E-02 0. -1.
</event>
<event>
 5   0  0.2355414E-04  0.1716546E+04  0.7818609E-02  0.8751984E-01
        1   -1    0    0  501    0  0.00000000000E+00  0.00000000000E+00  0.11239815672E+04  0.11239815672E+04  0.50400001928E-02 0.  1.
       -1   -1    0    0    0  501  0.00000000000E+00  0.00000000000E+00 -0.65537760248E+03  0.65537760250E+03  0.50400001928E-02 0. -1.
    10030    2    1    2    0    0  0.00000000000E+00  0.00000000000E+00  0.46860396475E+03  0.17793591697E+04  0.17165457696E+04 0.  0.
        5    1    3    3  502    0 -0.35691078912E+03  0.72028735177E+03 -0.77385275169E+02  0.80759504166E+03  0.46999998093E+01 0. -1.
       -5    1    3    3    0  502  0.35691078912E+03 -0.72028735177E+03  0.54598923992E+03  0.97176412807E+03  0.46999998093E+01 0.  1.
</event>
<event>
 5   0  0.2261755E-04  0.1888925E+04  0.7818609E-02  0.8660389E-01
        1   -1    0    0  501    0  0.00000000000E+00  0.00000000000E+00  0.14239246214E+04  0.14239246214E+04  0.50400001928E-02 0.  1.
       -1   -1    0    0    0  501  0.00000000000E+00  0.00000000000E+00 -0.62644399030E+03  0.62644399032E+03  0.50400001928E-02 0. -1.
    10030    2    1    2    0    0  0.00000000000E+00  0.00000000000E+00  0.79748063113E+03  0.20503686118E+04  0.18889245848E+04 0.  0.
        1    1    3    3  502    0  0.83384415834E+01 -0.93955895038E+03  0.50267626343E+03  0.10656096737E+04  0.50400001928E-02 0.  1.
       -1    1    3    3    0  502 -0.83384415834E+01  0.93955895038E+03  0.29480436770E+03  0.98475893806E+03  0.50400001928E-02 0. -1.
</event>
<event>
 5   0  0.4802635E-04  0.1910118E+04  0.7818609E-02  0.8649836E-01
       -2   -1    0    0    0  501  0.00000000000E+00  0.00000000000E+00  0.62170819315E+03  0.62170819315E+03  0.25500000920E-02 0. -1.
        2   -1    0    0  501    0  0.00000000000E+00  0.00000000000E+00 -0.14671483477E+04  0.14671483477E+04  0.25500000920E-02 0.  1.
    10030    2    1    2    0    0  0.00000000000E+00  0.00000000000E+00 -0.84544015453E+03  0.20888565408E+04  0.19101184762E+04 0.  0.
        3    1    3    3  502    0  0.28087590261E+03 -0.28860390872E+03  0.52431444331E+03  0.66112716966E+03  0.10100000352E+00 0. -1.
       -3    1    3    3    0  502 -0.28087590261E+03  0.28860390872E+03 -0.13697545978E+04  0.14277293712E+04  0.10100000352E+00 0.  1.
</event>
<event>
 5   0  0.4802635E-04  0.1331077E+04  0.7818609E-02  0.9005277E-01
       -2   -1    0    0    0  501  0.00000000000E+00  0.00000000000E+00  0.47256210972E+03  0.47256210973E+03  0.25500000920E-02 0.  1.
        2   -1    0    0  501    0  0.00000000000E+00  0.00000000000E+00 -0.93731904953E+03  0.93731904953E+03  0.25500000920E-02 0. -1.
    10030    2    1    2    0    0  0.00000000000E+00  0.00000000000E+00 -0.46475693980E+03  0.14098811593E+04  0.13310769588E+04 0.  0.
        3    1    3    3  502    0 -0.49642697709E+03 -0.27070480558E+03 -0.60418844711E+03  0.82750500009E+03  0.10100000352E+00 0. -1.
       -3    1    3    3    0  502  0.49642697709E+03  0.27070480558E+03  0.13943150731E+03  0.58237615918E+03  0.10100000352E+00 0.  1.
</event>
<event>
 5   0  0.2355414E-04  0.1780769E+04  0.7818609E-02  0.8716593E-01
        1   -1    0    0  501    0  0.00000000000E+00  0.00000000000E+00  0.55733490218E+03  0.55733490220E+03  0.50400001928E-02 0. -1.
       -1   -1    0    0    0  501  0.00000000000E+00  0.00000000000E+00 -0.14224567747E+04  0.14224567747E+04  0.50400001928E-02 0.  1.
    10030    2    1    2    0    0  0.00000000000E+00  0.00000000000E+00 -0.86512187249E+03  0.19797916769E+04  0.17807692803E+04 0.  0.
        5    1    3    3  502    0 -0.34622213945E+02  0.76473255437E+03 -0.93807430405E+03  0.12107931563E+04  0.46999998093E+01 0.  1.
       -5    1    3    3    0  502  0.34622213945E+02 -0.76473255437E+03  0.72952431552E+02  0.76899852060E+03  0.46999998093E+01 0. -1.
</event>
<event>
 5   0  0.2317458E-04  0.1928677E+04  0.7818609E-02  0.8640712E-01
        1   -1    0    0  501    0  0.00000000000E+00  0.00000000000E+00  0.18179607662E+04  0.18179607662E+04  0.50400001928E-02 0.  1.
       -1   -1    0    0    0  501  0.00000000000E+00  0.00000000000E+00 -0.51153374771E+03  0.51153374773E+03  0.50400001928E-02 0. -1.
    10030    2    1    2    0    0  0.00000000000E+00  0.00000000000E+00  0.13064270185E+04  0.23294945139E+04  0.19286765244E+04 0.  0.
        3    1    3    3  502    0  0.43779822002E+03  0.34990133272E+03  0.16010638882E+04  0.16963206679E+04  0.10100000352E+00 0.  1.
       -3    1    3    3    0  502 -0.43779822002E+03 -0.34990133272E+03 -0.29463686971E+03  0.63317384602E+03  0.10100000352E+00 0. -1.
</event>
<event>
 5   0  0.2317458E-04  0.1897010E+04  0.7818609E-02  0.8656346E-01
       -1   -1    0    0    0  501  0.00000000000E+00  0.00000000000E+00  0.76587297546E+03  0.76587297547E+03  0.50400001928E-02 0. -1.
        1   -1    0    0  501    0  0.00000000000E+00  0.00000000000E+00 -0.11746875314E+04  0.11746875314E+04  0.50400001928E-02 0.  1.
    10030    2    1    2    0    0  0.00000000000E+00  0.00000000000E+00 -0.40881455593E+03  0.19405605069E+04  0.18970096836E+04 0.  0.
        3    1    3    3  502    0 -0.68227705466E+03  0.36948488095E+03 -0.76249639969E+03  0.10878519322E+04  0.10100000352E+00 0.  1.
       -3    1    3    3    0  502  0.68227705466E+03 -0.36948488095E+03  0.35368184377E+03  0.85270857471E+03  0.10100000352E+00 0. -1.
</event>
<event>
 5   0  0.4829134E-04  0.1892128E+04  0.7818609E-02  0.8658785E-01
       -2   -1    0    0    0  501  0.00000000000E+00  0.00000000000E+00  0.47448974891E+03  0.47448974892E+03  0.25500000920E-02 0.  1.
        2   -1    0    0  501    0  0.00000000000E+00  0.00000000000E+00 -0.18863148595E+04  0.18863148595E+04  0.25500000920E-02 0. -1.
    10030    2    1    2    0    0  0.00000000000E+00  0.00000000000E+00 -0.14118251106E+04  0.23608046084E+04  0.18921279704E+04 0.  0.
        2    1    3    3  502    0 -0.11213552100E+03  0.79660972970E+03 -0.13271054104E+04  0.15518924598E+04  0.25500000920E-02 0. -1.
       -2    1    3    3    0  502  0.11213552100E+03 -0.79660972970E+03 -0.84719700175E+02  0.80891214859E+03  0.25500000920E-02 0.  1.
</event>
<event>
 5   0  0.4829134E-04  0.1905381E+04  0.7818609E-02  0.8652183E-01
        2   -1    0    0  501    0  0.00000000000E+00  0.00000000000E+00  0.25130661553E+04  0.25130661553E+04  0.25500000920E-02 0.  1.
       -2   -1    0    0    0  501  0.00000000000E+00  0.00000000000E+00 -0.36116003980E+03  0.36116003981E+03  0.25500000920E-02 0. -1.
    10030    2    1    2    0    0  0.00000000000E+00  0.00000000000E+00  0.21519061155E+04  0.28742261951E+04  0.19053808781E+04 0.  0.
        2    1    3    3  502    0 -0.67994194010E+03  0.59627662776E+03  0.15278732286E+04  0.17754614784E+04  0.25500000920E-02 0.  1.
       -2    1    3    3    0  502  0.67994194010E+03 -0.59627662776E+03  0.62403288695E+03  0.10987647167E+04  0.25500000920E-02 0. -1.
</event>
<event>
 5   0  0.2510069E-04  0.1884793E+04  0.7818609E-02  0.8662463E-01
       -1   -1    0    0    0  501  0.00000000000E+00  0.00000000000E+00  0.70655853471E+03  0.70655853473E+03  0.50400001928E-02 0. -1.
        1   -1    0    0  501    0  0.00000000000E+00  0.00000000000E+00 -0.12569527983E+04  0.12569527984E+04  0.50400001928E-02 0.  1.
    10030    2    1    2    0    0  0.00000000000E+00  0.00000000000E+00 -0.55039426363E+03  0.19635113331E+04  0.18847925376E+04 0.  0.
        4    1    3    3  502    0  0.26333870064E+03 -0.18552906575E+03  0.64742159320E+03  0.72313528314E+03  0.12699999809E+01 0. -1.
       -4    1    3    3    0  502 -0.26333870064E+03  0.18552906575E+03 -0.11978158568E+04  0.12403760499E+04  0.12699999809E+01 0.  1.
</event>
<event>
 5   0  0.4973411E-04  0.1971129E+04  0.7818609E-02  0.8620239E-01
        2   -1    0    0  501    0  0.00000000000E+00  0.00000000000E+00  0.81197696273E+03  0.81197696274E+03  0.25500000920E-02 0. -1.
       -2   -1    0    0    0  501  0.00000000000E+00  0.00000000000E+00 -0.11962618186E+04  0.11962618186E+04  0.25500000920E-02 0.  1.
    10030    2    1    2    0    0  0.00000000000E+00  0.00000000000E+00 -0.38428485585E+03  0.20082387813E+04  0.19711286494E+04 0.  0.
        1    1    3    3  502    0 -0.32918421794E+03 -0.72962184588E+03 -0.77796941438E+03  0.11162198247E+04  0.50400001928E-02 0.  1.
       -1    1    3    3    0  502  0.32918421794E+03  0.72962184588E+03  0.39368455852E+03  0.89201895662E+03  0.50400001928E-02 0. -1.
</event>
<event>
 5   0  0.1729375E-04  0.1917410E+04  0.7818609E-02  0.8646239E-01
        3   -1    0    0  501    0  0.00000000000E+00  0.00000000000E+00  0.64711568607E+03  0.64711569395E+03  0.10100000352E+00 0. -1.
       -3   -1    0    0    0  501  0.00000000000E+00  0.00000000000E+00 -0.14203254215E+04  0.14203254251E+04  0.10100000352E+00 0.  1.
    10030    2    1    2    0    0  0.00000000000E+00  0.00000000000E+00 -0.77320973546E+03  0.20674411191E+04  0.19174095770E+04 0.  0.
        5    1    3    3  502    0 -0.28928957206E+03 -0.56408543067E+03  0.38884287028E+03  0.74370807268E+03  0.46999998093E+01 0. -1.
       -5    1    3    3    0  502  0.28928957206E+03  0.56408543067E+03 -0.11620526057E+04  0.13237330464E+04  0.46999998093E+01 0.  1.
</event>
<event>
 5   0  0.1729375E-04  0.1935882E+04  0.7818609E-02  0.8637199E-01
        4   -1    0    0  501    0  0.00000000000E+00  0.00000000000E+00  0.56780141438E+03  0.56780283468E+03  0.12699999809E+01 0.  1.
       -4   -1    0    0    0  501  0.00000000000E+00  0.00000000000E+00 -0.16500618715E+04  0.16500623603E+04  0.12699999809E+01 0. -1.
    10030    2    1    2    0    0  0.00000000000E+00  0.00000000000E+00 -0.10822604571E+04  0.22178651949E+04  0.19358817954E+04 0.  0.
        2    1    3    3  502    0 -0.47315652942E+03 -0.31044850126E+03 -0.14407876347E+04  0.15479419827E+04  0.25500000920E-02 0. -1.
       -2    1    3    3    0  502  0.47315652942E+03  0.31044850126E+03  0.35852717760E+03  0.66992321228E+03  0.25500000920E-02 0.  1.
</event>
<event>
 5   0  0.4839293E-04  0.1600984E+04  0.7818609E-02  0.8819944E-01
        2   -1    0    0  501    0  0.00000000000E+00  0.00000000000E+00  0.18786380387E+04  0.18786380387E+04  0.25500000920E-02 0. -1.
       -2   -1    0    0    0  501  0.00000000000E+00  0.00000000000E+00 -0.34109164332E+03  0.34109164333E+03  0.25500000920E-02 0.  1.
    10030    2    1    2    0    0  0.00000000000E+00  0.00000000000E+00  0.15375463954E+04  0.22197296820E+04  0.16009843670E+04 0.  0.
        5    1    3    3  502    0  0.38774302186E+03  0.72899139080E+02 -0.19690324990E+03  0.44096702291E+03  0.46999998093E+01 0.  1.
       -5    1    3    3    0  502 -0.38774302186E+03 -0.72899139080E+02  0.17344496453E+04  0.17787626591E+04  0.46999998093E+01 0. -1.
</event>
<event>
 5   0  0.4829134E-04  0.1959000E+04  0.7818609E-02  0.8626033E-01
       -2   -1    0    0    0  501  0.00000000000E+00  0.00000000000E+00  0.52502766732E+03  0.52502766732E+03  0.25500000920E-02 0.  1.
        2   -1    0    0  501    0  0.00000000000E+00  0.00000000000E+00 -0.18273713211E+04  0.18273713211E+04  0.25500000920E-02 0. -1.
    10030    2    1    2    0    0  0.00000000000E+00  0.00000000000E+00 -0.13023436538E+04  0.23523989885E+04  0.19590002573E+04 0.  0.
        2    1    3    3  502    0 -0.23833164524E+03 -0.87237571656E+03 -0.19934072436E+03  0.92605512166E+03  0.25500000920E-02 0.  1.
       -2    1    3    3    0  502  0.23833164524E+03  0.87237571656E+03 -0.11030029295E+04  0.14263438668E+04  0.25500000920E-02 0. -1.
</event>
<event>
 5   0  0.2355414E-04  0.1884044E+04  0.7818609E-02  0.8662840E-01
        1   -1    0    0  501    0  0.00000000000E+00  0.00000000000E+00  0.13131583372E+04  0.13131583372E+04  0.50400001928E-02 0. -1.
       -1   -1    0    0    0  501  0.00000000000E+00  0.00000000000E+00 -0.67577959173E+03  0.67577959175E+03  0.50400001928E-02 0.  1.
    10030    2    1    2    0    0  0.00000000000E+00  0.00000000000E+00  0.63737874548E+03  0.19889379290E+04  0.18840441662E+04 0.  0.
        5    1    3    3  502    0 -0.33650967538E+03  0.75362102642E+03 -0.16068475190E+03  0.84084784151E+03  0.46999998093E+01 0.  1.
       -5    1    3    3    0  502  0.33650967538E+03 -0.75362102642E+03  0.79806349737E+03  0.11480900875E+04  0.46999998093E+01 0. -1.
</event>
<event>
 5   0  0.4802635E-04  0.1772428E+04  0.7818609E-02  0.8721101E-01
       -2   -1    0    0    0  501  0.00000000000E+00  0.00000000000E+00  0.71842300889E+03  0.71842300890E+03  0.25500000920E-02 0. -1.
        2   -1    0    0  501    0  0.00000000000E+00  0.00000000000E+00 -0.10931930718E+04  0.10931930718E+04  0.25500000920E-02 0.  1.
    10030    2    1    2    0    0  0.00000000000E+00  0.00000000000E+00 -0.37477006292E+03  0.18116160807E+04  0.17724277768E+04 0.  0.
        3    1    3    3  502    0 -0.69292300632E+03  0.51606511759E+03  0.14231300574E+02  0.86409955353E+03  0.10100000352E+00 0.  1.
       -3    1    3    3    0  502  0.69292300632E+03 -0.51606511759E+03 -0.38900136349E+03  0.94751652718E+03  0.10100000352E+00 0. -1.
</event>
<event>
 5   0  0.2317458E-04  0.1953823E+04  0.7818609E-02  0.8628520E-01
        1   -1    0    0  501    0  0.00000000000E+00  0.00000000000E+00  0.69542765580E+03  0.69542765582E+03  0.50400001928E-02 0. -1.
       -1   -1    0    0    0  501  0.00000000000E+00  0.00000000000E+00 -0.13723292799E+04  0.13723292799E+04  0.50400001928E-02 0.  1.
    10030    2    1    2    0    0  0.00000000000E+00  0.00000000000E+00 -0.67690162405E+03  0.20677569357E+04  0.19538226471E+04 0.  0.
        3    1    3    3  502    0  0.23631524796E+03  0.10199706661E+02  0.66466450190E+03  0.70549829250E+03  0.10100000352E+00 0. -1.
       -3    1    3    3    0  502 -0.23631524796E+03 -0.10199706661E+02 -0.13415661259E+04  0.13622586432E+04  0.10100000352E+00 0.  1.
</event>
<event>
 5   0  0.4761944E-04  0.1657310E+04  0.7818609E-02  0.8786094E-01
        2   -1    0    0  501    0  0.00000000000E+00  0.00000000000E+00  0.68577440291E+03  0.68577440291E+03  0.25500000920E-02 0.  1.
       -2   -1    0    0    0  501  0.00000000000E+00  0.00000000000E+00 -0.10013042216E+04  0.10013042216E+04  0.25500000920E-02 0. -1.
    10030    2    1    2    0    0  0.00000000000E+00  0.00000000000E+00 -0.31552981868E+03  0.16870786245E+04  0.16573096327E+04 0.  0.
        4    1    3    3  502    0  0.56747490936E+03 -0.59386247188E+03 -0.26912264356E+03  0.86436625249E+03  0.12699999809E+01 0. -1.
       -4    1    3    3    0  502 -0.56747490936E+03  0.59386247188E+03 -0.46407175120E+02  0.82271237201E+03  0.12699999809E+01 0.  1.
</event>
<event>
 5   0  0.2376359E-04  0.1235159E+04  0.7818609E-02  0.9082626E-01
       -1   -1    0    0    0  501  0.00000000000E+00  0.00000000000E+00  0.40533151649E+03  0.40533151653E+03  0.50400001928E-02 0.  1.
        1   -1    0    0  501    0  0.00000000000E+00  0.00000000000E+00 -0.94096965895E+03  0.94096965897E+03  0.50400001928E-02 0. -1.
    10030    2    1    2    0    0  0.00000000000E+00  0.00000000000E+00 -0.53563814246E+03  0.13463011755E+04  0.12351593563E+04 0.  0.
        2    1    3    3  502    0  0.46804592991E+03 -0.96829200968E+02  0.15847636750E+03  0.50354507815E+03  0.25500000920E-02 0.  1.
       -2    1    3    3    0  502 -0.46804592991E+03  0.96829200968E+02 -0.69411450996E+03  0.84275609734E+03  0.25500000920E-02 0. -1.
</event>
<event>
 5   0  0.2261755E-04  0.1860423E+04  0.7818609E-02  0.8674811E-01
        1   -1    0    0  501    0  0.00000000000E+00  0.00000000000E+00  0.41066051409E+03  0.41066051412E+03  0.50400001928E-02 0. -1.
       -1   -1    0    0    0  501  0.00000000000E+00  0.00000000000E+00 -0.21070771768E+04  0.21070771768E+04  0.50400001928E-02 0.  1.
    10030    2    1    2    0    0  0.00000000000E+00  0.00000000000E+00 -0.16964166627E+04  0.25177376910E+04  0.18604229591E+04 0.  0.
        1    1    3    3  502    0  0.49571284014E+03 -0.22098564169E+03  0.17417367943E+03  0.57000205644E+03  0.50400001928E-02 0. -1.
       -1    1    3    3    0  502 -0.49571284014E+03  0.22098564169E+03 -0.18705903422E+04  0.19477356345E+04  0.50400001928E-02 0.  1.
</event>
<event>
 5   0  0.4839293E-04  0.1906076E+04  0.7818609E-02  0.8651838E-01
       -2   -1    0    0    0  501  0.00000000000E+00  0.00000000000E+00  0.69380468730E+03  0.69380468731E+03  0.25500000920E-02 0.  1.
        2   -1    0    0  501    0  0.00000000000E+00  0.00000000000E+00 -0.13091319630E+04  0.13091319630E+04  0.25500000920E-02 0. -1.
    10030    2    1    2    0    0  0.00000000000E+00  0.00000000000E+00 -0.61532727571E+03  0.20029366503E+04  0.19060764856E+04 0.  0.
        5    1    3    3  502    0  0.66209749849E+03 -0.48790946992E+03  0.19829229700E+03  0.84603231226E+03  0.46999998093E+01 0.  1.
       -5    1    3    3    0  502 -0.66209749849E+03  0.48790946992E+03 -0.81361957271E+03  0.11569043381E+04  0.46999998093E+01 0. -1.
</event>
<event>
 5   0  0.2355414E-04  0.1875428E+04  0.7818609E-02  0.8667185E-01
        1   -1    0    0  501    0  0.00000000000E+00  0.00000000000E+00  0.17084901233E+04  0.17084901233E+04  0.50400001928E-02 0. -1.
       -1   -1    0    0    0  501  0.00000000000E+00  0.00000000000E+00 -0.51466910357E+03  0.51466910359E+03  0.50400001928E-02 0.  1.
    10030    2    1    2    0    0  0.00000000000E+00  0.00000000000E+00  0.11938210197E+04  0.22231592269E+04  0.18754275035E+04 0.  0.
        5    1    3    3  502    0  0.32355131773E+03  0.79964138695E+03  0.10327389484E+04  0.13456164492E+04  0.46999998093E+01 0. -1.
       -5    1    3    3    0  502 -0.32355131773E+03 -0.79964138695E+03  0.16108207135E+03  0.87754277767E+03  0.46999998093E+01 0.  1.
</event>
<event>
 5   0  0.4802635E-04  0.1833438E+04  0.7818609E-02  0.8688717E-01
        2   -1    0    0  501    0  0.00000000000E+00  0.00000000000E+00  0.62042071368E+03  0.62042071369E+03  0.25500000920E-02 0.  1.
       -2   -1    0    0    0  501  0.00000000000E+00  0.00000000000E+00 -0.13545219597E+04  0.13545219597E+04  0.25500000920E-02 0. -1.
    10030    2    1    2    0    0  0.00000000000E+00  0.00000000000E+00 -0.73410124603E+03  0.19749426734E+04  0.18334377338E+04 0.  0.
        3    1    3    3  502    0 -0.41290013644E+03  0.43633497844E+03 -0.11129531206E+04  0.12647289808E+04  0.10100000352E+00 0. -1.
       -3    1    3    3    0  502  0.41290013644E+03 -0.43633497844E+03  0.37885187455E+03  0.71021369259E+03  0.10100000352E+00 0.  1.
</event>
<event>
 5   0  0.4973411E-04  0.1749912E+04  0.7818609E-02  0.8733399E-01
        2   -1    0    0  501    0  0.00000000000E+00  0.00000000000E+00  0.94957631106E+03  0.94957631107E+03  0.25500000920E-02 0. -1.
       -2   -1    0    0    0  501  0.00000000000E+00  0.00000000000E+00 -0.80619931213E+03  0.80619931213E+03  0.25500000920E-02 0.  1.
    10030    2    1    2    0    0  0.00000000000E+00  0.00000000000E+00  0.14337699894E+03  0.17557756232E+04  0.17499117335E+04 0.  0.
        1    1    3    3  502    0 -0.48337316282E+03 -0.32320357941E+03  0.72766643768E+03  0.93145510511E+03  0.50400001928E-02 0. -1.
       -1    1    3    3    0  502  0.48337316282E+03  0.32320357941E+03 -0.58428943875E+03  0.82432051809E+03  0.50400001928E-02 0.  1.
</event>
<event>
 5   0  0.2376359E-04  0.1850284E+04  0.7818609E-02  0.8680007E-01
       -1   -1    0    0    0  501  0.00000000000E+00  0.00000000000E+00  0.48021094768E+03  0.48021094771E+03  0.50400001928E-02 0.  1.
        1   -1    0    0  501    0  0.00000000000E+00  0.00000000000E+00 -0.17823165610E+04  0.17823165610E+04  0.50400001928E-02 0. -1.
    10030    2    1    2    0    0  0.00000000000E+00  0.00000000000E+00 -0.13021056133E+04  0.22625275087E+04  0.18502842212E+04 0.  0.
        2    1    3    3  502    0  0.39065937566E+03  0.36176087021E+03  0.27408427532E+03  0.59883876377E+03  0.25500000920E-02 0.  1.
       -2    1    3    3    0  502 -0.39065937566E+03 -0.36176087021E+03 -0.15761898886E+04  0.16636887449E+04  0.25500000920E-02 0. -1.
</event>
<event>
 5   0  0.2376359E-04  0.1867577E+04  0.7818609E-02  0.8671166E-01
        1   -1    0    0  501    0  0.00000000000E+00  0.00000000000E+00  0.11229262328E+04  0.11229262328E+04  0.50400001928E-02 0. -1.
       -1   -1    0    0    0  501  0.00000000000E+00  0.00000000000E+00 -0.77650777851E+03  0.77650777853E+03  0.50400001928E-02 0.  1.
    10030    2    1    2    0    0  0.00000000000E+00  0.00000000000E+00  0.34641845425E+03  0.18994340113E+04  0.18675769911E+04 0.  0.
        2    1    3    3  502    0  0.51842743744E+03  0.41759539729E+03 -0.49279525302E+03  0.82825122102E+03  0.25500000920E-02 0.  1.
       -2    1    3    3    0  502 -0.51842743744E+03 -0.41759539729E+03  0.83921370727E+03  0.10711827903E+04  0.25500000920E-02 0. -1.
</event>
<event>
 5   0  0.4802635E-04  0.1925474E+04  0.7818609E-02  0.8642279E-01
       -2   -1    0    0    0  501  0.00000000000E+00  0.00000000000E+00  0.61466574627E+03  0.61466574627E+03  0.25500000920E-02 0. -1.
        2   -1    0    0  501    0  0.00000000000E+00  0.00000000000E+00 -0.15079138591E+04  0.15079138591E+04  0.25500000920E-02 0.  1.
    10030    2    1    2    0    0  0.00000000000E+00  0.00000000000E+00 -0.89324811287E+03  0.21225796054E+04  0.19254744844E+04 0.  0.
        3    1    3    3  502    0  0.38147313530E+03  0.36516682040E+03 -0.13340085894E+04  0.14347290638E+04  0.10100000352E+00 0.  1.
       -3    1    3    3    0  502 -0.38147313530E+03 -0.36516682040E+03  0.44076047656E+03  0.68785054160E+03  0.10100000352E+00 0. -1.
</event>
<event>
 5   0  0.4839293E-04  0.1910593E+04  0.7818609E-02  0.8649601E-01
       -2   -1    0    0    0  501  0.00000000000E+00  0.00000000000E+00  0.91029416954E+03  0.91029416954E+03  0.25500000920E-02 0.  1.
        2   -1    0    0  501    0  0.00000000000E+00  0.00000000000E+00 -0.10025241043E+04  0.10025241043E+04  0.25500000920E-02 0. -1.
    10030    2    1    2    0    0  0.00000000000E+00  0.00000000000E+00 -0.92229934731E+02  0.19128182738E+04  0.19105934648E+04 0.  0.
        5    1    3    3  502    0  0.80911125910E+03 -0.45198635307E+03  0.18570825517E+03  0.94523136797E+03  0.46999998093E+01 0.  1.
       -5    1    3    3    0  502 -0.80911125910E+03  0.45198635307E+03 -0.27793818990E+03  0.96758690585E+03  0.46999998093E+01 0. -1.
</event>
<event>
 5   0  0.2510069E-04  0.1934579E+04  0.7818609E-02  0.8637833E-01
       -1   -1    0    0    0  501  0.00000000000E+00  0.00000000000E+00  0.36626722892E+03  0.36626722896E+03  0.50400001928E-02 0. -1.
        1   -1    0    0  501    0  0.00000000000E+00  0.00000000000E+00 -0.25545517449E+04  0.25545517449E+04  0.50400001928E-02 0.  1.
    10030    2    1    2    0    0  0.00000000000E+00  0.00000000000E+00 -0.21882845159E+04  0.29208189738E+04  0.19345785989E+04 0.  0.
        4    1    3    3  502    0  0.76971956573E+03 -0.56806969044E+03 -0.13101834198E+04  0.16222680388E+04  0.12699999809E+01 0. -1.
       -4    1    3    3    0  502 -0.76971956573E+03  0.56806969044E+03 -0.87810109612E+03  0.12985509351E+04  0.12699999809E+01 0.  1.
</event>
<event>
 5   0  0.2510069E-04  0.1959981E+04  0.7818609E-02  0.8625563E-01
       -1   -1    0    0    0  501  0.00000000000E+00  0.00000000000E+00  0.63771701760E+03  0.63771701762E+03  0.50400001928E-02 0.  1.
        1   -1    0    0  501    0  0.00000000000E+00  0.00000000000E+00 -0.15059673358E+04  0.15059673358E+04  0.50400001928E-02 0. -1.
    10030    2    1    2    0    0  0.00000000000E+00  0.00000000000E+00 -0.86825031818E+03  0.21436843534E+04  0.19599806101E+04 0.  0.
        4    1    3    3  502    0  0.72205181982E+03  0.18721941533E+03  0.26103251593E+03  0.79028445970E+03  0.12699999809E+01 0.  1.
       -4    1    3    3    0  502 -0.72205181982E+03 -0.18721941533E+03 -0.11292828341E+04  0.13533998937E+04  0.12699999809E+01 0. -1.
</event>
<event>
 5   0  0.2261755E-04  0.1921095E+04  0.7818609E-02  0.8644427E-01
       -1   -1    0    0    0  501  0.00000000000E+00  0.00000000000E+00  0.57823049441E+03  0.57823049443E+03  0.50400001928E-02 0.  1.
        1   -1    0    0  501    0  0.00000000000E+00  0.00000000000E+00 -0.15956467013E+04  0.15956467013E+04  0.50400001928E-02 0. -1.
    10030    2    1    2    0    0  0.00000000000E+00  0.00000000000E+00 -0.10174162069E+04  0.21738771957E+04  0.19210950846E+04 0.  0.
        1    1    3    3  502    0  0.41360760091E+03 -0.19951878208E+03 -0.14633857975E+04  0.15337460625E+04  0.50400001928E-02 0. -1.
       -1    1    3    3    0  502 -0.41360760091E+03  0.19951878208E+03  0.44596959062E+03  0.64013113322E+03  0.50400001928E-02 0.  1.
</event>
<event>
 5   0  0.2261755E-04  0.1914602E+04  0.7818609E-02  0.8647622E-01
       -1   -1    0    0    0  501  0.00000000000E+00  0.00000000000E+00  0.56077102059E+03  0.56077102061E+03  0.50400001928E-02 0. -1.
        1   -1    0    0  501    0  0.00000000000E+00  0.00000000000E+00 -0.16342238012E+04  0.16342238012E+04  0.50400001928E-02 0.  1.
    10030    2    1    2    0    0  0.00000000000E+00  0.00000000000E+00 -0.10734527806E+04  0.21949948218E+04  0.19146021507E+04 0.  0.
        1    1    3    3  502    0 -0.63119529618E+03  0.17341038650E+03  0.26410510242E+03  0.70585421243E+03  0.50400001928E-02 0. -1.
       -1    1    3    3    0  502  0.63119529618E+03 -0.17341038650E+03 -0.13375578830E+04  0.14891406094E+04  0.50400001928E-02 0.  1.
</event>
<event>
 5   0  0.2376359E-04  0.1578449E+04  0.7818609E-02  0.8833898E-01
        1   -1    0    0  501    0  0.00000000000E+00  0.00000000000E+00  0.18384269987E+04  0.18384269987E+04  0.50400001928E-02 0.  1.
       -1   -1    0    0    0  501  0.00000000000E+00  0.00000000000E+00 -0.33880896138E+03  0.33880896142E+03  0.50400001928E-02 0. -1.
    10030    2    1    2    0    0  0.00000000000E+00  0.00000000000E+00  0.14996180373E+04  0.21772359601E+04  0.15784492923E+04 0.  0.
        2    1    3    3  502    0 -0.58732490972E+03  0.23801334335E+03  0.13986536062E+04  0.15355236277E+04  0.25500000920E-02 0.  1.
       -2    1    3    3    0  502  0.58732490972E+03 -0.23801334335E+03  0.10096443112E+03  0.64171233239E+03  0.25500000920E-02 0. -1.
</event>
<event>
 5   0  0.2355414E-04  0.2051912E+04  0.7818609E-02  0.8582728E-01
        1   -1    0    0  501    0  0.00000000000E+00  0.00000000000E+00  0.43339882880E+03  0.43339882883E+03  0.50400001928E-02 0.  1.
       -1   -1    0    0    0  501  0.00000000000E+00  0.00000000000E+00 -0.24286763959E+04  0.24286763959E+04  0.50400001928E-02 0. -1.
    10030    2    1    2    0    0  0.00000000000E+00  0.00000000000E+00 -0.19952775671E+04  0.28620752247E+04  0.20519117969E+04 0.  0.
        5    1    3    3  502    0  0.88443148200E+03 -0.30126002123E+03 -0.40654073688E+03  0.10189573629E+04  0.46999998093E+01 0. -1.
       -5    1    3    3    0  502 -0.88443148200E+03  0.30126002123E+03 -0.15887368302E+04  0.18431178618E+04  0.46999998093E+01 0.  1.
</event>
<event>
 5   0  0.2376359E-04  0.1957294E+04  0.7818609E-02  0.8626851E-01
        1   -1    0    0  501    0  0.00000000000E+00  0.00000000000E+00  0.14452770290E+04  0.14452770290E+04  0.50400001928E-02 0. -1.
       -1   -1    0    0    0  501  0.00000000000E+00  0.00000000000E+00 -0.66267599759E+03  0.66267599761E+03  0.50400001928E-02 0.  1.
    10030    2    1    2    0    0  0.00000000000E+00  0.00000000000E+00  0.78260103138E+03  0.21079530266E+04  0.19572944561E+04 0.  0.
        2    1    3    3  502    0 -0.11267376932E+03  0.34900251733E+03 -0.58587196795E+03  0.69119034876E+03  0.25500000920E-02 0.  1.
       -2    1    3    3    0  502  0.11267376932E+03 -0.34900251733E+03  0.13684729993E+04  0.14167626778E+04  0.25500000920E-02 0. -1.
</event>
<event>
 5   0  0.4973411E-04  0.1930136E+04  0.7818609E-02  0.8640000E-01
        2   -1    0    0  501    0  0.00000000000E+00  0.00000000000E+00  0.30330046138E+04  0.30330046138E+04  0.25500000920E-02 0. -1.
       -2   -1    0    0    0  501  0.00000000000E+00  0.00000000000E+00 -0.30707375628E+03  0.30707375629E+03  0.25500000920E-02 0.  1.
    10030    2    1    2    0    0  0.00000000000E+00  0.00000000000E+00  0.27259308575E+04  0.33400783701E+04  0.19301358704E+04 0.  0.
        1    1    3    3  502    0  0.21590383359E+03  0.17570283661E+03 -0.23609433428E+03  0.36500203678E+03  0.50400001928E-02 0.  1.
       -1    1    3    3    0  502 -0.21590383359E+03 -0.17570283661E+03  0.29620251918E+04  0.29750763333E+04  0.50400001928E-02 0. -1.
</event>
<event>
 5   0  0.4973411E-04  0.1794827E+04  0.7818609E-02  0.8709055E-01
       -2   -1    0    0    0  501  0.00000000000E+00  0.00000000000E+00  0.40523464523E+03  0.40523464524E+03  0.25500000920E-02 0.  1.
        2   -1    0    0  501    0  0.00000000000E+00  0.00000000000E+00 -0.19873693154E+04  0.19873693154E+04  0.25500000920E-02 0. -1.
    10030    2    1    2    0    0  0.00000000000E+00  0.00000000000E+00 -0.15821346702E+04  0.23926039607E+04  0.17948268992E+04 0.  0.
        1    1    3    3  502    0  0.11145128885E+03  0.34524901492E+03  0.30312089156E+03  0.47275844468E+03  0.50400001928E-02 0.  1.
       -1    1    3    3    0  502 -0.11145128885E+03 -0.34524901492E+03 -0.18852555618E+04  0.19198455160E+04  0.50400001928E-02 0. -1.
</event>
<event>
 5   0  0.4829134E-04  0.1917803E+04  0.7818609E-02  0.8646045E-01
        2   -1    0    0  501    0  0.00000000000E+00  0.00000000000E+00  0.11072201452E+04  0.11072201452E+04  0.25500000920E-02 0. -1.
       -2   -1    0    0    0  501  0.00000000000E+00  0.00000000000E+00 -0.83045073804E+03  0.83045073804E+03  0.25500000920E-02 0.  1.
    10030    2    1    2    0    0  0.00000000000E+00  0.00000000000E+00  0.27676940714E+03  0.19376708832E+04  0.19178026872E+04 0.  0.
        2    1    3    3  502    0 -0.84033455251E+03  0.35030030484E+03 -0.16576436947E+03  0.92539196555E+03  0.25500000920E-02 0. -1.
       -2    1    3    3    0  502  0.84033455251E+03 -0.35030030484E+03  0.44253377661E+03  0.10122789177E+04  0.25500000920E-02 0.  1.
</event>
<event>
 5   0  0.2510069E-04  0.1864892E+04  0.7818609E-02  0.8672532E-01
       -1   -1    0    0    0  501  0.00000000000E+00  0.00000000000E+00  0.69534022949E+03  0.69534022951E+03  0.50400001928E-02 0. -1.
        1   -1    0    0  501    0  0.00000000000E+00  0.00000000000E+00 -0.12504029211E+04  0.12504029211E+04  0.50400001928E-02 0.  1.
    10030    2    1    2    0    0  0.00000000000E+00  0.00000000000E+00 -0.55506269157E+03  0.19457431506E+04  0.18648919048E+04 0.  0.
        4    1    3    3  502    0  0.15100537910E+03 -0.22959057093E+02 -0.12372609219E+04  0.12466538993E+04  0.12699999809E+01 0.  1.
       -4    1    3    3    0  502 -0.15100537910E+03  0.22959057093E+02  0.68219823036E+03  0.69908925126E+03  0.12699999809E+01 0. -1.
</event>
<event>
 5   0  0.2510069E-04  0.1900404E+04  0.7818609E-02  0.8654655E-01
       -1   -1    0    0    0  501  0.00000000000E+00  0.00000000000E+00  0.12483132131E+04  0.12483132131E+04  0.50400001928E-02 0. -1.
        1   -1    0    0  501    0  0.00000000000E+00  0.00000000000E+00 -0.72328336482E+03  0.72328336484E+03  0.50400001928E-02 0.  1.
    10030    2    1    2    0    0  0.00000000000E+00  0.00000000000E+00  0.52502984829E+03  0.19715965780E+04  0.19004043582E+04 0.  0.
        4    1    3    3  502    0 -0.64171251508E+03  0.53257989407E+03  0.73503999506E+03  0.11116302006E+04  0.12699999809E+01 0. -1.
       -4    1    3    3    0  502  0.64171251508E+03 -0.53257989407E+03 -0.21001014678E+03  0.85996637738E+03  0.12699999809E+01 0.  1.
</event>
<event>
 5   0  0.2261755E-04  0.1793566E+04  0.7818609E-02  0.8709728E-01
       -1   -1    0    0    0  501  0.00000000000E+00  0.00000000000E+00  0.89839934844E+03  0.89839934846E+03  0.50400001928E-02 0.  1.
        1   -1    0    0  501    0  0.00000000000E+00  0.00000000000E+00 -0.89516994743E+03  0.89516994745E+03  0.50400001928E-02 0. -1.
    10030    2    1    2    0    0  0.00000000000E+00  0.00000000000E+00  0.32294010109E+01  0.17935692959E+04  0.17935663886E+04 0.  0.
        1    1    3    3  502    0 -0.49751730988E+03 -0.51851247310E+03  0.53812413407E+03  0.89775065697E+03  0.50400001928E-02 0.  1.
       -1    1    3    3    0  502  0.49751730988E+03  0.51851247310E+03 -0.53489473306E+03  0.89581863894E+03  0.50400001928E-02 0. -1.
</event>
<event>
 5   0  0.2376359E-04  0.2108751E+04  0.7818609E-02  0.8557398E-01
       -1   -1    0    0    0  501  0.00000000000E+00  0.00000000000E+00  0.80559888453E+03  0.80559888455E+03  0.50400001928E-02 0. -1.
        1   -1    0    0  501    0  0.00000000000E+00  0.00000000000E+00 -0.13799769174E+04  0.13799769174E+04  0.50400001928E-02 0.  1.
    10030    2    1    2    0    0  0.00000000000E+00  0.00000000000E+00 -0.57437803286E+03  0.21855758019E+04  0.21087511616E+04 0.  0.
        2    1    3    3  502    0  0.34798442307E+03 -0.13249269098E+03 -0.13095645238E+04  0.13614722597E+04  0.25500000920E-02 0.  1.
       -2    1    3    3    0  502 -0.34798442307E+03  0.13249269098E+03  0.73518649096E+03  0.82410354226E+03  0.25500000920E-02 0. -1.
</event>
<event>
 5   0  0.2376359E-04  0.2022346E+04  0.7818609E-02  0.8596244E-01
        1   -1    0    0  501    0  0.00000000000E+00  0.00000000000E+00  0.13001187601E+04  0.13001187601E+04  0.50400001928E-02 0.  1.
       -1   -1    0    0    0  501  0.00000000000E+00  0.00000000000E+00 -0.78644390462E+03  0.78644390464E+03  0.50400001928E-02 0. -1.
    10030    2    1    2    0    0  0.00000000000E+00  0.00000000000E+00  0.51367485551E+03  0.20865626648E+04  0.20223456423E+04 0.  0.
        2    1    3    3  502    0  0.23235666147E+03  0.89022677392E+03 -0.17597944720E+03  0.93672946627E+03  0.25500000920E-02 0. -1.
       -2    1    3    3    0  502 -0.23235666147E+03 -0.89022677392E+03  0.68965430271E+03  0.11498331985E+04  0.25500000920E-02 0.  1.
</event>
<event>
 5   0  0.4802635E-04  0.2057165E+04  0.7818609E-02  0.8580351E-01
        2   -1    0    0  501    0  0.00000000000E+00  0.00000000000E+00  0.11527370636E+04  0.11527370636E+04  0.25500000920E-02 0.  1.
       -2   -1    0    0    0  501  0.00000000000E+00  0.00000000000E+00 -0.91779981046E+03  0.91779981046E+03  0.25500000920E-02 0. -1.
    10030    2    1    2    0    0  0.00000000000E+00  0.00000000000E+00  0.23493725311E+03  0.20705368740E+04  0.20571649020E+04 0.  0.
        3    1    3    3  502    0 -0.90164287894E+02 -0.71784261883E+03  0.85335328002E+03  0.11187669350E+04  0.10100000352E+00 0.  1.
       -3    1    3    3    0  502  0.90164287894E+02  0.71784261883E+03 -0.61841602691E+03  0.95176993899E+03  0.10100000352E+00 0. -1.
</event>
<event>
 5   0  0.4973411E-04  0.1863657E+04  0.7818609E-02  0.8673161E-01
       -2   -1    0    0    0  501  0.00000000000E+00  0.00000000000E+00  0.13440698063E+04  0.13440698063E+04  0.25500000920E-02 0.  1.
        2   -1    0    0  501    0  0.00000000000E+00  0.00000000000E+00 -0.64602615379E+03  0.64602615380E+03  0.25500000920E-02 0. -1.
    10030    2    1    2    0    0  0.00000000000E+00  0.00000000000E+00  0.69804365246E+03  0.19900959601E+04  0.18636568862E+04 0.  0.
        1    1    3    3  502    0  0.62106575836E+03 -0.67662989742E+03  0.18101503689E+03  0.93611812176E+03  0.50400001928E-02 0. -1.
       -1    1    3    3    0  502 -0.62106575836E+03  0.67662989742E+03  0.51702861557E+03  0.10539778383E+04  0.50400001928E-02 0.  1.
</event>
<event>
 5   0  0.4802635E-04  0.1927831E+04  0.7818609E-02  0.8641126E-01
        2   -1    0    0  501    0  0.00000000000E+00  0.00000000000E+00  0.19907648017E+04  0.19907648017E+04  0.25500000920E-02 0. -1.
       -2   -1    0    0    0  501  0.00000000000E+00  0.00000000000E+00 -0.46672160906E+03  0.46672160907E+03  0.25500000920E-02 0.  1.
    10030    2    1    2    0    0  0.00000000000E+00  0.00000000000E+00  0.15240431926E+04  0.24574864108E+04  0.19278308552E+04 0.  0.
        3    1    3    3  502    0  0.61799355545E+03 -0.40242694298E+03 -0.29211584689E+02  0.73804932484E+03  0.10100000352E+00 0.  1.
       -3    1    3    3    0  502 -0.61799355545E+03  0.40242694298E+03  0.15532547773E+04  0.17194370859E+04  0.10100000352E+00 0. -1.
</event>
<event>
 5   0  0.2261755E-04  0.1908949E+04  0.7818609E-02  0.8650415E-01
       -1   -1    0    0    0  501  0.00000000000E+00  0.00000000000E+00  0.39514643065E+03  0.39514643068E+03  0.50400001928E-02 0.  1.
        1   -1    0    0  501    0  0.00000000000E+00  0.00000000000E+00 -0.23055291748E+04  0.23055291748E+04  0.50400001928E-02 0. -1.
    10030    2    1    2    0    0  0.00000000000E+00  0.00000000000E+00 -0.19103827442E+04  0.27006756055E+04  0.19089490556E+04 0.  0.
        1    1    3    3  502    0  0.10344372348E+03 -0.39647824808E+03 -0.21747686289E+04  0.22130328047E+04  0.50400001928E-02 0. -1.
       -1    1    3    3    0  502 -0.10344372348E+03  0.39647824808E+03  0.26438588476E+03  0.48764280084E+03  0.50400001928E-02 0.  1.
</event>
<event>
 5   0  0.4829134E-04  0.1467899E+04  0.7818609E-02  0.8906085E-01
       -2   -1    0    0    0  501  0.00000000000E+00  0.00000000000E+00  0.71430749072E+03  0.71430749072E+03  0.25500000920E-02 0.  1.
        2   -1    0    0  501    0  0.00000000000E+00  0.00000000000E+00 -0.75413199514E+03  0.75413199515E+03  0.25500000920E-02 0. -1.
    10030    2    1    2    0    0  0.00000000000E+00  0.00000000000E+00 -0.39824504428E+02  0.14684394859E+04  0.14678993605E+04 0.  0.
        2    1    3    3  502    0  0.11219123229E+03  0.68901838293E+03  0.20677414781E+03  0.72807194207E+03  0.25500000920E-02 0.  1.
       -2    1    3    3    0  502 -0.11219123229E+03 -0.68901838293E+03 -0.24659865224E+03  0.74036754380E+03  0.25500000920E-02 0. -1.
</event>
<event>
 5   0  0.4829134E-04  0.1928472E+04  0.7818609E-02  0.8640812E-01
        2   -1    0    0  501    0  0.00000000000E+00  0.00000000000E+00  0.22934153710E+04  0.22934153710E+04  0.25500000920E-02 0.  1.
       -2   -1    0    0    0  501  0.00000000000E+00  0.00000000000E+00 -0.40540019009E+03  0.40540019010E+03  0.25500000920E-02 0. -1.
    10030    2    1    2    0    0  0.00000000000E+00  0.00000000000E+00  0.18880151809E+04  0.26988155611E+04  0.19284719623E+04 0.  0.
        2    1    3    3  502    0 -0.45104712552E+03 -0.58385067881E+03  0.18128286225E+04  0.19572104484E+04  0.25500000920E-02 0.  1.
       -2    1    3    3    0  502  0.45104712552E+03  0.58385067881E+03  0.75186558331E+02  0.74160511267E+03  0.25500000920E-02 0. -1.
</event>
<event>
 5   0  0.2261755E-04  0.2374402E+04  0.7818609E-02  0.8449150E-01
       -1   -1    0    0    0  501  0.00000000000E+00  0.00000000000E+00  0.79322514318E+03  0.79322514320E+03  0.50400001928E-02 0. -1.
        1   -1    0    0  501    0  0.00000000000E+00  0.00000000000E+00 -0.17768550800E+04  0.17768550800E+04  0.50400001928E-02 0.  1.
    10030    2    1    2    0    0  0.00000000000E+00  0.00000000000E+00 -0.98362993685E+03  0.25700802232E+04  0.23744019250E+04 0.  0.
        1    1    3    3  502    0 -0.19544565011E+03 -0.69413645597E+03  0.52899829803E+03  0.89435094957E+03  0.50400001928E-02 0. -1.
       -1    1    3    3    0  502  0.19544565011E+03  0.69413645597E+03 -0.15126282349E+04  0.16757292737E+04  0.50400001928E-02 0.  1.
</event>
<event>
 5   0  0.2510069E-04  0.1907788E+04  0.7818609E-02  0.8650990E-01
        1   -1    0    0  501    0  0.00000000000E+00  0.00000000000E+00  0.83561347129E+03  0.83561347130E+03  0.50400001928E-02 0. -1.
       -1   -1    0    0    0  501  0.00000000000E+00  0.00000000000E+00 -0.10889166657E+04  0.10889166657E+04  0.50400001928E-02 0.  1.
    10030    2    1    2    0    0  0.00000000000E+00  0.00000000000E+00 -0.25330319444E+03  0.19245301370E+04  0.19077876559E+04 0.  0.
        4    1    3    3  502    0 -0.68052473996E+01  0.30895854170E+03 -0.10370180918E+04  0.10820858688E+04  0.12699999809E+01 0.  1.
       -4    1    3    3    0  502  0.68052473996E+01 -0.30895854170E+03  0.78371489734E+03  0.84244426824E+03  0.12699999809E+01 0. -1.
</event>
<event>
 5   0  0.2355414E-04  0.1930812E+04  0.7818609E-02  0.8639670E-01
       -1   -1    0    0    0  501  0.00000000000E+00  0.00000000000E+00  0.11600475601E+04  0.11600475601E+04  0.50400001928E-02 0.  1.
        1   -1    0    0  501    0  0.00000000000E+00  0.00000000000E+00 -0.80342268469E+03  0.80342268470E+03  0.50400001928E-02 0. -1.
    10030    2    1    2    0    0  0.00000000000E+00  0.00000000000E+00  0.35662487543E+03  0.19634702448E+04  0.19308117724E+04 0.  0.
        5    1    3    3  502    0  0.35533453203E+03 -0.47620489880E+03  0.95207181950E+03  0.11222729502E+04  0.46999998093E+01 0.  1.
       -5    1    3    3    0  502 -0.35533453203E+03  0.47620489880E+03 -0.59544694406E+03  0.84119729463E+03  0.46999998093E+01 0. -1.
</event>
<event>
 5   0  0.4761944E-04  0.1750348E+04  0.7818609E-02  0.8733159E-01
       -2   -1    0    0    0  501  0.00000000000E+00  0.00000000000E+00  0.10325064691E+04  0.10325064691E+04  0.25500000920E-02 0.  1.
        2   -1    0    0  501    0  0.00000000000E+00  0.00000000000E+00 -0.74181564875E+03  0.74181564876E+03  0.25500000920E-02 0. -1.
    10030    2    1    2    0    0  0.00000000000E+00  0.00000000000E+00  0.29069082036E+03  0.17743221179E+04  0.17503479154E+04 0.  0.
        4    1    3    3  502    0 -0.40690190459E+03 -0.60488667184E+03 -0.34550873740E+03  0.80674342033E+03  0.12699999809E+01 0. -1.
       -4    1    3    3    0  502  0.40690190459E+03  0.60488667184E+03  0.63619955777E+03  0.96757869754E+03  0.12699999809E+01 0.  1.
</event>
<event>
 5   0  0.2355414E-04  0.1913602E+04  0.7818609E-02  0.8648115E-01
        1   -1    0    0  501    0  0.00000000000E+00  0.00000000000E+00  0.59585290681E+03  0.59585290683E+03  0.50400001928E-02 0. -1.
       -1   -1    0    0    0  501  0.00000000000E+00  0.00000000000E+00 -0.15364000624E+04  0.15364000624E+04  0.50400001928E-02 0.  1.
    10030    2    1    2    0    0  0.00000000000E+00  0.00000000000E+00 -0.94054715557E+03  0.21322529692E+04  0.19136023027E+04 0.  0.
        5    1    3    3  502    0  0.40996745819E+03  0.69109985596E+03 -0.10489969341E+04  0.13214041719E+04  0.46999998093E+01 0.  1.
       -5    1    3    3    0  502 -0.40996745819E+03 -0.69109985596E+03  0.10844977854E+03  0.81084879734E+03  0.46999998093E+01 0. -1.
</event>
<event>
 5   0  0.4802635E-04  0.1844606E+04  0.7818609E-02  0.8682932E-01
       -2   -1    0    0    0  501  0.00000000000E+00  0.00000000000E+00  0.68165674168E+03  0.68165674169E+03  0.25500000920E-02 0. -1.
        2   -1    0    0  501    0  0.00000000000E+00  0.00000000000E+00 -0.12479047376E+04  0.12479047376E+04  0.25500000920E-02 0.  1.
    10030    2    1    2    0    0  0.00000000000E+00  0.00000000000E+00 -0.56624799592E+03  0.19295614793E+04  0.18446058412E+04 0.  0.
        3    1    3    3  502    0 -0.61102688179E+03 -0.67750336500E+03 -0.42454680869E+03  0.10062825959E+04  0.10100000352E+00 0. -1.
       -3    1    3    3    0  502  0.61102688179E+03  0.67750336500E+03 -0.14170118723E+03  0.92327888339E+03  0.10100000352E+00 0.  1.
</event>
<event>
 5   0  0.2355414E-04  0.1925116E+04  0.7818609E-02  0.8642454E-01
        1   -1    0    0  501    0  0.00000000000E+00  0.00000000000E+00  0.99600489776E+03  0.99600489777E+03  0.50400001928E-02 0.  1.
       -1   -1    0    0    0  501  0.00000000000E+00  0.00000000000E+00 -0.93023444564E+03  0.93023444565E+03  0.50400001928E-02 0. -1.
    10030    2    1    2    0    0  0.00000000000E+00  0.00000000000E+00  0.65770452125E+02  0.19262393434E+04  0.19251161668E+04 0.  0.
        5    1    3    3  502    0 -0.85159244188E+03 -0.34235688323E+03  0.32301655469E+03  0.97302605677E+03  0.46999998093E+01 0. -1.
       -5    1    3    3    0  502  0.85159244188E+03  0.34235688323E+03 -0.25724610256E+03  0.95321328665E+03  0.46999998093E+01 0.  1.
</event>
<event>
 5   0  0.2317458E-04  0.2005096E+04  0.7818609E-02  0.8604242E-01
       -1   -1    0    0    0  501  0.00000000000E+00  0.00000000000E+00  0.13869742642E+04  0.13869742642E+04  0.50400001928E-02 0.  1.
        1   -1    0    0  501    0  0.00000000000E+00  0.00000000000E+00 -0.72467254527E+03  0.72467254528E+03  0.50400001928E-02 0. -1.
    10030    2    1    2    0    0  0.00000000000E+00  0.00000000000E+00  0.66230171893E+03  0.21116468095E+04  0.20050956788E+04 0.  0.
        3    1    3    3  502    0 -0.45206372633E+03 -0.64346308605E+03  0.98604470562E+03  0.12612258035E+04  0.10100000352E+00 0.  1.
       -3    1    3    3    0  502  0.45206372633E+03  0.64346308605E+03 -0.32374298669E+03  0.85042100597E+03  0.10100000352E+00 0. -1.
</event>
<event>
 5   0  0.2317458E-04  0.1915583E+04  0.7818609E-02  0.8647138E-01
        1   -1    0    0  501    0  0.00000000000E+00  0.00000000000E+00  0.11493581914E+04  0.11493581915E+04  0.50400001928E-02 0.  1.
       -1   -1    0    0    0  501  0.00000000000E+00  0.00000000000E+00 -0.79815412101E+03  0.79815412103E+03  0.50400001928E-02 0. -1.
    10030    2    1    2    0    0  0.00000000000E+00  0.00000000000E+00  0.35120407043E+03  0.19475123125E+04  0.19155834381E+04 0.  0.
        3    1    3    3  502    0 -0.42081233770E+03 -0.55057888453E+03  0.84779167463E+03  0.10949752807E+04  0.10100000352E+00 0. -1.
       -3    1    3    3    0  502  0.42081233770E+03  0.55057888453E+03 -0.49658760420E+03  0.85253703175E+03  0.10100000352E+00 0.  1.
</event>
<event>
 5   0  0.2355414E-04  0.1798272E+04  0.7818609E-02  0.8707219E-01
        1   -1    0    0  501    0  0.00000000000E+00  0.00000000000E+00  0.54908440752E+03  0.54908440755E+03  0.50400001928E-02 0. -1.
       -1   -1    0    0    0  501  0.00000000000E+00  0.00000000000E+00 -0.14723527070E+04  0.14723527070E+04  0.50400001928E-02 0.  1.
    10030    2    1    2    0    0  0.00000000000E+00  0.00000000000E+00 -0.92326829943E+03  0.20214371145E+04  0.17982724085E+04 0.  0.
        5    1    3    3  502    0 -0.80409343368E+03  0.24974959959E+03 -0.81618502415E+03  0.11726556171E+04  0.46999998093E+01 0. -1.
       -5    1    3    3    0  502  0.80409343368E+03 -0.24974959959E+03 -0.10708327529E+03  0.84878149745E+03  0.46999998093E+01 0.  1.
</event>
<event>
 5   0  0.4761944E-04  0.1577931E+04  0.7818609E-02  0.8834222E-01
       -2   -1    0    0    0  501  0.00000000000E+00  0.00000000000E+00  0.22223448032E+03  0.22223448034E+03  0.25500000920E-02 0.  1.
        2   -1    0    0  501    0  0.00000000000E+00  0.00000000000E+00 -0.28009449985E+04  0.28009449985E+04  0.25500000920E-02 0. -1.
    10030    2    1    2    0    0  0.00000000000E+00  0.00000000000E+00 -0.25787105182E+04  0.30231794788E+04  0.15779309949E+04 0.  0.
        4    1    3    3  502    0  0.36208218732E+03  0.65606062021E+03 -0.81636940157E+03  0.11081424369E+04  0.12699999809E+01 0.  1.
       -4    1    3    3    0  502 -0.36208218732E+03 -0.65606062021E+03 -0.17623411166E+04  0.19150370419E+04  0.12699999809E+01 0. -1.
</event>
<event>
 5   0  0.4802635E-04  0.1199474E+04  0.7818609E-02  0.9113317E-01
        2   -1    0    0  501    0  0.00000000000E+00  0.00000000000E+00  0.10764421064E+04  0.10764421064E+04  0.25500000920E-02 0. -1.
       -2   -1    0    0    0  501  0.00000000000E+00  0.00000000000E+00 -0.33414214963E+03  0.33414214964E+03  0.25500000920E-02 0.  1.
    10030    2    1    2    0    0  0.00000000000E+00  0.00000000000E+00  0.74229995675E+03  0.14105842560E+04  0.11994743505E+04 0.  0.
        3    1    3    3  502    0  0.83719837170E+02 -0.26075218592E+03 -0.25631510350E+03  0.37509752876E+03  0.10100000352E+00 0.  1.
       -3    1    3    3    0  502 -0.83719837170E+02  0.26075218592E+03  0.99861506025E+03  0.10354867273E+04  0.10100000352E+00 0. -1.
</event>
<event>
 5   0  0.4829134E-04  0.1901580E+04  0.7818609E-02  0.8654070E-01
        2   -1    0    0  501    0  0.00000000000E+00  0.00000000000E+00  0.93200986508E+03  0.93200986509E+03  0.25500000920E-02 0. -1.
       -2   -1    0    0    0  501  0.00000000000E+00  0.00000000000E+00 -0.96994903365E+03  0.96994903365E+03  0.25500000920E-02 0.  1.
    10030    2    1    2    0    0  0.00000000000E+00  0.00000000000E+00 -0.37939168566E+02  0.19019588987E+04  0.19015804669E+04 0.  0.
        2    1    3    3  502    0 -0.23635541025E+03  0.36747568210E+03 -0.86359001151E+03  0.96782744581E+03  0.25500000920E-02 0.  1.
       -2    1    3    3    0  502  0.23635541025E+03 -0.36747568210E+03  0.82565084294E+03  0.93413145293E+03  0.25500000920E-02 0. -1.
</event>
<event>
 5   0  0.4973411E-04  0.1099196E+04  0.7818609E-02  0.9205976E-01
        2   -1    0    0  501    0  0.00000000000E+00  0.00000000000E+00  0.82389166224E+03  0.82389166224E+03  0.25500000920E-02 0.  1.
       -2   -1    0    0    0  501  0.00000000000E+00  0.00000000000E+00 -0.36662344725E+03  0.36662344726E+03  0.25500000920E-02 0. -1.
    10030    2    1    2    0    0  0.00000000000E+00  0.00000000000E+00  0.45726821499E+03  0.11905151095E+04  0.10991960724E+04 0.  0.
        1    1    3    3  502    0  0.21102155522E+03 -0.34278350443E+03 -0.17665619786E+03  0.43958848932E+03  0.50400001928E-02 0. -1.
       -1    1    3    3    0  502 -0.21102155522E+03  0.34278350443E+03  0.63392441284E+03  0.75092662018E+03  0.50400001928E-02 0.  1.
</event>
<event>
 5   0  0.4839293E-04  0.1845232E+04  0.7818609E-02  0.8682609E-01
       -2   -1    0    0    0  501  0.00000000000E+00  0.00000000000E+00  0.51092826297E+03  0.51092826297E+03  0.25500000920E-02 0.  1.
        2   -1    0    0  501    0  0.00000000000E+00  0.00000000000E+00 -0.16660262058E+04  0.16660262058E+04  0.25500000920E-02 0. -1.
    10030    2    1    2    0    0  0.00000000000E+00  0.00000000000E+00 -0.11550979428E+04  0.21769544687E+04  0.18452315577E+04 0.  0.
        5    1    3    3  502    0 -0.57179932376E+03 -0.68214642100E+03 -0.86391947947E+03  0.12404262023E+04  0.46999998093E+01 0.  1.
       -5    1    3    3    0  502  0.57179932376E+03  0.68214642100E+03 -0.29117846333E+03  0.93652826644E+03  0.46999998093E+01 0. -1.
</event>
<event>
 5   0  0.4802635E-04  0.1865779E+04  0.7818609E-02  0.8672080E-01
        2   -1    0    0  501    0  0.00000000000E+00  0.00000000000E+00  0.13368676027E+04  0.13368676027E+04  0.25500000920E-02 0.  1.
       -2   -1    0    0    0  501  0.00000000000E+00  0.00000000000E+00 -0.65098678729E+03  0.65098678729E+03  0.25500000920E-02 0. -1.
    10030    2    1    2    0    0  0.00000000000E+00  0.00000000000E+00  0.68588081536E+03  0.19878543899E+04  0.18657793500E+04 0.  0.
        3    1    3    3  502    0 -0.46282051609E+03  0.66390059726E+03 -0.15144169878E+03  0.82334769781E+03  0.10100000352E+00 0. -1.
       -3    1    3    3    0  502  0.46282051609E+03 -0.66390059726E+03  0.83732251414E+03  0.11645066921E+04  0.10100000352E+00 0.  1.
</event>
<event>
 5   0  0.2317458E-04  0.1946974E+04  0.7818609E-02  0.8631821E-01
       -1   -1    0    0    0  501  0.00000000000E+00  0.00000000000E+00  0.12181767102E+04  0.12181767102E+04  0.50400001928E-02 0. -1.
        1   -1    0    0  501    0  0.00000000000E+00  0.00000000000E+00 -0.77794689992E+03  0.77794689994E+03  0.50400001928E-02 0.  1.
    10030    2    1    2    0    0  0.00000000000E+00  0.00000000000E+00  0.44022981023E+03  0.19961236101E+04  0.19469738522E+04 0.  0.
        3    1    3    3  502    0 -0.30135119821E+03 -0.64036759003E+03  0.90541498025E+03  0.11491995004E+04  0.10100000352E+00 0. -1.
       -3    1    3    3    0  502  0.30135119821E+03  0.64036759003E+03 -0.46518517001E+03  0.84692410972E+03  0.10100000352E+00 0.  1.
</event>
<event>
 5   0  0.2317458E-04  0.1903513E+04  0.7818609E-02  0.8653110E-01
       -1   -1    0    0    0  501  0.00000000000E+00  0.00000000000E+00  0.44577778214E+03  0.44577778216E+03  0.50400001928E-02 0. -1.
        1   -1    0    0  501    0  0.00000000000E+00  0.00000000000E+00 -0.20320454408E+04  0.20320454408E+04  0.50400001928E-02 0.  1.
    10030    2    1    2    0    0  0.00000000000E+00  0.00000000000E+00 -0.15862676587E+04  0.24778232230E+04  0.19035132885E+04 0.  0.
        3    1    3    3  502    0  0.55490530158E+02 -0.94392009970E+03 -0.93439398679E+03  0.13293443821E+04  0.10100000352E+00 0.  1.
       -3    1    3    3    0  502 -0.55490530158E+02  0.94392009970E+03 -0.65187367187E+03  0.11484788408E+04  0.10100000352E+00 0. -1.
</event>
<event>
 5   0  0.2355414E-04  0.1912579E+04  0.7818609E-02  0.8648620E-01
       -1   -1    0    0    0  501  0.00000000000E+00  0.00000000000E+00  0.84334068518E+03  0.84334068520E+03  0.50400001928E-02 0.  1.
        1   -1    0    0  501    0  0.00000000000E+00  0.00000000000E+00 -0.10843652428E+04  0.10843652428E+04  0.50400001928E-02 0. -1.
    10030    2    1    2    0    0  0.00000000000E+00  0.00000000000E+00 -0.24102455759E+03  0.19277059280E+04  0.19125787062E+04 0.  0.
        5    1    3    3  502    0 -0.46961777952E+03 -0.80823801165E+03  0.82770052191E+02  0.93843620660E+03  0.46999998093E+01 0.  1.
       -5    1    3    3    0  502  0.46961777952E+03  0.80823801165E+03 -0.32379460978E+03  0.98926972138E+03  0.46999998093E+01 0. -1.
</event>
<event>
 5   0  0.2317458E-04  0.1836459E+04  0.7818609E-02  0.8687148E-01
       -1   -1    0    0    0  501  0.00000000000E+00  0.00000000000E+00  0.81418157784E+03  0.81418157785E+03  0.50400001928E-02 0. -1.
        1   -1    0    0  501    0  0.00000000000E+00  0.00000000000E+00 -0.10355742005E+04  0.10355742005E+04  0.50400001928E-02 0.  1.
    10030    2    1    2    0    0  0.00000000000E+00  0.00000000000E+00 -0.22139262267E+03  0.18497557784E+04  0.18364590238E+04 0.  0.
        3    1    3    3  502    0  0.66586107473E+03  0.52702809932E+02 -0.74533521512E+03  0.10008362254E+04  0.10100000352E+00 0.  1.
       -3    1    3    3    0  502 -0.66586107473E+03 -0.52702809932E+02  0.52394259245E+03  0.84891955296E+03  0.10100000352E+00 0. -1.
</event>
<event>
 5   0  0.4829134E-04  0.1910365E+04  0.7818609E-02  0.8649714E-01
       -2   -1    0    0    0  501  0.00000000000E+00  0.00000000000E+00  0.88832726217E+03  0.88832726217E+03  0.25500000920E-02 0.  1.
        2   -1    0    0  501    0  0.00000000000E+00  0.00000000000E+00 -0.10270688294E+04  0.10270688294E+04  0.25500000920E-02 0. -1.
    10030    2    1    2    0    0  0.00000000000E+00  0.00000000000E+00 -0.13874156726E+03  0.19153960916E+04  0.19103646158E+04 0.  0.
        2    1    3    3  502    0 -0.61393237960E+03 -0.40684209845E+03  0.54045790217E+03  0.91352515226E+03  0.25500000920E-02 0. -1.
       -2    1    3    3    0  502  0.61393237960E+03  0.40684209845E+03 -0.67919946943E+03  0.10018709393E+04  0.25500000920E-02 0.  1.
</event>
<event>
 5   0  0.4802635E-04  0.1924935E+04  0.7818609E-02  0.8642543E-01
        2   -1    0    0  501    0  0.00000000000E+00  0.00000000000E+00  0.11976520794E+04  0.11976520794E+04  0.25500000920E-02 0. -1.
       -2   -1    0    0    0  501  0.00000000000E+00  0.00000000000E+00 -0.77346665605E+03  0.77346665606E+03  0.25500000920E-02 0.  1.
    10030    2    1    2    0    0  0.00000000000E+00  0.00000000000E+00  0.42418542337E+03  0.19711187355E+04  0.19249352706E+04 0.  0.
        3    1    3    3  502    0 -0.87769069518E+02  0.40244573509E+03 -0.67864983650E+03  0.79387126793E+03  0.10100000352E+00 0.  1.
       -3    1    3    3    0  502  0.87769069518E+02 -0.40244573509E+03  0.11028352599E+04  0.11772474676E+04  0.10100000352E+00 0. -1.
</event>
<event>
 5   0  0.2317458E-04  0.1927455E+04  0.7818609E-02  0.8641310E-01
       -1   -1    0    0    0  501  0.00000000000E+00  0.00000000000E+00  0.89917903774E+03  0.89917903775E+03  0.50400001928E-02 0.  1.
        1   -1    0    0  501    0  0.00000000000E+00  0.00000000000E+00 -0.10329095472E+04  0.10329095472E+04  0.50400001928E-02 0. -1.
    10030    2    1    2    0    0  0.00000000000E+00  0.00000000000E+00 -0.13373050944E+03  0.19320885849E+04  0.19274549154E+04 0.  0.
        3    1    3    3  502    0  0.57851294577E+03  0.76661677223E+03  0.13277550556E+02  0.96049716681E+03  0.10100000352E+00 0. -1.
       -3    1    3    3    0  502 -0.57851294577E+03 -0.76661677223E+03 -0.14700806000E+03  0.97159141814E+03  0.10100000352E+00 0.  1.
</event>
<event>
 5   0  0.2376359E-04  0.1907246E+04  0.7818609E-02  0.8651258E-01
       -1   -1    0    0    0  501  0.00000000000E+00  0.00000000000E+00  0.91994851132E+03  0.91994851133E+03  0.50400001928E-02 0.  1.
        1   -1    0    0  501    0  0.00000000000E+00  0.00000000000E+00 -0.98852979431E+03  0.98852979432E+03  0.50400001928E-02 0. -1.
    10030    2    1    2    0    0  0.00000000000E+00  0.00000000000E+00 -0.68581282994E+02  0.19084783057E+04  0.19072456713E+04 0.  0.
        2    1    3    3  502    0  0.53411185300E+03 -0.72977552487E+03 -0.33705638727E+03  0.96511905816E+03  0.25500000920E-02 0. -1.
       -2    1    3    3    0  502 -0.53411185300E+03  0.72977552487E+03  0.26847510427E+03  0.94335924750E+03  0.25500000920E-02 0.  1.
</event>
<event>
 5   0  0.4829134E-04  0.1918919E+04  0.7818609E-02  0.8645496E-01
        2   -1    0    0  501    0  0.00000000000E+00  0.00000000000E+00  0.10220260327E+04  0.10220260327E+04  0.25500000920E-02 0. -1.
       -2   -1    0    0    0  501  0.00000000000E+00  0.00000000000E+00 -0.90072312935E+03  0.90072312935E+03  0.25500000920E-02 0.  1.
    10030    2    1    2    0    0  0.00000000000E+00  0.00000000000E+00  0.12130290333E+03  0.19227491620E+04  0.19189189524E+04 0.  0.
        2    1    3    3  502    0 -0.47819714239E+01  0.83340403666E+03 -0.41566812998E+03  0.93132440634E+03  0.25500000920E-02 0.  1.
       -2    1    3    3    0  502  0.47819714239E+01 -0.83340403666E+03  0.53697103331E+03  0.99142475569E+03  0.25500000920E-02 0. -1.
</event>
<event>
 5   0  0.2510069E-04  0.1871625E+04  0.7818609E-02  0.8669111E-01
       -1   -1    0    0    0  501  0.00000000000E+00  0.00000000000E+00  0.99371041627E+03  0.99371041628E+03  0.50400001928E-02 0. -1.
        1   -1    0    0  501    0  0.00000000000E+00  0.00000000000E+00 -0.88128799965E+03  0.88128799966E+03  0.50400001928E-02 0.  1.
    10030    2    1    2    0    0  0.00000000000E+00  0.00000000000E+00  0.11242241662E+03  0.18749984159E+04  0.18716250319E+04 0.  0.
        4    1    3    3  502    0 -0.36307571714E+03 -0.38794135543E+03  0.82793787711E+03  0.98377091484E+03  0.12699999809E+01 0. -1.
       -4    1    3    3    0  502  0.36307571714E+03  0.38794135543E+03 -0.71551546049E+03  0.89122750111E+03  0.12699999809E+01 0.  1.
</event>
<event>
 5   0  0.4973411E-04  0.1864411E+04  0.7818609E-02  0.8672777E-01
        2   -1    0    0  501    0  0.00000000000E+00  0.00000000000E+00  0.12064138986E+04  0.12064138986E+04  0.25500000920E-02 0.  1.
       -2   -1    0    0    0  501  0.00000000000E+00  0.00000000000E+00 -0.72032269491E+03  0.72032269491E+03  0.25500000920E-02 0. -1.
    10030    2    1    2    0    0  0.00000000000E+00  0.00000000000E+00  0.48609120369E+03  0.19267365935E+04  0.18644112321E+04 0.  0.
        1    1    3    3  502    0 -0.46719073176E+03  0.48620110085E+03 -0.42217177237E+03  0.79554239090E+03  0.50400001928E-02 0. -1.
       -1    1    3    3    0  502  0.46719073176E+03 -0.48620110085E+03  0.90826297606E+03  0.11311942026E+04  0.50400001928E-02 0.  1.
</event>
<event>
 5   0  0.2510069E-04  0.1847076E+04  0.7818609E-02  0.8681658E-01
        1   -1    0    0  501    0  0.00000000000E+00  0.00000000000E+00  0.93312965672E+03  0.93312965674E+03  0.50400001928E-02 0. -1.
       -1   -1    0    0    0  501  0.00000000000E+00  0.00000000000E+00 -0.91404475436E+03  0.91404475437E+03  0.50400001928E-02 0.  1.
    10030    2    1    2    0    0  0.00000000000E+00  0.00000000000E+00  0.19084902367E+02  0.18471744111E+04  0.18470758164E+04 0.  0.
        4    1    3    3  502    0 -0.70037731872E+03 -0.42669665310E+03 -0.41512386952E+03  0.91919957696E+03  0.12699999809E+01 0.  1.
       -4    1    3    3    0  502  0.70037731872E+03  0.42669665310E+03  0.43420877189E+03  0.92797483415E+03  0.12699999809E+01 0. -1.
</event>
<event>
 5   0  0.2317458E-04  0.1950126E+04  0.7818609E-02  0.8630300E-01
        1   -1    0    0  501    0  0.00000000000E+00  0.00000000000E+00  0.18629129368E+04  0.18629129368E+04  0.50400001928E-02 0. -1.
       -1   -1    0    0    0  501  0.00000000000E+00  0.00000000000E+00 -0.51035563562E+03  0.51035563564E+03  0.50400001928E-02 0.  1.
    10030    2    1    2    0    0  0.00000000000E+00  0.00000000000E+00  0.13525573012E+04  0.23732685724E+04  0.19501262687E+04 0.  0.
        3    1    3    3  502    0 -0.98362588336E+02 -0.96907009032E+03  0.73037712196E+03  0.12174657240E+04  0.10100000352E+00 0. -1.
       -3    1    3    3    0  502  0.98362588336E+02  0.96907009032E+03  0.62218017920E+03  0.11558028484E+04  0.10100000352E+00 0.  1.
</event>
<event>
 5   0  0.2376359E-04  0.1850986E+04  0.7818609E-02  0.8679646E-01
        1   -1    0    0  501    0  0.00000000000E+00  0.00000000000E+00  0.28812136423E+04  0.28812136423E+04  0.50400001928E-02 0. -1.
       -1   -1    0    0    0  501  0.00000000000E+00  0.00000000000E+00 -0.29728348041E+03  0.29728348045E+03  0.50400001928E-02 0.  1.
    10030    2    1    2    0    0  0.00000000000E+00  0.00000000000E+00  0.25839301619E+04  0.31784971228E+04  0.18509859205E+04 0.  0.
        2    1    3    3  502    0  0.89000529935E+03 -0.24560036546E+03  0.14020295099E+04  0.16787244321E+04  0.25500000920E-02 0.  1.
       -2    1    3    3    0  502 -0.89000529935E+03  0.24560036546E+03  0.11819006520E+04  0.14997726906E+04  0.25500000920E-02 0. -1.
</event>
<event>
 5   0  0.4973411E-04  0.1893736E+04  0.7818609E-02  0.8657981E-01
       -2   -1    0    0    0  501  0.00000000000E+00  0.00000000000E+00  0.38676392058E+03  0.38676392059E+03  0.25500000920E-02 0. -1.
        2   -1    0    0  501    0  0.00000000000E+00  0.00000000000E+00 -0.23181031942E+04  0.23181031942E+04  0.25500000920E-02 0.  1.
    10030    2    1    2    0    0  0.00000000000E+00  0.00000000000E+00 -0.19313392736E+04  0.27048671147E+04  0.18937356518E+04 0.  0.
        1    1    3    3  502    0  0.46002836966E+03 -0.23197713624E+03 -0.21003728125E+04  0.21626385375E+04  0.50400001928E-02 0.  1.
       -1    1    3    3    0  502 -0.46002836966E+03  0.23197713624E+03  0.16903353890E+03  0.54222857720E+03  0.50400001928E-02 0. -1.
</event>
<event>
 5   0  0.4839293E-04  0.1894240E+04  0.7818609E-02  0.8657729E-01
        2   -1    0    0  501    0  0.00000000000E+00  0.00000000000E+00  0.11279515850E+04  0.11279515850E+04  0.25500000920E-02 0.  1.
       -2   -1    0    0    0  501  0.00000000000E+00  0.00000000000E+00 -0.79527893566E+03  0.79527893566E+03  0.25500000920E-02 0. -1.
    10030    2    1    2    0    0  0.00000000000E+00  0.00000000000E+00  0.33267264939E+03  0.19232305207E+04  0.18942398328E+04 0.  0.
        5    1    3    3  502    0  0.19819516632E+03  0.68877374454E+03 -0.46227047163E+03  0.85288139507E+03  0.46999998093E+01 0. -1.
       -5    1    3    3    0  502 -0.19819516632E+03 -0.68877374454E+03  0.79494312102E+03  0.10703491256E+04  0.46999998093E+01 0.  1.
</event>
<event>
 5   0  0.2355414E-04  0.1909272E+04  0.7818609E-02  0.8650255E-01
        1   -1    0    0  501    0  0.00000000000E+00  0.00000000000E+00  0.71088843226E+03  0.71088843227E+03  0.50400001928E-02 0.  1.
       -1   -1    0    0    0  501  0.00000000000E+00  0.00000000000E+00 -0.12819594812E+04  0.12819594813E+04  0.50400001928E-02 0. -1.
    10030    2    1    2    0    0  0.00000000000E+00  0.00000000000E+00 -0.57107104899E+03  0.19928479135E+04  0.19092722864E+04 0.  0.
        5    1    3    3  502    0 -0.84067029119E+03  0.43270536320E+03 -0.14805978546E+03  0.95702887099E+03  0.46999998093E+01 0.  1.
       -5    1    3    3    0  502  0.84067029119E+03 -0.43270536320E+03 -0.42301126353E+03  0.10358190425E+04  0.46999998093E+01 0. -1.
</event>
<event>
 5   0  0.4761944E-04  0.1924046E+04  0.7818609E-02  0.8642979E-01
        2   -1    0    0  501    0  0.00000000000E+00  0.00000000000E+00  0.11350921935E+04  0.11350921935E+04  0.25500000920E-02 0. -1.
       -2   -1    0    0    0  501  0.00000000000E+00  0.00000000000E+00 -0.81534191919E+03  0.81534191920E+03  0.25500000920E-02 0.  1.
    10030    2    1    2    0    0  0.00000000000E+00  0.00000000000E+00  0.31975027434E+03  0.19504341127E+04  0.19240459948E+04 0.  0.
        4    1    3    3  502    0  0.79252938243E+03  0.37187108455E+03  0.56421361112E+03  0.10415034985E+04  0.12699999809E+01 0. -1.
       -4    1    3    3    0  502 -0.79252938243E+03 -0.37187108455E+03 -0.24446333678E+03  0.90893061422E+03  0.12699999809E+01 0.  1.
</event>
<event>
 5   0  0.2261755E-04  0.2020063E+04  0.7818609E-02  0.8597298E-01
       -1   -1    0    0    0  501  0.00000000000E+00  0.00000000000E+00  0.90336864694E+03  0.90336864695E+03  0.50400001928E-02 0. -1.
        1   -1    0    0  501    0  0.00000000000E+00  0.00000000000E+00 -0.11292880383E+04  0.11292880383E+04  0.50400001928E-02 0.  1.
    10030    2    1    2    0    0  0.00000000000E+00  0.00000000000E+00 -0.22591939138E+03  0.20326566853E+04  0.20200627784E+04 0.  0.
        1    1    3    3  502    0 -0.79037095953E+01  0.89945576308E+03 -0.57525872930E+03  0.10677105151E+04  0.50400001928E-02 0. -1.
       -1    1    3    3    0  502  0.79037095953E+01 -0.89945576308E+03  0.34933933791E+03  0.96494617021E+03  0.50400001928E-02 0.  1.
</event>
<event>
 5   0  0.2355414E-04  0.1524040E+04  0.7818609E-02  0.8868622E-01
        1   -1    0    0  501    0  0.00000000000E+00  0.00000000000E+00  0.47074140011E+03  0.47074140014E+03  0.50400001928E-02 0.  1.
       -1   -1    0    0    0  501  0.00000000000E+00  0.00000000000E+00 -0.12335322313E+04  0.12335322313E+04  0.50400001928E-02 0. -1.
    10030    2    1    2    0    0  0.00000000000E+00  0.00000000000E+00 -0.76279083122E+03  0.17042736315E+04  0.15240402747E+04 0.  0.
        5    1    3    3  502    0 -0.24228401837E+03  0.50203679275E+03 -0.96236374633E+03  0.11121639075E+04  0.46999998093E+01 0. -1.
       -5    1    3    3    0  502  0.24228401837E+03 -0.50203679275E+03  0.19957291511E+03  0.59210972401E+03  0.46999998093E+01 0.  1.
</event>
<event>
 5   0  0.2376359E-04  0.1937405E+04  0.7818609E-02  0.8636458E-01
        1   -1    0    0  501    0  0.00000000000E+00  0.00000000000E+00  0.11617323527E+04  0.11617323527E+04  0.50400001928E-02 0. -1.
       -1   -1    0    0    0  501  0.00000000000E+00  0.00000000000E+00 -0.80774591491E+03  0.80774591493E+03  0.50400001928E-02 0.  1.
    10030    2    1    2    0    0  0.00000000000E+00  0.00000000000E+00  0.35398643774E+03  0.19694782676E+04  0.19374050295E+04 0.  0.
        2    1    3    3  502    0 -0.40426099772E+03 -0.87178513905E+03  0.30128040908E+03  0.10070780346E+04  0.25500000920E-02 0. -1.
       -2    1    3    3    0  502  0.40426099772E+03  0.87178513905E+03  0.52706028664E+02  0.96240023296E+03  0.25500000920E-02 0.  1.
</event>
<event>
 5   0  0.2376359E-04  0.1929968E+04  0.7818609E-02  0.8640082E-01
        1   -1    0    0  501    0  0.00000000000E+00  0.00000000000E+00  0.12107763153E+04  0.12107763153E+04  0.50400001928E-02 0.  1.
       -1   -1    0    0    0  501  0.00000000000E+00  0.00000000000E+00 -0.76908819860E+03  0.76908819862E+03  0.50400001928E-02 0. -1.
    10030    2    1    2    0    0  0.00000000000E+00  0.00000000000E+00  0.44168811667E+03  0.19798645139E+04  0.19299676425E+04 0.  0.
        2    1    3    3  502    0 -0.42231515959E+03  0.46177679671E+03 -0.53272624782E+03  0.82181820320E+03  0.25500000920E-02 0. -1.
       -2    1    3    3    0  502  0.42231515959E+03 -0.46177679671E+03  0.97441436449E+03  0.11580463107E+04  0.25500000920E-02 0.  1.
</event>
<event>
 5   0  0.2355414E-04  0.1843694E+04  0.7818609E-02  0.8683403E-01
       -1   -1    0    0    0  501  0.00000000000E+00  0.00000000000E+00  0.14407822221E+04  0.14407822221E+04  0.50400001928E-02 0. -1.
        1   -1    0    0  501    0  0.00000000000E+00  0.00000000000E+00 -0.58981976789E+03  0.58981976791E+03  0.50400001928E-02 0.  1.
    10030    2    1    2    0    0  0.00000000000E+00  0.00000000000E+00  0.85096245418E+03  0.20306019900E+04  0.18436939397E+04 0.  0.
        5    1    3    3  502    0  0.17571848723E+03  0.90020631281E+03  0.52721026730E+03  0.10579324876E+04  0.46999998093E+01 0. -1.
       -5    1    3    3    0  502 -0.17571848723E+03 -0.90020631281E+03  0.32375218688E+03  0.97266950240E+03  0.46999998093E+01 0.  1.
</event>
<event>
 5   0  0.2355414E-04  0.2056144E+04  0.7818609E-02  0.8580812E-01
        1   -1    0    0  501    0  0.00000000000E+00  0.00000000000E+00  0.12300216197E+04  0.12300216197E+04  0.50400001928E-02 0.  1.
       -1   -1    0    0    0  501  0.00000000000E+00  0.00000000000E+00 -0.85927900870E+03  0.85927900871E+03  0.50400001928E-02 0. -1.
    10030    2    1    2    0    0  0.00000000000E+00  0.00000000000E+00  0.37074261100E+03  0.20893006284E+04  0.20561437285E+04 0.  0.
        5    1    3    3  502    0 -0.77634600555E+03  0.72860128725E+02  0.86616643302E+03  0.11654561761E+04  0.46999998093E+01 0.  1.
       -5    1    3    3    0  502  0.77634600555E+03 -0.72860128725E+02 -0.49542382202E+03  0.92384445234E+03  0.46999998093E+01 0. -1.
</event>
<event>
 5   0  0.2376359E-04  0.1900941E+04  0.7818609E-02  0.8654388E-01
        1   -1    0    0  501    0  0.00000000000E+00  0.00000000000E+00  0.82670249626E+03  0.82670249628E+03  0.50400001928E-02 0. -1.
       -1   -1    0    0    0  501  0.00000000000E+00  0.00000000000E+00 -0.10927679273E+04  0.10927679273E+04  0.50400001928E-02 0.  1.
    10030    2    1    2    0    0  0.00000000000E+00  0.00000000000E+00 -0.26606543100E+03  0.19194704235E+04  0.19009407916E+04 0.  0.
        2    1    3    3  502    0 -0.21197425140E+03  0.84530034411E+03  0.25004404760E+03  0.90663541777E+03  0.25500000920E-02 0. -1.
       -2    1    3    3    0  502  0.21197425140E+03 -0.84530034411E+03 -0.51610947860E+03  0.10128350058E+04  0.25500000920E-02 0.  1.
</event>
<event>
 5   0  0.2376359E-04  0.1661629E+04  0.7818609E-02  0.8783557E-01
       -1   -1    0    0    0  501  0.00000000000E+00  0.00000000000E+00  0.23309572138E+04  0.23309572138E+04  0.50400001928E-02 0. -1.
        1   -1    0    0  501    0  0.00000000000E+00  0.00000000000E+00 -0.29612410011E+03  0.29612410016E+03  0.50400001928E-02 0.  1.
    10030    2    1    2    0    0  0.00000000000E+00  0.00000000000E+00  0.20348331137E+04  0.26270813140E+04  0.16616288483E+04 0.  0.
        2    1    3    3  502    0 -0.37025873226E+03 -0.66544197642E+03  0.15426130679E+04  0.17203370687E+04  0.25500000920E-02 0. -1.
       -2    1    3    3    0  502  0.37025873226E+03  0.66544197642E+03  0.49222004581E+03  0.90674424526E+03  0.25500000920E-02 0.  1.
</event>
<event>
 5   0  0.2376359E-04  0.1943184E+04  0.7818609E-02  0.8633655E-01
        1   -1    0    0  501    0  0.00000000000E+00  0.00000000000E+00  0.24667094196E+04  0.24667094196E+04  0.50400001928E-02 0.  1.
       -1   -1    0    0    0  501  0.00000000000E+00  0.00000000000E+00 -0.38269231001E+03  0.38269231004E+03  0.50400001928E-02 0. -1.
    10030    2    1    2    0    0  0.00000000000E+00  0.00000000000E+00  0.20840171096E+04  0.28494017296E+04  0.19431837030E+04 0.  0.
        2    1    3    3  502    0 -0.20007648748E+03 -0.94609589871E+03  0.90396305637E+03  0.13237360982E+04  0.25500000920E-02 0.  1.
       -2    1    3    3    0  502  0.20007648748E+03  0.94609589871E+03  0.11800540532E+04  0.15256656314E+04  0.25500000920E-02 0. -1.
</event>
<event>
 5   0  0.4973411E-04  0.9721909E+03  0.7818609E-02  0.9339582E-01
       -2   -1    0    0    0  501  0.00000000000E+00  0.00000000000E+00  0.16851131548E+03  0.16851131550E+03  0.25500000920E-02 0. -1.
        2   -1    0    0  501    0  0.00000000000E+00  0.00000000000E+00 -0.14022132556E+04  0.14022132556E+04  0.25500000920E-02 0.  1.
    10030    2    1    2    0    0  0.00000000000E+00  0.00000000000E+00 -0.12337019402E+04  0.15707245711E+04  0.97219092838E+03 0.  0.
        1    1    3    3  502    0  0.45209037615E+03 -0.13031159850E+03 -0.81421213089E+03  0.94037663466E+03  0.50400001928E-02 0.  1.
       -1    1    3    3    0  502 -0.45209037615E+03  0.13031159850E+03 -0.41948980928E+03  0.63034793648E+03  0.50400001928E-02 0. -1.
</event>
<event>
 5   0  0.2355414E-04  0.1863827E+04  0.7818609E-02  0.8673074E-01
        1   -1    0    0  501    0  0.00000000000E+00  0.00000000000E+00  0.82932038533E+03  0.82932038534E+03  0.50400001928E-02 0.  1.
       -1   -1    0    0    0  501  0.00000000000E+00  0.00000000000E+00 -0.10471983162E+04  0.10471983162E+04  0.50400001928E-02 0. -1.
    10030    2    1    2    0    0  0.00000000000E+00  0.00000000000E+00 -0.21787793084E+03  0.18765187015E+04  0.18638271498E+04 0.  0.
        5    1    3    3  502    0  0.20784055649E+03  0.46460846468E+03 -0.89488388214E+03  0.10295134651E+04  0.46999998093E+01 0. -1.
       -5    1    3    3    0  502 -0.20784055649E+03 -0.46460846468E+03  0.67700595130E+03  0.84700523639E+03  0.46999998093E+01 0.  1.
</event>
<event>
 5   0  0.2376359E-04  0.1384621E+04  0.7818609E-02  0.8965026E-01
       -1   -1    0    0    0  501  0.00000000000E+00  0.00000000000E+00  0.94827758126E+03  0.94827758127E+03  0.50400001928E-02 0. -1.
        1   -1    0    0  501    0  0.00000000000E+00  0.00000000000E+00 -0.50543623576E+03  0.50543623579E+03  0.50400001928E-02 0.  1.
    10030    2    1    2    0    0  0.00000000000E+00  0.00000000000E+00  0.44284134550E+03  0.14537138171E+04  0.13846210329E+04 0.  0.
        2    1    3    3  502    0  0.10104225649E+03 -0.53221707130E+03 -0.23116947147E+03  0.58898546088E+03  0.25500000920E-02 0.  1.
       -2    1    3    3    0  502 -0.10104225649E+03  0.53221707130E+03  0.67401081697E+03  0.86472835618E+03  0.25500000920E-02 0. -1.
</event>
<event>
 5   0  0.2261755E-04  0.9915407E+03  0.7818609E-02  0.9317872E-01
       -1   -1    0    0    0  501  0.00000000000E+00  0.00000000000E+00  0.36435630718E+03  0.36435630721E+03  0.50400001928E-02 0.  1.
        1   -1    0    0  501    0  0.00000000000E+00  0.00000000000E+00 -0.67458207433E+03  0.67458207435E+03  0.50400001928E-02 0. -1.
    10030    2    1    2    0    0  0.00000000000E+00  0.00000000000E+00 -0.31022576715E+03  0.10389383816E+04  0.99154068705E+03 0.  0.
        1    1    3    3  502    0 -0.14279545686E+03  0.13249361237E+03 -0.63280391962E+03  0.66210716696E+03  0.50400001928E-02 0. -1.
       -1    1    3    3    0  502  0.14279545686E+03 -0.13249361237E+03  0.32257815248E+03  0.37683121460E+03  0.50400001928E-02 0.  1.
</event>
<event>
 5   0  0.4839293E-04  0.1937823E+04  0.7818609E-02  0.8636255E-01
        2   -1    0    0  501    0  0.00000000000E+00  0.00000000000E+00  0.12770283824E+04  0.12770283824E+04  0.25500000920E-02 0.  1.
       -2   -1    0    0    0  501  0.00000000000E+00  0.00000000000E+00 -0.73513595058E+03  0.73513595058E+03  0.25500000920E-02 0. -1.
    10030    2    1    2    0    0  0.00000000000E+00  0.00000000000E+00  0.54189243178E+03  0.20121643329E+04  0.19378229783E+04 0.  0.
        5    1    3    3  502    0  0.31719719670E+03  0.33281154756E+02 -0.67905448708E+03  0.75023915072E+03  0.46999998093E+01 0. -1.
       -5    1    3    3    0  502 -0.31719719670E+03 -0.33281154756E+02  0.12209469189E+04  0.12619251822E+04  0.46999998093E+01 0.  1.
</event>
<event>
 5   0  0.4839293E-04  0.1844124E+04  0.7818609E-02  0.8683181E-01
       -2   -1    0    0    0  501  0.00000000000E+00  0.00000000000E+00  0.63935228054E+03  0.63935228055E+03  0.25500000920E-02 0.  1.
        2   -1    0    0  501    0  0.00000000000E+00  0.00000000000E+00 -0.13297800826E+04  0.13297800826E+04  0.25500000920E-02 0. -1.
    10030    2    1    2    0    0  0.00000000000E+00  0.00000000000E+00 -0.69042780201E+03  0.19691323631E+04  0.18441235625E+04 0.  0.
        5    1    3    3  502    0  0.32255634761E+03  0.66068499913E+03 -0.93937663415E+03  0.11928947214E+04  0.46999998093E+01 0. -1.
       -5    1    3    3    0  502 -0.32255634761E+03 -0.66068499913E+03  0.24894883214E+03  0.77623764175E+03  0.46999998093E+01 0.  1.
</event>
<event>
 5   0  0.4761944E-04  0.1877193E+04  0.7818609E-02  0.8666293E-01
       -2   -1    0    0    0  501  0.00000000000E+00  0.00000000000E+00  0.71074566877E+03  0.71074566878E+03  0.25500000920E-02 0.  1.
        2   -1    0    0  501    0  0.00000000000E+00  0.00000000000E+00 -0.12394923513E+04  0.12394923513E+04  0.25500000920E-02 0. -1.
    10030    2    1    2    0    0  0.00000000000E+00  0.00000000000E+00 -0.52874668255E+03  0.19502380201E+04  0.18771934585E+04 0.  0.
        4    1    3    3  502    0 -0.36875517410E+03 -0.43246588600E+03  0.51165611633E+03  0.76472263943E+03  0.12699999809E+01 0.  1.
       -4    1    3    3    0  502  0.36875517410E+03  0.43246588600E+03 -0.10404027989E+04  0.11855153807E+04  0.12699999809E+01 0. -1.
</event>
<event>
 5   0  0.2355414E-04  0.9732204E+03  0.7818609E-02  0.9338414E-01
       -1   -1    0    0    0  501  0.00000000000E+00  0.00000000000E+00  0.21564916700E+03  0.21564916705E+03  0.50400001928E-02 0.  1.
        1   -1    0    0  501    0  0.00000000000E+00  0.00000000000E+00 -0.10980309988E+04  0.10980309988E+04  0.50400001928E-02 0. -1.
    10030    2    1    2    0    0  0.00000000000E+00  0.00000000000E+00 -0.88238183177E+03  0.13136801658E+04  0.97322036614E+03 0.  0.
        5    1    3    3  502    0 -0.38863721731E+02  0.38715698529E+03 -0.46804370160E+02  0.39193578452E+03  0.46999998093E+01 0.  1.
       -5    1    3    3    0  502  0.38863721731E+02 -0.38715698529E+03 -0.83557746161E+03  0.92174438131E+03  0.46999998093E+01 0. -1.
</event>
<event>
 5   0  0.4829134E-04  0.1877365E+04  0.7818609E-02  0.8666206E-01
        2   -1    0    0  501    0  0.00000000000E+00  0.00000000000E+00  0.14093925441E+04  0.14093925441E+04  0.25500000920E-02 0. -1.
       -2   -1    0    0    0  501  0.00000000000E+00  0.00000000000E+00 -0.62518061700E+03  0.62518061701E+03  0.25500000920E-02 0.  1.
    10030    2    1    2    0    0  0.00000000000E+00  0.00000000000E+00  0.78421192705E+03  0.20345731611E+04  0.18773650687E+04 0.  0.
        2    1    3    3  502    0 -0.14841211972E+02 -0.47107329594E+03  0.12718685777E+04  0.13563848977E+04  0.25500000920E-02 0. -1.
       -2    1    3    3    0  502  0.14841211972E+02  0.47107329594E+03 -0.48765665062E+03  0.67818826341E+03  0.25500000920E-02 0.  1.
</event>
<event>
 5   0  0.2376359E-04  0.1908213E+04  0.7818609E-02  0.8650779E-01
       -1   -1    0    0    0  501  0.00000000000E+00  0.00000000000E+00  0.15640484771E+04  0.15640484771E+04  0.50400001928E-02 0. -1.
        1   -1    0    0  501    0  0.00000000000E+00  0.00000000000E+00 -0.58202744104E+03  0.58202744106E+03  0.50400001928E-02 0.  1.
    10030    2    1    2    0    0  0.00000000000E+00  0.00000000000E+00  0.98202103603E+03  0.21460759181E+04  0.19082129156E+04 0.  0.
        2    1    3    3  502    0 -0.50132595246E+03  0.52037616608E+02 -0.42008517965E+03  0.65613046136E+03  0.25500000920E-02 0.  1.
       -2    1    3    3    0  502  0.50132595246E+03 -0.52037616608E+02  0.14021062157E+04  0.14899454568E+04  0.25500000920E-02 0. -1.
</event>
<event>
 5   0  0.4829134E-04  0.1896033E+04  0.7818609E-02  0.8656833E-01
       -2   -1    0    0    0  501  0.00000000000E+00  0.00000000000E+00  0.85480813761E+03  0.85480813762E+03  0.25500000920E-02 0. -1.
        2   -1    0    0  501    0  0.00000000000E+00  0.00000000000E+00 -0.10513886822E+04  0.10513886822E+04  0.25500000920E-02 0.  1.
    10030    2    1    2    0    0  0.00000000000E+00  0.00000000000E+00 -0.19658054462E+03  0.19061968199E+04  0.18960333345E+04 0.  0.
        2    1    3    3  502    0 -0.33022048408E+02 -0.85104466824E+03 -0.51689717938E+03  0.99626812510E+03  0.25500000920E-02 0.  1.
       -2    1    3    3    0  502  0.33022048408E+02  0.85104466824E+03  0.32031663476E+03  0.90992869475E+03  0.25500000920E-02 0. -1.
</event>
<event>
 5   0  0.2355414E-04  0.1873297E+04  0.7818609E-02  0.8668264E-01
        1   -1    0    0  501    0  0.00000000000E+00  0.00000000000E+00  0.19593762379E+04  0.19593762379E+04  0.50400001928E-02 0. -1.
       -1   -1    0    0    0  501  0.00000000000E+00  0.00000000000E+00 -0.44774972214E+03  0.44774972217E+03  0.50400001928E-02 0.  1.
    10030    2    1    2    0    0  0.00000000000E+00  0.00000000000E+00  0.15116265157E+04  0.24071259600E+04  0.18732967369E+04 0.  0.
        5    1    3    3  502    0  0.32749365455E+03  0.18052782750E+03  0.18592749472E+04  0.18965146478E+04  0.46999998093E+01 0. -1.
       -5    1    3    3    0  502 -0.32749365455E+03 -0.18052782750E+03 -0.34764843145E+03  0.51061131221E+03  0.46999998093E+01 0.  1.
</event>
<event>
 5   0  0.4761944E-04  0.1914945E+04  0.7818609E-02  0.8647453E-01
        2   -1    0    0  501    0  0.00000000000E+00  0.00000000000E+00  0.17702153685E+04  0.17702153685E+04  0.25500000920E-02 0. -1.
       -2   -1    0    0    0  501  0.00000000000E+00  0.00000000000E+00 -0.51787708536E+03  0.51787708536E+03  0.25500000920E-02 0.  1.
    10030    2    1    2    0    0  0.00000000000E+00  0.00000000000E+00  0.12523382831E+04  0.22880924538E+04  0.19149454044E+04 0.  0.
        4    1    3    3  502    0  0.72992785113E+03 -0.26788360377E+03 -0.41453240121E+02  0.77863744903E+03  0.12699999809E+01 0.  1.
       -4    1    3    3    0  502 -0.72992785113E+03  0.26788360377E+03  0.12937915232E+04  0.15094550048E+04  0.12699999809E+01 0. -1.
</event>
<event>
 5   0  0.2261755E-04  0.1865256E+04  0.7818609E-02  0.8672346E-01
       -1   -1    0    0    0  501  0.00000000000E+00  0.00000000000E+00  0.60314683604E+03  0.60314683607E+03  0.50400001928E-02 0.  1.
        1   -1    0    0  501    0  0.00000000000E+00  0.00000000000E+00 -0.14420954874E+04  0.14420954875E+04  0.50400001928E-02 0. -1.
    10030    2    1    2    0    0  0.00000000000E+00  0.00000000000E+00 -0.83894865140E+03  0.20452423235E+04  0.18652563690E+04 0.  0.
        1    1    3    3  502    0  0.34101277533E+03 -0.68770953144E+03  0.16131691627E+03  0.78438336295E+03  0.50400001928E-02 0.  1.
       -1    1    3    3    0  502 -0.34101277533E+03  0.68770953144E+03 -0.10002655677E+04  0.12608589606E+04  0.50400001928E-02 0. -1.
</event>
<event>
 5   0  0.2355414E-04  0.1930032E+04  0.7818609E-02  0.8640050E-01
       -1   -1    0    0    0  501  0.00000000000E+00  0.00000000000E+00  0.11536436395E+04  0.11536436395E+04  0.50400001928E-02 0. -1.
        1   -1    0    0  501    0  0.00000000000E+00  0.00000000000E+00 -0.80722993340E+03  0.80722993342E+03  0.50400001928E-02 0.  1.
    10030    2    1    2    0    0  0.00000000000E+00  0.00000000000E+00  0.34641370612E+03  0.19608735729E+04  0.19300317908E+04 0.  0.
        5    1    3    3  502    0  0.65006614826E+03  0.41375100003E+03 -0.41698716415E+03  0.87617137148E+03  0.46999998093E+01 0.  1.
       -5    1    3    3    0  502 -0.65006614826E+03 -0.41375100003E+03  0.76340087027E+03  0.10847022015E+04  0.46999998093E+01 0. -1.
</event>
<event>
 5   0  0.2261755E-04  0.1899932E+04  0.7818609E-02  0.8654890E-01
       -1   -1    0    0    0  501  0.00000000000E+00  0.00000000000E+00  0.65891273204E+03  0.65891273206E+03  0.50400001928E-02 0. -1.
        1   -1    0    0  501    0  0.00000000000E+00  0.00000000000E+00 -0.13695818901E+04  0.13695818901E+04  0.50400001928E-02 0.  1.
    10030    2    1    2    0    0  0.00000000000E+00  0.00000000000E+00 -0.71066915808E+03  0.20284946222E+04  0.18999315198E+04 0.  0.
        1    1    3    3  502    0 -0.96630916421E+02  0.83617245624E+01  0.65361236096E+03  0.66076968066E+03  0.50400001928E-02 0. -1.
       -1    1    3    3    0  502  0.96630916421E+02 -0.83617245624E+01 -0.13642815190E+04  0.13677249415E+04  0.50400001928E-02 0.  1.
</event>
<event>
 5   0  0.4829134E-04  0.1755158E+04  0.7818609E-02  0.8730516E-01
       -2   -1    0    0    0  501  0.00000000000E+00  0.00000000000E+00  0.52899664837E+03  0.52899664838E+03  0.25500000920E-02 0.  1.
        2   -1    0    0  501    0  0.00000000000E+00  0.00000000000E+00 -0.14558598919E+04  0.14558598919E+04  0.25500000920E-02 0. -1.
    10030    2    1    2    0    0  0.00000000000E+00  0.00000000000E+00 -0.92686324348E+03  0.19848565402E+04  0.17551581163E+04 0.  0.
        2    1    3    3  502    0 -0.86650183658E+03 -0.64416136772E+02 -0.60271764952E+03  0.10574703005E+04  0.25500000920E-02 0. -1.
       -2    1    3    3    0  502  0.86650183658E+03  0.64416136772E+02 -0.32414559397E+03  0.92738623969E+03  0.25500000920E-02 0.  1.
</event>
<event>
 5   0  0.4802635E-04  0.1797168E+04  0.7818609E-02  0.8707807E-01
       -2   -1    0    0    0  501  0.00000000000E+00  0.00000000000E+00  0.50416646745E+03  0.50416646746E+03  0.25500000920E-02 0. -1.
        2   -1    0    0  501    0  0.00000000000E+00  0.00000000000E+00 -0.16015613463E+04  0.16015613463E+04  0.25500000920E-02 0.  1.
    10030    2    1    2    0    0  0.00000000000E+00  0.00000000000E+00 -0.10973948788E+04  0.21057278137E+04  0.17971683576E+04 0.  0.
        3    1    3    3  502    0 -0.70956721001E+03  0.44786883283E+03 -0.17196356406E+03  0.85652997292E+03  0.10100000352E+00 0. -1.
       -3    1    3    3    0  502  0.70956721001E+03 -0.44786883283E+03 -0.92543131477E+03  0.12491978408E+04  0.10100000352E+00 0.  1.
</event>
<event>
 5   0  0.2355414E-04  0.1914604E+04  0.7818609E-02  0.8647621E-01
       -1   -1    0    0    0  501  0.00000000000E+00  0.00000000000E+00  0.11499638677E+04  0.11499638678E+04  0.50400001928E-02 0. -1.
        1   -1    0    0  501    0  0.00000000000E+00  0.00000000000E+00 -0.79691784956E+03  0.79691784958E+03  0.50400001928E-02 0.  1.
    10030    2    1    2    0    0  0.00000000000E+00  0.00000000000E+00  0.35304601818E+03  0.19468817173E+04  0.19146035961E+04 0.  0.
        5    1    3    3  502    0  0.66260353966E+03  0.66734912075E+02 -0.52275337761E+03  0.84663462194E+03  0.46999998093E+01 0.  1.
       -5    1    3    3    0  502 -0.66260353966E+03 -0.66734912075E+02  0.87579939578E+03  0.11002470954E+04  0.46999998093E+01 0. -1.
</event>
<event>
 5   0  0.4839293E-04  0.1817724E+04  0.7818609E-02  0.8696930E-01
       -2   -1    0    0    0  501  0.00000000000E+00  0.00000000000E+00  0.96510562832E+03  0.96510562832E+03  0.25500000920E-02 0. -1.
        2   -1    0    0  501    0  0.00000000000E+00  0.00000000000E+00 -0.85589610141E+03  0.85589610141E+03  0.25500000920E-02 0.  1.
    10030    2    1    2    0    0  0.00000000000E+00  0.00000000000E+00  0.10920952691E+03  0.18210017297E+04  0.18177240107E+04 0.  0.
        5    1    3    3  502    0 -0.28744225126E+03 -0.28856613609E+03 -0.75933465385E+03  0.86168710635E+03  0.46999998093E+01 0.  1.
       -5    1    3    3    0  502  0.28744225126E+03  0.28856613609E+03  0.86854418076E+03  0.95931462339E+03  0.46999998093E+01 0. -1.
</event>
<event>
 5   0  0.4839293E-04  0.1912539E+04  0.7818609E-02  0.8648640E-01
        2   -1    0    0  501    0  0.00000000000E+00  0.00000000000E+00  0.15517356825E+04  0.15517356825E+04  0.25500000920E-02 0. -1.
       -2   -1    0    0    0  501  0.00000000000E+00  0.00000000000E+00 -0.58930884826E+03  0.58930884827E+03  0.25500000920E-02 0.  1.
    10030    2    1    2    0    0  0.00000000000E+00  0.00000000000E+00  0.96242683421E+03  0.21410445307E+04  0.19125392209E+04 0.  0.
        5    1    3    3  502    0 -0.38241934064E+03 -0.45940882292E+02  0.14610436009E+04  0.15109684347E+04  0.46999998093E+01 0. -1.
       -5    1    3    3    0  502  0.38241934064E+03  0.45940882292E+02 -0.49861676673E+03  0.63007609606E+03  0.46999998093E+01 0.  1.
</event>
<event>
 5   0  0.4839293E-04  0.1919102E+04  0.7818609E-02  0.8645406E-01
       -2   -1    0    0    0  501  0.00000000000E+00  0.00000000000E+00  0.89618687841E+03  0.89618687841E+03  0.25500000920E-02 0. -1.
        2   -1    0    0  501    0  0.00000000000E+00  0.00000000000E+00 -0.10273948131E+04  0.10273948131E+04  0.25500000920E-02 0.  1.
    10030    2    1    2    0    0  0.00000000000E+00  0.00000000000E+00 -0.13120793469E+03  0.19235816915E+04  0.19191016132E+04 0.  0.
        5    1    3    3  502    0 -0.61265319413E+03 -0.41165764094E+03  0.54894209004E+03  0.91987252260E+03  0.46999998093E+01 0. -1.
       -5    1    3    3    0  502  0.61265319413E+03  0.41165764094E+03 -0.68015002473E+03  0.10037091689E+04  0.46999998093E+01 0.  1.
</event>
<event>
 5   0  0.2261755E-04  0.1529367E+04  0.7818609E-02  0.8865156E-01
       -1   -1    0    0    0  501  0.00000000000E+00  0.00000000000E+00  0.25525709946E+03  0.25525709951E+03  0.50400001928E-02 0. -1.
        1   -1    0    0  501    0  0.00000000000E+00  0.00000000000E+00 -0.22907920389E+04  0.22907920389E+04  0.50400001928E-02 0.  1.
    10030    2    1    2    0    0  0.00000000000E+00  0.00000000000E+00 -0.20355349395E+04  0.25460491384E+04  0.15293670997E+04 0.  0.
        1    1    3    3  502    0  0.38985848495E+03 -0.16520542368E+03 -0.20778220377E+04  0.21205251450E+04  0.50400001928E-02 0.  1.
       -1    1    3    3    0  502 -0.38985848495E+03  0.16520542368E+03  0.42287098193E+02  0.42552399345E+03  0.50400001928E-02 0. -1.
</event>
<event>
 5   0  0.4761944E-04  0.1004610E+04  0.7818609E-02  0.9303503E-01
       -2   -1    0    0    0  501  0.00000000000E+00  0.00000000000E+00  0.20433934232E+03  0.20433934233E+03  0.25500000920E-02 0. -1.
        2   -1    0    0  501    0  0.00000000000E+00  0.00000000000E+00 -0.12347606036E+04  0.12347606036E+04  0.25500000920E-02 0.  1.
    10030    2    1    2    0    0  0.00000000000E+00  0.00000000000E+00 -0.10304212612E+04  0.14390999459E+04  0.10046097146E+04 0.  0.
        4    1    3    3  502    0  0.98827664422E+02 -0.42824538605E+03 -0.86359761570E+03  0.96900127589E+03  0.12699999809E+01 0.  1.
       -4    1    3    3    0  502 -0.98827664422E+02  0.42824538605E+03 -0.16682364554E+03  0.47009867000E+03  0.12699999809E+01 0. -1.
</event>
<event>
 5   0  0.2261755E-04  0.1693178E+04  0.7818609E-02  0.8765265E-01
        1   -1    0    0  501    0  0.00000000000E+00  0.00000000000E+00  0.10551520389E+04  0.10551520389E+04  0.50400001928E-02 0. -1.
       -1   -1    0    0    0  501  0.00000000000E+00  0.00000000000E+00 -0.67925050857E+03  0.67925050859E+03  0.50400001928E-02 0.  1.
    10030    2    1    2    0    0  0.00000000000E+00  0.00000000000E+00  0.37590153029E+03  0.17344025475E+04  0.16931775560E+04 0.  0.
        1    1    3    3  502    0  0.16658989801E+03 -0.81522360038E+02  0.10340858247E+04  0.10505863040E+04  0.50400001928E-02 0. -1.
       -1    1    3    3    0  502 -0.16658989801E+03  0.81522360038E+02 -0.65818429443E+03  0.68381624342E+03  0.50400001928E-02 0.  1.
</event>
<event>
 5   0  0.2317458E-04  0.1468605E+04  0.7818609E-02  0.8905603E-01
        1   -1    0    0  501    0  0.00000000000E+00  0.00000000000E+00  0.68755923698E+03  0.68755923700E+03  0.50400001928E-02 0.  1.
       -1   -1    0    0    0  501  0.00000000000E+00  0.00000000000E+00 -0.78422353921E+03  0.78422353923E+03  0.50400001928E-02 0. -1.
    10030    2    1    2    0    0  0.00000000000E+00  0.00000000000E+00 -0.96664302237E+02  0.14717827762E+04  0.14686049684E+04 0.  0.
        3    1    3    3  502    0  0.90977029945E+02  0.40076362227E+03 -0.65818142993E+03  0.77594529821E+03  0.10100000352E+00 0. -1.
       -3    1    3    3    0  502 -0.90977029945E+02 -0.40076362227E+03  0.56151712769E+03  0.69583747801E+03  0.10100000352E+00 0.  1.
</event>
<event>
 5   0  0.2376359E-04  0.1932617E+04  0.7818609E-02  0.8638789E-01
       -1   -1    0    0    0  501  0.00000000000E+00  0.00000000000E+00  0.11783340889E+04  0.11783340889E+04  0.50400001928E-02 0.  1.
        1   -1    0    0  501    0  0.00000000000E+00  0.00000000000E+00 -0.79243438406E+03  0.79243438408E+03  0.50400001928E-02 0. -1.
    10030    2    1    2    0    0  0.00000000000E+00  0.00000000000E+00  0.38589970484E+03  0.19707684730E+04  0.19326173423E+04 0.  0.
        2    1    3    3  502    0 -0.32381319756E+02 -0.77813386933E+03 -0.39036638512E+03  0.87116403915E+03  0.25500000920E-02 0. -1.
       -2    1    3    3    0  502  0.32381319756E+02  0.77813386933E+03  0.77626608996E+03  0.10996044338E+04  0.25500000920E-02 0.  1.
</event>
<event>
 5   0  0.4761944E-04  0.1897733E+04  0.7818609E-02  0.8655986E-01
        2   -1    0    0  501    0  0.00000000000E+00  0.00000000000E+00  0.96576500750E+03  0.96576500750E+03  0.25500000920E-02 0.  1.
       -2   -1    0    0    0  501  0.00000000000E+00  0.00000000000E+00 -0.93226367903E+03  0.93226367903E+03  0.25500000920E-02 0. -1.
    10030    2    1    2    0    0  0.00000000000E+00  0.00000000000E+00  0.33501328464E+02  0.18980286865E+04  0.18977330044E+04 0.  0.
        4    1    3    3  502    0  0.47335983707E+03 -0.79938772129E+03  0.20979825468E+03  0.95242174737E+03  0.12699999809E+01 0. -1.
       -4    1    3    3    0  502 -0.47335983707E+03  0.79938772129E+03 -0.17629692622E+03  0.94560693916E+03  0.12699999809E+01 0.  1.
</event>
<event>
 5   0  0.2510069E-04  0.1904124E+04  0.7818609E-02  0.8652806E-01
       -1   -1    0    0    0  501  0.00000000000E+00  0.00000000000E+00  0.70393079191E+03  0.70393079193E+03  0.50400001928E-02 0.  1.
        1   -1    0    0  501    0  0.00000000000E+00  0.00000000000E+00 -0.12876576843E+04  0.12876576843E+04  0.50400001928E-02 0. -1.
    10030    2    1    2    0    0  0.00000000000E+00  0.00000000000E+00 -0.58372689240E+03  0.19915884763E+04  0.19041238336E+04 0.  0.
        4    1    3    3  502    0 -0.54129919821E+02 -0.13501728654E+03 -0.12759651298E+04  0.12842306417E+04  0.12699999809E+01 0. -1.
       -4    1    3    3    0  502  0.54129919821E+02  0.13501728654E+03  0.69223823737E+03  0.70735783452E+03  0.12699999809E+01 0.  1.
</event>
<event>
 5   0  0.2317458E-04  0.1636523E+04  0.7818609E-02  0.8798419E-01
       -1   -1    0    0    0  501  0.00000000000E+00  0.00000000000E+00  0.93836429552E+03  0.93836429553E+03  0.50400001928E-02 0. -1.
        1   -1    0    0  501    0  0.00000000000E+00  0.00000000000E+00 -0.71353093486E+03  0.71353093488E+03  0.50400001928E-02 0.  1.
    10030    2    1    2    0    0  0.00000000000E+00  0.00000000000E+00  0.22483336066E+03  0.16518952304E+04  0.16365230864E+04 0.  0.
        3    1    3    3  502    0  0.77990430487E+03  0.23939197040E+03  0.48635310267E+02  0.81726656842E+03  0.10100000352E+00 0.  1.
       -3    1    3    3    0  502 -0.77990430487E+03 -0.23939197040E+03  0.17619805039E+03  0.83462866199E+03  0.10100000352E+00 0. -1.
</event>
<event>
 5   0  0.4973411E-04  0.1896525E+04  0.7818609E-02  0.8656588E-01
        2   -1    0    0  501    0  0.00000000000E+00  0.00000000000E+00  0.12758382552E+04  0.12758382552E+04  0.25500000920E-02 0.  1.
       -2   -1    0    0    0  501  0.00000000000E+00  0.00000000000E+00 -0.70479268270E+03  0.70479268270E+03  0.25500000920E-02 0. -1.
    10030    2    1    2    0    0  0.00000000000E+00  0.00000000000E+00  0.57104557246E+03  0.19806309379E+04  0.18965246811E+04 0.  0.
        1    1    3    3  502    0 -0.42692281398E+03 -0.15714808346E+02  0.11696426802E+04  0.12452204799E+04  0.50400001928E-02 0.  1.
       -1    1    3    3    0  502  0.42692281398E+03  0.15714808346E+02 -0.59859710770E+03  0.73541045796E+03  0.50400001928E-02 0. -1.
</event>
<event>
 5   0  0.4839293E-04  0.1903308E+04  0.7818609E-02  0.8653211E-01
       -2   -1    0    0    0  501  0.00000000000E+00  0.00000000000E+00  0.42638202305E+03  0.42638202306E+03  0.25500000920E-02 0. -1.
        2   -1    0    0  501    0  0.00000000000E+00  0.00000000000E+00 -0.21240242402E+04  0.21240242402E+04  0.25500000920E-02 0.  1.
    10030    2    1    2    0    0  0.00000000000E+00  0.00000000000E+00 -0.16976422172E+04  0.25504062633E+04  0.19033084380E+04 0.  0.
        5    1    3    3  502    0 -0.88908418394E+03  0.25108834581E+03 -0.54294130127E+03  0.10715985210E+04  0.46999998093E+01 0. -1.
       -5    1    3    3    0  502  0.88908418394E+03 -0.25108834581E+03 -0.11547009159E+04  0.14788077423E+04  0.46999998093E+01 0.  1.
</event>
<event>
 5   0  0.2510069E-04  0.1862962E+04  0.7818609E-02  0.8673515E-01
        1   -1    0    0  501    0  0.00000000000E+00  0.00000000000E+00  0.13586271287E+04  0.13586271287E+04  0.50400001928E-02 0. -1.
       -1   -1    0    0    0  501  0.00000000000E+00  0.00000000000E+00 -0.63862754244E+03  0.63862754246E+03  0.50400001928E-02 0.  1.
    10030    2    1    2    0    0  0.00000000000E+00  0.00000000000E+00  0.71999958627E+03  0.19972546712E+04  0.18629618400E+04 0.  0.
        4    1    3    3  502    0  0.58080288052E+03  0.36964825962E+03  0.10326711974E+04  0.12411217654E+04  0.12699999809E+01 0. -1.
       -4    1    3    3    0  502 -0.58080288052E+03 -0.36964825962E+03 -0.31267161109E+03  0.75613290574E+03  0.12699999809E+01 0.  1.
</event>
<event>
 5   0  0.4761944E-04  0.1850662E+04  0.7818609E-02  0.8679812E-01
       -2   -1    0    0    0  501  0.00000000000E+00  0.00000000000E+00  0.63780723897E+03  0.63780723898E+03  0.25500000920E-02 0. -1.
        2   -1    0    0  501    0  0.00000000000E+00  0.00000000000E+00 -0.13424708917E+04  0.13424708917E+04  0.25500000920E-02 0.  1.
    10030    2    1    2    0    0  0.00000000000E+00  0.00000000000E+00 -0.70466365273E+03  0.19802781307E+04  0.18506622089E+04 0.  0.
        4    1    3    3  502    0 -0.72480746811E+03  0.71982342906E+02  0.25834821347E+03  0.77283422273E+03  0.12699999809E+01 0. -1.
       -4    1    3    3    0  502  0.72480746811E+03 -0.71982342906E+02 -0.96301186620E+03  0.12074439080E+04  0.12699999809E+01 0.  1.
</event>
<event>
 5   0  0.4829134E-04  0.1847416E+04  0.7818609E-02  0.8681483E-01
        2   -1    0    0  501    0  0.00000000000E+00  0.00000000000E+00  0.64019654052E+03  0.64019654052E+03  0.25500000920E-02 0.  1.
       -2   -1    0    0    0  501  0.00000000000E+00  0.00000000000E+00 -0.13327727413E+04  0.13327727413E+04  0.25500000920E-02 0. -1.
    10030    2    1    2    0    0  0.00000000000E+00  0.00000000000E+00 -0.69257620079E+03  0.19729692818E+04  0.18474160314E+04 0.  0.
        2    1    3    3  502    0 -0.86207161525E+03  0.30110759085E+03 -0.49505037967E+03  0.10387050253E+04  0.25500000920E-02 0. -1.
       -2    1    3    3    0  502  0.86207161525E+03 -0.30110759085E+03 -0.19752582112E+03  0.93426425657E+03  0.25500000920E-02 0.  1.
</event>
<event>
 5   0  0.2261755E-04  0.1922142E+04  0.7818609E-02  0.8643913E-01
       -1   -1    0    0    0  501  0.00000000000E+00  0.00000000000E+00  0.76213697531E+03  0.76213697533E+03  0.50400001928E-02 0.  1.
        1   -1    0    0  501    0  0.00000000000E+00  0.00000000000E+00 -0.12119314481E+04  0.12119314481E+04  0.50400001928E-02 0. -1.
    10030    2    1    2    0    0  0.00000000000E+00  0.00000000000E+00 -0.44979447278E+03  0.19740684234E+04  0.19221423133E+04 0.  0.
        1    1    3    3  502    0  0.58108386738E+03 -0.42146572897E+03  0.43140127946E+03  0.83749560331E+03  0.50400001928E-02 0.  1.
       -1    1    3    3    0  502 -0.58108386738E+03  0.42146572897E+03 -0.88119575224E+03  0.11365728201E+04  0.50400001928E-02 0. -1.
</event>
<event>
 5   0  0.4829134E-04  0.1876793E+04  0.7818609E-02  0.8666495E-01
       -2   -1    0    0    0  501  0.00000000000E+00  0.00000000000E+00  0.77987425754E+03  0.77987425754E+03  0.25500000920E-02 0.  1.
        2   -1    0    0  501    0  0.00000000000E+00  0.00000000000E+00 -0.11291415208E+04  0.11291415208E+04  0.25500000920E-02 0. -1.
    10030    2    1    2    0    0  0.00000000000E+00  0.00000000000E+00 -0.34926726321E+03  0.19090157783E+04  0.18767934411E+04 0.  0.
        2    1    3    3  502    0  0.37334513968E+02 -0.18052959845E+03  0.76127423391E+03  0.78327725684E+03  0.25500000920E-02 0.  1.
       -2    1    3    3    0  502 -0.37334513968E+02  0.18052959845E+03 -0.11105414971E+04  0.11257385215E+04  0.25500000920E-02 0. -1.
</event>
<event>
 5   0  0.2376359E-04  0.1839136E+04  0.7818609E-02  0.8685760E-01
        1   -1    0    0  501    0  0.00000000000E+00  0.00000000000E+00  0.15424390199E+04  0.15424390199E+04  0.50400001928E-02 0. -1.
       -1   -1    0    0    0  501  0.00000000000E+00  0.00000000000E+00 -0.54822621373E+03  0.54822621375E+03  0.50400001928E-02 0.  1.
    10030    2    1    2    0    0  0.00000000000E+00  0.00000000000E+00  0.99421280617E+03  0.20906652337E+04  0.18391362144E+04 0.  0.
        2    1    3    3  502    0  0.14989586922E+03  0.39898724402E+03 -0.42916221728E+03  0.60484692381E+03  0.25500000920E-02 0.  1.
       -2    1    3    3    0  502 -0.14989586922E+03 -0.39898724402E+03  0.14233750234E+04  0.14858183098E+04  0.25500000920E-02 0. -1.
</event>
<event>
 5   0  0.2261755E-04  0.1899588E+04  0.7818609E-02  0.8655061E-01
       -1   -1    0    0    0  501  0.00000000000E+00  0.00000000000E+00  0.55707450696E+03  0.55707450698E+03  0.50400001928E-02 0.  1.
        1   -1    0    0  501    0  0.00000000000E+00  0.00000000000E+00 -0.16193682048E+04  0.16193682048E+04  0.50400001928E-02 0. -1.
    10030    2    1    2    0    0  0.00000000000E+00  0.00000000000E+00 -0.10622936979E+04  0.21764427118E+04  0.18995881073E+04 0.  0.
        1    1    3    3  502    0 -0.69094855288E+02  0.88865255746E+03 -0.15526007432E+03  0.90475585525E+03  0.50400001928E-02 0. -1.
       -1    1    3    3    0  502  0.69094855288E+02 -0.88865255746E+03 -0.90703362354E+03  0.12716868566E+04  0.50400001928E-02 0.  1.
</event>
<event>
 5   0  0.4973411E-04  0.1879069E+04  0.7818609E-02  0.8665346E-01
        2   -1    0    0  501    0  0.00000000000E+00  0.00000000000E+00  0.71534918708E+03  0.71534918709E+03  0.25500000920E-02 0. -1.
       -2   -1    0    0    0  501  0.00000000000E+00  0.00000000000E+00 -0.12339775847E+04  0.12339775847E+04  0.25500000920E-02 0.  1.
    10030    2    1    2    0    0  0.00000000000E+00  0.00000000000E+00 -0.51862839766E+03  0.19493267718E+04  0.18790687716E+04 0.  0.
        1    1    3    3  502    0 -0.69869365434E+03  0.56589062902E+03  0.23495527872E+02  0.89942040587E+03  0.50400001928E-02 0. -1.
       -1    1    3    3    0  502  0.69869365434E+03 -0.56589062902E+03 -0.54212392553E+03  0.10499063660E+04  0.50400001928E-02 0.  1.
</event>
<event>
 5   0  0.4829134E-04  0.1903144E+04  0.7818609E-02  0.8653293E-01
        2   -1    0    0  501    0  0.00000000000E+00  0.00000000000E+00  0.18032228722E+04  0.18032228722E+04  0.25500000920E-02 0.  1.
       -2   -1    0    0    0  501  0.00000000000E+00  0.00000000000E+00 -0.50215070231E+03  0.50215070232E+03  0.25500000920E-02 0. -1.
    10030    2    1    2    0    0  0.00000000000E+00  0.00000000000E+00  0.13010721699E+04  0.23053735745E+04  0.19031443789E+04 0.  0.
        2    1    3    3  502    0  0.25193721439E+03 -0.28729105497E+03 -0.40513363722E+03  0.55690373879E+03  0.25500000920E-02 0. -1.
       -2    1    3    3    0  502 -0.25193721439E+03  0.28729105497E+03  0.17062058071E+04  0.17484698357E+04  0.25500000920E-02 0.  1.
</event>
<event>
 5   0  0.2261755E-04  0.1045914E+04  0.7818609E-02  0.9259573E-01
        1   -1    0    0  501    0  0.00000000000E+00  0.00000000000E+00  0.10388510307E+04  0.10388510307E+04  0.50400001928E-02 0. -1.
       -1   -1    0    0    0  501  0.00000000000E+00  0.00000000000E+00 -0.26325633133E+03  0.26325633138E+03  0.50400001928E-02 0.  1.
    10030    2    1    2    0    0  0.00000000000E+00  0.00000000000E+00  0.77559469934E+03  0.13021073621E+04  0.10459141670E+04 0.  0.
        1    1    3    3  502    0 -0.23338268600E+03  0.15773290823E+03  0.93633300726E+03  0.97778660707E+03  0.50400001928E-02 0. -1.
       -1    1    3    3    0  502  0.23338268600E+03 -0.15773290823E+03 -0.16073830791E+03  0.32432075499E+03  0.50400001928E-02 0.  1.
</event>
<event>
 5   0  0.2376359E-04  0.1856104E+04  0.7818609E-02  0.8677020E-01
       -1   -1    0    0    0  501  0.00000000000E+00  0.00000000000E+00  0.78130686976E+03  0.78130686977E+03  0.50400001928E-02 0. -1.
        1   -1    0    0  501    0  0.00000000000E+00  0.00000000000E+00 -0.11023584796E+04  0.11023584796E+04  0.50400001928E-02 0.  1.
    10030    2    1    2    0    0  0.00000000000E+00  0.00000000000E+00 -0.32105160981E+03  0.18836653493E+04  0.18561037181E+04 0.  0.
        2    1    3    3  502    0 -0.76526868358E+03  0.52165963333E+03 -0.10035524403E+03  0.93157721425E+03  0.25500000920E-02 0. -1.
       -2    1    3    3    0  502  0.76526868358E+03 -0.52165963333E+03 -0.22069636578E+03  0.95208813509E+03  0.25500000920E-02 0.  1.
</event>
<event>
 5   0  0.4973411E-04  0.1889537E+04  0.7818609E-02  0.8660082E-01
        2   -1    0    0  501    0  0.00000000000E+00  0.00000000000E+00  0.76189129586E+03  0.76189129587E+03  0.25500000920E-02 0. -1.
       -2   -1    0    0    0  501  0.00000000000E+00  0.00000000000E+00 -0.11715419827E+04  0.11715419827E+04  0.25500000920E-02 0.  1.
    10030    2    1    2    0    0  0.00000000000E+00  0.00000000000E+00 -0.40965068680E+03  0.19334332785E+04  0.18895371278E+04 0.  0.
        1    1    3    3  502    0  0.63896724540E+03 -0.12084372041E+03 -0.90609732420E+03  0.11153002763E+04  0.50400001928E-02 0.  1.
       -1    1    3    3    0  502 -0.63896724540E+03  0.12084372041E+03  0.49644663740E+03  0.81813300219E+03  0.50400001928E-02 0. -1.
</event>
<event>
 5   0  0.2376359E-04  0.1900954E+04  0.7818609E-02  0.8654381E-01
       -1   -1    0    0    0  501  0.00000000000E+00  0.00000000000E+00  0.84650608985E+03  0.84650608987E+03  0.50400001928E-02 0.  1.
        1   -1    0    0  501    0  0.00000000000E+00  0.00000000000E+00 -0.10672184789E+04  0.10672184789E+04  0.50400001928E-02 0. -1.
    10030    2    1    2    0    0  0.00000000000E+00  0.00000000000E+00 -0.22071238907E+03  0.19137245688E+04  0.19009544357E+04 0.  0.
        2    1    3    3  502    0  0.86310670686E+03  0.38940636681E+03 -0.27239857323E+02  0.94727636715E+03  0.25500000920E-02 0.  1.
       -2    1    3    3    0  502 -0.86310670686E+03 -0.38940636681E+03 -0.19347253175E+03  0.96644820165E+03  0.25500000920E-02 0. -1.
</event>
<event>
 5   0  0.2317458E-04  0.1913205E+04  0.7818609E-02  0.8648311E-01
       -1   -1    0    0    0  501  0.00000000000E+00  0.00000000000E+00  0.13227582021E+04  0.13227582021E+04  0.50400001928E-02 0.  1.
        1   -1    0    0  501    0  0.00000000000E+00  0.00000000000E+00 -0.69180298061E+03  0.69180298063E+03  0.50400001928E-02 0. -1.
    10030    2    1    2    0    0  0.00000000000E+00  0.00000000000E+00  0.63095522152E+03  0.20145611828E+04  0.19132047113E+04 0.  0.
        3    1    3    3  502    0  0.64238152868E+03 -0.50439349604E+02 -0.42900781636E+03  0.77410972936E+03  0.10100000352E+00 0. -1.
       -3    1    3    3    0  502 -0.64238152868E+03  0.50439349604E+02  0.10599630379E+04  0.12404514534E+04  0.10100000352E+00 0.  1.
</event>
<event>
 5   0  0.4761944E-04  0.1916096E+04  0.7818609E-02  0.8646885E-01
        2   -1    0    0  501    0  0.00000000000E+00  0.00000000000E+00  0.52957704447E+03  0.52957704447E+03  0.25500000920E-02 0.  1.
       -2   -1    0    0    0  501  0.00000000000E+00  0.00000000000E+00 -0.17331876185E+04  0.17331876185E+04  0.25500000920E-02 0. -1.
    10030    2    1    2    0    0  0.00000000000E+00  0.00000000000E+00 -0.12036105740E+04  0.22627646630E+04  0.19160964240E+04 0.  0.
        4    1    3    3  502    0  0.37721279396E+03  0.23191019367E+02 -0.16414395149E+04  0.16843849350E+04  0.12699999809E+01 0. -1.
       -4    1    3    3    0  502 -0.37721279396E+03 -0.23191019367E+02  0.43782894089E+03  0.57837972794E+03  0.12699999809E+01 0.  1.
</event>
<event>
 5   0  0.4761944E-04  0.1909253E+04  0.7818609E-02  0.8650264E-01
        2   -1    0    0  501    0  0.00000000000E+00  0.00000000000E+00  0.88518484857E+03  0.88518484858E+03  0.25500000920E-02 0. -1.
       -2   -1    0    0    0  501  0.00000000000E+00  0.00000000000E+00 -0.10295158504E+04  0.10295158504E+04  0.25500000920E-02 0.  1.
    10030    2    1    2    0    0  0.00000000000E+00  0.00000000000E+00 -0.14433100184E+03  0.19147006990E+04  0.19092530813E+04 0.  0.
        4    1    3    3  502    0 -0.92895433816E+03  0.16821591544E+03  0.69862963577E+02  0.94664417982E+03  0.12699999809E+01 0.  1.
       -4    1    3    3    0  502  0.92895433816E+03 -0.16821591544E+03 -0.21419396542E+03  0.96805651918E+03  0.12699999809E+01 0. -1.
</event>
<event>
 5   0  0.4761944E-04  0.1886484E+04  0.7818609E-02  0.8661613E-01
        2   -1    0    0  501    0  0.00000000000E+00  0.00000000000E+00  0.12362368425E+04  0.12362368425E+04  0.25500000920E-02 0. -1.
       -2   -1    0    0    0  501  0.00000000000E+00  0.00000000000E+00 -0.71968869286E+03  0.71968869286E+03  0.25500000920E-02 0.  1.
    10030    2    1    2    0    0  0.00000000000E+00  0.00000000000E+00  0.51654814966E+03  0.19559255354E+04  0.18864842191E+04 0.  0.
        4    1    3    3  502    0  0.14499874428E+03  0.88155889958E+03  0.57195548617E+03  0.10608041385E+04  0.12699999809E+01 0.  1.
       -4    1    3    3    0  502 -0.14499874428E+03 -0.88155889958E+03 -0.55407336510E+02  0.89512139685E+03  0.12699999809E+01 0. -1.
</event>
<event>
 5   0  0.4802635E-04  0.1829325E+04  0.7818609E-02  0.8690858E-01
       -2   -1    0    0    0  501  0.00000000000E+00  0.00000000000E+00  0.10481101743E+04  0.10481101743E+04  0.25500000920E-02 0.  1.
        2   -1    0    0  501    0  0.00000000000E+00  0.00000000000E+00 -0.79820598931E+03  0.79820598931E+03  0.25500000920E-02 0. -1.
    10030    2    1    2    0    0  0.00000000000E+00  0.00000000000E+00  0.24990418502E+03  0.18463161636E+04  0.18293253605E+04 0.  0.
        3    1    3    3  502    0  0.59425143258E+03 -0.10875188980E+03  0.81809570665E+03  0.10169770568E+04  0.10100000352E+00 0.  1.
       -3    1    3    3    0  502 -0.59425143258E+03  0.10875188980E+03 -0.56819152163E+03  0.82933910682E+03  0.10100000352E+00 0. -1.
</event>
<event>
 5   0  0.2261755E-04  0.1866290E+04  0.7818609E-02  0.8671820E-01
       -1   -1    0    0    0  501  0.00000000000E+00  0.00000000000E+00  0.55909287303E+03  0.55909287306E+03  0.50400001928E-02 0.  1.
        1   -1    0    0  501    0  0.00000000000E+00  0.00000000000E+00 -0.15574508178E+04  0.15574508178E+04  0.50400001928E-02 0. -1.
    10030    2    1    2    0    0  0.00000000000E+00  0.00000000000E+00 -0.99835794475E+03  0.21165436908E+04  0.18662900657E+04 0.  0.
        1    1    3    3  502    0 -0.35916951481E+03 -0.28875605641E+03 -0.14193856278E+04  0.14923264927E+04  0.50400001928E-02 0. -1.
       -1    1    3    3    0  502  0.35916951481E+03  0.28875605641E+03  0.42102768306E+03  0.62421719810E+03  0.50400001928E-02 0.  1.
</event>
<event>
 5   0  0.4829134E-04  0.1109629E+04  0.7818609E-02  0.9195858E-01
        2   -1    0    0  501    0  0.00000000000E+00  0.00000000000E+00  0.26130853312E+03  0.26130853314E+03  0.25500000920E-02 0.  1.
       -2   -1    0    0    0  501  0.00000000000E+00  0.00000000000E+00 -0.11779905425E+04  0.11779905425E+04  0.25500000920E-02 0. -1.
    10030    2    1    2    0    0  0.00000000000E+00  0.00000000000E+00 -0.91668200941E+03  0.14392990757E+04  0.11096287320E+04 0.  0.
        2    1    3    3  502    0  0.80855111178E+02 -0.45722054095E+03 -0.64417984397E+02  0.46876203856E+03  0.25500000920E-02 0.  1.
       -2    1    3    3    0  502 -0.80855111178E+02  0.45722054095E+03 -0.85226402502E+03  0.97053703712E+03  0.25500000920E-02 0. -1.
</event>
<event>
 5   0  0.4973411E-04  0.1878183E+04  0.7818609E-02  0.8665793E-01
        2   -1    0    0  501    0  0.00000000000E+00  0.00000000000E+00  0.17498789390E+04  0.17498789390E+04  0.25500000920E-02 0. -1.
       -2   -1    0    0    0  501  0.00000000000E+00  0.00000000000E+00 -0.50397344001E+03  0.50397344001E+03  0.25500000920E-02 0.  1.
    10030    2    1    2    0    0  0.00000000000E+00  0.00000000000E+00  0.12459054989E+04  0.22538523790E+04  0.18781826412E+04 0.  0.
        1    1    3    3  502    0  0.37707880494E+03  0.37359003939E+03  0.15525866787E+04  0.16408178867E+04  0.50400001928E-02 0. -1.
       -1    1    3    3    0  502 -0.37707880494E+03 -0.37359003939E+03 -0.30668117971E+03  0.61303449224E+03  0.50400001928E-02 0.  1.
</event>
<event>
 5   0  0.2376359E-04  0.1897681E+04  0.7818609E-02  0.8656012E-01
        1   -1    0    0  501    0  0.00000000000E+00  0.00000000000E+00  0.12423861081E+04  0.12423861081E+04  0.50400001928E-02 0.  1.
       -1   -1    0    0    0  501  0.00000000000E+00  0.00000000000E+00 -0.72465226781E+03  0.72465226783E+03  0.50400001928E-02 0. -1.
    10030    2    1    2    0    0  0.00000000000E+00  0.00000000000E+00  0.51773384031E+03  0.19670383760E+04  0.18976805957E+04 0.  0.
        2    1    3    3  502    0  0.75280869244E+03  0.23393170109E+03 -0.28849846792E+03  0.83945001888E+03  0.25500000920E-02 0. -1.
       -2    1    3    3    0  502 -0.75280869244E+03 -0.23393170109E+03  0.80623230823E+03  0.11275883571E+04  0.25500000920E-02 0.  1.
</event>
<event>
 5   0  0.2376359E-04  0.1893243E+04  0.7818609E-02  0.8658227E-01
       -1   -1    0    0    0  501  0.00000000000E+00  0.00000000000E+00  0.40544519311E+03  0.40544519314E+03  0.50400001928E-02 0.  1.
        1   -1    0    0  501    0  0.00000000000E+00  0.00000000000E+00 -0.22101440318E+04  0.22101440318E+04  0.50400001928E-02 0. -1.
    10030    2    1    2    0    0  0.00000000000E+00  0.00000000000E+00 -0.18046988387E+04  0.26155892250E+04  0.18932430101E+04 0.  0.
        2    1    3    3  502    0 -0.84543519756E+03 -0.33323821649E+03 -0.53608808124E+03  0.10550823726E+04  0.25500000920E-02 0.  1.
       -2    1    3    3    0  502  0.84543519756E+03  0.33323821649E+03 -0.12686107575E+04  0.15605068523E+04  0.25500000920E-02 0. -1.
</event>
<event>
 5   0  0.4973411E-04  0.1831763E+04  0.7818609E-02  0.8689588E-01
       -2   -1    0    0    0  501  0.00000000000E+00  0.00000000000E+00  0.79984599684E+03  0.79984599684E+03  0.25500000920E-02 0. -1.
        2   -1    0    0  501    0  0.00000000000E+00  0.00000000000E+00 -0.10487507721E+04  0.10487507721E+04  0.25500000920E-02 0.  1.
    10030    2    1    2    0    0  0.00000000000E+00  0.00000000000E+00 -0.24890477528E+03  0.18485967690E+04  0.18317632017E+04 0.  0.
        1    1    3    3  502    0 -0.23254011320E+03 -0.72788808725E+03  0.38510666361E+03  0.85568867831E+03  0.50400001928E-02 0. -1.
       -1    1    3    3    0  502  0.23254011320E+03  0.72788808725E+03 -0.63401143890E+03  0.99290809065E+03  0.50400001928E-02 0.  1.
</event>
<event>
 5   0  0.4761944E-04  0.1965907E+04  0.7818609E-02  0.8622728E-01
        2   -1    0    0  501    0  0.00000000000E+00  0.00000000000E+00  0.11117100076E+04  0.11117100076E+04  0.25500000920E-02 0. -1.
       -2   -1    0    0    0  501  0.00000000000E+00  0.00000000000E+00 -0.86910902803E+03  0.86910902803E+03  0.25500000920E-02 0.  1.
    10030    2    1    2    0    0  0.00000000000E+00  0.00000000000E+00  0.24260097954E+03  0.19808190356E+04  0.19659066144E+04 0.  0.
        4    1    3    3  502    0  0.95195729806E+03  0.84386511514E+02  0.35293958071E+03  0.10187795351E+04  0.12699999809E+01 0.  1.
       -4    1    3    3    0  502 -0.95195729806E+03 -0.84386511514E+02 -0.11033860117E+03  0.96203950047E+03  0.12699999809E+01 0. -1.
</event>
<event>
 5   0  0.4761944E-04  0.2094848E+04  0.7818609E-02  0.8563516E-01
        2   -1    0    0  501    0  0.00000000000E+00  0.00000000000E+00  0.10197125465E+04  0.10197125465E+04  0.25500000920E-02 0. -1.
       -2   -1    0    0    0  501  0.00000000000E+00  0.00000000000E+00 -0.10758888658E+04  0.10758888658E+04  0.25500000920E-02 0.  1.
    10030    2    1    2    0    0  0.00000000000E+00  0.00000000000E+00 -0.56176319333E+02  0.20956014123E+04  0.20948483239E+04 0.  0.
        4    1    3    3  502    0 -0.14872027070E+03 -0.80332422859E+03  0.62762305395E+03  0.10302232020E+04  0.12699999809E+01 0.  1.
       -4    1    3    3    0  502  0.14872027070E+03  0.80332422859E+03 -0.68379937328E+03  0.10653782103E+04  0.12699999809E+01 0. -1.
</event>
<event>
 5   0  0.2317458E-04  0.1858527E+04  0.7818609E-02  0.8675780E-01
        1   -1    0    0  501    0  0.00000000000E+00  0.00000000000E+00  0.13728633732E+04  0.13728633732E+04  0.50400001928E-02 0. -1.
       -1   -1    0    0    0  501  0.00000000000E+00  0.00000000000E+00 -0.62899949304E+03  0.62899949306E+03  0.50400001928E-02 0.  1.
    10030    2    1    2    0    0  0.00000000000E+00  0.00000000000E+00  0.74386388016E+03  0.20018628663E+04  0.18585266915E+04 0.  0.
        3    1    3    3  502    0  0.65541111443E+02 -0.46915462337E+03  0.12330439900E+04  0.13209084713E+04  0.10100000352E+00 0. -1.
       -3    1    3    3    0  502 -0.65541111443E+02  0.46915462337E+03 -0.48918010989E+03  0.68095439497E+03  0.10100000352E+00 0.  1.
</event>
<event>
 5   0  0.2355414E-04  0.1912417E+04  0.7818609E-02  0.8648700E-01
       -1   -1    0    0    0  501  0.00000000000E+00  0.00000000000E+00  0.51831520246E+03  0.51831520248E+03  0.50400001928E-02 0.  1.
        1   -1    0    0  501    0  0.00000000000E+00  0.00000000000E+00 -0.17640514084E+04  0.17640514084E+04  0.50400001928E-02 0. -1.
    10030    2    1    2    0    0  0.00000000000E+00  0.00000000000E+00 -0.12457362060E+04  0.22823666109E+04  0.19124169660E+04 0.  0.
        5    1    3    3  502    0  0.93321738425E+03  0.16788723172E+03 -0.47557652323E+03  0.10607902376E+04  0.46999998093E+01 0. -1.
       -5    1    3    3    0  502 -0.93321738425E+03 -0.16788723172E+03 -0.77015968275E+03  0.12215763733E+04  0.46999998093E+01 0.  1.
</event>
<event>
 5   0  0.4829134E-04  0.1886889E+04  0.7818609E-02  0.8661410E-01
       -2   -1    0    0    0  501  0.00000000000E+00  0.00000000000E+00  0.97113460054E+03  0.97113460055E+03  0.25500000920E-02 0. -1.
        2   -1    0    0  501    0  0.00000000000E+00  0.00000000000E+00 -0.91654395737E+03  0.91654395737E+03  0.25500000920E-02 0.  1.
    10030    2    1    2    0    0  0.00000000000E+00  0.00000000000E+00  0.54590643178E+02  0.18876785579E+04  0.18868890269E+04 0.  0.
        2    1    3    3  502    0  0.42741468764E+03  0.18303985862E+03  0.84855333428E+03  0.96758961661E+03  0.25500000920E-02 0. -1.
       -2    1    3    3    0  502 -0.42741468764E+03 -0.18303985862E+03 -0.79396269110E+03  0.92008894131E+03  0.25500000920E-02 0.  1.
</event>
<event>
 5   0  0.2376359E-04  0.1918960E+04  0.7818609E-02  0.8645476E-01
       -1   -1    0    0    0  501  0.00000000000E+00  0.00000000000E+00  0.20158846534E+04  0.20158846535E+04  0.50400001928E-02 0. -1.
        1   -1    0    0  501    0  0.00000000000E+00  0.00000000000E+00 -0.45667393349E+03  0.45667393352E+03  0.50400001928E-02 0.  1.
    10030    2    1    2    0    0  0.00000000000E+00  0.00000000000E+00  0.15592107200E+04  0.24725585870E+04  0.19189601082E+04 0.  0.
        2    1    3    3  502    0 -0.74282591126E+03  0.32109630368E+02  0.15610083335E+04  0.17290368360E+04  0.25500000920E-02 0. -1.
       -2    1    3    3    0  502  0.74282591126E+03 -0.32109630368E+02 -0.17976135636E+01  0.74352175101E+03  0.25500000920E-02 0.  1.
</event>
<event>
 5   0  0.2376359E-04  0.2066283E+04  0.7818609E-02  0.8576243E-01
        1   -1    0    0  501    0  0.00000000000E+00  0.00000000000E+00  0.12051197935E+04  0.12051197936E+04  0.50400001928E-02 0.  1.
       -1   -1    0    0    0  501  0.00000000000E+00  0.00000000000E+00 -0.88570584568E+03  0.88570584570E+03  0.50400001928E-02 0. -1.
    10030    2    1    2    0    0  0.00000000000E+00  0.00000000000E+00  0.31941394786E+03  0.20908256393E+04  0.20662832777E+04 0.  0.
        2    1    3    3  502    0 -0.82501910245E+03  0.36498524644E+03  0.66918595499E+03  0.11232455617E+04  0.25500000920E-02 0.  1.
       -2    1    3    3    0  502  0.82501910245E+03 -0.36498524644E+03 -0.34977200712E+03  0.96758007756E+03  0.25500000920E-02 0. -1.
</event>
<event>
 5   0  0.2261755E-04  0.1897845E+04  0.7818609E-02  0.8655930E-01
       -1   -1    0    0    0  501  0.00000000000E+00  0.00000000000E+00  0.65004326200E+03  0.65004326202E+03  0.50400001928E-02 0. -1.
        1   -1    0    0  501    0  0.00000000000E+00  0.00000000000E+00 -0.13852218458E+04  0.13852218458E+04  0.50400001928E-02 0.  1.
    10030    2    1    2    0    0  0.00000000000E+00  0.00000000000E+00 -0.73517858382E+03  0.20352651078E+04  0.18978452279E+04 0.  0.
        1    1    3    3  502    0 -0.42585403630E+03  0.83360866607E+03 -0.53441363869E+03  0.10778928544E+04  0.50400001928E-02 0. -1.
       -1    1    3    3    0  502  0.42585403630E+03 -0.83360866607E+03 -0.20076494513E+03  0.95737225341E+03  0.50400001928E-02 0.  1.
</event>
<event>
 5   0  0.4829134E-04  0.2122794E+04  0.7818609E-02  0.8551268E-01
       -2   -1    0    0    0  501  0.00000000000E+00  0.00000000000E+00  0.10019465073E+04  0.10019465073E+04  0.25500000920E-02 0.  1.
        2   -1    0    0  501    0  0.00000000000E+00  0.00000000000E+00 -0.11243747338E+04  0.11243747338E+04  0.25500000920E-02 0. -1.
    10030    2    1    2    0    0  0.00000000000E+00  0.00000000000E+00 -0.12242822647E+03  0.21263212410E+04  0.21227937605E+04 0.  0.
        2    1    3    3  502    0  0.49828737023E+03 -0.93715408683E+03 -0.57302296783E+02  0.10629353880E+04  0.25500000920E-02 0. -1.
       -2    1    3    3    0  502 -0.49828737023E+03  0.93715408683E+03 -0.65125929688E+02  0.10633858531E+04  0.25500000920E-02 0.  1.
</event>
<event>
 5   0  0.4761944E-04  0.1836690E+04  0.7818609E-02  0.8687028E-01
       -2   -1    0    0    0  501  0.00000000000E+00  0.00000000000E+00  0.44127706176E+03  0.44127706177E+03  0.25500000920E-02 0. -1.
        2   -1    0    0  501    0  0.00000000000E+00  0.00000000000E+00 -0.19111737366E+04  0.19111737366E+04  0.25500000920E-02 0.  1.
    10030    2    1    2    0    0  0.00000000000E+00  0.00000000000E+00 -0.14698966749E+04  0.23524507984E+04  0.18366895557E+04 0.  0.
        4    1    3    3  502    0  0.47671755345E+03  0.76372705279E+03 -0.96697262347E+03  0.13212025978E+04  0.12699999809E+01 0.  1.
       -4    1    3    3    0  502 -0.47671755345E+03 -0.76372705279E+03 -0.50292405141E+03  0.10312482006E+04  0.12699999809E+01 0. -1.
</event>
<event>
 5   0  0.2317458E-04  0.1828231E+04  0.7818609E-02  0.8691429E-01
        1   -1    0    0  501    0  0.00000000000E+00  0.00000000000E+00  0.14538267630E+04  0.14538267630E+04  0.50400001928E-02 0. -1.
       -1   -1    0    0    0  501  0.00000000000E+00  0.00000000000E+00 -0.57476365236E+03  0.57476365238E+03  0.50400001928E-02 0.  1.
    10030    2    1    2    0    0  0.00000000000E+00  0.00000000000E+00  0.87906311063E+03  0.20285904154E+04  0.18282305984E+04 0.  0.
        3    1    3    3  502    0 -0.86044388107E+03 -0.30842890827E+03  0.45141539087E+03  0.10194449123E+04  0.10100000352E+00 0. -1.
       -3    1    3    3    0  502  0.86044388107E+03  0.30842890827E+03  0.42764771976E+03  0.10091455031E+04  0.10100000352E+00 0.  1.
</event>
<event>
 5   0  0.4973411E-04  0.1872453E+04  0.7818609E-02  0.8668691E-01
        2   -1    0    0  501    0  0.00000000000E+00  0.00000000000E+00  0.23740412773E+04  0.23740412773E+04  0.25500000920E-02 0. -1.
       -2   -1    0    0    0  501  0.00000000000E+00  0.00000000000E+00 -0.36921004400E+03  0.36921004401E+03  0.25500000920E-02 0.  1.
    10030    2    1    2    0    0  0.00000000000E+00  0.00000000000E+00  0.20048312333E+04  0.27432513214E+04  0.18724528133E+04 0.  0.
        1    1    3    3  502    0  0.10639725364E+03 -0.62723881739E+03  0.20086990525E+04  0.21070407668E+04  0.50400001928E-02 0. -1.
       -1    1    3    3    0  502 -0.10639725364E+03  0.62723881739E+03 -0.38678191569E+01  0.63621055451E+03  0.50400001928E-02 0.  1.
</event>
<event>
 5   0  0.2376359E-04  0.1884924E+04  0.7818609E-02  0.8662397E-01
       -1   -1    0    0    0  501  0.00000000000E+00  0.00000000000E+00  0.67583145274E+03  0.67583145276E+03  0.50400001928E-02 0. -1.
        1   -1    0    0  501    0  0.00000000000E+00  0.00000000000E+00 -0.13142843760E+04  0.13142843760E+04  0.50400001928E-02 0.  1.
    10030    2    1    2    0    0  0.00000000000E+00  0.00000000000E+00 -0.63845292328E+03  0.19901158288E+04  0.18849241037E+04 0.  0.
        2    1    3    3  502    0 -0.24151733590E+03  0.78881012881E+03  0.16192811578E+03  0.84069778015E+03  0.25500000920E-02 0. -1.
       -2    1    3    3    0  502  0.24151733590E+03 -0.78881012881E+03 -0.80038103905E+03  0.11494180486E+04  0.25500000920E-02 0.  1.
</event>
<event>
 5   0  0.2261755E-04  0.1901623E+04  0.7818609E-02  0.8654049E-01
       -1   -1    0    0    0  501  0.00000000000E+00  0.00000000000E+00  0.16251826122E+04  0.16251826122E+04  0.50400001928E-02 0. -1.
        1   -1    0    0  501    0  0.00000000000E+00  0.00000000000E+00 -0.55627149478E+03  0.55627149480E+03  0.50400001928E-02 0.  1.
    10030    2    1    2    0    0  0.00000000000E+00  0.00000000000E+00  0.10689111175E+04  0.21814541070E+04  0.19016232656E+04 0.  0.
        1    1    3    3  502    0  0.84789852124E+03  0.31156694294E+03  0.87482766830E+03  0.12575091695E+04  0.50400001928E-02 0.  1.
       -1    1    3    3    0  502 -0.84789852124E+03 -0.31156694294E+03  0.19408344915E+03  0.92394493749E+03  0.50400001928E-02 0. -1.
</event>
<event>
 5   0  0.2317458E-04  0.1916350E+04  0.7818609E-02  0.8646761E-01
       -1   -1    0    0    0  501  0.00000000000E+00  0.00000000000E+00  0.44738892696E+03  0.44738892699E+03  0.50400001928E-02 0.  1.
        1   -1    0    0  501    0  0.00000000000E+00  0.00000000000E+00 -0.20521277172E+04  0.20521277172E+04  0.50400001928E-02 0. -1.
    10030    2    1    2    0    0  0.00000000000E+00  0.00000000000E+00 -0.16047387902E+04  0.24995166442E+04  0.19163498818E+04 0.  0.
        3    1    3    3  502    0 -0.30608279351E+03  0.59871895201E+03 -0.16926973779E+04  0.18213663781E+04  0.10100000352E+00 0. -1.
       -3    1    3    3    0  502  0.30608279351E+03 -0.59871895201E+03  0.87958587700E+02  0.67815026604E+03  0.10100000352E+00 0.  1.
</event>
<event>
 5   0  0.2261755E-04  0.1853486E+04  0.7818609E-02  0.8678362E-01
        1   -1    0    0  501    0  0.00000000000E+00  0.00000000000E+00  0.11524669554E+04  0.11524669554E+04  0.50400001928E-02 0. -1.
       -1   -1    0    0    0  501  0.00000000000E+00  0.00000000000E+00 -0.74522929573E+03  0.74522929574E+03  0.50400001928E-02 0.  1.
    10030    2    1    2    0    0  0.00000000000E+00  0.00000000000E+00  0.40723765971E+03  0.18976962512E+04  0.18534855139E+04 0.  0.
        1    1    3    3  502    0  0.70326586963E+03 -0.18036232868E+03 -0.38608719201E+03  0.82229968555E+03  0.50400001928E-02 0.  1.
       -1    1    3    3    0  502 -0.70326586963E+03  0.18036232868E+03  0.79332485172E+03  0.10753965656E+04  0.50400001928E-02 0. -1.
</event>
<event>
 5   0  0.2261755E-04  0.1987084E+04  0.7818609E-02  0.8612683E-01
        1   -1    0    0  501    0  0.00000000000E+00  0.00000000000E+00  0.12390127679E+04  0.12390127679E+04  0.50400001928E-02 0.  1.
       -1   -1    0    0    0  501  0.00000000000E+00  0.00000000000E+00 -0.79670362560E+03  0.79670362562E+03  0.50400001928E-02 0. -1.
    10030    2    1    2    0    0  0.00000000000E+00  0.00000000000E+00  0.44230914228E+03  0.20357163935E+04  0.19870842603E+04 0.  0.
        1    1    3    3  502    0  0.56289202229E+03  0.73896123151E+02 -0.61416439502E+03  0.83636473498E+03  0.50400001928E-02 0. -1.
       -1    1    3    3    0  502 -0.56289202229E+03 -0.73896123151E+02  0.10564735373E+04  0.11993516585E+04  0.50400001928E-02 0.  1.
</event>
<event>
 5   0  0.2376359E-04  0.1924448E+04  0.7818609E-02  0.8642782E-01
       -1   -1    0    0    0  501  0.00000000000E+00  0.00000000000E+00  0.13335780146E+04  0.13335780146E+04  0.50400001928E-02 0.  1.
        1   -1    0    0  501    0  0.00000000000E+00  0.00000000000E+00 -0.69427895963E+03  0.69427895965E+03  0.50400001928E-02 0. -1.
    10030    2    1    2    0    0  0.00000000000E+00  0.00000000000E+00  0.63929905493E+03  0.20278569742E+04  0.19244481355E+04 0.  0.
        2    1    3    3  502    0  0.28517596457E+03 -0.22456416965E+03 -0.61936948191E+03  0.71789480580E+03  0.25500000920E-02 0. -1.
       -2    1    3    3    0  502 -0.28517596457E+03  0.22456416965E+03  0.12586685368E+04  0.13099621684E+04  0.25500000920E-02 0.  1.
</event>
<event>
 5   0  0.2261755E-04  0.1916291E+04  0.7818609E-02  0.8646789E-01
        1   -1    0    0  501    0  0.00000000000E+00  0.00000000000E+00  0.20298448901E+04  0.20298448901E+04  0.50400001928E-02 0. -1.
       -1   -1    0    0    0  501  0.00000000000E+00  0.00000000000E+00 -0.45227255722E+03  0.45227255725E+03  0.50400001928E-02 0.  1.
    10030    2    1    2    0    0  0.00000000000E+00  0.00000000000E+00  0.15775723329E+04  0.24821174473E+04  0.19162913549E+04 0.  0.
        1    1    3    3  502    0 -0.32499666105E+03  0.86032812731E+03  0.11369608685E+04  0.14623499352E+04  0.50400001928E-02 0. -1.
       -1    1    3    3    0  502  0.32499666105E+03 -0.86032812731E+03  0.44061146436E+03  0.10197675122E+04  0.50400001928E-02 0.  1.
</event>
<event>
 5   0  0.4829134E-04  0.1843200E+04  0.7818609E-02  0.8683658E-01
       -2   -1    0    0    0  501  0.00000000000E+00  0.00000000000E+00  0.58664157722E+03  0.58664157722E+03  0.25500000920E-02 0.  1.
        2   -1    0    0  501    0  0.00000000000E+00  0.00000000000E+00 -0.14478112095E+04  0.14478112095E+04  0.25500000920E-02 0. -1.
    10030    2    1    2    0    0  0.00000000000E+00  0.00000000000E+00 -0.86116963225E+03  0.20344527867E+04  0.18431996652E+04 0.  0.
        2    1    3    3  502    0 -0.47182112914E+03  0.11087745188E+03  0.43461019433E+03  0.65099539803E+03  0.25500000920E-02 0.  1.
       -2    1    3    3    0  502  0.47182112914E+03 -0.11087745188E+03 -0.12957798266E+04  0.13834573887E+04  0.25500000920E-02 0. -1.
</event>
<event>
 5   0  0.2376359E-04  0.1972552E+04  0.7818609E-02  0.8619562E-01
        1   -1    0    0  501    0  0.00000000000E+00  0.00000000000E+00  0.14375046123E+04  0.14375046124E+04  0.50400001928E-02 0.  1.
       -1   -1    0    0    0  501  0.00000000000E+00  0.00000000000E+00 -0.67668697182E+03  0.67668697184E+03  0.50400001928E-02 0. -1.
    10030    2    1    2    0    0  0.00000000000E+00  0.00000000000E+00  0.76081764052E+03  0.21141915842E+04  0.19725522991E+04 0.  0.
        2    1    3    3  502    0 -0.38661080402E+03 -0.35781458608E+03  0.12740921189E+04  0.13786986325E+04  0.25500000920E-02 0.  1.
       -2    1    3    3    0  502  0.38661080402E+03  0.35781458608E+03 -0.51327447840E+03  0.73549295168E+03  0.25500000920E-02 0. -1.
</event>
<event>
 5   0  0.2355414E-04  0.1803773E+04  0.7818609E-02  0.8704296E-01
       -1   -1    0    0    0  501  0.00000000000E+00  0.00000000000E+00  0.65557153673E+03  0.65557153675E+03  0.50400001928E-02 0. -1.
        1   -1    0    0  501    0  0.00000000000E+00  0.00000000000E+00 -0.12407485291E+04  0.12407485291E+04  0.50400001928E-02 0.  1.
    10030    2    1    2    0    0  0.00000000000E+00  0.00000000000E+00 -0.58517699233E+03  0.18963200658E+04  0.18037731786E+04 0.  0.
        5    1    3    3  502    0  0.89627185672E+03  0.79404337182E+02 -0.22804609937E+03  0.92824318115E+03  0.46999998093E+01 0. -1.
       -5    1    3    3    0  502 -0.89627185672E+03 -0.79404337182E+02 -0.35713089296E+03  0.96807688466E+03  0.46999998093E+01 0.  1.
</event>
<event>
 5   0  0.4973411E-04  0.1953104E+04  0.7818609E-02  0.8628866E-01
        2   -1    0    0  501    0  0.00000000000E+00  0.00000000000E+00  0.86393318058E+03  0.86393318058E+03  0.25500000920E-02 0. -1.
       -2   -1    0    0    0  501  0.00000000000E+00  0.00000000000E+00 -0.11038508024E+04  0.11038508024E+04  0.25500000920E-02 0.  1.
    10030    2    1    2    0    0  0.00000000000E+00  0.00000000000E+00 -0.23991762177E+03  0.19677839829E+04  0.19531035145E+04 0.  0.
        1    1    3    3  502    0  0.87080352551E+03  0.12759542418E+03  0.30639326438E+03  0.93190997676E+03  0.50400001928E-02 0.  1.
       -1    1    3    3    0  502 -0.87080352551E+03 -0.12759542418E+03 -0.54631088615E+03  0.10358740062E+04  0.50400001928E-02 0. -1.
</event>
<event>
 5   0  0.4973411E-04  0.2010902E+04  0.7818609E-02  0.8601541E-01
        2   -1    0    0  501    0  0.00000000000E+00  0.00000000000E+00  0.10510806350E+04  0.10510806351E+04  0.25500000920E-02 0. -1.
       -2   -1    0    0    0  501  0.00000000000E+00  0.00000000000E+00 -0.96180198546E+03  0.96180198546E+03  0.25500000920E-02 0.  1.
    10030    2    1    2    0    0  0.00000000000E+00  0.00000000000E+00  0.89278649591E+02  0.20128826205E+04  0.20109017297E+04 0.  0.
        1    1    3    3  502    0  0.13081653174E+03  0.72488046609E+03  0.72968676452E+03  0.10368256505E+04  0.50400001928E-02 0. -1.
       -1    1    3    3    0  502 -0.13081653174E+03 -0.72488046609E+03 -0.64040811493E+03  0.97605697006E+03  0.50400001928E-02 0.  1.
</event>
<event>
 5   0  0.4829134E-04  0.1862675E+04  0.7818609E-02  0.8673662E-01
       -2   -1    0    0    0  501  0.00000000000E+00  0.00000000000E+00  0.92642126007E+03  0.92642126007E+03  0.25500000920E-02 0.  1.
        2   -1    0    0  501    0  0.00000000000E+00  0.00000000000E+00 -0.93628005433E+03  0.93628005433E+03  0.25500000920E-02 0. -1.
    10030    2    1    2    0    0  0.00000000000E+00  0.00000000000E+00 -0.98587942588E+01  0.18627013144E+04  0.18626752242E+04 0.  0.
        2    1    3    3  502    0 -0.72309996041E+03  0.55564314934E+03  0.18422103984E+03  0.93034953307E+03  0.25500000920E-02 0.  1.
       -2    1    3    3    0  502  0.72309996041E+03 -0.55564314934E+03 -0.19407983410E+03  0.93235178134E+03  0.25500000920E-02 0. -1.
</event>
<event>
 5   0  0.4839293E-04  0.1842318E+04  0.7818609E-02  0.8684114E-01
       -2   -1    0    0    0  501  0.00000000000E+00  0.00000000000E+00  0.64873971694E+03  0.64873971694E+03  0.25500000920E-02 0.  1.
        2   -1    0    0  501    0  0.00000000000E+00  0.00000000000E+00 -0.13079720959E+04  0.13079720959E+04  0.25500000920E-02 0. -1.
    10030    2    1    2    0    0  0.00000000000E+00  0.00000000000E+00 -0.65923237894E+03  0.19567118128E+04  0.18423175049E+04 0.  0.
        5    1    3    3  502    0 -0.13357500487E+03  0.83270331783E+03  0.63894870952E+02  0.84577877839E+03  0.46999998093E+01 0.  1.
       -5    1    3    3    0  502  0.13357500487E+03 -0.83270331783E+03 -0.72312724989E+03  0.11109330344E+04  0.46999998093E+01 0. -1.
</event>
<event>
 5   0  0.2510069E-04  0.2091638E+04  0.7818609E-02  0.8564936E-01
        1   -1    0    0  501    0  0.00000000000E+00  0.00000000000E+00  0.10586075621E+04  0.10586075621E+04  0.50400001928E-02 0.  1.
       -1   -1    0    0    0  501  0.00000000000E+00  0.00000000000E+00 -0.10331845430E+04  0.10331845430E+04  0.50400001928E-02 0. -1.
    10030    2    1    2    0    0  0.00000000000E+00  0.00000000000E+00  0.25423019154E+02  0.20917921051E+04  0.20916376075E+04 0.  0.
        4    1    3    3  502    0  0.10236760492E+04 -0.15905049732E+03  0.15598982395E+03  0.10476374146E+04  0.12699999809E+01 0.  1.
       -4    1    3    3    0  502 -0.10236760492E+04  0.15905049732E+03 -0.13056680480E+03  0.10441546905E+04  0.12699999809E+01 0. -1.
</event>
<event>
 5   0  0.4973411E-04  0.1900759E+04  0.7818609E-02  0.8654479E-01
        2   -1    0    0  501    0  0.00000000000E+00  0.00000000000E+00  0.50593150414E+03  0.50593150414E+03  0.25500000920E-02 0.  1.
       -2   -1    0    0    0  501  0.00000000000E+00  0.00000000000E+00 -0.17852631605E+04  0.17852631605E+04  0.25500000920E-02 0. -1.
    10030    2    1    2    0    0  0.00000000000E+00  0.00000000000E+00 -0.12793316564E+04  0.22911946647E+04  0.19007586655E+04 0.  0.
        1    1    3    3  502    0  0.56345990538E+03  0.73185461728E+03 -0.36979748869E+03  0.99491126663E+03  0.50400001928E-02 0.  1.
       -1    1    3    3    0  502 -0.56345990538E+03 -0.73185461728E+03 -0.90953416771E+03  0.12962833981E+04  0.50400001928E-02 0. -1.
</event>
<event>
 5   0  0.2261755E-04  0.1855048E+04  0.7818609E-02  0.8677561E-01
       -1   -1    0    0    0  501  0.00000000000E+00  0.00000000000E+00  0.11215674141E+04  0.11215674141E+04  0.50400001928E-02 0.  1.
        1   -1    0    0  501    0  0.00000000000E+00  0.00000000000E+00 -0.76705226863E+03  0.76705226865E+03  0.50400001928E-02 0. -1.
    10030    2    1    2    0    0  0.00000000000E+00  0.00000000000E+00  0.35451514547E+03  0.18886196828E+04  0.18550480635E+04 0.  0.
        1    1    3    3  502    0  0.15028510518E+03  0.15736535896E+03  0.10952130681E+04  0.11166204071E+04  0.50400001928E-02 0.  1.
       -1    1    3    3    0  502 -0.15028510518E+03 -0.15736535896E+03 -0.74069792261E+03  0.77199927566E+03  0.50400001928E-02 0. -1.
</event>
<event>
 5   0  0.2376359E-04  0.1866059E+04  0.7818609E-02  0.8671938E-01
       -1   -1    0    0    0  501  0.00000000000E+00  0.00000000000E+00  0.67840759023E+03  0.67840759025E+03  0.50400001928E-02 0. -1.
        1   -1    0    0  501    0  0.00000000000E+00  0.00000000000E+00 -0.12832170951E+04  0.12832170951E+04  0.50400001928E-02 0.  1.
    10030    2    1    2    0    0  0.00000000000E+00  0.00000000000E+00 -0.60480950489E+03  0.19616246854E+04  0.18660591816E+04 0.  0.
        2    1    3    3  502    0 -0.14486614228E+03 -0.75353029326E+03  0.25558028856E+03  0.80877400177E+03  0.25500000920E-02 0. -1.
       -2    1    3    3    0  502  0.14486614228E+03  0.75353029326E+03 -0.86038979345E+03  0.11528506836E+04  0.25500000920E-02 0.  1.
</event>
<event>
 5   0  0.2261755E-04  0.1885385E+04  0.7818609E-02  0.8662165E-01
       -1   -1    0    0    0  501  0.00000000000E+00  0.00000000000E+00  0.46749259926E+03  0.46749259929E+03  0.50400001928E-02 0. -1.
        1   -1    0    0  501    0  0.00000000000E+00  0.00000000000E+00 -0.19009272261E+04  0.19009272261E+04  0.50400001928E-02 0.  1.
    10030    2    1    2    0    0  0.00000000000E+00  0.00000000000E+00 -0.14334346268E+04  0.23684198254E+04  0.18853852762E+04 0.  0.
        1    1    3    3  502    0  0.75797982139E+03 -0.41634514864E+03 -0.11880729148E+04  0.14694876465E+04  0.50400001928E-02 0.  1.
       -1    1    3    3    0  502 -0.75797982139E+03  0.41634514864E+03 -0.24536171206E+03  0.89893217886E+03  0.50400001928E-02 0. -1.
</event>
<event>
 5   0  0.2355414E-04  0.1707949E+04  0.7818609E-02  0.8756843E-01
        1   -1    0    0  501    0  0.00000000000E+00  0.00000000000E+00  0.12286345064E+04  0.12286345064E+04  0.50400001928E-02 0. -1.
       -1   -1    0    0    0  501  0.00000000000E+00  0.00000000000E+00 -0.59356370739E+03  0.59356370741E+03  0.50400001928E-02 0.  1.
    10030    2    1    2    0    0  0.00000000000E+00  0.00000000000E+00  0.63507079905E+03  0.18221982139E+04  0.17079494755E+04 0.  0.
        5    1    3    3  502    0  0.67214611129E+03 -0.47039030218E+03  0.57046614655E+03  0.99925029180E+03  0.46999998093E+01 0.  1.
       -5    1    3    3    0  502 -0.67214611129E+03  0.47039030218E+03  0.64604652494E+02  0.82294792206E+03  0.46999998093E+01 0. -1.
</event>
<event>
 5   0  0.2376359E-04  0.1920546E+04  0.7818609E-02  0.8644696E-01
        1   -1    0    0  501    0  0.00000000000E+00  0.00000000000E+00  0.12679723451E+04  0.12679723451E+04  0.50400001928E-02 0.  1.
       -1   -1    0    0    0  501  0.00000000000E+00  0.00000000000E+00 -0.72724327599E+03  0.72724327600E+03  0.50400001928E-02 0. -1.
    10030    2    1    2    0    0  0.00000000000E+00  0.00000000000E+00  0.54072906911E+03  0.19952156211E+04  0.19205461329E+04 0.  0.
        2    1    3    3  502    0 -0.25335073581E+03  0.92462309573E+03  0.32736008542E+03  0.10130543372E+04  0.25500000920E-02 0.  1.
       -2    1    3    3    0  502  0.25335073581E+03 -0.92462309573E+03  0.21336898369E+03  0.98216128395E+03  0.25500000920E-02 0. -1.
</event>
<event>
 5   0  0.4973411E-04  0.1883548E+04  0.7818609E-02  0.8663089E-01
        2   -1    0    0  501    0  0.00000000000E+00  0.00000000000E+00  0.21736010294E+04  0.21736010294E+04  0.25500000920E-02 0. -1.
       -2   -1    0    0    0  501  0.00000000000E+00  0.00000000000E+00 -0.40805003945E+03  0.40805003946E+03  0.25500000920E-02 0.  1.
    10030    2    1    2    0    0  0.00000000000E+00  0.00000000000E+00  0.17655509900E+04  0.25816510689E+04  0.18835477014E+04 0.  0.
        1    1    3    3  502    0  0.48522581337E+03 -0.78677805182E+03  0.11297715996E+04  0.14597423266E+04  0.50400001928E-02 0.  1.
       -1    1    3    3    0  502 -0.48522581337E+03  0.78677805182E+03  0.63577939039E+03  0.11219087423E+04  0.50400001928E-02 0. -1.
</event>
<event>
 5   0  0.4802635E-04  0.1916497E+04  0.7818609E-02  0.8646688E-01
       -2   -1    0    0    0  501  0.00000000000E+00  0.00000000000E+00  0.78631646885E+03  0.78631646885E+03  0.25500000920E-02 0.  1.
        2   -1    0    0  501    0  0.00000000000E+00  0.00000000000E+00 -0.11677747276E+04  0.11677747276E+04  0.25500000920E-02 0. -1.
    10030    2    1    2    0    0  0.00000000000E+00  0.00000000000E+00 -0.38145825874E+03  0.19540911964E+04  0.19164973261E+04 0.  0.
        3    1    3    3  502    0 -0.51605963407E+03 -0.54729058574E+03 -0.79600320094E+03  0.10952011857E+04  0.10100000352E+00 0. -1.
       -3    1    3    3    0  502  0.51605963407E+03  0.54729058574E+03  0.41454494220E+03  0.85889001069E+03  0.10100000352E+00 0.  1.
</event>
<event>
 5   0  0.2261755E-04  0.1934144E+04  0.7818609E-02  0.8638045E-01
       -1   -1    0    0    0  501  0.00000000000E+00  0.00000000000E+00  0.33492050727E+03  0.33492050731E+03  0.50400001928E-02 0.  1.
        1   -1    0    0  501    0  0.00000000000E+00  0.00000000000E+00 -0.27923881945E+04  0.27923881946E+04  0.50400001928E-02 0. -1.
    10030    2    1    2    0    0  0.00000000000E+00  0.00000000000E+00 -0.24574676873E+04  0.31273087019E+04  0.19341438113E+04 0.  0.
        1    1    3    3  502    0 -0.41894047737E+03 -0.14279286646E+03  0.16153988642E+03  0.47116457976E+03  0.50400001928E-02 0.  1.
       -1    1    3    3    0  502  0.41894047737E+03  0.14279286646E+03 -0.26190075737E+04  0.26561441221E+04  0.50400001928E-02 0. -1.
</event>
<event>
 5   0  0.2376359E-04  0.1486156E+04  0.7818609E-02  0.8893711E-01
       -1   -1    0    0    0  501  0.00000000000E+00  0.00000000000E+00  0.67836815202E+03  0.67836815204E+03  0.50400001928E-02 0.  1.
        1   -1    0    0  501    0  0.00000000000E+00  0.00000000000E+00 -0.81396065314E+03  0.81396065316E+03  0.50400001928E-02 0. -1.
    10030    2    1    2    0    0  0.00000000000E+00  0.00000000000E+00 -0.13559250112E+03  0.14923288052E+04  0.14861560942E+04 0.  0.
        2    1    3    3  502    0  0.22963825784E+02  0.49172627914E+03  0.49115107031E+03  0.69537863410E+03  0.25500000920E-02 0.  1.
       -2    1    3    3    0  502 -0.22963825784E+02 -0.49172627914E+03 -0.62674357143E+03  0.79695017110E+03  0.25500000920E-02 0. -1.
</event>
<event>
 5   0  0.2261755E-04  0.1911088E+04  0.7818609E-02  0.8649357E-01
        1   -1    0    0  501    0  0.00000000000E+00  0.00000000000E+00  0.74935841748E+03  0.74935841750E+03  0.50400001928E-02 0. -1.
       -1   -1    0    0    0  501  0.00000000000E+00  0.00000000000E+00 -0.12184608309E+04  0.12184608309E+04  0.50400001928E-02 0.  1.
    10030    2    1    2    0    0  0.00000000000E+00  0.00000000000E+00 -0.46910241345E+03  0.19678192484E+04  0.19110875229E+04 0.  0.
        1    1    3    3  502    0  0.49708097747E+02 -0.68221918762E+03  0.45246590616E+03  0.82013371544E+03  0.50400001928E-02 0. -1.
       -1    1    3    3    0  502 -0.49708097747E+02  0.68221918762E+03 -0.92156831961E+03  0.11476855330E+04  0.50400001928E-02 0.  1.
</event>
<event>
 5   0  0.2510069E-04  0.1861315E+04  0.7818609E-02  0.8674356E-01
       -1   -1    0    0    0  501  0.00000000000E+00  0.00000000000E+00  0.32611455967E+03  0.32611455971E+03  0.50400001928E-02 0.  1.
        1   -1    0    0  501    0  0.00000000000E+00  0.00000000000E+00 -0.26558855769E+04  0.26558855769E+04  0.50400001928E-02 0. -1.
    10030    2    1    2    0    0  0.00000000000E+00  0.00000000000E+00 -0.23297710173E+04  0.29820001367E+04  0.18613145414E+04 0.  0.
        4    1    3    3  502    0  0.59014222639E+03 -0.17231975554E+03 -0.22842427566E+04  0.23655292282E+04  0.12699999809E+01 0. -1.
       -4    1    3    3    0  502 -0.59014222639E+03  0.17231975554E+03 -0.45528260650E+02  0.61647090843E+03  0.12699999809E+01 0.  1.
</event>
<event>
 5   0  0.2317458E-04  0.1934490E+04  0.7818609E-02  0.8637877E-01
       -1   -1    0    0    0  501  0.00000000000E+00  0.00000000000E+00  0.39206710052E+03  0.39206710055E+03  0.50400001928E-02 0.  1.
        1   -1    0    0  501    0  0.00000000000E+00  0.00000000000E+00 -0.23862305600E+04  0.23862305600E+04  0.50400001928E-02 0. -1.
    10030    2    1    2    0    0  0.00000000000E+00  0.00000000000E+00 -0.19941634595E+04  0.27782976606E+04  0.19344895935E+04 0.  0.
        3    1    3    3  502    0 -0.77293256878E+02 -0.19626650123E+03 -0.23527946220E+04  0.23622314303E+04  0.10100000352E+00 0. -1.
       -3    1    3    3    0  502  0.77293256878E+02  0.19626650123E+03  0.35863116246E+03  0.41606623025E+03  0.10100000352E+00 0.  1.
</event>
<event>
 5   0  0.4973411E-04  0.2567450E+04  0.7818609E-02  0.8379343E-01
       -2   -1    0    0    0  501  0.00000000000E+00  0.00000000000E+00  0.73748979533E+03  0.73748979533E+03  0.25500000920E-02 0.  1.
        2   -1    0    0  501    0  0.00000000000E+00  0.00000000000E+00 -0.22345385595E+04  0.22345385595E+04  0.25500000920E-02 0. -1.
    10030    2    1    2    0    0  0.00000000000E+00  0.00000000000E+00 -0.14970487641E+04  0.29720283548E+04  0.25674496177E+04 0.  0.
        1    1    3    3  502    0  0.10633521549E+04 -0.17997402345E+03 -0.15545533617E+04  0.18920213024E+04  0.50400001928E-02 0. -1.
       -1    1    3    3    0  502 -0.10633521549E+04  0.17997402345E+03  0.57504597573E+02  0.10800070524E+04  0.50400001928E-02 0.  1.
</event>
<event>
 5   0  0.2355414E-04  0.1706991E+04  0.7818609E-02  0.8757387E-01
       -1   -1    0    0    0  501  0.00000000000E+00  0.00000000000E+00  0.82751262906E+03  0.82751262908E+03  0.50400001928E-02 0.  1.
        1   -1    0    0  501    0  0.00000000000E+00  0.00000000000E+00 -0.88029464782E+03  0.88029464783E+03  0.50400001928E-02 0. -1.
    10030    2    1    2    0    0  0.00000000000E+00  0.00000000000E+00 -0.52782018752E+02  0.17078072769E+04  0.17069914334E+04 0.  0.
        5    1    3    3  502    0 -0.49170865451E+03  0.22812924833E+03  0.63317553941E+03  0.83351887115E+03  0.46999998093E+01 0.  1.
       -5    1    3    3    0  502  0.49170865451E+03 -0.22812924833E+03 -0.68595755816E+03  0.87428840576E+03  0.46999998093E+01 0. -1.
</event>
<event>
 5   0  0.4829134E-04  0.1896240E+04  0.7818609E-02  0.8656730E-01
        2   -1    0    0  501    0  0.00000000000E+00  0.00000000000E+00  0.10200408960E+04  0.10200408960E+04  0.25500000920E-02 0. -1.
       -2   -1    0    0    0  501  0.00000000000E+00  0.00000000000E+00 -0.88127022781E+03  0.88127022781E+03  0.25500000920E-02 0.  1.
    10030    2    1    2    0    0  0.00000000000E+00  0.00000000000E+00  0.13877066823E+03  0.19013111239E+04  0.18962401460E+04 0.  0.
        2    1    3    3  502    0 -0.32858368821E+03  0.63004492388E+02  0.95888502590E+03  0.10155773231E+04  0.25500000920E-02 0. -1.
       -2    1    3    3    0  502  0.32858368821E+03 -0.63004492388E+02 -0.82011435767E+03  0.88573380080E+03  0.25500000920E-02 0.  1.
</event>
<event>
 5   0  0.2510069E-04  0.1237166E+04  0.7818609E-02  0.9080933E-01
       -1   -1    0    0    0  501  0.00000000000E+00  0.00000000000E+00  0.27323432218E+03  0.27323432222E+03  0.50400001928E-02 0. -1.
        1   -1    0    0  501    0  0.00000000000E+00  0.00000000000E+00 -0.14004269722E+04  0.14004269723E+04  0.50400001928E-02 0.  1.
    10030    2    1    2    0    0  0.00000000000E+00  0.00000000000E+00 -0.11271926501E+04  0.16736612945E+04  0.12371656551E+04 0.  0.
        4    1    3    3  502    0  0.54773182869E+03  0.27965787972E+03 -0.47361182965E+03  0.77622706983E+03  0.12699999809E+01 0. -1.
       -4    1    3    3    0  502 -0.54773182869E+03 -0.27965787972E+03 -0.65358082041E+03  0.89743422464E+03  0.12699999809E+01 0.  1.
</event>
<event>
 5   0  0.4802635E-04  0.1879678E+04  0.7818609E-02  0.8665038E-01
       -2   -1    0    0    0  501  0.00000000000E+00  0.00000000000E+00  0.79193890320E+03  0.79193890320E+03  0.25500000920E-02 0.  1.
        2   -1    0    0  501    0  0.00000000000E+00  0.00000000000E+00 -0.11153606859E+04  0.11153606860E+04  0.25500000920E-02 0. -1.
    10030    2    1    2    0    0  0.00000000000E+00  0.00000000000E+00 -0.32342178275E+03  0.19072995892E+04  0.18796781834E+04 0.  0.
        3    1    3    3  502    0  0.70865262369E+03 -0.11729400405E+03 -0.77671225269E+03  0.10579358951E+04  0.10100000352E+00 0. -1.
       -3    1    3    3    0  502 -0.70865262369E+03  0.11729400405E+03  0.45329046994E+03  0.84936369406E+03  0.10100000352E+00 0.  1.
</event>
<event>
 5   0  0.2261755E-04  0.1895129E+04  0.7818609E-02  0.8657285E-01
       -1   -1    0    0    0  501  0.00000000000E+00  0.00000000000E+00  0.43302331261E+03  0.43302331264E+03  0.50400001928E-02 0.  1.
        1   -1    0    0  501    0  0.00000000000E+00  0.00000000000E+00 -0.20735109031E+04  0.20735109031E+04  0.50400001928E-02 0. -1.
    10030    2    1    2    0    0  0.00000000000E+00  0.00000000000E+00 -0.16404875905E+04  0.25065342157E+04  0.18951290827E+04 0.  0.
        1    1    3    3  502    0 -0.11658913937E+03  0.50418050130E+03 -0.18701132293E+04  0.19403902947E+04  0.50400001928E-02 0. -1.
       -1    1    3    3    0  502  0.11658913937E+03 -0.50418050130E+03  0.22962563881E+03  0.56614392105E+03  0.50400001928E-02 0.  1.
</event>
<event>
 5   0  0.4802635E-04  0.1910520E+04  0.7818609E-02  0.8649638E-01
       -2   -1    0    0    0  501  0.00000000000E+00  0.00000000000E+00  0.93743307640E+03  0.93743307641E+03  0.25500000920E-02 0.  1.
        2   -1    0    0  501    0  0.00000000000E+00  0.00000000000E+00 -0.97342580261E+03  0.97342580261E+03  0.25500000920E-02 0. -1.
    10030    2    1    2    0    0  0.00000000000E+00  0.00000000000E+00 -0.35992726205E+02  0.19108588790E+04  0.19105198714E+04 0.  0.
        3    1    3    3  502    0 -0.70233493922E+03 -0.57731898150E+03  0.27522789651E+03  0.94990629983E+03  0.10100000352E+00 0. -1.
       -3    1    3    3    0  502  0.70233493922E+03  0.57731898150E+03 -0.31122062271E+03  0.96095257919E+03  0.10100000352E+00 0.  1.
</event>
<event>
 5   0  0.2317458E-04  0.1897423E+04  0.7818609E-02  0.8656140E-01
       -1   -1    0    0    0  501  0.00000000000E+00  0.00000000000E+00  0.93032780854E+03  0.93032780856E+03  0.50400001928E-02 0.  1.
        1   -1    0    0  501    0  0.00000000000E+00  0.00000000000E+00 -0.96745865801E+03  0.96745865802E+03  0.50400001928E-02 0. -1.
    10030    2    1    2    0    0  0.00000000000E+00  0.00000000000E+00 -0.37130849470E+02  0.18977864666E+04  0.18974231928E+04 0.  0.
        3    1    3    3  502    0  0.47762618805E+00  0.30826078749E+03  0.87884029567E+03  0.93133517958E+03  0.10100000352E+00 0.  1.
       -3    1    3    3    0  502 -0.47762618805E+00 -0.30826078749E+03 -0.91597114514E+03  0.96645128700E+03  0.10100000352E+00 0. -1.
</event>
<event>
 5   0  0.2355414E-04  0.1880157E+04  0.7818609E-02  0.8664797E-01
       -1   -1    0    0    0  501  0.00000000000E+00  0.00000000000E+00  0.60524288784E+03  0.60524288786E+03  0.50400001928E-02 0. -1.
        1   -1    0    0  501    0  0.00000000000E+00  0.00000000000E+00 -0.14601541037E+04  0.14601541037E+04  0.50400001928E-02 0.  1.
    10030    2    1    2    0    0  0.00000000000E+00  0.00000000000E+00 -0.85491121586E+03  0.20653969916E+04  0.18801573194E+04 0.  0.
        5    1    3    3  502    0 -0.30682619997E+03 -0.54604667294E+03  0.34262151571E+03  0.71394739235E+03  0.46999998093E+01 0. -1.
       -5    1    3    3    0  502  0.30682619997E+03  0.54604667294E+03 -0.11975327316E+04  0.13514495992E+04  0.46999998093E+01 0.  1.
</event>
<event>
 5   0  0.2317458E-04  0.1895516E+04  0.7818609E-02  0.8657092E-01
        1   -1    0    0  501    0  0.00000000000E+00  0.00000000000E+00  0.16618743710E+04  0.16618743710E+04  0.50400001928E-02 0.  1.
       -1   -1    0    0    0  501  0.00000000000E+00  0.00000000000E+00 -0.54050127957E+03  0.54050127959E+03  0.50400001928E-02 0. -1.
    10030    2    1    2    0    0  0.00000000000E+00  0.00000000000E+00  0.11213730915E+04  0.22023756506E+04  0.18955159974E+04 0.  0.
        3    1    3    3  502    0  0.51548871591E+03  0.36117961406E+03  0.13839603534E+04  0.15203702180E+04  0.10100000352E+00 0.  1.
       -3    1    3    3    0  502 -0.51548871591E+03 -0.36117961406E+03 -0.26258726190E+03  0.68200543265E+03  0.10100000352E+00 0. -1.
</event>
<event>
 5   0  0.4839293E-04  0.1932975E+04  0.7818609E-02  0.8638614E-01
       -2   -1    0    0    0  501  0.00000000000E+00  0.00000000000E+00  0.54929769003E+03  0.54929769004E+03  0.25500000920E-02 0. -1.
        2   -1    0    0  501    0  0.00000000000E+00  0.00000000000E+00 -0.17005317093E+04  0.17005317093E+04  0.25500000920E-02 0.  1.
    10030    2    1    2    0    0  0.00000000000E+00  0.00000000000E+00 -0.11512340192E+04  0.22498293993E+04  0.19329750539E+04 0.  0.
        5    1    3    3  502    0 -0.32505270907E+03  0.29478412825E+02  0.48319750212E+03  0.58312104794E+03  0.46999998093E+01 0. -1.
       -5    1    3    3    0  502  0.32505270907E+03 -0.29478412825E+02 -0.16344315214E+04  0.16667083514E+04  0.46999998093E+01 0.  1.
</event>
<event>
 5   0  0.4973411E-04  0.9840914E+03  0.7818609E-02  0.9326167E-01
        2   -1    0    0  501    0  0.00000000000E+00  0.00000000000E+00  0.36309846737E+03  0.36309846738E+03  0.25500000920E-02 0.  1.
       -2   -1    0    0    0  501  0.00000000000E+00  0.00000000000E+00 -0.66678600561E+03  0.66678600561E+03  0.25500000920E-02 0. -1.
    10030    2    1    2    0    0  0.00000000000E+00  0.00000000000E+00 -0.30368753824E+03  0.10298844730E+04  0.98409141182E+03 0.  0.
        1    1    3    3  502    0  0.43570894017E+03  0.22424421844E+03 -0.19842598546E+03  0.52867818356E+03  0.50400001928E-02 0. -1.
       -1    1    3    3    0  502 -0.43570894017E+03 -0.22424421844E+03 -0.10526155278E+03  0.50120628943E+03  0.50400001928E-02 0.  1.
</event>
<event>
 5   0  0.4973411E-04  0.1806411E+04  0.7818609E-02  0.8702897E-01
       -2   -1    0    0    0  501  0.00000000000E+00  0.00000000000E+00  0.76156283326E+03  0.76156283327E+03  0.25500000920E-02 0. -1.
        2   -1    0    0  501    0  0.00000000000E+00  0.00000000000E+00 -0.10711925797E+04  0.10711925797E+04  0.25500000920E-02 0.  1.
    10030    2    1    2    0    0  0.00000000000E+00  0.00000000000E+00 -0.30962974639E+03  0.18327554129E+04  0.18064113108E+04 0.  0.
        1    1    3    3  502    0  0.47424986410E+03  0.49663265914E+03  0.44044710084E+03  0.81581283416E+03  0.50400001928E-02 0. -1.
       -1    1    3    3    0  502 -0.47424986410E+03 -0.49663265914E+03 -0.75007684723E+03  0.10169425788E+04  0.50400001928E-02 0.  1.
</event>
<event>
 5   0  0.2376359E-04  0.1835461E+04  0.7818609E-02  0.8687666E-01
       -1   -1    0    0    0  501  0.00000000000E+00  0.00000000000E+00  0.92616870879E+03  0.92616870880E+03  0.50400001928E-02 0. -1.
        1   -1    0    0  501    0  0.00000000000E+00  0.00000000000E+00 -0.90936874139E+03  0.90936874140E+03  0.50400001928E-02 0.  1.
    10030    2    1    2    0    0  0.00000000000E+00  0.00000000000E+00  0.16799967401E+02  0.18355374502E+04  0.18354605668E+04 0.  0.
        2    1    3    3  502    0  0.37803519232E+02 -0.48257619555E+03 -0.77132491164E+03  0.91063220342E+03  0.25500000920E-02 0.  1.
       -2    1    3    3    0  502 -0.37803519232E+02  0.48257619555E+03  0.78812487904E+03  0.92490524679E+03  0.25500000920E-02 0. -1.
</event>
<event>
 5   0  0.1729375E-04  0.1951285E+04  0.7818609E-02  0.8629741E-01
       -4   -1    0    0    0  501  0.00000000000E+00  0.00000000000E+00  0.12033777126E+04  0.12033783827E+04  0.12699999809E+01 0.  1.
        4   -1    0    0  501    0  0.00000000000E+00  0.00000000000E+00 -0.79100384357E+03  0.79100486310E+03  0.12699999809E+01 0. -1.
    10030    2    1    2    0    0  0.00000000000E+00  0.00000000000E+00  0.41237386899E+03  0.19943832458E+04  0.19512847879E+04 0.  0.
        5    1    3    3  502    0  0.25744008760E+03 -0.46767636790E+03 -0.62846441380E+03  0.82461275348E+03  0.46999998093E+01 0. -1.
       -5    1    3    3    0  502 -0.25744008760E+03  0.46767636790E+03  0.10408382828E+04  0.11697704923E+04  0.46999998093E+01 0.  1.
</event>
<event>
 5   0  0.4829134E-04  0.1926516E+04  0.7818609E-02  0.8641769E-01
        2   -1    0    0  501    0  0.00000000000E+00  0.00000000000E+00  0.74846542974E+03  0.74846542974E+03  0.25500000920E-02 0. -1.
       -2   -1    0    0    0  501  0.00000000000E+00  0.00000000000E+00 -0.12396914431E+04  0.12396914431E+04  0.25500000920E-02 0.  1.
    10030    2    1    2    0    0  0.00000000000E+00  0.00000000000E+00 -0.49122601334E+03  0.19881568728E+04  0.19265162223E+04 0.  0.
        2    1    3    3  502    0 -0.95168113411E+03 -0.13418663527E+03 -0.17902603752E+03  0.97762638887E+03  0.25500000920E-02 0. -1.
       -2    1    3    3    0  502  0.95168113411E+03  0.13418663527E+03 -0.31219997582E+03  0.10105304840E+04  0.25500000920E-02 0.  1.
</event>
<event>
 5   0  0.2355414E-04  0.1812054E+04  0.7818609E-02  0.8699915E-01
        1   -1    0    0  501    0  0.00000000000E+00  0.00000000000E+00  0.12945158623E+04  0.12945158623E+04  0.50400001928E-02 0.  1.
       -1   -1    0    0    0  501  0.00000000000E+00  0.00000000000E+00 -0.63412532074E+03  0.63412532076E+03  0.50400001928E-02 0. -1.
    10030    2    1    2    0    0  0.00000000000E+00  0.00000000000E+00  0.66039054152E+03  0.19286411830E+04  0.18120543992E+04 0.  0.
        5    1    3    3  502    0 -0.47599997845E+03  0.71504430642E+02  0.11471577561E+04  0.12440586283E+04  0.46999998093E+01 0.  1.
       -5    1    3    3    0  502  0.47599997845E+03 -0.71504430642E+02 -0.48676721461E+03  0.68458255478E+03  0.46999998093E+01 0. -1.
</event>
<event>
 5   0  0.2510069E-04  0.1915884E+04  0.7818609E-02  0.8646990E-01
        1   -1    0    0  501    0  0.00000000000E+00  0.00000000000E+00  0.14625577921E+04  0.14625577921E+04  0.50400001928E-02 0. -1.
       -1   -1    0    0    0  501  0.00000000000E+00  0.00000000000E+00 -0.62743021816E+03  0.62743021818E+03  0.50400001928E-02 0.  1.
    10030    2    1    2    0    0  0.00000000000E+00  0.00000000000E+00  0.83512757397E+03  0.20899880103E+04  0.19158840827E+04 0.  0.
        4    1    3    3  502    0 -0.63229578454E+03  0.54097582388E+03 -0.10011140258E+03  0.83813883516E+03  0.12699999809E+01 0.  1.
       -4    1    3    3    0  502  0.63229578454E+03 -0.54097582388E+03  0.93523897656E+03  0.12518491752E+04  0.12699999809E+01 0. -1.
</event>
<event>
 5   0  0.2317458E-04  0.1912020E+04  0.7818609E-02  0.8648896E-01
        1   -1    0    0  501    0  0.00000000000E+00  0.00000000000E+00  0.13728198699E+04  0.13728198699E+04  0.50400001928E-02 0. -1.
       -1   -1    0    0    0  501  0.00000000000E+00  0.00000000000E+00 -0.66575047108E+03  0.66575047110E+03  0.50400001928E-02 0.  1.
    10030    2    1    2    0    0  0.00000000000E+00  0.00000000000E+00  0.70706939885E+03  0.20385703410E+04  0.19120203714E+04 0.  0.
        3    1    3    3  502    0  0.24730617794E+03  0.37487402296E+03 -0.54628161328E+03  0.70718773316E+03  0.10100000352E+00 0.  1.
       -3    1    3    3    0  502 -0.24730617794E+03 -0.37487402296E+03  0.12533510121E+04  0.13313826079E+04  0.10100000352E+00 0. -1.
</event>
<event>
 5   0  0.2355414E-04  0.1862864E+04  0.7818609E-02  0.8673566E-01
       -1   -1    0    0    0  501  0.00000000000E+00  0.00000000000E+00  0.77451469333E+03  0.77451469334E+03  0.50400001928E-02 0.  1.
        1   -1    0    0  501    0  0.00000000000E+00  0.00000000000E+00 -0.11201404909E+04  0.11201404909E+04  0.50400001928E-02 0. -1.
    10030    2    1    2    0    0  0.00000000000E+00  0.00000000000E+00 -0.34562579758E+03  0.18946551843E+04  0.18628636760E+04 0.  0.
        5    1    3    3  502    0 -0.65782619178E+02 -0.73254492433E+03 -0.75404962667E+03  0.10533576547E+04  0.46999998093E+01 0. -1.
       -5    1    3    3    0  502  0.65782619178E+02  0.73254492433E+03  0.40842382909E+03  0.84129752960E+03  0.46999998093E+01 0.  1.
</event>
<event>
 5   0  0.4829134E-04  0.1879846E+04  0.7818609E-02  0.8664954E-01
       -2   -1    0    0    0  501  0.00000000000E+00  0.00000000000E+00  0.15689175921E+04  0.15689175921E+04  0.25500000920E-02 0. -1.
        2   -1    0    0  501    0  0.00000000000E+00  0.00000000000E+00 -0.56309834566E+03  0.56309834567E+03  0.25500000920E-02 0.  1.
    10030    2    1    2    0    0  0.00000000000E+00  0.00000000000E+00  0.10058192465E+04  0.21320159378E+04  0.18798456326E+04 0.  0.
        2    1    3    3  502    0  0.35391517001E+03  0.77450147785E+03  0.95421694074E+03  0.12789208172E+04  0.25500000920E-02 0. -1.
       -2    1    3    3    0  502 -0.35391517001E+03 -0.77450147785E+03  0.51602305729E+02  0.85309512056E+03  0.25500000920E-02 0.  1.
</event>
<event>
 5   0  0.4829134E-04  0.1924402E+04  0.7818609E-02  0.8642804E-01
        2   -1    0    0  501    0  0.00000000000E+00  0.00000000000E+00  0.14173621118E+04  0.14173621118E+04  0.25500000920E-02 0.  1.
       -2   -1    0    0    0  501  0.00000000000E+00  0.00000000000E+00 -0.65320711944E+03  0.65320711945E+03  0.25500000920E-02 0. -1.
    10030    2    1    2    0    0  0.00000000000E+00  0.00000000000E+00  0.76415499240E+03  0.20705692313E+04  0.19244022680E+04 0.  0.
        2    1    3    3  502    0 -0.88411198121E+03  0.47682800651E+02 -0.23235250596E+02  0.88570171145E+03  0.25500000920E-02 0.  1.
       -2    1    3    3    0  502  0.88411198121E+03 -0.47682800651E+02  0.78739024300E+03  0.11848675198E+04  0.25500000920E-02 0. -1.
</event>
<event>
 5   0  0.2510069E-04  0.1894605E+04  0.7818609E-02  0.8657546E-01
        1   -1    0    0  501    0  0.00000000000E+00  0.00000000000E+00  0.69675916897E+03  0.69675916899E+03  0.50400001928E-02 0.  1.
       -1   -1    0    0    0  501  0.00000000000E+00  0.00000000000E+00 -0.12879375883E+04  0.12879375883E+04  0.50400001928E-02 0. -1.
    10030    2    1    2    0    0  0.00000000000E+00  0.00000000000E+00 -0.59117841929E+03  0.19846967573E+04  0.18946053137E+04 0.  0.
        4    1    3    3  502    0 -0.62308256437E+02 -0.54690299863E+03 -0.11032205551E+04  0.12329162238E+04  0.12699999809E+01 0. -1.
       -4    1    3    3    0  502  0.62308256437E+02  0.54690299863E+03  0.51204213584E+03  0.75178053347E+03  0.12699999809E+01 0.  1.
</event>
<event>
 5   0  0.2261755E-04  0.1879319E+04  0.7818609E-02  0.8665220E-01
        1   -1    0    0  501    0  0.00000000000E+00  0.00000000000E+00  0.11804956775E+04  0.11804956775E+04  0.50400001928E-02 0.  1.
       -1   -1    0    0    0  501  0.00000000000E+00  0.00000000000E+00 -0.74795684590E+03  0.74795684591E+03  0.50400001928E-02 0. -1.
    10030    2    1    2    0    0  0.00000000000E+00  0.00000000000E+00  0.43253883164E+03  0.19284525235E+04  0.18793188379E+04 0.  0.
        1    1    3    3  502    0  0.93042182418E+03  0.12180473344E+03  0.26694328584E+03  0.97559206735E+03  0.50400001928E-02 0. -1.
       -1    1    3    3    0  502 -0.93042182418E+03 -0.12180473344E+03  0.16559554580E+03  0.95286045611E+03  0.50400001928E-02 0.  1.
</event>
<event>
 5   0  0.2261755E-04  0.1919940E+04  0.7818609E-02  0.8644994E-01
        1   -1    0    0  501    0  0.00000000000E+00  0.00000000000E+00  0.14411866073E+04  0.14411866073E+04  0.50400001928E-02 0. -1.
       -1   -1    0    0    0  501  0.00000000000E+00  0.00000000000E+00 -0.63943301971E+03  0.63943301973E+03  0.50400001928E-02 0.  1.
    10030    2    1    2    0    0  0.00000000000E+00  0.00000000000E+00  0.80175358761E+03  0.20806196271E+04  0.19199398994E+04 0.  0.
        1    1    3    3  502    0 -0.80495760747E+03  0.52224572026E+03  0.43237774564E+03  0.10524485057E+04  0.50400001928E-02 0. -1.
       -1    1    3    3    0  502  0.80495760747E+03 -0.52224572026E+03  0.36937584198E+03  0.10281711214E+04  0.50400001928E-02 0.  1.
</event>
<event>
 5   0  0.2355414E-04  0.1902387E+04  0.7818609E-02  0.8653669E-01
        1   -1    0    0  501    0  0.00000000000E+00  0.00000000000E+00  0.82843749394E+03  0.82843749396E+03  0.50400001928E-02 0. -1.
       -1   -1    0    0    0  501  0.00000000000E+00  0.00000000000E+00 -0.10921388382E+04  0.10921388382E+04  0.50400001928E-02 0.  1.
    10030    2    1    2    0    0  0.00000000000E+00  0.00000000000E+00 -0.26370134424E+03  0.19205763322E+04  0.19023866717E+04 0.  0.
        5    1    3    3  502    0  0.24175809268E+03 -0.71413198913E+03  0.45362118689E+03  0.87990098560E+03  0.46999998093E+01 0. -1.
       -5    1    3    3    0  502 -0.24175809268E+03  0.71413198913E+03 -0.71732253113E+03  0.10406753466E+04  0.46999998093E+01 0.  1.
</event>
<event>
 5   0  0.4973411E-04  0.1750303E+04  0.7818609E-02  0.8733183E-01
        2   -1    0    0  501    0  0.00000000000E+00  0.00000000000E+00  0.74112675643E+03  0.74112675643E+03  0.25500000920E-02 0.  1.
       -2   -1    0    0    0  501  0.00000000000E+00  0.00000000000E+00 -0.10334136924E+04  0.10334136924E+04  0.25500000920E-02 0. -1.
    10030    2    1    2    0    0  0.00000000000E+00  0.00000000000E+00 -0.29228693593E+03  0.17745404488E+04  0.17503034455E+04 0.  0.
        1    1    3    3  502    0  0.30869135444E+03 -0.61764708970E+03  0.39899371836E+03  0.79747994773E+03  0.50400001928E-02 0.  1.
       -1    1    3    3    0  502 -0.30869135444E+03  0.61764708970E+03 -0.69128065428E+03  0.97706050106E+03  0.50400001928E-02 0. -1.
</event>
<event>
 5   0  0.4802635E-04  0.2075171E+04  0.7818609E-02  0.8572260E-01
        2   -1    0    0  501    0  0.00000000000E+00  0.00000000000E+00  0.10808485867E+04  0.10808485867E+04  0.25500000920E-02 0. -1.
       -2   -1    0    0    0  501  0.00000000000E+00  0.00000000000E+00 -0.99605391306E+03  0.99605391307E+03  0.25500000920E-02 0.  1.
    10030    2    1    2    0    0  0.00000000000E+00  0.00000000000E+00  0.84794673635E+02  0.20769024998E+04  0.20751708019E+04 0.  0.
        3    1    3    3  502    0 -0.18439233622E+03 -0.24503342920E+03 -0.94966216470E+03  0.99794797076E+03  0.10100000352E+00 0.  1.
       -3    1    3    3    0  502  0.18439233622E+03  0.24503342920E+03  0.10344568383E+04  0.10789545290E+04  0.10100000352E+00 0. -1.
</event>
<event>
 5   0  0.4973411E-04  0.1904372E+04  0.7818609E-02  0.8652683E-01
       -2   -1    0    0    0  501  0.00000000000E+00  0.00000000000E+00  0.10956423311E+04  0.10956423311E+04  0.25500000920E-02 0. -1.
        2   -1    0    0  501    0  0.00000000000E+00  0.00000000000E+00 -0.82751263647E+03  0.82751263647E+03  0.25500000920E-02 0.  1.
    10030    2    1    2    0    0  0.00000000000E+00  0.00000000000E+00  0.26812969463E+03  0.19231549676E+04  0.19043716801E+04 0.  0.
        1    1    3    3  502    0  0.28624413778E+03 -0.90100059030E+03  0.19277090407E+02  0.94557357005E+03  0.50400001928E-02 0.  1.
       -1    1    3    3    0  502 -0.28624413778E+03  0.90100059030E+03  0.24885260422E+03  0.97758139752E+03  0.50400001928E-02 0. -1.
</event>
<event>
 5   0  0.4802635E-04  0.1910719E+04  0.7818609E-02  0.8649539E-01
        2   -1    0    0  501    0  0.00000000000E+00  0.00000000000E+00  0.13753256444E+04  0.13753256444E+04  0.25500000920E-02 0.  1.
       -2   -1    0    0    0  501  0.00000000000E+00  0.00000000000E+00 -0.66363310315E+03  0.66363310315E+03  0.25500000920E-02 0. -1.
    10030    2    1    2    0    0  0.00000000000E+00  0.00000000000E+00  0.71169254128E+03  0.20389587476E+04  0.19107188440E+04 0.  0.
        3    1    3    3  502    0  0.32250663671E+03  0.40159169000E+03 -0.50278450724E+03  0.71977683147E+03  0.10100000352E+00 0. -1.
       -3    1    3    3    0  502 -0.32250663671E+03 -0.40159169000E+03  0.12144770485E+04  0.13191819161E+04  0.10100000352E+00 0.  1.
</event>
<event>
 5   0  0.4839293E-04  0.1925124E+04  0.7818609E-02  0.8642451E-01
        2   -1    0    0  501    0  0.00000000000E+00  0.00000000000E+00  0.64638414789E+03  0.64638414790E+03  0.25500000920E-02 0.  1.
       -2   -1    0    0    0  501  0.00000000000E+00  0.00000000000E+00 -0.14333979789E+04  0.14333979789E+04  0.25500000920E-02 0. -1.
    10030    2    1    2    0    0  0.00000000000E+00  0.00000000000E+00 -0.78701383103E+03  0.20797821268E+04  0.19251241323E+04 0.  0.
        5    1    3    3  502    0 -0.28501376762E+03 -0.91913443174E+03 -0.37026862931E+03  0.10310974247E+04  0.46999998093E+01 0. -1.
       -5    1    3    3    0  502  0.28501376762E+03  0.91913443174E+03 -0.41674520172E+03  0.10486847021E+04  0.46999998093E+01 0.  1.
</event>
<event>
 5   0  0.1729375E-04  0.1925534E+04  0.7818609E-02  0.8642250E-01
       -4   -1    0    0    0  501  0.00000000000E+00  0.00000000000E+00  0.10930715601E+04  0.10930722979E+04  0.12699999809E+01 0. -1.
        4   -1    0    0  501    0  0.00000000000E+00  0.00000000000E+00 -0.84799488414E+03  0.84799583515E+03  0.12699999809E+01 0.  1.
    10030    2    1    2    0    0  0.00000000000E+00  0.00000000000E+00  0.24507667598E+03  0.19410681331E+04  0.19255344505E+04 0.  0.
        5    1    3    3  502    0  0.90467478079E+03  0.25989451297E+03  0.32644973568E+03  0.99627964788E+03  0.46999998093E+01 0. -1.
       -5    1    3    3    0  502 -0.90467478079E+03 -0.25989451297E+03 -0.81373059695E+02  0.94478848517E+03  0.46999998093E+01 0.  1.
</event>
<event>
 5   0  0.2317458E-04  0.1146696E+04  0.7818609E-02  0.9160837E-01
       -1   -1    0    0    0  501  0.00000000000E+00  0.00000000000E+00  0.57538923356E+03  0.57538923358E+03  0.50400001928E-02 0. -1.
        1   -1    0    0  501    0  0.00000000000E+00  0.00000000000E+00 -0.57131445070E+03  0.57131445072E+03  0.50400001928E-02 0.  1.
    10030    2    1    2    0    0  0.00000000000E+00  0.00000000000E+00  0.40747828539E+01  0.11467036843E+04  0.11466964445E+04 0.  0.
        3    1    3    3  502    0 -0.22451614109E+03  0.46494751574E+03  0.25132691878E+03  0.57423768625E+03  0.10100000352E+00 0. -1.
       -3    1    3    3    0  502  0.22451614109E+03 -0.46494751574E+03 -0.24725213593E+03  0.57246599805E+03  0.10100000352E+00 0.  1.
</event>
<event>
 5   0  0.4973411E-04  0.1698164E+04  0.7818609E-02  0.8762412E-01
        2   -1    0    0  501    0  0.00000000000E+00  0.00000000000E+00  0.16111204345E+04  0.16111204345E+04  0.25500000920E-02 0.  1.
       -2   -1    0    0    0  501  0.00000000000E+00  0.00000000000E+00 -0.44747773778E+03  0.44747773779E+03  0.25500000920E-02 0. -1.
    10030    2    1    2    0    0  0.00000000000E+00  0.00000000000E+00  0.11636426968E+04  0.20585981723E+04  0.16981643352E+04 0.  0.
        1    1    3    3  502    0 -0.39681598245E+03 -0.54659101873E+03  0.12055301168E+04  0.13818565513E+04  0.50400001928E-02 0.  1.
       -1    1    3    3    0  502  0.39681598245E+03  0.54659101873E+03 -0.41887420069E+02  0.67674162106E+03  0.50400001928E-02 0. -1.
</event>
<event>
 5   0  0.2317458E-04  0.1885834E+04  0.7818609E-02  0.8661940E-01
        1   -1    0    0  501    0  0.00000000000E+00  0.00000000000E+00  0.13927951701E+04  0.13927951701E+04  0.50400001928E-02 0. -1.
       -1   -1    0    0    0  501  0.00000000000E+00  0.00000000000E+00 -0.63835113803E+03  0.63835113805E+03  0.50400001928E-02 0.  1.
    10030    2    1    2    0    0  0.00000000000E+00  0.00000000000E+00  0.75444403210E+03  0.20311463082E+04  0.18858339078E+04 0.  0.
        3    1    3    3  502    0  0.11171477108E+03 -0.92269070558E+03  0.54838239111E+03  0.10791485465E+04  0.10100000352E+00 0.  1.
       -3    1    3    3    0  502 -0.11171477108E+03  0.92269070558E+03  0.20606164099E+03  0.95199776172E+03  0.10100000352E+00 0. -1.
</event>
<event>
 5   0  0.2376359E-04  0.1971209E+04  0.7818609E-02  0.8620201E-01
       -1   -1    0    0    0  501  0.00000000000E+00  0.00000000000E+00  0.18102167971E+04  0.18102167971E+04  0.50400001928E-02 0.  1.
        1   -1    0    0  501    0  0.00000000000E+00  0.00000000000E+00 -0.53662972208E+03  0.53662972210E+03  0.50400001928E-02 0. -1.
    10030    2    1    2    0    0  0.00000000000E+00  0.00000000000E+00  0.12735870750E+04  0.23468465192E+04  0.19712089050E+04 0.  0.
        2    1    3    3  502    0  0.52627660821E+03  0.76315186647E+03  0.23826936737E+03  0.95715209401E+03  0.25500000920E-02 0. -1.
       -2    1    3    3    0  502 -0.52627660821E+03 -0.76315186647E+03  0.10353177076E+04  0.13896944252E+04  0.25500000920E-02 0.  1.
</event>
<event>
 5   0  0.2510069E-04  0.1895221E+04  0.7818609E-02  0.8657239E-01
        1   -1    0    0  501    0  0.00000000000E+00  0.00000000000E+00  0.10877308878E+04  0.10877308878E+04  0.50400001928E-02 0. -1.
       -1   -1    0    0    0  501  0.00000000000E+00  0.00000000000E+00 -0.82554042895E+03  0.82554042897E+03  0.50400001928E-02 0.  1.
    10030    2    1    2    0    0  0.00000000000E+00  0.00000000000E+00  0.26219045883E+03  0.19132713168E+04  0.18952211731E+04 0.  0.
        4    1    3    3  502    0  0.14589120900E+03  0.63804002530E+03 -0.56069387729E+03  0.86183441314E+03  0.12699999809E+01 0.  1.
       -4    1    3    3    0  502 -0.14589120900E+03 -0.63804002530E+03  0.82288433612E+03  0.10514369036E+04  0.12699999809E+01 0. -1.
</event>
<event>
 5   0  0.4761944E-04  0.1872185E+04  0.7818609E-02  0.8668827E-01
       -2   -1    0    0    0  501  0.00000000000E+00  0.00000000000E+00  0.33789160703E+03  0.33789160704E+03  0.25500000920E-02 0. -1.
        2   -1    0    0  501    0  0.00000000000E+00  0.00000000000E+00 -0.25933430608E+04  0.25933430608E+04  0.25500000920E-02 0.  1.
    10030    2    1    2    0    0  0.00000000000E+00  0.00000000000E+00 -0.22554514538E+04  0.29312346678E+04  0.18721846644E+04 0.  0.
        4    1    3    3  502    0  0.58103985529E+03 -0.58755337757E+03 -0.18163401590E+04  0.19954747483E+04  0.12699999809E+01 0.  1.
       -4    1    3    3    0  502 -0.58103985529E+03  0.58755337757E+03 -0.43911129473E+03  0.93575991952E+03  0.12699999809E+01 0. -1.
</event>
<event>
 5   0  0.2355414E-04  0.1849303E+04  0.7818609E-02  0.8680511E-01
       -1   -1    0    0    0  501  0.00000000000E+00  0.00000000000E+00  0.19259538253E+04  0.19259538253E+04  0.50400001928E-02 0. -1.
        1   -1    0    0  501    0  0.00000000000E+00  0.00000000000E+00 -0.44392591735E+03  0.44392591738E+03  0.50400001928E-02 0.  1.
    10030    2    1    2    0    0  0.00000000000E+00  0.00000000000E+00  0.14820279079E+04  0.23698797427E+04  0.18493034567E+04 0.  0.
        5    1    3    3  502    0 -0.37168967413E+03 -0.72355526139E+03  0.13043973672E+04  0.15372573018E+04  0.46999998093E+01 0. -1.
       -5    1    3    3    0  502  0.37168967413E+03  0.72355526139E+03  0.17763054070E+03  0.83262244092E+03  0.46999998093E+01 0.  1.
</event>
<event>
 5   0  0.2355414E-04  0.1915603E+04  0.7818609E-02  0.8647129E-01
       -1   -1    0    0    0  501  0.00000000000E+00  0.00000000000E+00  0.94398059959E+03  0.94398059960E+03  0.50400001928E-02 0.  1.
        1   -1    0    0  501    0  0.00000000000E+00  0.00000000000E+00 -0.97182462505E+03  0.97182462506E+03  0.50400001928E-02 0. -1.
    10030    2    1    2    0    0  0.00000000000E+00  0.00000000000E+00 -0.27844025459E+02  0.19158052247E+04  0.19156028735E+04 0.  0.
        5    1    3    3  502    0 -0.22240203647E+03 -0.38193716376E+02  0.91700394335E+03  0.94437267427E+03  0.46999998093E+01 0.  1.
       -5    1    3    3    0  502  0.22240203647E+03  0.38193716376E+02 -0.94484796881E+03  0.97143255039E+03  0.46999998093E+01 0. -1.
</event>
<event>
 5   0  0.2355414E-04  0.1912766E+04  0.7818609E-02  0.8648528E-01
        1   -1    0    0  501    0  0.00000000000E+00  0.00000000000E+00  0.87710380488E+03  0.87710380490E+03  0.50400001928E-02 0.  1.
       -1   -1    0    0    0  501  0.00000000000E+00  0.00000000000E+00 -0.10428285663E+04  0.10428285663E+04  0.50400001928E-02 0. -1.
    10030    2    1    2    0    0  0.00000000000E+00  0.00000000000E+00 -0.16572476145E+03  0.19199323712E+04  0.19127664817E+04 0.  0.
        5    1    3    3  502    0 -0.67177300272E+03 -0.68032134948E+03 -0.59738982490E+02  0.95797021966E+03  0.46999998093E+01 0.  1.
       -5    1    3    3    0  502  0.67177300272E+03  0.68032134948E+03 -0.10598577896E+03  0.96196215158E+03  0.46999998093E+01 0. -1.
</event>
<event>
 5   0  0.4839293E-04  0.1874524E+04  0.7818609E-02  0.8667643E-01
        2   -1    0    0  501    0  0.00000000000E+00  0.00000000000E+00  0.22167666832E+04  0.22167666832E+04  0.25500000920E-02 0.  1.
       -2   -1    0    0    0  501  0.00000000000E+00  0.00000000000E+00 -0.39627973442E+03  0.39627973443E+03  0.25500000920E-02 0. -1.
    10030    2    1    2    0    0  0.00000000000E+00  0.00000000000E+00  0.18204869488E+04  0.26130464176E+04  0.18745236328E+04 0.  0.
        5    1    3    3  502    0  0.78738338524E+03  0.15835222000E+03  0.23680650233E+03  0.83734546662E+03  0.46999998093E+01 0. -1.
       -5    1    3    3    0  502 -0.78738338524E+03 -0.15835222000E+03  0.15836804465E+04  0.17757009510E+04  0.46999998093E+01 0.  1.
</event>
<event>
 5   0  0.4973411E-04  0.1895740E+04  0.7818609E-02  0.8656980E-01
       -2   -1    0    0    0  501  0.00000000000E+00  0.00000000000E+00  0.81349187819E+03  0.81349187819E+03  0.25500000920E-02 0.  1.
        2   -1    0    0  501    0  0.00000000000E+00  0.00000000000E+00 -0.11044453911E+04  0.11044453911E+04  0.25500000920E-02 0. -1.
    10030    2    1    2    0    0  0.00000000000E+00  0.00000000000E+00 -0.29095351293E+03  0.19179372693E+04  0.18957398087E+04 0.  0.
        1    1    3    3  502    0 -0.33073736554E+03 -0.64625263462E+03 -0.76206154034E+03  0.10525053273E+04  0.50400001928E-02 0. -1.
       -1    1    3    3    0  502  0.33073736554E+03  0.64625263462E+03  0.47110802742E+03  0.86543194200E+03  0.50400001928E-02 0.  1.
</event>
<event>
 5   0  0.2376359E-04  0.1812225E+04  0.7818609E-02  0.8699825E-01
        1   -1    0    0  501    0  0.00000000000E+00  0.00000000000E+00  0.86750469999E+03  0.86750470001E+03  0.50400001928E-02 0. -1.
       -1   -1    0    0    0  501  0.00000000000E+00  0.00000000000E+00 -0.94643888338E+03  0.94643888339E+03  0.50400001928E-02 0.  1.
    10030    2    1    2    0    0  0.00000000000E+00  0.00000000000E+00 -0.78934183383E+02  0.18139435834E+04  0.18122253498E+04 0.  0.
        2    1    3    3  502    0  0.66391300519E+03  0.39080178387E+02  0.57652881734E+03  0.88016658425E+03  0.25500000920E-02 0. -1.
       -2    1    3    3    0  502 -0.66391300519E+03 -0.39080178387E+02 -0.65546300073E+03  0.93377699914E+03  0.25500000920E-02 0.  1.
</event>
<event>
 5   0  0.1729375E-04  0.1903844E+04  0.7818609E-02  0.8652945E-01
        4   -1    0    0  501    0  0.00000000000E+00  0.00000000000E+00  0.11936061111E+04  0.11936067867E+04  0.12699999809E+01 0.  1.
       -4   -1    0    0    0  501  0.00000000000E+00  0.00000000000E+00 -0.75917340612E+03  0.75917446839E+03  0.12699999809E+01 0. -1.
    10030    2    1    2    0    0  0.00000000000E+00  0.00000000000E+00  0.43443270494E+03  0.19527812551E+04  0.19038442308E+04 0.  0.
        3    1    3    3  502    0 -0.62421357160E+02  0.14961128116E+03 -0.74491165612E+03  0.76234726136E+03  0.10100000352E+00 0. -1.
       -3    1    3    3    0  502  0.62421357160E+02 -0.14961128116E+03  0.11793443611E+04  0.11904339937E+04  0.10100000352E+00 0.  1.
</event>
<event>
 5   0  0.4973411E-04  0.1922298E+04  0.7818609E-02  0.8643836E-01
       -2   -1    0    0    0  501  0.00000000000E+00  0.00000000000E+00  0.69143612548E+03  0.69143612549E+03  0.25500000920E-02 0. -1.
        2   -1    0    0  501    0  0.00000000000E+00  0.00000000000E+00 -0.13360702352E+04  0.13360702352E+04  0.25500000920E-02 0.  1.
    10030    2    1    2    0    0  0.00000000000E+00  0.00000000000E+00 -0.64463410971E+03  0.20275063607E+04  0.19222978196E+04 0.  0.
        1    1    3    3  502    0 -0.73872570462E+03  0.13950239399E+03  0.30931658084E+03  0.81292886023E+03  0.50400001928E-02 0. -1.
       -1    1    3    3    0  502  0.73872570462E+03 -0.13950239399E+03 -0.95395069055E+03  0.12145775005E+04  0.50400001928E-02 0.  1.
</event>
<event>
 5   0  0.4973411E-04  0.1996946E+04  0.7818609E-02  0.8608050E-01
       -2   -1    0    0    0  501  0.00000000000E+00  0.00000000000E+00  0.13649241457E+04  0.13649241457E+04  0.25500000920E-02 0.  1.
        2   -1    0    0  501    0  0.00000000000E+00  0.00000000000E+00 -0.73040602722E+03  0.73040602723E+03  0.25500000920E-02 0. -1.
    10030    2    1    2    0    0  0.00000000000E+00  0.00000000000E+00  0.63451811852E+03  0.20953301730E+04  0.19969464918E+04 0.  0.
        1    1    3    3  502    0  0.75110370434E+03 -0.13365100191E+03  0.99314462710E+03  0.12523400558E+04  0.50400001928E-02 0.  1.
       -1    1    3    3    0  502 -0.75110370434E+03  0.13365100191E+03 -0.35862650858E+03  0.84299011718E+03  0.50400001928E-02 0. -1.
</event>
<event>
 5   0  0.4802635E-04  0.1881605E+04  0.7818609E-02  0.8664067E-01
        2   -1    0    0  501    0  0.00000000000E+00  0.00000000000E+00  0.67184704614E+03  0.67184704614E+03  0.25500000920E-02 0.  1.
       -2   -1    0    0    0  501  0.00000000000E+00  0.00000000000E+00 -0.13174272076E+04  0.13174272076E+04  0.25500000920E-02 0. -1.
    10030    2    1    2    0    0  0.00000000000E+00  0.00000000000E+00 -0.64558016144E+03  0.19892742537E+04  0.18816052486E+04 0.  0.
        3    1    3    3  502    0  0.16321285684E+03 -0.27780625709E+03 -0.12572778398E+04  0.12979069034E+04  0.10100000352E+00 0. -1.
       -3    1    3    3    0  502 -0.16321285684E+03  0.27780625709E+03  0.61169767841E+03  0.69136735032E+03  0.10100000352E+00 0.  1.
</event>
<event>
 5   0  0.2510069E-04  0.1931949E+04  0.7818609E-02  0.8639115E-01
       -1   -1    0    0    0  501  0.00000000000E+00  0.00000000000E+00  0.32366937421E+04  0.32366937421E+04  0.50400001928E-02 0. -1.
        1   -1    0    0  501    0  0.00000000000E+00  0.00000000000E+00 -0.28829014067E+03  0.28829014071E+03  0.50400001928E-02 0.  1.
    10030    2    1    2    0    0  0.00000000000E+00  0.00000000000E+00  0.29484036014E+04  0.35249838828E+04  0.19319491653E+04 0.  0.
        4    1    3    3  502    0  0.15346486487E+03 -0.25168810776E+03  0.31526182428E+04  0.31663704405E+04  0.12699999809E+01 0. -1.
       -4    1    3    3    0  502 -0.15346486487E+03  0.25168810776E+03 -0.20421464143E+03  0.35861344232E+03  0.12699999809E+01 0.  1.
</event>
<event>
 5   0  0.2510069E-04  0.1752396E+04  0.7818609E-02  0.8732033E-01
        1   -1    0    0  501    0  0.00000000000E+00  0.00000000000E+00  0.61000977336E+03  0.61000977338E+03  0.50400001928E-02 0. -1.
       -1   -1    0    0    0  501  0.00000000000E+00  0.00000000000E+00 -0.12585418139E+04  0.12585418140E+04  0.50400001928E-02 0.  1.
    10030    2    1    2    0    0  0.00000000000E+00  0.00000000000E+00 -0.64853204058E+03  0.18685515873E+04  0.17523958534E+04 0.  0.
        4    1    3    3  502    0 -0.16611427393E+03  0.10071512670E+03 -0.12352892657E+04  0.12504713798E+04  0.12699999809E+01 0.  1.
       -4    1    3    3    0  502  0.16611427393E+03 -0.10071512670E+03  0.58675722517E+03  0.61808020753E+03  0.12699999809E+01 0. -1.
</event>
<event>
 5   0  0.2261755E-04  0.1949009E+04  0.7818609E-02  0.8630839E-01
        1   -1    0    0  501    0  0.00000000000E+00  0.00000000000E+00  0.10313594110E+04  0.10313594110E+04  0.50400001928E-02 0.  1.
       -1   -1    0    0    0  501  0.00000000000E+00  0.00000000000E+00 -0.92078405515E+03  0.92078405517E+03  0.50400001928E-02 0. -1.
    10030    2    1    2    0    0  0.00000000000E+00  0.00000000000E+00  0.11057535583E+03  0.19521434662E+04  0.19490092876E+04 0.  0.
        1    1    3    3  502    0  0.25724380788E+03 -0.38532143294E+03 -0.80341957555E+03  0.92743193701E+03  0.50400001928E-02 0. -1.
       -1    1    3    3    0  502 -0.25724380788E+03  0.38532143294E+03  0.91399493138E+03  0.10247115292E+04  0.50400001928E-02 0.  1.
</event>
<event>
 5   0  0.4839293E-04  0.1936216E+04  0.7818609E-02  0.8637037E-01
        2   -1    0    0  501    0  0.00000000000E+00  0.00000000000E+00  0.16365220237E+04  0.16365220237E+04  0.25500000920E-02 0.  1.
       -2   -1    0    0    0  501  0.00000000000E+00  0.00000000000E+00 -0.57269803390E+03  0.57269803390E+03  0.25500000920E-02 0. -1.
    10030    2    1    2    0    0  0.00000000000E+00  0.00000000000E+00  0.10638239898E+04  0.22092200576E+04  0.19362158407E+04 0.  0.
        5    1    3    3  502    0 -0.84976756896E+03  0.40533479939E+03  0.78910446196E+03  0.12284580427E+04  0.46999998093E+01 0.  1.
       -5    1    3    3    0  502  0.84976756896E+03 -0.40533479939E+03  0.27471952785E+03  0.98076201488E+03  0.46999998093E+01 0. -1.
</event>
<event>
 5   0  0.2317458E-04  0.1840358E+04  0.7818609E-02  0.8685127E-01
        1   -1    0    0  501    0  0.00000000000E+00  0.00000000000E+00  0.95074690837E+03  0.95074690839E+03  0.50400001928E-02 0. -1.
       -1   -1    0    0    0  501  0.00000000000E+00  0.00000000000E+00 -0.89059419791E+03  0.89059419793E+03  0.50400001928E-02 0.  1.
    10030    2    1    2    0    0  0.00000000000E+00  0.00000000000E+00  0.60152710463E+02  0.18413411063E+04  0.18403583133E+04 0.  0.
        3    1    3    3  502    0 -0.12122145345E+02 -0.49194049104E+03  0.80803725741E+03  0.94608488662E+03  0.10100000352E+00 0. -1.
       -3    1    3    3    0  502  0.12122145345E+02  0.49194049104E+03 -0.74788454695E+03  0.89525621969E+03  0.10100000352E+00 0.  1.
</event>
<event>
 5   0  0.4839293E-04  0.1888886E+04  0.7818609E-02  0.8660409E-01
        2   -1    0    0  501    0  0.00000000000E+00  0.00000000000E+00  0.90856778992E+03  0.90856778993E+03  0.25500000920E-02 0. -1.
       -2   -1    0    0    0  501  0.00000000000E+00  0.00000000000E+00 -0.98173430015E+03  0.98173430015E+03  0.25500000920E-02 0.  1.
    10030    2    1    2    0    0  0.00000000000E+00  0.00000000000E+00 -0.73166510226E+02  0.18903020901E+04  0.18888855586E+04 0.  0.
        5    1    3    3  502    0  0.25163093195E+02  0.86140628602E+03 -0.42326155767E+03  0.96011791310E+03  0.46999998093E+01 0.  1.
       -5    1    3    3    0  502 -0.25163093195E+02 -0.86140628602E+03  0.35009504745E+03  0.93018417698E+03  0.46999998093E+01 0. -1.
</event>
<event>
 5   0  0.4973411E-04  0.1871470E+04  0.7818609E-02  0.8669189E-01
        2   -1    0    0  501    0  0.00000000000E+00  0.00000000000E+00  0.67090434965E+03  0.67090434965E+03  0.25500000920E-02 0.  1.
       -2   -1    0    0    0  501  0.00000000000E+00  0.00000000000E+00 -0.13051042492E+04  0.13051042492E+04  0.25500000920E-02 0. -1.
    10030    2    1    2    0    0  0.00000000000E+00  0.00000000000E+00 -0.63419989958E+03  0.19760085989E+04  0.18714701361E+04 0.  0.
        1    1    3    3  502    0 -0.78799949214E+03 -0.99670356816E+01  0.21561997722E+03  0.81702785510E+03  0.50400001928E-02 0.  1.
       -1    1    3    3    0  502  0.78799949214E+03  0.99670356816E+01 -0.84981987680E+03  0.11589807438E+04  0.50400001928E-02 0. -1.
</event>
<event>
 5   0  0.4761944E-04  0.1977748E+04  0.7818609E-02  0.8617096E-01
        2   -1    0    0  501    0  0.00000000000E+00  0.00000000000E+00  0.18740689532E+04  0.18740689532E+04  0.25500000920E-02 0.  1.
       -2   -1    0    0    0  501  0.00000000000E+00  0.00000000000E+00 -0.52179054255E+03  0.52179054256E+03  0.25500000920E-02 0. -1.
    10030    2    1    2    0    0  0.00000000000E+00  0.00000000000E+00  0.13522784107E+04  0.23958594958E+04  0.19777476643E+04 0.  0.
        4    1    3    3  502    0  0.32723810242E+03  0.85082556610E+03  0.21186648928E+03  0.93588350866E+03  0.12699999809E+01 0. -1.
       -4    1    3    3    0  502 -0.32723810242E+03 -0.85082556610E+03  0.11404119214E+04  0.14599759871E+04  0.12699999809E+01 0.  1.
</event>
<event>
 5   0  0.4839293E-04  0.1716344E+04  0.7818609E-02  0.8752097E-01
        2   -1    0    0  501    0  0.00000000000E+00  0.00000000000E+00  0.12918345339E+04  0.12918345339E+04  0.25500000920E-02 0.  1.
       -2   -1    0    0    0  501  0.00000000000E+00  0.00000000000E+00 -0.57008781969E+03  0.57008781970E+03  0.25500000920E-02 0. -1.
    10030    2    1    2    0    0  0.00000000000E+00  0.00000000000E+00  0.72174671424E+03  0.18619223536E+04  0.17163439432E+04 0.  0.
        5    1    3    3  502    0 -0.97688824902E+02  0.64836528819E+03 -0.23972493760E+03  0.69814811404E+03  0.46999998093E+01 0. -1.
       -5    1    3    3    0  502  0.97688824902E+02 -0.64836528819E+03  0.96147165184E+03  0.11637742396E+04  0.46999998093E+01 0.  1.
</event>
<event>
 5   0  0.2510069E-04  0.1715516E+04  0.7818609E-02  0.8752564E-01
       -1   -1    0    0    0  501  0.00000000000E+00  0.00000000000E+00  0.59398674073E+03  0.59398674075E+03  0.50400001928E-02 0. -1.
        1   -1    0    0  501    0  0.00000000000E+00  0.00000000000E+00 -0.12386625159E+04  0.12386625159E+04  0.50400001928E-02 0.  1.
    10030    2    1    2    0    0  0.00000000000E+00  0.00000000000E+00 -0.64467577513E+03  0.18326492566E+04  0.17155163779E+04 0.  0.
        4    1    3    3  502    0  0.73640920169E+03  0.33878123900E+03 -0.62198240315E+03  0.10217313556E+04  0.12699999809E+01 0.  1.
       -4    1    3    3    0  502 -0.73640920169E+03 -0.33878123900E+03 -0.22693371976E+02  0.81091790106E+03  0.12699999809E+01 0. -1.
</event>
<event>
 5   0  0.4973411E-04  0.1920074E+04  0.7818609E-02  0.8644928E-01
        2   -1    0    0  501    0  0.00000000000E+00  0.00000000000E+00  0.10290374503E+04  0.10290374503E+04  0.25500000920E-02 0. -1.
       -2   -1    0    0    0  501  0.00000000000E+00  0.00000000000E+00 -0.89566349355E+03  0.89566349355E+03  0.25500000920E-02 0.  1.
    10030    2    1    2    0    0  0.00000000000E+00  0.00000000000E+00  0.13337395674E+03  0.19247009439E+04  0.19200742462E+04 0.  0.
        1    1    3    3  502    0 -0.85660394424E+03  0.42669548993E+03  0.14323799971E+03  0.96765514673E+03  0.50400001928E-02 0.  1.
       -1    1    3    3    0  502  0.85660394424E+03 -0.42669548993E+03 -0.98640429665E+01  0.95704579712E+03  0.50400001928E-02 0. -1.
</event>
<event>
 5   0  0.2261755E-04  0.1882929E+04  0.7818609E-02  0.8663401E-01
       -1   -1    0    0    0  501  0.00000000000E+00  0.00000000000E+00  0.81331667426E+03  0.81331667427E+03  0.50400001928E-02 0.  1.
        1   -1    0    0  501    0  0.00000000000E+00  0.00000000000E+00 -0.10898032933E+04  0.10898032933E+04  0.50400001928E-02 0. -1.
    10030    2    1    2    0    0  0.00000000000E+00  0.00000000000E+00 -0.27648661903E+03  0.19031199676E+04  0.18829287720E+04 0.  0.
        1    1    3    3  502    0 -0.73401480782E+03  0.14590816658E+02 -0.73393978137E+03  0.10381031898E+04  0.50400001928E-02 0. -1.
       -1    1    3    3    0  502  0.73401480782E+03 -0.14590816658E+02  0.45745316234E+03  0.86501677775E+03  0.50400001928E-02 0.  1.
</event>
<event>
 5   0  0.2376359E-04  0.1919013E+04  0.7818609E-02  0.8645450E-01
       -1   -1    0    0    0  501  0.00000000000E+00  0.00000000000E+00  0.43128344068E+03  0.43128344071E+03  0.50400001928E-02 0. -1.
        1   -1    0    0  501    0  0.00000000000E+00  0.00000000000E+00 -0.21346807846E+04  0.21346807846E+04  0.50400001928E-02 0.  1.
    10030    2    1    2    0    0  0.00000000000E+00  0.00000000000E+00 -0.17033973439E+04  0.25659642253E+04  0.19190127395E+04 0.  0.
        2    1    3    3  502    0 -0.35561774995E+03 -0.88992522212E+03 -0.91472246693E+03  0.13248200167E+04  0.25500000920E-02 0.  1.
       -2    1    3    3    0  502  0.35561774995E+03  0.88992522212E+03 -0.78867487695E+03  0.12411442086E+04  0.25500000920E-02 0. -1.
</event>
<event>
 5   0  0.2376359E-04  0.1884283E+04  0.7818609E-02  0.8662719E-01
       -1   -1    0    0    0  501  0.00000000000E+00  0.00000000000E+00  0.66803874016E+03  0.66803874018E+03  0.50400001928E-02 0.  1.
        1   -1    0    0  501    0  0.00000000000E+00  0.00000000000E+00 -0.13287114752E+04  0.13287114752E+04  0.50400001928E-02 0. -1.
    10030    2    1    2    0    0  0.00000000000E+00  0.00000000000E+00 -0.66067273504E+03  0.19967502154E+04  0.18842831422E+04 0.  0.
        2    1    3    3  502    0  0.83344454169E+03 -0.35114945788E+03 -0.61009169783E+03  0.10909388735E+04  0.25500000920E-02 0. -1.
       -2    1    3    3    0  502 -0.83344454169E+03  0.35114945788E+03 -0.50581037214E+02  0.90581134194E+03  0.25500000920E-02 0.  1.
</event>
<event>
 5   0  0.2261755E-04  0.1367741E+04  0.7818609E-02  0.8977506E-01
       -1   -1    0    0    0  501  0.00000000000E+00  0.00000000000E+00  0.40773714117E+03  0.40773714120E+03  0.50400001928E-02 0. -1.
        1   -1    0    0  501    0  0.00000000000E+00  0.00000000000E+00 -0.11470106137E+04  0.11470106137E+04  0.50400001928E-02 0.  1.
    10030    2    1    2    0    0  0.00000000000E+00  0.00000000000E+00 -0.73927347257E+03  0.15547477549E+04  0.13677409529E+04 0.  0.
        1    1    3    3  502    0 -0.17232737656E+03  0.23679309588E+03 -0.10721220467E+04  0.11114015377E+04  0.50400001928E-02 0.  1.
       -1    1    3    3    0  502  0.17232737656E+03 -0.23679309588E+03  0.33284857416E+03  0.44334621721E+03  0.50400001928E-02 0. -1.
</event>
<event>
 5   0  0.2510069E-04  0.1698548E+04  0.7818609E-02  0.8762193E-01
        1   -1    0    0  501    0  0.00000000000E+00  0.00000000000E+00  0.44995426021E+03  0.44995426024E+03  0.50400001928E-02 0. -1.
       -1   -1    0    0    0  501  0.00000000000E+00  0.00000000000E+00 -0.16029772826E+04  0.16029772826E+04  0.50400001928E-02 0.  1.
    10030    2    1    2    0    0  0.00000000000E+00  0.00000000000E+00 -0.11530230224E+04  0.20529315428E+04  0.16985481534E+04 0.  0.
        4    1    3    3  502    0  0.58788883110E+03 -0.57574846592E+03 -0.32250956015E+03  0.88380631534E+03  0.12699999809E+01 0. -1.
       -4    1    3    3    0  502 -0.58788883110E+03  0.57574846592E+03 -0.83051346223E+03  0.11691252275E+04  0.12699999809E+01 0.  1.
</event>
<event>
 5   0  0.4761944E-04  0.1864002E+04  0.7818609E-02  0.8672985E-01
       -2   -1    0    0    0  501  0.00000000000E+00  0.00000000000E+00  0.57513949085E+03  0.57513949086E+03  0.25500000920E-02 0.  1.
        2   -1    0    0  501    0  0.00000000000E+00  0.00000000000E+00 -0.15102870798E+04  0.15102870798E+04  0.25500000920E-02 0. -1.
    10030    2    1    2    0    0  0.00000000000E+00  0.00000000000E+00 -0.93514758890E+03  0.20854265706E+04  0.18640018692E+04 0.  0.
        4    1    3    3  502    0  0.69233876569E+03 -0.47356296808E+03 -0.13078847735E+02  0.83890852921E+03  0.12699999809E+01 0.  1.
       -4    1    3    3    0  502 -0.69233876569E+03  0.47356296808E+03 -0.92206874117E+03  0.12465180414E+04  0.12699999809E+01 0. -1.
</event>
<event>
 5   0  0.4761944E-04  0.1912024E+04  0.7818609E-02  0.8648894E-01
       -2   -1    0    0    0  501  0.00000000000E+00  0.00000000000E+00  0.11226116052E+04  0.11226116052E+04  0.25500000920E-02 0.  1.
        2   -1    0    0  501    0  0.00000000000E+00  0.00000000000E+00 -0.81413609738E+03  0.81413609739E+03  0.25500000920E-02 0. -1.
    10030    2    1    2    0    0  0.00000000000E+00  0.00000000000E+00  0.30847550784E+03  0.19367477026E+04  0.19120236726E+04 0.  0.
        4    1    3    3  502    0 -0.67897874115E+02 -0.93156989148E+03 -0.52172679834E+02  0.93549782760E+03  0.12699999809E+01 0.  1.
       -4    1    3    3    0  502  0.67897874115E+02  0.93156989148E+03  0.36064818767E+03  0.10012498750E+04  0.12699999809E+01 0. -1.
</event>
<event>
 5   0  0.2355414E-04  0.1860076E+04  0.7818609E-02  0.8674988E-01
       -1   -1    0    0    0  501  0.00000000000E+00  0.00000000000E+00  0.12128620428E+04  0.12128620428E+04  0.50400001928E-02 0.  1.
        1   -1    0    0  501    0  0.00000000000E+00  0.00000000000E+00 -0.71316510614E+03  0.71316510616E+03  0.50400001928E-02 0. -1.
    10030    2    1    2    0    0  0.00000000000E+00  0.00000000000E+00  0.49969693669E+03  0.19260271490E+04  0.18600762216E+04 0.  0.
        5    1    3    3  502    0 -0.15083042135E+03 -0.49496127697E+03 -0.55034691468E+03  0.75540737235E+03  0.46999998093E+01 0. -1.
       -5    1    3    3    0  502  0.15083042135E+03  0.49496127697E+03  0.10500438514E+04  0.11706197767E+04  0.46999998093E+01 0.  1.
</event>
<event>
 5   0  0.4829134E-04  0.1895877E+04  0.7818609E-02  0.8656911E-01
        2   -1    0    0  501    0  0.00000000000E+00  0.00000000000E+00  0.11660455915E+04  0.11660455915E+04  0.25500000920E-02 0.  1.
       -2   -1    0    0    0  501  0.00000000000E+00  0.00000000000E+00 -0.77062802842E+03  0.77062802843E+03  0.25500000920E-02 0. -1.
    10030    2    1    2    0    0  0.00000000000E+00  0.00000000000E+00  0.39541756310E+03  0.19366736199E+04  0.18958770163E+04 0.  0.
        2    1    3    3  502    0 -0.61483488858E+03  0.11581237842E+02 -0.53922421076E+03  0.81787457154E+03  0.25500000920E-02 0. -1.
       -2    1    3    3    0  502  0.61483488858E+03 -0.11581237842E+02  0.93464177385E+03  0.11187990484E+04  0.25500000920E-02 0.  1.
</event>
<event>
 5   0  0.2355414E-04  0.1920497E+04  0.7818609E-02  0.8644720E-01
        1   -1    0    0  501    0  0.00000000000E+00  0.00000000000E+00  0.13056283481E+04  0.13056283481E+04  0.50400001928E-02 0. -1.
       -1   -1    0    0    0  501  0.00000000000E+00  0.00000000000E+00 -0.70623247241E+03  0.70623247242E+03  0.50400001928E-02 0.  1.
    10030    2    1    2    0    0  0.00000000000E+00  0.00000000000E+00  0.59939587571E+03  0.20118608205E+04  0.19204969527E+04 0.  0.
        5    1    3    3  502    0  0.91627748355E+03 -0.70232775112E+02  0.79568846192E+01  0.91901168195E+03  0.46999998093E+01 0. -1.
       -5    1    3    3    0  502 -0.91627748355E+03  0.70232775112E+02  0.59143899109E+03  0.10928491386E+04  0.46999998093E+01 0.  1.
</event>
<event>
 5   0  0.4973411E-04  0.1593378E+04  0.7818609E-02  0.8824627E-01
       -2   -1    0    0    0  501  0.00000000000E+00  0.00000000000E+00  0.51477735024E+03  0.51477735024E+03  0.25500000920E-02 0.  1.
        2   -1    0    0  501    0  0.00000000000E+00  0.00000000000E+00 -0.12329860319E+04  0.12329860319E+04  0.25500000920E-02 0. -1.
    10030    2    1    2    0    0  0.00000000000E+00  0.00000000000E+00 -0.71820868162E+03  0.17477633821E+04  0.15933778991E+04 0.  0.
        1    1    3    3  502    0  0.40544296253E+03  0.68554405111E+03 -0.37987706696E+03  0.88241783068E+03  0.50400001928E-02 0. -1.
       -1    1    3    3    0  502 -0.40544296253E+03 -0.68554405111E+03 -0.33833161466E+03  0.86534555143E+03  0.50400001928E-02 0.  1.
</event>
<event>
 5   0  0.4761944E-04  0.1892210E+04  0.7818609E-02  0.8658744E-01
       -2   -1    0    0    0  501  0.00000000000E+00  0.00000000000E+00  0.61159383426E+03  0.61159383426E+03  0.25500000920E-02 0. -1.
        2   -1    0    0  501    0  0.00000000000E+00  0.00000000000E+00 -0.14635766601E+04  0.14635766601E+04  0.25500000920E-02 0.  1.
    10030    2    1    2    0    0  0.00000000000E+00  0.00000000000E+00 -0.85198282583E+03  0.20751704943E+04  0.18922097783E+04 0.  0.
        4    1    3    3  502    0 -0.54919631570E+03  0.76520284779E+03 -0.32814060610E+03  0.99741158090E+03  0.12699999809E+01 0. -1.
       -4    1    3    3    0  502  0.54919631570E+03 -0.76520284779E+03 -0.52384221973E+03  0.10777589134E+04  0.12699999809E+01 0.  1.
</event>
<event>
 5   0  0.2355414E-04  0.1880017E+04  0.7818609E-02  0.8664867E-01
        1   -1    0    0  501    0  0.00000000000E+00  0.00000000000E+00  0.74625658641E+03  0.74625658642E+03  0.50400001928E-02 0.  1.
       -1   -1    0    0    0  501  0.00000000000E+00  0.00000000000E+00 -0.11840650160E+04  0.11840650160E+04  0.50400001928E-02 0. -1.
    10030    2    1    2    0    0  0.00000000000E+00  0.00000000000E+00 -0.43780842959E+03  0.19303216024E+04  0.18800173584E+04 0.  0.
        5    1    3    3  502    0 -0.33025939064E+02  0.31726552555E+03  0.68897578529E+03  0.75924821308E+03  0.46999998093E+01 0.  1.
       -5    1    3    3    0  502  0.33025939064E+02 -0.31726552555E+03 -0.11267842149E+04  0.11710733894E+04  0.46999998093E+01 0. -1.
</event>
<event>
 5   0  0.4761944E-04  0.1915603E+04  0.7818609E-02  0.8647128E-01
        2   -1    0    0  501    0  0.00000000000E+00  0.00000000000E+00  0.14329550184E+04  0.14329550184E+04  0.25500000920E-02 0. -1.
       -2   -1    0    0    0  501  0.00000000000E+00  0.00000000000E+00 -0.64020434947E+03  0.64020434948E+03  0.25500000920E-02 0.  1.
    10030    2    1    2    0    0  0.00000000000E+00  0.00000000000E+00  0.79275066896E+03  0.20731593679E+04  0.19156033362E+04 0.  0.
        4    1    3    3  502    0 -0.27093021841E+03 -0.12542815731E+03  0.13813091400E+04  0.14132062691E+04  0.12699999809E+01 0. -1.
       -4    1    3    3    0  502  0.27093021841E+03  0.12542815731E+03 -0.58855847104E+03  0.65995309881E+03  0.12699999809E+01 0.  1.
</event>
<event>
 5   0  0.4839293E-04  0.1890107E+04  0.7818609E-02  0.8659797E-01
       -2   -1    0    0    0  501  0.00000000000E+00  0.00000000000E+00  0.84785024248E+03  0.84785024249E+03  0.25500000920E-02 0.  1.
        2   -1    0    0  501    0  0.00000000000E+00  0.00000000000E+00 -0.10534004501E+04  0.10534004501E+04  0.25500000920E-02 0. -1.
    10030    2    1    2    0    0  0.00000000000E+00  0.00000000000E+00 -0.20555020758E+03  0.19012506926E+04  0.18901066923E+04 0.  0.
        5    1    3    3  502    0  0.58012630444E+03  0.50439434327E+03  0.45014162814E+03  0.89084777488E+03  0.46999998093E+01 0.  1.
       -5    1    3    3    0  502 -0.58012630444E+03 -0.50439434327E+03 -0.65569183572E+03  0.10104029177E+04  0.46999998093E+01 0. -1.
</event>
<event>
 5   0  0.4973411E-04  0.1965163E+04  0.7818609E-02  0.8623084E-01
       -2   -1    0    0    0  501  0.00000000000E+00  0.00000000000E+00  0.44085889365E+03  0.44085889365E+03  0.25500000920E-02 0.  1.
        2   -1    0    0  501    0  0.00000000000E+00  0.00000000000E+00 -0.21899660160E+04  0.21899660160E+04  0.25500000920E-02 0. -1.
    10030    2    1    2    0    0  0.00000000000E+00  0.00000000000E+00 -0.17491071224E+04  0.26308249097E+04  0.19651625836E+04 0.  0.
        1    1    3    3  502    0 -0.79298431303E+03 -0.31492253252E+03 -0.15269234058E+04  0.17491413349E+04  0.50400001928E-02 0. -1.
       -1    1    3    3    0  502  0.79298431303E+03  0.31492253252E+03 -0.22218371664E+03  0.88168357485E+03  0.50400001928E-02 0.  1.
</event>
<event>
 5   0  0.2510069E-04  0.1873161E+04  0.7818609E-02  0.8668332E-01
        1   -1    0    0  501    0  0.00000000000E+00  0.00000000000E+00  0.14278104165E+04  0.14278104166E+04  0.50400001928E-02 0. -1.
       -1   -1    0    0    0  501  0.00000000000E+00  0.00000000000E+00 -0.61435525419E+03  0.61435525421E+03  0.50400001928E-02 0.  1.
    10030    2    1    2    0    0  0.00000000000E+00  0.00000000000E+00  0.81345516235E+03  0.20421656708E+04  0.18731607848E+04 0.  0.
        4    1    3    3  502    0  0.18914052137E+03 -0.91351830578E+03  0.31622327898E+03  0.98503228724E+03  0.12699999809E+01 0. -1.
       -4    1    3    3    0  502 -0.18914052137E+03  0.91351830578E+03  0.49723188337E+03  0.10571333835E+04  0.12699999809E+01 0.  1.
</event>
<event>
 5   0  0.4973411E-04  0.1894626E+04  0.7818609E-02  0.8657536E-01
       -2   -1    0    0    0  501  0.00000000000E+00  0.00000000000E+00  0.36224744911E+03  0.36224744912E+03  0.25500000920E-02 0. -1.
        2   -1    0    0  501    0  0.00000000000E+00  0.00000000000E+00 -0.24773183226E+04  0.24773183226E+04  0.25500000920E-02 0.  1.
    10030    2    1    2    0    0  0.00000000000E+00  0.00000000000E+00 -0.21150708735E+04  0.28395657717E+04  0.18946263410E+04 0.  0.
        1    1    3    3  502    0 -0.10838438712E+03  0.62770249224E+03 -0.21084175977E+04  0.22025399793E+04  0.50400001928E-02 0. -1.
       -1    1    3    3    0  502  0.10838438712E+03 -0.62770249224E+03 -0.66532758274E+01  0.63702579244E+03  0.50400001928E-02 0.  1.
</event>
<event>
 5   0  0.2376359E-04  0.2025092E+04  0.7818609E-02  0.8594978E-01
        1   -1    0    0  501    0  0.00000000000E+00  0.00000000000E+00  0.33242465468E+03  0.33242465471E+03  0.50400001928E-02 0.  1.
       -1   -1    0    0    0  501  0.00000000000E+00  0.00000000000E+00 -0.30841565909E+04  0.30841565909E+04  0.50400001928E-02 0. -1.
    10030    2    1    2    0    0  0.00000000000E+00  0.00000000000E+00 -0.27517319362E+04  0.34165812456E+04  0.20250922841E+04 0.  0.
        2    1    3    3  502    0  0.80975599768E+03 -0.54827062870E+03 -0.18188579870E+04  0.20650786510E+04  0.25500000920E-02 0.  1.
       -2    1    3    3    0  502 -0.80975599768E+03  0.54827062870E+03 -0.93287394928E+03  0.13515025946E+04  0.25500000920E-02 0. -1.
</event>
<event>
 5   0  0.4802635E-04  0.1870947E+04  0.7818609E-02  0.8669455E-01
        2   -1    0    0  501    0  0.00000000000E+00  0.00000000000E+00  0.14390748053E+04  0.14390748053E+04  0.25500000920E-02 0. -1.
       -2   -1    0    0    0  501  0.00000000000E+00  0.00000000000E+00 -0.60810631741E+03  0.60810631742E+03  0.25500000920E-02 0.  1.
    10030    2    1    2    0    0  0.00000000000E+00  0.00000000000E+00  0.83096848784E+03  0.20471811227E+04  0.18709467981E+04 0.  0.
        3    1    3    3  502    0 -0.10570477734E+03  0.40844405817E+03  0.13290622123E+04  0.13944197442E+04  0.10100000352E+00 0. -1.
       -3    1    3    3    0  502  0.10570477734E+03 -0.40844405817E+03 -0.49809372450E+03  0.65276137845E+03  0.10100000352E+00 0.  1.
</event>
<event>
 5   0  0.2510069E-04  0.1694617E+04  0.7818609E-02  0.8764440E-01
       -1   -1    0    0    0  501  0.00000000000E+00  0.00000000000E+00  0.11984878739E+04  0.11984878739E+04  0.50400001928E-02 0. -1.
        1   -1    0    0  501    0  0.00000000000E+00  0.00000000000E+00 -0.59903130797E+03  0.59903130799E+03  0.50400001928E-02 0.  1.
    10030    2    1    2    0    0  0.00000000000E+00  0.00000000000E+00  0.59945656590E+03  0.17975191819E+04  0.16946170762E+04 0.  0.
        4    1    3    3  502    0 -0.70186685685E+03 -0.18257203833E+03  0.76449019299E+03  0.10537535300E+04  0.12699999809E+01 0. -1.
       -4    1    3    3    0  502  0.70186685685E+03  0.18257203833E+03 -0.16503362709E+03  0.74376565187E+03  0.12699999809E+01 0.  1.
</event>
<event>
 5   0  0.2261755E-04  0.1908968E+04  0.7818609E-02  0.8650405E-01
       -1   -1    0    0    0  501  0.00000000000E+00  0.00000000000E+00  0.60704242501E+03  0.60704242503E+03  0.50400001928E-02 0. -1.
        1   -1    0    0  501    0  0.00000000000E+00  0.00000000000E+00 -0.15007846396E+04  0.15007846396E+04  0.50400001928E-02 0.  1.
    10030    2    1    2    0    0  0.00000000000E+00  0.00000000000E+00 -0.89374221461E+03  0.21078270647E+04  0.19089682523E+04 0.  0.
        1    1    3    3  502    0  0.79438273563E+03 -0.49187087638E+03 -0.23146139307E+03  0.96257740790E+03  0.50400001928E-02 0. -1.
       -1    1    3    3    0  502 -0.79438273563E+03  0.49187087638E+03 -0.66228082155E+03  0.11452496568E+04  0.50400001928E-02 0.  1.
</event>
<event>
 5   0  0.4973411E-04  0.1746766E+04  0.7818609E-02  0.8735133E-01
        2   -1    0    0  501    0  0.00000000000E+00  0.00000000000E+00  0.18417155856E+04  0.18417155856E+04  0.25500000920E-02 0. -1.
       -2   -1    0    0    0  501  0.00000000000E+00  0.00000000000E+00 -0.41417771888E+03  0.41417771888E+03  0.25500000920E-02 0.  1.
    10030    2    1    2    0    0  0.00000000000E+00  0.00000000000E+00  0.14275378667E+04  0.22558933045E+04  0.17467656512E+04 0.  0.
        1    1    3    3  502    0  0.68546730663E+03 -0.54122799285E+03  0.71647527396E+03  0.11296592349E+04  0.50400001928E-02 0.  1.
       -1    1    3    3    0  502 -0.68546730663E+03  0.54122799285E+03  0.71106259273E+03  0.11262340696E+04  0.50400001928E-02 0. -1.
</event>
<event>
 5   0  0.4761944E-04  0.1849301E+04  0.7818609E-02  0.8680512E-01
        2   -1    0    0  501    0  0.00000000000E+00  0.00000000000E+00  0.86918864479E+03  0.86918864479E+03  0.25500000920E-02 0. -1.
       -2   -1    0    0    0  501  0.00000000000E+00  0.00000000000E+00 -0.98365156845E+03  0.98365156846E+03  0.25500000920E-02 0.  1.
    10030    2    1    2    0    0  0.00000000000E+00  0.00000000000E+00 -0.11446292366E+03  0.18528402133E+04  0.18493012451E+04 0.  0.
        4    1    3    3  502    0 -0.50561377313E+03  0.14384379469E+02 -0.83274433871E+03  0.97432897140E+03  0.12699999809E+01 0.  1.
       -4    1    3    3    0  502  0.50561377313E+03 -0.14384379469E+02  0.71828141505E+03  0.87851124185E+03  0.12699999809E+01 0. -1.
</event>
<event>
 5   0  0.2355414E-04  0.1859911E+04  0.7818609E-02  0.8675072E-01
        1   -1    0    0  501    0  0.00000000000E+00  0.00000000000E+00  0.17491283986E+04  0.17491283986E+04  0.50400001928E-02 0. -1.
       -1   -1    0    0    0  501  0.00000000000E+00  0.00000000000E+00 -0.49442778037E+03  0.49442778039E+03  0.50400001928E-02 0.  1.
    10030    2    1    2    0    0  0.00000000000E+00  0.00000000000E+00  0.12547006183E+04  0.22435561790E+04  0.18599114729E+04 0.  0.
        5    1    3    3  502    0  0.85575012973E+03  0.17038673717E+03  0.23935917928E+03  0.90479546387E+03  0.46999998093E+01 0.  1.
       -5    1    3    3    0  502 -0.85575012973E+03 -0.17038673717E+03  0.10153414390E+04  0.13387607152E+04  0.46999998093E+01 0. -1.
</event>
<event>
 5   0  0.4973411E-04  0.1749678E+04  0.7818609E-02  0.8733528E-01
        2   -1    0    0  501    0  0.00000000000E+00  0.00000000000E+00  0.12755824932E+04  0.12755824932E+04  0.25500000920E-02 0.  1.
       -2   -1    0    0    0  501  0.00000000000E+00  0.00000000000E+00 -0.59999487167E+03  0.59999487168E+03  0.25500000920E-02 0. -1.
    10030    2    1    2    0    0  0.00000000000E+00  0.00000000000E+00  0.67558762152E+03  0.18755773649E+04  0.17496776324E+04 0.  0.
        1    1    3    3  502    0  0.42428587574E+03 -0.57637598607E+02 -0.47999151765E+03  0.64322037761E+03  0.50400001928E-02 0. -1.
       -1    1    3    3    0  502 -0.42428587574E+03  0.57637598607E+02  0.11555791392E+04  0.12323569873E+04  0.50400001928E-02 0.  1.
</event>
<event>
 5   0  0.4802635E-04  0.1990048E+04  0.7818609E-02  0.8611288E-01
       -2   -1    0    0    0  501  0.00000000000E+00  0.00000000000E+00  0.14424980472E+04  0.14424980472E+04  0.25500000920E-02 0.  1.
        2   -1    0    0  501    0  0.00000000000E+00  0.00000000000E+00 -0.68636017321E+03  0.68636017322E+03  0.25500000920E-02 0. -1.
    10030    2    1    2    0    0  0.00000000000E+00  0.00000000000E+00  0.75613787400E+03  0.21288582204E+04  0.19900484512E+04 0.  0.
        3    1    3    3  502    0 -0.15431991426E+03 -0.31947283664E+03  0.13725330871E+04  0.14176475637E+04  0.10100000352E+00 0.  1.
       -3    1    3    3    0  502  0.15431991426E+03  0.31947283664E+03 -0.61639521315E+03  0.71121065676E+03  0.10100000352E+00 0. -1.
</event>
<event>
 5   0  0.2261755E-04  0.1892763E+04  0.7818609E-02  0.8658467E-01
       -1   -1    0    0    0  501  0.00000000000E+00  0.00000000000E+00  0.71301904500E+03  0.71301904502E+03  0.50400001928E-02 0. -1.
        1   -1    0    0  501    0  0.00000000000E+00  0.00000000000E+00 -0.12561208657E+04  0.12561208657E+04  0.50400001928E-02 0.  1.
    10030    2    1    2    0    0  0.00000000000E+00  0.00000000000E+00 -0.54310182068E+03  0.19691399107E+04  0.18927631654E+04 0.  0.
        1    1    3    3  502    0 -0.53483979575E+03  0.78067995213E+03 -0.28310328211E+03  0.98775617595E+03  0.50400001928E-02 0. -1.
       -1    1    3    3    0  502  0.53483979575E+03 -0.78067995213E+03 -0.25999853858E+03  0.98138373476E+03  0.50400001928E-02 0.  1.
</event>
<event>
 5   0  0.2261755E-04  0.1846425E+04  0.7818609E-02  0.8681994E-01
       -1   -1    0    0    0  501  0.00000000000E+00  0.00000000000E+00  0.17331232443E+04  0.17331232444E+04  0.50400001928E-02 0. -1.
        1   -1    0    0  501    0  0.00000000000E+00  0.00000000000E+00 -0.49178318116E+03  0.49178318118E+03  0.50400001928E-02 0.  1.
    10030    2    1    2    0    0  0.00000000000E+00  0.00000000000E+00  0.12413400632E+04  0.22249064255E+04  0.18464245043E+04 0.  0.
        1    1    3    3  502    0 -0.14481978232E+02 -0.27610045605E+03 -0.44072581094E+03  0.52026957434E+03  0.50400001928E-02 0.  1.
       -1    1    3    3    0  502  0.14481978232E+02  0.27610045605E+03  0.16820658741E+04  0.17046368512E+04  0.50400001928E-02 0. -1.
</event>
<event>
 5   0  0.2317458E-04  0.1863177E+04  0.7818609E-02  0.8673406E-01
       -1   -1    0    0    0  501  0.00000000000E+00  0.00000000000E+00  0.10640725236E+04  0.10640725236E+04  0.50400001928E-02 0. -1.
        1   -1    0    0  501    0  0.00000000000E+00  0.00000000000E+00 -0.81559996675E+03  0.81559996676E+03  0.50400001928E-02 0.  1.
    10030    2    1    2    0    0  0.00000000000E+00  0.00000000000E+00  0.24847255685E+03  0.18796724904E+04  0.18631774096E+04 0.  0.
        3    1    3    3  502    0  0.33630440070E+02  0.28676488686E+03  0.10177934510E+04  0.10579549262E+04  0.10100000352E+00 0. -1.
       -3    1    3    3    0  502 -0.33630440070E+02 -0.28676488686E+03 -0.76932089416E+03  0.82171756414E+03  0.10100000352E+00 0.  1.
</event>
<event>
 5   0  0.2355414E-04  0.1906039E+04  0.7818609E-02  0.8651856E-01
        1   -1    0    0  501    0  0.00000000000E+00  0.00000000000E+00  0.13604120534E+04  0.13604120534E+04  0.50400001928E-02 0.  1.
       -1   -1    0    0    0  501  0.00000000000E+00  0.00000000000E+00 -0.66762559976E+03  0.66762559978E+03  0.50400001928E-02 0. -1.
    10030    2    1    2    0    0  0.00000000000E+00  0.00000000000E+00  0.69278645359E+03  0.20280376531E+04  0.19060387331E+04 0.  0.
        5    1    3    3  502    0 -0.24919963991E+03  0.65253574201E+03  0.10362112888E+04  0.12496636668E+04  0.46999998093E+01 0.  1.
       -5    1    3    3    0  502  0.24919963991E+03 -0.65253574201E+03 -0.34342483522E+03  0.77837398631E+03  0.46999998093E+01 0. -1.
</event>
<event>
 5   0  0.2355414E-04  0.2070063E+04  0.7818609E-02  0.8574547E-01
       -1   -1    0    0    0  501  0.00000000000E+00  0.00000000000E+00  0.16775126225E+04  0.16775126225E+04  0.50400001928E-02 0. -1.
        1   -1    0    0  501    0  0.00000000000E+00  0.00000000000E+00 -0.63861801447E+03  0.63861801449E+03  0.50400001928E-02 0.  1.
    10030    2    1    2    0    0  0.00000000000E+00  0.00000000000E+00  0.10388946080E+04  0.23161306370E+04  0.20700625887E+04 0.  0.
        5    1    3    3  502    0 -0.22505268273E+03 -0.32080706062E+03  0.15912883120E+04  0.16388369235E+04  0.46999998093E+01 0. -1.
       -5    1    3    3    0  502  0.22505268273E+03  0.32080706062E+03 -0.55239370394E+03  0.67729371346E+03  0.46999998093E+01 0.  1.
</event>
<event>
 5   0  0.4761944E-04  0.1925249E+04  0.7818609E-02  0.8642389E-01
       -2   -1    0    0    0  501  0.00000000000E+00  0.00000000000E+00  0.96890247421E+03  0.96890247421E+03  0.25500000920E-02 0.  1.
        2   -1    0    0  501    0  0.00000000000E+00  0.00000000000E+00 -0.95638735390E+03  0.95638735390E+03  0.25500000920E-02 0. -1.
    10030    2    1    2    0    0  0.00000000000E+00  0.00000000000E+00  0.12515120313E+02  0.19252898281E+04  0.19252491511E+04 0.  0.
        4    1    3    3  502    0  0.95539232081E+03  0.10157100154E+03 -0.53353309092E+02  0.96225742060E+03  0.12699999809E+01 0. -1.
       -4    1    3    3    0  502 -0.95539232081E+03 -0.10157100154E+03  0.65868429404E+02  0.96303240751E+03  0.12699999809E+01 0.  1.
</event>
<event>
 5   0  0.4973411E-04  0.1800420E+04  0.7818609E-02  0.8706076E-01
        2   -1    0    0  501    0  0.00000000000E+00  0.00000000000E+00  0.86303861445E+03  0.86303861446E+03  0.25500000920E-02 0.  1.
       -2   -1    0    0    0  501  0.00000000000E+00  0.00000000000E+00 -0.93898253956E+03  0.93898253957E+03  0.25500000920E-02 0. -1.
    10030    2    1    2    0    0  0.00000000000E+00  0.00000000000E+00 -0.75943925110E+02  0.18020211540E+04  0.18004201620E+04 0.  0.
        1    1    3    3  502    0  0.22242378929E+03 -0.20232446625E+03  0.81129340826E+03  0.86521935138E+03  0.50400001928E-02 0.  1.
       -1    1    3    3    0  502 -0.22242378929E+03  0.20232446625E+03 -0.88723733337E+03  0.93680180264E+03  0.50400001928E-02 0. -1.
</event>
<event>
 5   0  0.2376359E-04  0.1889927E+04  0.7818609E-02  0.8659887E-01
        1   -1    0    0  501    0  0.00000000000E+00  0.00000000000E+00  0.58958692802E+03  0.58958692804E+03  0.50400001928E-02 0.  1.
       -1   -1    0    0    0  501  0.00000000000E+00  0.00000000000E+00 -0.15145444633E+04  0.15145444633E+04  0.50400001928E-02 0. -1.
    10030    2    1    2    0    0  0.00000000000E+00  0.00000000000E+00 -0.92495753524E+03  0.21041313913E+04  0.18899265779E+04 0.  0.
        2    1    3    3  502    0 -0.42439879264E+03  0.76108855175E+03 -0.55560130672E+02  0.87318786462E+03  0.25500000920E-02 0.  1.
       -2    1    3    3    0  502  0.42439879264E+03 -0.76108855175E+03 -0.86939740457E+03  0.12309435267E+04  0.25500000920E-02 0. -1.
</event>
<event>
 5   0  0.4839293E-04  0.1768357E+04  0.7818609E-02  0.8723310E-01
        2   -1    0    0  501    0  0.00000000000E+00  0.00000000000E+00  0.18757294181E+04  0.18757294181E+04  0.25500000920E-02 0.  1.
       -2   -1    0    0    0  501  0.00000000000E+00  0.00000000000E+00 -0.41678276257E+03  0.41678276258E+03  0.25500000920E-02 0. -1.
    10030    2    1    2    0    0  0.00000000000E+00  0.00000000000E+00  0.14589466555E+04  0.22925121807E+04  0.17683570779E+04 0.  0.
        5    1    3    3  502    0 -0.86543814744E+03  0.28919448522E+01  0.49483405902E+03  0.99693248836E+03  0.46999998093E+01 0. -1.
       -5    1    3    3    0  502  0.86543814744E+03 -0.28919448522E+01  0.96411259648E+03  0.12955796923E+04  0.46999998093E+01 0.  1.
</event>
<event>
 5   0  0.2376359E-04  0.2411405E+04  0.7818609E-02  0.8435246E-01
        1   -1    0    0  501    0  0.00000000000E+00  0.00000000000E+00  0.10540559414E+04  0.10540559414E+04  0.50400001928E-02 0. -1.
       -1   -1    0    0    0  501  0.00000000000E+00  0.00000000000E+00 -0.13791661794E+04  0.13791661794E+04  0.50400001928E-02 0.  1.
    10030    2    1    2    0    0  0.00000000000E+00  0.00000000000E+00 -0.32511023802E+03  0.24332221208E+04  0.24114048234E+04 0.  0.
        2    1    3    3  502    0  0.11051574541E+04  0.12731173014E+03  0.30655653383E+03  0.11539316199E+04  0.25500000920E-02 0.  1.
       -2    1    3    3    0  502 -0.11051574541E+04 -0.12731173014E+03 -0.63166677185E+03  0.12792905009E+04  0.25500000920E-02 0. -1.
</event>
<event>
 5   0  0.4829134E-04  0.1787372E+04  0.7818609E-02  0.8713044E-01
       -2   -1    0    0    0  501  0.00000000000E+00  0.00000000000E+00  0.84298493315E+03  0.84298493315E+03  0.25500000920E-02 0.  1.
        2   -1    0    0  501    0  0.00000000000E+00  0.00000000000E+00 -0.94743697685E+03  0.94743697685E+03  0.25500000920E-02 0. -1.
    10030    2    1    2    0    0  0.00000000000E+00  0.00000000000E+00 -0.10445204370E+03  0.17904219100E+04  0.17873724812E+04 0.  0.
        2    1    3    3  502    0 -0.54514401668E+03 -0.70807069209E+03 -0.63602892824E+02  0.89587467422E+03  0.25500000920E-02 0. -1.
       -2    1    3    3    0  502  0.54514401668E+03  0.70807069209E+03 -0.40849150877E+02  0.89454723579E+03  0.25500000920E-02 0.  1.
</event>
<event>
 5   0  0.4802635E-04  0.1801253E+04  0.7818609E-02  0.8705634E-01
        2   -1    0    0  501    0  0.00000000000E+00  0.00000000000E+00  0.79304329029E+03  0.79304329029E+03  0.25500000920E-02 0.  1.
       -2   -1    0    0    0  501  0.00000000000E+00  0.00000000000E+00 -0.10228037659E+04  0.10228037659E+04  0.25500000920E-02 0. -1.
    10030    2    1    2    0    0  0.00000000000E+00  0.00000000000E+00 -0.22976047558E+03  0.18158470562E+04  0.18012525240E+04 0.  0.
        3    1    3    3  502    0 -0.67691825632E+03 -0.57359090668E+03  0.40977744449E+02  0.88820270193E+03  0.10100000352E+00 0.  1.
       -3    1    3    3    0  502  0.67691825632E+03  0.57359090668E+03 -0.27073822003E+03  0.92764435424E+03  0.10100000352E+00 0. -1.
</event>
<event>
 5   0  0.4973411E-04  0.1995271E+04  0.7818609E-02  0.8608835E-01
       -2   -1    0    0    0  501  0.00000000000E+00  0.00000000000E+00  0.58831969456E+03  0.58831969457E+03  0.25500000920E-02 0. -1.
        2   -1    0    0  501    0  0.00000000000E+00  0.00000000000E+00 -0.16917269712E+04  0.16917269712E+04  0.25500000920E-02 0.  1.
    10030    2    1    2    0    0  0.00000000000E+00  0.00000000000E+00 -0.11034072766E+04  0.22800466658E+04  0.19952707034E+04 0.  0.
        1    1    3    3  502    0  0.33490486187E+03 -0.66214932602E+03  0.21030945895E+03  0.77125421555E+03  0.50400001928E-02 0. -1.
       -1    1    3    3    0  502 -0.33490486187E+03  0.66214932602E+03 -0.13137167356E+04  0.15087924502E+04  0.50400001928E-02 0.  1.
</event>
<event>
 5   0  0.4761944E-04  0.1876392E+04  0.7818609E-02  0.8666698E-01
       -2   -1    0    0    0  501  0.00000000000E+00  0.00000000000E+00  0.41281500466E+03  0.41281500466E+03  0.25500000920E-02 0.  1.
        2   -1    0    0  501    0  0.00000000000E+00  0.00000000000E+00 -0.21322183100E+04  0.21322183100E+04  0.25500000920E-02 0. -1.
    10030    2    1    2    0    0  0.00000000000E+00  0.00000000000E+00 -0.17194033053E+04  0.25450333146E+04  0.18763919757E+04 0.  0.
        4    1    3    3  502    0 -0.43263413894E+03 -0.53747325988E+03 -0.17219785052E+04  0.18550637155E+04  0.12699999809E+01 0. -1.
       -4    1    3    3    0  502  0.43263413894E+03  0.53747325988E+03  0.25751998320E+01  0.68996959920E+03  0.12699999809E+01 0.  1.
</event>
<event>
 5   0  0.2355414E-04  0.1891831E+04  0.7818609E-02  0.8658933E-01
        1   -1    0    0  501    0  0.00000000000E+00  0.00000000000E+00  0.13785610466E+04  0.13785610466E+04  0.50400001928E-02 0. -1.
       -1   -1    0    0    0  501  0.00000000000E+00  0.00000000000E+00 -0.64905064439E+03  0.64905064441E+03  0.50400001928E-02 0.  1.
    10030    2    1    2    0    0  0.00000000000E+00  0.00000000000E+00  0.72951040219E+03  0.20276116910E+04  0.18918307912E+04 0.  0.
        5    1    3    3  502    0 -0.20671566292E+03 -0.87850486198E+03  0.61173590144E+02  0.90458081781E+03  0.46999998093E+01 0. -1.
       -5    1    3    3    0  502  0.20671566292E+03  0.87850486198E+03  0.66833681205E+03  0.11230308732E+04  0.46999998093E+01 0.  1.
</event>
<event>
 5   0  0.2510069E-04  0.1810108E+04  0.7818609E-02  0.8700943E-01
       -1   -1    0    0    0  501  0.00000000000E+00  0.00000000000E+00  0.86090030283E+03  0.86090030285E+03  0.50400001928E-02 0.  1.
        1   -1    0    0  501    0  0.00000000000E+00  0.00000000000E+00 -0.95147215600E+03  0.95147215601E+03  0.50400001928E-02 0. -1.
    10030    2    1    2    0    0  0.00000000000E+00  0.00000000000E+00 -0.90571853169E+02  0.18123724589E+04  0.18101079164E+04 0.  0.
        4    1    3    3  502    0  0.64822801167E+03  0.63127040204E+03 -0.24786457120E+02  0.90516178496E+03  0.12699999809E+01 0. -1.
       -4    1    3    3    0  502 -0.64822801167E+03 -0.63127040204E+03 -0.65785396049E+02  0.90721067390E+03  0.12699999809E+01 0.  1.
</event>
<event>
 5   0  0.1729375E-04  0.1854368E+04  0.7818609E-02  0.8677910E-01
       -3   -1    0    0    0  501  0.00000000000E+00  0.00000000000E+00  0.23626995540E+04  0.23626995562E+04  0.10100000352E+00 0.  1.
        3   -1    0    0  501    0  0.00000000000E+00  0.00000000000E+00 -0.36385061677E+03  0.36385063079E+03  0.10100000352E+00 0. -1.
    10030    2    1    2    0    0  0.00000000000E+00  0.00000000000E+00  0.19988489372E+04  0.27265501869E+04  0.18543675062E+04 0.  0.
        2    1    3    3  502    0  0.41196224578E+03  0.26984526054E+03 -0.15564913861E+03  0.51648427947E+03  0.25500000920E-02 0. -1.
       -2    1    3    3    0  502 -0.41196224578E+03 -0.26984526054E+03  0.21544980758E+04  0.22100659075E+04  0.25500000920E-02 0.  1.
</event>
<event>
 5   0  0.4802635E-04  0.1992187E+04  0.7818609E-02  0.8610282E-01
       -2   -1    0    0    0  501  0.00000000000E+00  0.00000000000E+00  0.49512425954E+03  0.49512425954E+03  0.25500000920E-02 0.  1.
        2   -1    0    0  501    0  0.00000000000E+00  0.00000000000E+00 -0.20039450079E+04  0.20039450079E+04  0.25500000920E-02 0. -1.
    10030    2    1    2    0    0  0.00000000000E+00  0.00000000000E+00 -0.15088207484E+04  0.24990692675E+04  0.19921865256E+04 0.  0.
        3    1    3    3  502    0  0.22460147368E+03  0.62360820818E+03 -0.16871476222E+04  0.18126776129E+04  0.10100000352E+00 0. -1.
       -3    1    3    3    0  502 -0.22460147368E+03 -0.62360820818E+03  0.17832687377E+03  0.68639165453E+03  0.10100000352E+00 0.  1.
</event>
<event>
 5   0  0.4829134E-04  0.1897983E+04  0.7818609E-02  0.8655861E-01
        2   -1    0    0  501    0  0.00000000000E+00  0.00000000000E+00  0.10857998494E+04  0.10857998494E+04  0.25500000920E-02 0.  1.
       -2   -1    0    0    0  501  0.00000000000E+00  0.00000000000E+00 -0.82942066771E+03  0.82942066771E+03  0.25500000920E-02 0. -1.
    10030    2    1    2    0    0  0.00000000000E+00  0.00000000000E+00  0.25637918169E+03  0.19152205171E+04  0.18979829674E+04 0.  0.
        2    1    3    3  502    0  0.47825357944E+03 -0.39689719894E+03  0.85187165625E+03  0.10544852732E+04  0.25500000920E-02 0.  1.
       -2    1    3    3    0  502 -0.47825357944E+03  0.39689719894E+03 -0.59549247456E+03  0.86073524387E+03  0.25500000920E-02 0. -1.
</event>
<event>
 5   0  0.4839293E-04  0.1679006E+04  0.7818609E-02  0.8773430E-01
        2   -1    0    0  501    0  0.00000000000E+00  0.00000000000E+00  0.67321338123E+03  0.67321338124E+03  0.25500000920E-02 0.  1.
       -2   -1    0    0    0  501  0.00000000000E+00  0.00000000000E+00 -0.10468673531E+04  0.10468673531E+04  0.25500000920E-02 0. -1.
    10030    2    1    2    0    0  0.00000000000E+00  0.00000000000E+00 -0.37365397184E+03  0.17200807343E+04  0.16790057897E+04 0.  0.
        5    1    3    3  502    0  0.50678793229E+03  0.40027376272E+03  0.36266196731E+03  0.74067461545E+03  0.46999998093E+01 0.  1.
       -5    1    3    3    0  502 -0.50678793229E+03 -0.40027376272E+03 -0.73631593916E+03  0.97940611887E+03  0.46999998093E+01 0. -1.
</event>
<event>
 5   0  0.2510069E-04  0.1569946E+04  0.7818609E-02  0.8839227E-01
       -1   -1    0    0    0  501  0.00000000000E+00  0.00000000000E+00  0.33916046853E+03  0.33916046856E+03  0.50400001928E-02 0.  1.
        1   -1    0    0  501    0  0.00000000000E+00  0.00000000000E+00 -0.18167879996E+04  0.18167879997E+04  0.50400001928E-02 0. -1.
    10030    2    1    2    0    0  0.00000000000E+00  0.00000000000E+00 -0.14776275311E+04  0.21559484682E+04  0.15699460745E+04 0.  0.
        4    1    3    3  502    0  0.20459571624E+03  0.75688586271E+03 -0.79102376418E+03  0.11137575251E+04  0.12699999809E+01 0. -1.
       -4    1    3    3    0  502 -0.20459571624E+03 -0.75688586271E+03 -0.68660376694E+03  0.10421909431E+04  0.12699999809E+01 0.  1.
</event>
<event>
 5   0  0.2261755E-04  0.1654233E+04  0.7818609E-02  0.8787906E-01
       -1   -1    0    0    0  501  0.00000000000E+00  0.00000000000E+00  0.10774493702E+04  0.10774493702E+04  0.50400001928E-02 0. -1.
        1   -1    0    0  501    0  0.00000000000E+00  0.00000000000E+00 -0.63494555122E+03  0.63494555124E+03  0.50400001928E-02 0.  1.
    10030    2    1    2    0    0  0.00000000000E+00  0.00000000000E+00  0.44250381896E+03  0.17123949214E+04  0.16542329755E+04 0.  0.
        1    1    3    3  502    0  0.42566412881E+03 -0.53349336524E+03  0.70492352354E+03  0.98118412919E+03  0.50400001928E-02 0. -1.
       -1    1    3    3    0  502 -0.42566412881E+03  0.53349336524E+03 -0.26241970458E+03  0.73121079224E+03  0.50400001928E-02 0.  1.
</event>
<event>
 5   0  0.4829134E-04  0.1910987E+04  0.7818609E-02  0.8649407E-01
       -2   -1    0    0    0  501  0.00000000000E+00  0.00000000000E+00  0.11683390962E+04  0.11683390962E+04  0.25500000920E-02 0.  1.
        2   -1    0    0  501    0  0.00000000000E+00  0.00000000000E+00 -0.78142357375E+03  0.78142357375E+03  0.25500000920E-02 0. -1.
    10030    2    1    2    0    0  0.00000000000E+00  0.00000000000E+00  0.38691552242E+03  0.19497626699E+04  0.19109868779E+04 0.  0.
        2    1    3    3  502    0  0.34592986153E+03 -0.49869430383E+03  0.94640501387E+03  0.11242979712E+04  0.25500000920E-02 0.  1.
       -2    1    3    3    0  502 -0.34592986153E+03  0.49869430383E+03 -0.55948949145E+03  0.82546469872E+03  0.25500000920E-02 0. -1.
</event>
<event>
 5   0  0.1729375E-04  0.1910618E+04  0.7818609E-02  0.8649589E-01
       -3   -1    0    0    0  501  0.00000000000E+00  0.00000000000E+00  0.18879593994E+04  0.18879594021E+04  0.10100000352E+00 0.  1.
        3   -1    0    0  501    0  0.00000000000E+00  0.00000000000E+00 -0.48338714412E+03  0.48338715467E+03  0.10100000352E+00 0. -1.
    10030    2    1    2    0    0  0.00000000000E+00  0.00000000000E+00  0.14045722553E+04  0.23713465568E+04  0.19106180341E+04 0.  0.
        5    1    3    3  502    0  0.68357927608E+02  0.86217734595E+03  0.19878860038E+03  0.88744666306E+03  0.46999998093E+01 0. -1.
       -5    1    3    3    0  502 -0.68357927608E+02 -0.86217734595E+03  0.12057836549E+04  0.14838998938E+04  0.46999998093E+01 0.  1.
</event>
<event>
 5   0  0.2510069E-04  0.1926441E+04  0.7818609E-02  0.8641806E-01
       -1   -1    0    0    0  501  0.00000000000E+00  0.00000000000E+00  0.81027452092E+03  0.81027452093E+03  0.50400001928E-02 0. -1.
        1   -1    0    0  501    0  0.00000000000E+00  0.00000000000E+00 -0.11450363659E+04  0.11450363660E+04  0.50400001928E-02 0.  1.
    10030    2    1    2    0    0  0.00000000000E+00  0.00000000000E+00 -0.33476184503E+03  0.19553108869E+04  0.19264410636E+04 0.  0.
        4    1    3    3  502    0  0.23938899032E+03 -0.93194308837E+03 -0.21239840285E+03  0.98536272666E+03  0.12699999809E+01 0. -1.
       -4    1    3    3    0  502 -0.23938899032E+03  0.93194308837E+03 -0.12236344218E+03  0.96994816023E+03  0.12699999809E+01 0.  1.
</event>
<event>
 5   0  0.4761944E-04  0.1865815E+04  0.7818609E-02  0.8672062E-01
        2   -1    0    0  501    0  0.00000000000E+00  0.00000000000E+00  0.15496655964E+04  0.15496655964E+04  0.25500000920E-02 0.  1.
       -2   -1    0    0    0  501  0.00000000000E+00  0.00000000000E+00 -0.56161579204E+03  0.56161579205E+03  0.25500000920E-02 0. -1.
    10030    2    1    2    0    0  0.00000000000E+00  0.00000000000E+00  0.98804980432E+03  0.21112813884E+04  0.18658152870E+04 0.  0.
        4    1    3    3  502    0 -0.21637916567E+03  0.78492108286E+03 -0.21293409673E+02  0.81447901867E+03  0.12699999809E+01 0. -1.
       -4    1    3    3    0  502  0.21637916567E+03 -0.78492108286E+03  0.10093432140E+04  0.12968023697E+04  0.12699999809E+01 0.  1.
</event>
<event>
 5   0  0.2355414E-04  0.1837159E+04  0.7818609E-02  0.8686785E-01
        1   -1    0    0  501    0  0.00000000000E+00  0.00000000000E+00  0.13941101817E+04  0.13941101817E+04  0.50400001928E-02 0.  1.
       -1   -1    0    0    0  501  0.00000000000E+00  0.00000000000E+00 -0.60525230728E+03  0.60525230730E+03  0.50400001928E-02 0. -1.
    10030    2    1    2    0    0  0.00000000000E+00  0.00000000000E+00  0.78885787440E+03  0.19993624890E+04  0.18371591157E+04 0.  0.
        5    1    3    3  502    0  0.66169523477E+02  0.77178688139E+03  0.93171040607E+03  0.12116681752E+04  0.46999998093E+01 0.  1.
       -5    1    3    3    0  502 -0.66169523477E+02 -0.77178688139E+03 -0.14285253167E+03  0.78769431375E+03  0.46999998093E+01 0. -1.
</event>
<event>
 5   0  0.4839293E-04  0.1936004E+04  0.7818609E-02  0.8637139E-01
       -2   -1    0    0    0  501  0.00000000000E+00  0.00000000000E+00  0.87695437542E+03  0.87695437543E+03  0.25500000920E-02 0. -1.
        2   -1    0    0  501    0  0.00000000000E+00  0.00000000000E+00 -0.10685025748E+04  0.10685025748E+04  0.25500000920E-02 0.  1.
    10030    2    1    2    0    0  0.00000000000E+00  0.00000000000E+00 -0.19154819938E+03  0.19454569502E+04  0.19360041406E+04 0.  0.
        5    1    3    3  502    0 -0.75713627455E+03 -0.54438106571E+03 -0.35665648732E+03  0.99841475494E+03  0.46999998093E+01 0.  1.
       -5    1    3    3    0  502  0.75713627455E+03  0.54438106571E+03  0.16510828793E+03  0.94704219530E+03  0.46999998093E+01 0. -1.
</event>
<event>
 5   0  0.4973411E-04  0.1910150E+04  0.7818609E-02  0.8649821E-01
        2   -1    0    0  501    0  0.00000000000E+00  0.00000000000E+00  0.10477671673E+04  0.10477671673E+04  0.25500000920E-02 0.  1.
       -2   -1    0    0    0  501  0.00000000000E+00  0.00000000000E+00 -0.87058275878E+03  0.87058275878E+03  0.25500000920E-02 0. -1.
    10030    2    1    2    0    0  0.00000000000E+00  0.00000000000E+00  0.17718440854E+03  0.19183499261E+04  0.19101497649E+04 0.  0.
        1    1    3    3  502    0 -0.50952918496E+03 -0.79848795694E+03  0.21144897899E+03  0.97052237401E+03  0.50400001928E-02 0. -1.
       -1    1    3    3    0  502  0.50952918496E+03  0.79848795694E+03 -0.34264570448E+02  0.94782755210E+03  0.50400001928E-02 0.  1.
</event>
<event>
 5   0  0.2317458E-04  0.1901414E+04  0.7818609E-02  0.8654153E-01
        1   -1    0    0  501    0  0.00000000000E+00  0.00000000000E+00  0.74291522782E+03  0.74291522783E+03  0.50400001928E-02 0. -1.
       -1   -1    0    0    0  501  0.00000000000E+00  0.00000000000E+00 -0.12166179599E+04  0.12166179599E+04  0.50400001928E-02 0.  1.
    10030    2    1    2    0    0  0.00000000000E+00  0.00000000000E+00 -0.47370273209E+03  0.19595331877E+04  0.19014142199E+04 0.  0.
        3    1    3    3  502    0  0.20980625861E+03 -0.19971968236E+03  0.69633036723E+03  0.75417677516E+03  0.10100000352E+00 0. -1.
       -3    1    3    3    0  502 -0.20980625861E+03  0.19971968236E+03 -0.11700330993E+04  0.12053564126E+04  0.10100000352E+00 0.  1.
</event>
<event>
 5   0  0.2510069E-04  0.1861233E+04  0.7818609E-02  0.8674398E-01
       -1   -1    0    0    0  501  0.00000000000E+00  0.00000000000E+00  0.56813011507E+03  0.56813011510E+03  0.50400001928E-02 0. -1.
        1   -1    0    0  501    0  0.00000000000E+00  0.00000000000E+00 -0.15243812621E+04  0.15243812621E+04  0.50400001928E-02 0.  1.
    10030    2    1    2    0    0  0.00000000000E+00  0.00000000000E+00 -0.95625114706E+03  0.20925113772E+04  0.18612328193E+04 0.  0.
        4    1    3    3  502    0  0.44631959670E+03 -0.70786915079E+03 -0.93586047972E+03  0.12554347325E+04  0.12699999809E+01 0.  1.
       -4    1    3    3    0  502 -0.44631959670E+03  0.70786915079E+03 -0.20390667341E+02  0.83707664479E+03  0.12699999809E+01 0. -1.
</event>
<event>
 5   0  0.2510069E-04  0.1962812E+04  0.7818609E-02  0.8624207E-01
        1   -1    0    0  501    0  0.00000000000E+00  0.00000000000E+00  0.96293337324E+03  0.96293337325E+03  0.50400001928E-02 0. -1.
       -1   -1    0    0    0  501  0.00000000000E+00  0.00000000000E+00 -0.10002332289E+04  0.10002332289E+04  0.50400001928E-02 0.  1.
    10030    2    1    2    0    0  0.00000000000E+00  0.00000000000E+00 -0.37299855678E+02  0.19631666022E+04  0.19628122245E+04 0.  0.
        4    1    3    3  502    0  0.46426700195E+03  0.67340687163E+03  0.52379076015E+03  0.97127701361E+03  0.12699999809E+01 0. -1.
       -4    1    3    3    0  502 -0.46426700195E+03 -0.67340687163E+03 -0.56109061583E+03  0.99188958857E+03  0.12699999809E+01 0.  1.
</event>
<event>
 5   0  0.2510069E-04  0.1891051E+04  0.7818609E-02  0.8659324E-01
       -1   -1    0    0    0  501  0.00000000000E+00  0.00000000000E+00  0.48850607385E+03  0.48850607387E+03  0.50400001928E-02 0. -1.
        1   -1    0    0  501    0  0.00000000000E+00  0.00000000000E+00 -0.18301063945E+04  0.18301063945E+04  0.50400001928E-02 0.  1.
    10030    2    1    2    0    0  0.00000000000E+00  0.00000000000E+00 -0.13416003206E+04  0.23186124684E+04  0.18910505964E+04 0.  0.
        4    1    3    3  502    0 -0.10748764263E+03  0.65669551265E+03  0.15279966687E+03  0.68275320633E+03  0.12699999809E+01 0.  1.
       -4    1    3    3    0  502  0.10748764263E+03 -0.65669551265E+03 -0.14943999875E+04  0.16358592620E+04  0.12699999809E+01 0. -1.
</event>
<event>
 5   0  0.2317458E-04  0.1686708E+04  0.7818609E-02  0.8768982E-01
       -1   -1    0    0    0  501  0.00000000000E+00  0.00000000000E+00  0.71361091485E+03  0.71361091487E+03  0.50400001928E-02 0. -1.
        1   -1    0    0  501    0  0.00000000000E+00  0.00000000000E+00 -0.99668577988E+03  0.99668577989E+03  0.50400001928E-02 0.  1.
    10030    2    1    2    0    0  0.00000000000E+00  0.00000000000E+00 -0.28307486503E+03  0.17102966948E+04  0.16867078600E+04 0.  0.
        3    1    3    3  502    0 -0.13915345191E+03  0.70687458395E+03  0.30301206101E+03  0.78157000962E+03  0.10100000352E+00 0. -1.
       -3    1    3    3    0  502  0.13915345191E+03 -0.70687458395E+03 -0.58608692604E+03  0.92872668514E+03  0.10100000352E+00 0.  1.
</event>
<event>
 5   0  0.4839293E-04  0.1805116E+04  0.7818609E-02  0.8703584E-01
        2   -1    0    0  501    0  0.00000000000E+00  0.00000000000E+00  0.14712130160E+04  0.14712130160E+04  0.25500000920E-02 0.  1.
       -2   -1    0    0    0  501  0.00000000000E+00  0.00000000000E+00 -0.55370000963E+03  0.55370000963E+03  0.25500000920E-02 0. -1.
    10030    2    1    2    0    0  0.00000000000E+00  0.00000000000E+00  0.91751300638E+03  0.20249130256E+04  0.18051156873E+04 0.  0.
        5    1    3    3  502    0 -0.62072339664E+03 -0.94434292453E+02  0.11860653063E+04  0.13420090803E+04  0.46999998093E+01 0.  1.
       -5    1    3    3    0  502  0.62072339664E+03  0.94434292453E+02 -0.26855229997E+03  0.68290394533E+03  0.46999998093E+01 0. -1.
</event>
<event>
 5   0  0.4829134E-04  0.1886600E+04  0.7818609E-02  0.8661555E-01
       -2   -1    0    0    0  501  0.00000000000E+00  0.00000000000E+00  0.60471310086E+03  0.60471310087E+03  0.25500000920E-02 0.  1.
        2   -1    0    0  501    0  0.00000000000E+00  0.00000000000E+00 -0.14714661647E+04  0.14714661647E+04  0.25500000920E-02 0. -1.
    10030    2    1    2    0    0  0.00000000000E+00  0.00000000000E+00 -0.86675306387E+03  0.20761792656E+04  0.18865999759E+04 0.  0.
        2    1    3    3  502    0 -0.34138445117E+03 -0.66553799905E+03 -0.10658750188E+04  0.13021419767E+04  0.25500000920E-02 0.  1.
       -2    1    3    3    0  502  0.34138445117E+03  0.66553799905E+03  0.19912195496E+03  0.77403728892E+03  0.25500000920E-02 0. -1.
</event>
<event>
 5   0  0.2376359E-04  0.1825533E+04  0.7818609E-02  0.8692838E-01
       -1   -1    0    0    0  501  0.00000000000E+00  0.00000000000E+00  0.26935733421E+03  0.26935733426E+03  0.50400001928E-02 0.  1.
        1   -1    0    0  501    0  0.00000000000E+00  0.00000000000E+00 -0.30930751469E+04  0.30930751469E+04  0.50400001928E-02 0. -1.
    10030    2    1    2    0    0  0.00000000000E+00  0.00000000000E+00 -0.28237178126E+04  0.33624324811E+04  0.18255327728E+04 0.  0.
        2    1    3    3  502    0 -0.40333148496E+03 -0.38671411492E+02  0.94635385000E+02  0.41608607395E+03  0.25500000920E-02 0.  1.
       -2    1    3    3    0  502  0.40333148496E+03  0.38671411492E+02 -0.29183531976E+04  0.29463464072E+04  0.25500000920E-02 0. -1.
</event>
<event>
 5   0  0.2261755E-04  0.1868897E+04  0.7818609E-02  0.8670495E-01
        1   -1    0    0  501    0  0.00000000000E+00  0.00000000000E+00  0.11136291757E+04  0.11136291757E+04  0.50400001928E-02 0.  1.
       -1   -1    0    0    0  501  0.00000000000E+00  0.00000000000E+00 -0.78409722448E+03  0.78409722450E+03  0.50400001928E-02 0. -1.
    10030    2    1    2    0    0  0.00000000000E+00  0.00000000000E+00  0.32953195119E+03  0.18977264002E+04  0.18688965148E+04 0.  0.
        1    1    3    3  502    0 -0.61903970273E+03 -0.64580349420E+03  0.43897097261E+03  0.99647770748E+03  0.50400001928E-02 0.  1.
       -1    1    3    3    0  502  0.61903970273E+03  0.64580349420E+03 -0.10943902142E+03  0.90124869271E+03  0.50400001928E-02 0. -1.
</event>
<event>
 5   0  0.2317458E-04  0.1552708E+04  0.7818609E-02  0.8850140E-01
        1   -1    0    0  501    0  0.00000000000E+00  0.00000000000E+00  0.81912770458E+03  0.81912770460E+03  0.50400001928E-02 0.  1.
       -1   -1    0    0    0  501  0.00000000000E+00  0.00000000000E+00 -0.73581401908E+03  0.73581401910E+03  0.50400001928E-02 0. -1.
    10030    2    1    2    0    0  0.00000000000E+00  0.00000000000E+00  0.83313685501E+02  0.15549417237E+04  0.15527081483E+04 0.  0.
        3    1    3    3  502    0  0.55001477887E+03 -0.11334066960E+03  0.57849072248E+03  0.80623438934E+03  0.10100000352E+00 0.  1.
       -3    1    3    3    0  502 -0.55001477887E+03  0.11334066960E+03 -0.49517703698E+03  0.74870733435E+03  0.10100000352E+00 0. -1.
</event>
<event>
 5   0  0.2261755E-04  0.1921280E+04  0.7818609E-02  0.8644336E-01
        1   -1    0    0  501    0  0.00000000000E+00  0.00000000000E+00  0.10490572369E+04  0.10490572369E+04  0.50400001928E-02 0. -1.
       -1   -1    0    0    0  501  0.00000000000E+00  0.00000000000E+00 -0.87967480957E+03  0.87967480959E+03  0.50400001928E-02 0.  1.
    10030    2    1    2    0    0  0.00000000000E+00  0.00000000000E+00  0.16938242735E+03  0.19287320465E+04  0.19212800162E+04 0.  0.
        1    1    3    3  502    0  0.26368153071E+03  0.29281565446E+03  0.96419451474E+03  0.10416045408E+04  0.50400001928E-02 0. -1.
       -1    1    3    3    0  502 -0.26368153071E+03 -0.29281565446E+03 -0.79481208739E+03  0.88712750573E+03  0.50400001928E-02 0.  1.
</event>
<event>
 5   0  0.2510069E-04  0.1929566E+04  0.7818609E-02  0.8640278E-01
        1   -1    0    0  501    0  0.00000000000E+00  0.00000000000E+00  0.13135441570E+04  0.13135441570E+04  0.50400001928E-02 0. -1.
       -1   -1    0    0    0  501  0.00000000000E+00  0.00000000000E+00 -0.70862214422E+03  0.70862214423E+03  0.50400001928E-02 0.  1.
    10030    2    1    2    0    0  0.00000000000E+00  0.00000000000E+00  0.60492201275E+03  0.20221663012E+04  0.19295662487E+04 0.  0.
        4    1    3    3  502    0 -0.60799745976E+03 -0.64448642264E+03 -0.97675283755E+02  0.89138416746E+03  0.12699999809E+01 0.  1.
       -4    1    3    3    0  502  0.60799745976E+03  0.64448642264E+03  0.70259729651E+03  0.11307821337E+04  0.12699999809E+01 0. -1.
</event>
<event>
 5   0  0.2510069E-04  0.1833844E+04  0.7818609E-02  0.8688506E-01
        1   -1    0    0  501    0  0.00000000000E+00  0.00000000000E+00  0.13421640211E+04  0.13421640211E+04  0.50400001928E-02 0. -1.
       -1   -1    0    0    0  501  0.00000000000E+00  0.00000000000E+00 -0.62641098941E+03  0.62641098943E+03  0.50400001928E-02 0.  1.
    10030    2    1    2    0    0  0.00000000000E+00  0.00000000000E+00  0.71575303169E+03  0.19685750105E+04  0.18338443690E+04 0.  0.
        4    1    3    3  502    0 -0.17209612450E+03  0.57189275005E+03  0.11047411753E+04  0.12558395881E+04  0.12699999809E+01 0. -1.
       -4    1    3    3    0  502  0.17209612450E+03 -0.57189275005E+03 -0.38898814364E+03  0.71273542246E+03  0.12699999809E+01 0.  1.
</event>
<event>
 5   0  0.2317458E-04  0.1915199E+04  0.7818609E-02  0.8647328E-01
        1   -1    0    0  501    0  0.00000000000E+00  0.00000000000E+00  0.14641160680E+04  0.14641160680E+04  0.50400001928E-02 0. -1.
       -1   -1    0    0    0  501  0.00000000000E+00  0.00000000000E+00 -0.62631401904E+03  0.62631401906E+03  0.50400001928E-02 0.  1.
    10030    2    1    2    0    0  0.00000000000E+00  0.00000000000E+00  0.83780204894E+03  0.20904300870E+04  0.19151985995E+04 0.  0.
        3    1    3    3  502    0 -0.45261859981E+02 -0.56630377045E+03  0.12603070693E+04  0.13824335483E+04  0.10100000352E+00 0. -1.
       -3    1    3    3    0  502  0.45261859981E+02  0.56630377045E+03 -0.42250502037E+03  0.70799653871E+03  0.10100000352E+00 0.  1.
</event>
<event>
 5   0  0.4829134E-04  0.1832402E+04  0.7818609E-02  0.8689256E-01
        2   -1    0    0  501    0  0.00000000000E+00  0.00000000000E+00  0.83909738311E+03  0.83909738311E+03  0.25500000920E-02 0. -1.
       -2   -1    0    0    0  501  0.00000000000E+00  0.00000000000E+00 -0.10003899572E+04  0.10003899572E+04  0.25500000920E-02 0.  1.
    10030    2    1    2    0    0  0.00000000000E+00  0.00000000000E+00 -0.16129257409E+03  0.18394873403E+04  0.18324023523E+04 0.  0.
        2    1    3    3  502    0 -0.46707557112E+02 -0.78733889134E+03  0.38735415478E+03  0.87870778245E+03  0.25500000920E-02 0. -1.
       -2    1    3    3    0  502  0.46707557112E+02  0.78733889134E+03 -0.54864672887E+03  0.96077955787E+03  0.25500000920E-02 0.  1.
</event>
<event>
 5   0  0.2355414E-04  0.1764577E+04  0.7818609E-02  0.8725367E-01
        1   -1    0    0  501    0  0.00000000000E+00  0.00000000000E+00  0.62332964959E+03  0.62332964961E+03  0.50400001928E-02 0. -1.
       -1   -1    0    0    0  501  0.00000000000E+00  0.00000000000E+00 -0.12488297994E+04  0.12488297994E+04  0.50400001928E-02 0.  1.
    10030    2    1    2    0    0  0.00000000000E+00  0.00000000000E+00 -0.62550014978E+03  0.18721594490E+04  0.17645765965E+04 0.  0.
        5    1    3    3  502    0 -0.22811581349E+03 -0.29570194978E+03  0.53531728257E+03  0.65273513042E+03  0.46999998093E+01 0. -1.
       -5    1    3    3    0  502  0.22811581349E+03  0.29570194978E+03 -0.11608174324E+04  0.12194243186E+04  0.46999998093E+01 0.  1.
</event>
<event>
 5   0  0.4973411E-04  0.1997890E+04  0.7818609E-02  0.8607608E-01
       -2   -1    0    0    0  501  0.00000000000E+00  0.00000000000E+00  0.91472032794E+03  0.91472032794E+03  0.25500000920E-02 0.  1.
        2   -1    0    0  501    0  0.00000000000E+00  0.00000000000E+00 -0.10909252954E+04  0.10909252954E+04  0.25500000920E-02 0. -1.
    10030    2    1    2    0    0  0.00000000000E+00  0.00000000000E+00 -0.17620496749E+03  0.20056456234E+04  0.19978904314E+04 0.  0.
        1    1    3    3  502    0  0.40502227054E+02  0.30394981603E+03 -0.10425113557E+04  0.10866719136E+04  0.50400001928E-02 0. -1.
       -1    1    3    3    0  502 -0.40502227054E+02 -0.30394981603E+03  0.86630638817E+03  0.91897370978E+03  0.50400001928E-02 0.  1.
</event>
<event>
 5   0  0.2317458E-04  0.1140532E+04  0.7818609E-02  0.9166563E-01
        1   -1    0    0  501    0  0.00000000000E+00  0.00000000000E+00  0.14151463523E+04  0.14151463523E+04  0.50400001928E-02 0. -1.
       -1   -1    0    0    0  501  0.00000000000E+00  0.00000000000E+00 -0.22980185002E+03  0.22980185008E+03  0.50400001928E-02 0.  1.
    10030    2    1    2    0    0  0.00000000000E+00  0.00000000000E+00  0.11853445023E+04  0.16449482024E+04  0.11405318932E+04 0.  0.
        3    1    3    3  502    0  0.31971895430E+03  0.92798838284E+02 -0.75099772960E+02  0.34127968036E+03  0.10100000352E+00 0.  1.
       -3    1    3    3    0  502 -0.31971895430E+03 -0.92798838284E+02  0.12604442753E+04  0.13036685221E+04  0.10100000352E+00 0. -1.
</event>
<event>
 5   0  0.4973411E-04  0.1936412E+04  0.7818609E-02  0.8636941E-01
        2   -1    0    0  501    0  0.00000000000E+00  0.00000000000E+00  0.15818120627E+04  0.15818120627E+04  0.25500000920E-02 0. -1.
       -2   -1    0    0    0  501  0.00000000000E+00  0.00000000000E+00 -0.59262589723E+03  0.59262589723E+03  0.25500000920E-02 0.  1.
    10030    2    1    2    0    0  0.00000000000E+00  0.00000000000E+00  0.98918616551E+03  0.21744379600E+04  0.19364119323E+04 0.  0.
        1    1    3    3  502    0  0.22558159072E+03 -0.11925075238E+03  0.15433768103E+04  0.15643272595E+04  0.50400001928E-02 0. -1.
       -1    1    3    3    0  502 -0.22558159072E+03  0.11925075238E+03 -0.55419064483E+03  0.61011070050E+03  0.50400001928E-02 0.  1.
</event>
<event>
 5   0  0.2261755E-04  0.1881191E+04  0.7818609E-02  0.8664276E-01
       -1   -1    0    0    0  501  0.00000000000E+00  0.00000000000E+00  0.11756635599E+04  0.11756635599E+04  0.50400001928E-02 0.  1.
        1   -1    0    0  501    0  0.00000000000E+00  0.00000000000E+00 -0.75252815265E+03  0.75252815266E+03  0.50400001928E-02 0. -1.
    10030    2    1    2    0    0  0.00000000000E+00  0.00000000000E+00  0.42313540724E+03  0.19281917126E+04  0.18811910343E+04 0.  0.
        1    1    3    3  502    0  0.28696654131E+03  0.88232359229E+03  0.53191143008E+02  0.92934063457E+03  0.50400001928E-02 0.  1.
       -1    1    3    3    0  502 -0.28696654131E+03 -0.88232359229E+03  0.36994426424E+03  0.99885107799E+03  0.50400001928E-02 0. -1.
</event>
<event>
 5   0  0.4839293E-04  0.1929707E+04  0.7818609E-02  0.8640209E-01
        2   -1    0    0  501    0  0.00000000000E+00  0.00000000000E+00  0.95053301798E+03  0.95053301798E+03  0.25500000920E-02 0. -1.
       -2   -1    0    0    0  501  0.00000000000E+00  0.00000000000E+00 -0.97938934443E+03  0.97938934443E+03  0.25500000920E-02 0.  1.
    10030    2    1    2    0    0  0.00000000000E+00  0.00000000000E+00 -0.28856326451E+02  0.19299223624E+04  0.19297066195E+04 0.  0.
        5    1    3    3  502    0 -0.43004211549E+03  0.39111614621E+03  0.75573049855E+03  0.95344571810E+03  0.46999998093E+01 0. -1.
       -5    1    3    3    0  502  0.43004211549E+03 -0.39111614621E+03 -0.78458682500E+03  0.97647664431E+03  0.46999998093E+01 0.  1.
</event>
<event>
 5   0  0.2376359E-04  0.1900843E+04  0.7818609E-02  0.8654437E-01
       -1   -1    0    0    0  501  0.00000000000E+00  0.00000000000E+00  0.81429624704E+03  0.81429624706E+03  0.50400001928E-02 0.  1.
        1   -1    0    0  501    0  0.00000000000E+00  0.00000000000E+00 -0.11093025227E+04  0.11093025227E+04  0.50400001928E-02 0. -1.
    10030    2    1    2    0    0  0.00000000000E+00  0.00000000000E+00 -0.29500627567E+03  0.19235987698E+04  0.19008428458E+04 0.  0.
        2    1    3    3  502    0 -0.44868634754E+03 -0.12500942078E+03  0.69087972074E+03  0.83322360881E+03  0.25500000920E-02 0.  1.
       -2    1    3    3    0  502  0.44868634754E+03  0.12500942078E+03 -0.98588599640E+03  0.10903751610E+04  0.25500000920E-02 0. -1.
</event>
<event>
 5   0  0.4802635E-04  0.1398123E+04  0.7818609E-02  0.8955178E-01
        2   -1    0    0  501    0  0.00000000000E+00  0.00000000000E+00  0.85758290711E+03  0.85758290711E+03  0.25500000920E-02 0. -1.
       -2   -1    0    0    0  501  0.00000000000E+00  0.00000000000E+00 -0.56984245030E+03  0.56984245031E+03  0.25500000920E-02 0.  1.
    10030    2    1    2    0    0  0.00000000000E+00  0.00000000000E+00  0.28774045681E+03  0.14274253574E+04  0.13981232351E+04 0.  0.
        3    1    3    3  502    0 -0.41942153781E+03  0.33160004171E+03 -0.31591715387E+03  0.62102872104E+03  0.10100000352E+00 0.  1.
       -3    1    3    3    0  502  0.41942153781E+03 -0.33160004171E+03  0.60365761068E+03  0.80639663638E+03  0.10100000352E+00 0. -1.
</event>
<event>
 5   0  0.4829134E-04  0.1850217E+04  0.7818609E-02  0.8680041E-01
        2   -1    0    0  501    0  0.00000000000E+00  0.00000000000E+00  0.91029421369E+03  0.91029421369E+03  0.25500000920E-02 0.  1.
       -2   -1    0    0    0  501  0.00000000000E+00  0.00000000000E+00 -0.94016429070E+03  0.94016429070E+03  0.25500000920E-02 0. -1.
    10030    2    1    2    0    0  0.00000000000E+00  0.00000000000E+00 -0.29870077012E+02  0.18504585044E+04  0.18502174075E+04 0.  0.
        2    1    3    3  502    0 -0.59070192927E+03  0.43489297306E+03 -0.57871537357E+03  0.93432978700E+03  0.25500000920E-02 0. -1.
       -2    1    3    3    0  502  0.59070192927E+03 -0.43489297306E+03  0.54884529656E+03  0.91612871739E+03  0.25500000920E-02 0.  1.
</event>
<event>
 5   0  0.2376359E-04  0.1918945E+04  0.7818609E-02  0.8645483E-01
        1   -1    0    0  501    0  0.00000000000E+00  0.00000000000E+00  0.92039393020E+03  0.92039393021E+03  0.50400001928E-02 0. -1.
       -1   -1    0    0    0  501  0.00000000000E+00  0.00000000000E+00 -0.10002104890E+04  0.10002104890E+04  0.50400001928E-02 0.  1.
    10030    2    1    2    0    0  0.00000000000E+00  0.00000000000E+00 -0.79816558795E+02  0.19206044192E+04  0.19189451926E+04 0.  0.
        2    1    3    3  502    0 -0.15451493178E+03 -0.29122111521E+02 -0.98722797204E+03  0.99967096103E+03  0.25500000920E-02 0.  1.
       -2    1    3    3    0  502  0.15451493178E+03  0.29122111521E+02  0.90741141325E+03  0.92093345820E+03  0.25500000920E-02 0. -1.
</event>
<event>
 5   0  0.4839293E-04  0.1917168E+04  0.7818609E-02  0.8646358E-01
        2   -1    0    0  501    0  0.00000000000E+00  0.00000000000E+00  0.14492791339E+04  0.14492791339E+04  0.25500000920E-02 0.  1.
       -2   -1    0    0    0  501  0.00000000000E+00  0.00000000000E+00 -0.63402756414E+03  0.63402756415E+03  0.25500000920E-02 0. -1.
    10030    2    1    2    0    0  0.00000000000E+00  0.00000000000E+00  0.81525156971E+03  0.20833066980E+04  0.19171676181E+04 0.  0.
        5    1    3    3  502    0 -0.18772645906E+03  0.30906073627E+03 -0.55705601039E+03  0.66414851565E+03  0.46999998093E+01 0. -1.
       -5    1    3    3    0  502  0.18772645906E+03 -0.30906073627E+03  0.13723075801E+04  0.14191581824E+04  0.46999998093E+01 0.  1.
</event>
<event>
 5   0  0.4839293E-04  0.1881534E+04  0.7818609E-02  0.8664103E-01
       -2   -1    0    0    0  501  0.00000000000E+00  0.00000000000E+00  0.80815127561E+03  0.80815127561E+03  0.25500000920E-02 0.  1.
        2   -1    0    0  501    0  0.00000000000E+00  0.00000000000E+00 -0.10951450803E+04  0.10951450803E+04  0.25500000920E-02 0. -1.
    10030    2    1    2    0    0  0.00000000000E+00  0.00000000000E+00 -0.28699380468E+03  0.19032963559E+04  0.18815343671E+04 0.  0.
        5    1    3    3  502    0 -0.66383156030E+03 -0.35642022885E+02  0.52984308693E+03  0.85011674552E+03  0.46999998093E+01 0.  1.
       -5    1    3    3    0  502  0.66383156030E+03  0.35642022885E+02 -0.81683689161E+03  0.10531796104E+04  0.46999998093E+01 0. -1.
</event>
<event>
 5   0  0.4802635E-04  0.1822813E+04  0.7818609E-02  0.8694261E-01
       -2   -1    0    0    0  501  0.00000000000E+00  0.00000000000E+00  0.12708678757E+04  0.12708678757E+04  0.25500000920E-02 0. -1.
        2   -1    0    0  501    0  0.00000000000E+00  0.00000000000E+00 -0.65361788788E+03  0.65361788789E+03  0.25500000920E-02 0.  1.
    10030    2    1    2    0    0  0.00000000000E+00  0.00000000000E+00  0.61724998786E+03  0.19244857636E+04  0.18228131849E+04 0.  0.
        3    1    3    3  502    0 -0.27607339534E+03 -0.25216076068E+02  0.12252746344E+04  0.12562445264E+04  0.10100000352E+00 0. -1.
       -3    1    3    3    0  502  0.27607339534E+03  0.25216076068E+02 -0.60802464657E+03  0.66824123724E+03  0.10100000352E+00 0.  1.
</event>
<event>
 5   0  0.4973411E-04  0.1897586E+04  0.7818609E-02  0.8656059E-01
        2   -1    0    0  501    0  0.00000000000E+00  0.00000000000E+00  0.98354185382E+03  0.98354185383E+03  0.25500000920E-02 0.  1.
       -2   -1    0    0    0  501  0.00000000000E+00  0.00000000000E+00 -0.91527228346E+03  0.91527228347E+03  0.25500000920E-02 0. -1.
    10030    2    1    2    0    0  0.00000000000E+00  0.00000000000E+00  0.68269570362E+02  0.18988141373E+04  0.18975864654E+04 0.  0.
        1    1    3    3  502    0 -0.48178410208E+03  0.98090524565E+01  0.85197406036E+03  0.97881149262E+03  0.50400001928E-02 0.  1.
       -1    1    3    3    0  502  0.48178410208E+03 -0.98090524565E+01 -0.78370449000E+03  0.92000264467E+03  0.50400001928E-02 0. -1.
</event>
<event>
 5   0  0.2355414E-04  0.1911426E+04  0.7818609E-02  0.8649190E-01
       -1   -1    0    0    0  501  0.00000000000E+00  0.00000000000E+00  0.10874304123E+04  0.10874304123E+04  0.50400001928E-02 0.  1.
        1   -1    0    0  501    0  0.00000000000E+00  0.00000000000E+00 -0.83995002890E+03  0.83995002891E+03  0.50400001928E-02 0. -1.
    10030    2    1    2    0    0  0.00000000000E+00  0.00000000000E+00  0.24748038342E+03  0.19273804412E+04  0.19114258618E+04 0.  0.
        5    1    3    3  502    0  0.32016187734E+03 -0.88781489253E+03  0.27548285722E+03  0.98317435164E+03  0.46999998093E+01 0. -1.
       -5    1    3    3    0  502 -0.32016187734E+03  0.88781489253E+03 -0.28002473802E+02  0.94420608960E+03  0.46999998093E+01 0.  1.
</event>
<event>
 5   0  0.2261755E-04  0.1763532E+04  0.7818609E-02  0.8725937E-01
       -1   -1    0    0    0  501  0.00000000000E+00  0.00000000000E+00  0.73346425572E+03  0.73346425574E+03  0.50400001928E-02 0.  1.
        1   -1    0    0  501    0  0.00000000000E+00  0.00000000000E+00 -0.10600536387E+04  0.10600536387E+04  0.50400001928E-02 0. -1.
    10030    2    1    2    0    0  0.00000000000E+00  0.00000000000E+00 -0.32658938294E+03  0.17935178944E+04  0.17635321978E+04 0.  0.
        1    1    3    3  502    0 -0.25975637396E+03  0.47725516839E+03 -0.86955606691E+03  0.10253651170E+04  0.50400001928E-02 0. -1.
       -1    1    3    3    0  502  0.25975637396E+03 -0.47725516839E+03  0.54296668397E+03  0.76815277745E+03  0.50400001928E-02 0.  1.
</event>
<event>
 5   0  0.4829134E-04  0.1912747E+04  0.7818609E-02  0.8648537E-01
       -2   -1    0    0    0  501  0.00000000000E+00  0.00000000000E+00  0.66698803409E+03  0.66698803410E+03  0.25500000920E-02 0.  1.
        2   -1    0    0  501    0  0.00000000000E+00  0.00000000000E+00 -0.13713143530E+04  0.13713143530E+04  0.25500000920E-02 0. -1.
    10030    2    1    2    0    0  0.00000000000E+00  0.00000000000E+00 -0.70432631887E+03  0.20383023871E+04  0.19127469926E+04 0.  0.
        2    1    3    3  502    0 -0.61220958374E+03 -0.51171312504E+00  0.43081096193E+03  0.74859797034E+03  0.25500000920E-02 0.  1.
       -2    1    3    3    0  502  0.61220958374E+03  0.51171312504E+00 -0.11351372808E+04  0.12897044167E+04  0.25500000920E-02 0. -1.
</event>
<event>
 5   0  0.2376359E-04  0.1875119E+04  0.7818609E-02  0.8667341E-01
       -1   -1    0    0    0  501  0.00000000000E+00  0.00000000000E+00  0.10154291212E+04  0.10154291212E+04  0.50400001928E-02 0.  1.
        1   -1    0    0  501    0  0.00000000000E+00  0.00000000000E+00 -0.86566123037E+03  0.86566123039E+03  0.50400001928E-02 0. -1.
    10030    2    1    2    0    0  0.00000000000E+00  0.00000000000E+00  0.14976789083E+03  0.18810903516E+04  0.18751187935E+04 0.  0.
        2    1    3    3  502    0 -0.13682498127E+03 -0.85253207514E+03 -0.29163640315E+03  0.91136370692E+03  0.25500000920E-02 0. -1.
       -2    1    3    3    0  502  0.13682498127E+03  0.85253207514E+03  0.44140429398E+03  0.96972664468E+03  0.25500000920E-02 0.  1.
</event>
<event>
 5   0  0.4802635E-04  0.2283114E+04  0.7818609E-02  0.8484609E-01
        2   -1    0    0  501    0  0.00000000000E+00  0.00000000000E+00  0.15604272694E+04  0.15604272694E+04  0.25500000920E-02 0. -1.
       -2   -1    0    0    0  501  0.00000000000E+00  0.00000000000E+00 -0.83512515737E+03  0.83512515737E+03  0.25500000920E-02 0.  1.
    10030    2    1    2    0    0  0.00000000000E+00  0.00000000000E+00  0.72530211200E+03  0.23955524267E+04  0.22831137238E+04 0.  0.
        3    1    3    3  502    0  0.35111312691E+03  0.10173573687E+03 -0.77205202704E+03  0.85422182757E+03  0.10100000352E+00 0.  1.
       -3    1    3    3    0  502 -0.35111312691E+03 -0.10173573687E+03  0.14973541390E+04  0.15413305992E+04  0.10100000352E+00 0. -1.
</event>
<event>
 5   0  0.4839293E-04  0.1902326E+04  0.7818609E-02  0.8653699E-01
       -2   -1    0    0    0  501  0.00000000000E+00  0.00000000000E+00  0.13722229358E+04  0.13722229358E+04  0.25500000920E-02 0. -1.
        2   -1    0    0  501    0  0.00000000000E+00  0.00000000000E+00 -0.65930324885E+03  0.65930324885E+03  0.25500000920E-02 0.  1.
    10030    2    1    2    0    0  0.00000000000E+00  0.00000000000E+00  0.71291968699E+03  0.20315261847E+04  0.19023259865E+04 0.  0.
        5    1    3    3  502    0  0.32741191237E+03  0.79417056886E+03 -0.79668208407E+02  0.86271349023E+03  0.46999998093E+01 0.  1.
       -5    1    3    3    0  502 -0.32741191237E+03 -0.79417056886E+03  0.79258789539E+03  0.11688126945E+04  0.46999998093E+01 0. -1.
</event>
<event>
 5   0  0.2355414E-04  0.1776167E+04  0.7818609E-02  0.8719077E-01
        1   -1    0    0  501    0  0.00000000000E+00  0.00000000000E+00  0.65543175786E+03  0.65543175788E+03  0.50400001928E-02 0. -1.
       -1   -1    0    0    0  501  0.00000000000E+00  0.00000000000E+00 -0.12033166027E+04  0.12033166027E+04  0.50400001928E-02 0.  1.
    10030    2    1    2    0    0  0.00000000000E+00  0.00000000000E+00 -0.54788484484E+03  0.18587483606E+04  0.17761665645E+04 0.  0.
        5    1    3    3  502    0 -0.50604184501E+03  0.24524323477E+02  0.48934596776E+03  0.70438722128E+03  0.46999998093E+01 0. -1.
       -5    1    3    3    0  502  0.50604184501E+03 -0.24524323477E+02 -0.10372308126E+04  0.11543611393E+04  0.46999998093E+01 0.  1.
</event>
<event>
 5   0  0.2355414E-04  0.1934184E+04  0.7818609E-02  0.8638026E-01
        1   -1    0    0  501    0  0.00000000000E+00  0.00000000000E+00  0.15979601114E+04  0.15979601114E+04  0.50400001928E-02 0. -1.
       -1   -1    0    0    0  501  0.00000000000E+00  0.00000000000E+00 -0.58528782498E+03  0.58528782500E+03  0.50400001928E-02 0.  1.
    10030    2    1    2    0    0  0.00000000000E+00  0.00000000000E+00  0.10126722864E+04  0.21832479364E+04  0.19341836501E+04 0.  0.
        5    1    3    3  502    0 -0.42074289601E+02  0.60821331295E+03 -0.34103153955E+03  0.69858305222E+03  0.46999998093E+01 0.  1.
       -5    1    3    3    0  502  0.42074289601E+02 -0.60821331295E+03  0.13537038260E+04  0.14846648842E+04  0.46999998093E+01 0. -1.
</event>
<event>
 5   0  0.4973411E-04  0.1922728E+04  0.7818609E-02  0.8643625E-01
       -2   -1    0    0    0  501  0.00000000000E+00  0.00000000000E+00  0.67828141211E+03  0.67828141212E+03  0.25500000920E-02 0. -1.
        2   -1    0    0  501    0  0.00000000000E+00  0.00000000000E+00 -0.13625915580E+04  0.13625915580E+04  0.25500000920E-02 0.  1.
    10030    2    1    2    0    0  0.00000000000E+00  0.00000000000E+00 -0.68431014587E+03  0.20408729701E+04  0.19227277770E+04 0.  0.
        1    1    3    3  502    0 -0.94888065797E+03 -0.68703922726E+02 -0.19536120631E+03  0.97121611036E+03  0.50400001928E-02 0. -1.
       -1    1    3    3    0  502  0.94888065797E+03  0.68703922726E+02 -0.48894893956E+03  0.10696568597E+04  0.50400001928E-02 0.  1.
</event>
<event>
 5   0  0.4761944E-04  0.1999657E+04  0.7818609E-02  0.8606781E-01
       -2   -1    0    0    0  501  0.00000000000E+00  0.00000000000E+00  0.42806043557E+03  0.42806043558E+03  0.25500000920E-02 0. -1.
        2   -1    0    0  501    0  0.00000000000E+00  0.00000000000E+00 -0.23353176535E+04  0.23353176535E+04  0.25500000920E-02 0.  1.
    10030    2    1    2    0    0  0.00000000000E+00  0.00000000000E+00 -0.19072572180E+04  0.27633780891E+04  0.19996570626E+04 0.  0.
        4    1    3    3  502    0  0.76840454623E+03  0.46734930731E+03 -0.15572543885E+04  0.17983058041E+04  0.12699999809E+01 0.  1.
       -4    1    3    3    0  502 -0.76840454623E+03 -0.46734930731E+03 -0.35000282943E+03  0.96507228497E+03  0.12699999809E+01 0. -1.
</event>
<event>
 5   0  0.2376359E-04  0.1878716E+04  0.7818609E-02  0.8665524E-01
       -1   -1    0    0    0  501  0.00000000000E+00  0.00000000000E+00  0.89828105828E+03  0.89828105829E+03  0.50400001928E-02 0.  1.
        1   -1    0    0  501    0  0.00000000000E+00  0.00000000000E+00 -0.98231354874E+03  0.98231354876E+03  0.50400001928E-02 0. -1.
    10030    2    1    2    0    0  0.00000000000E+00  0.00000000000E+00 -0.84032490468E+02  0.18805946070E+04  0.18787162150E+04 0.  0.
        2    1    3    3  502    0  0.14696689655E+03  0.11755815877E+03  0.87921606427E+03  0.89913295849E+03  0.25500000920E-02 0.  1.
       -2    1    3    3    0  502 -0.14696689655E+03 -0.11755815877E+03 -0.96324855474E+03  0.98146164855E+03  0.25500000920E-02 0. -1.
</event>
<event>
 5   0  0.2510069E-04  0.1443302E+04  0.7818609E-02  0.8923058E-01
        1   -1    0    0  501    0  0.00000000000E+00  0.00000000000E+00  0.94354022992E+03  0.94354022993E+03  0.50400001928E-02 0. -1.
       -1   -1    0    0    0  501  0.00000000000E+00  0.00000000000E+00 -0.55194236303E+03  0.55194236306E+03  0.50400001928E-02 0.  1.
    10030    2    1    2    0    0  0.00000000000E+00  0.00000000000E+00  0.39159786688E+03  0.14954825930E+04  0.14433015266E+04 0.  0.
        4    1    3    3  502    0  0.63168000854E+03 -0.22619108565E+03 -0.79506551542E+02  0.67565149674E+03  0.12699999809E+01 0.  1.
       -4    1    3    3    0  502 -0.63168000854E+03  0.22619108565E+03  0.47110441842E+03  0.81983109625E+03  0.12699999809E+01 0. -1.
</event>
<event>
 5   0  0.4839293E-04  0.2042823E+04  0.7818609E-02  0.8586857E-01
       -2   -1    0    0    0  501  0.00000000000E+00  0.00000000000E+00  0.10284422719E+04  0.10284422719E+04  0.25500000920E-02 0.  1.
        2   -1    0    0  501    0  0.00000000000E+00  0.00000000000E+00 -0.10144285292E+04  0.10144285292E+04  0.25500000920E-02 0. -1.
    10030    2    1    2    0    0  0.00000000000E+00  0.00000000000E+00  0.14013742765E+02  0.20428708011E+04  0.20428227346E+04 0.  0.
        5    1    3    3  502    0 -0.58589096669E+03 -0.43666664693E+03  0.72068542215E+03  0.10263311128E+04  0.46999998093E+01 0.  1.
       -5    1    3    3    0  502  0.58589096669E+03  0.43666664693E+03 -0.70667167939E+03  0.10165396883E+04  0.46999998093E+01 0. -1.
</event>
<event>
 5   0  0.2261755E-04  0.1910425E+04  0.7818609E-02  0.8649684E-01
        1   -1    0    0  501    0  0.00000000000E+00  0.00000000000E+00  0.10416281032E+04  0.10416281032E+04  0.50400001928E-02 0. -1.
       -1   -1    0    0    0  501  0.00000000000E+00  0.00000000000E+00 -0.87596656957E+03  0.87596656959E+03  0.50400001928E-02 0.  1.
    10030    2    1    2    0    0  0.00000000000E+00  0.00000000000E+00  0.16566153362E+03  0.19175946728E+04  0.19104254985E+04 0.  0.
        1    1    3    3  502    0  0.13188630033E+03 -0.76206023199E+03 -0.47989915256E+03  0.91018294318E+03  0.50400001928E-02 0.  1.
       -1    1    3    3    0  502 -0.13188630033E+03  0.76206023199E+03  0.64556068618E+03  0.10074117296E+04  0.50400001928E-02 0. -1.
</event>
<event>
 5   0  0.4839293E-04  0.1900944E+04  0.7818609E-02  0.8654386E-01
       -2   -1    0    0    0  501  0.00000000000E+00  0.00000000000E+00  0.57466216672E+03  0.57466216673E+03  0.25500000920E-02 0.  1.
        2   -1    0    0  501    0  0.00000000000E+00  0.00000000000E+00 -0.15720496070E+04  0.15720496070E+04  0.25500000920E-02 0. -1.
    10030    2    1    2    0    0  0.00000000000E+00  0.00000000000E+00 -0.99738744029E+03  0.21467117737E+04  0.19009444320E+04 0.  0.
        5    1    3    3  502    0 -0.18928425677E+03 -0.19538555515E+03 -0.15271333830E+04  0.15511810031E+04  0.46999998093E+01 0. -1.
       -5    1    3    3    0  502  0.18928425677E+03  0.19538555515E+03  0.52974594267E+03  0.59553077065E+03  0.46999998093E+01 0.  1.
</event>
<event>
 5   0  0.2376359E-04  0.1892276E+04  0.7818609E-02  0.8658711E-01
       -1   -1    0    0    0  501  0.00000000000E+00  0.00000000000E+00  0.80087224954E+03  0.80087224956E+03  0.50400001928E-02 0.  1.
        1   -1    0    0  501    0  0.00000000000E+00  0.00000000000E+00 -0.11177529874E+04  0.11177529874E+04  0.50400001928E-02 0. -1.
    10030    2    1    2    0    0  0.00000000000E+00  0.00000000000E+00 -0.31688073785E+03  0.19186252370E+04  0.18922762478E+04 0.  0.
        2    1    3    3  502    0  0.18061941539E+02  0.89053438807E+03 -0.48194365154E+03  0.10127425207E+04  0.25500000920E-02 0. -1.
       -2    1    3    3    0  502 -0.18061941539E+02 -0.89053438807E+03  0.16506291368E+03  0.90588271622E+03  0.25500000920E-02 0.  1.
</event>
<event>
 5   0  0.4973411E-04  0.1429136E+04  0.7818609E-02  0.8932995E-01
        2   -1    0    0  501    0  0.00000000000E+00  0.00000000000E+00  0.14963915617E+04  0.14963915617E+04  0.25500000920E-02 0. -1.
       -2   -1    0    0    0  501  0.00000000000E+00  0.00000000000E+00 -0.34122562936E+03  0.34122562937E+03  0.25500000920E-02 0.  1.
    10030    2    1    2    0    0  0.00000000000E+00  0.00000000000E+00  0.11551659323E+04  0.18376171911E+04  0.14291356163E+04 0.  0.
        1    1    3    3  502    0  0.23679504130E+03 -0.37497118071E+03  0.12980254403E+04  0.13716943251E+04  0.50400001928E-02 0. -1.
       -1    1    3    3    0  502 -0.23679504130E+03  0.37497118071E+03 -0.14285950796E+03  0.46592286592E+03  0.50400001928E-02 0.  1.
</event>
<event>
 5   0  0.4829134E-04  0.1840524E+04  0.7818609E-02  0.8685041E-01
       -2   -1    0    0    0  501  0.00000000000E+00  0.00000000000E+00  0.53493973028E+03  0.53493973028E+03  0.25500000920E-02 0.  1.
        2   -1    0    0  501    0  0.00000000000E+00  0.00000000000E+00 -0.15831351975E+04  0.15831351975E+04  0.25500000920E-02 0. -1.
    10030    2    1    2    0    0  0.00000000000E+00  0.00000000000E+00 -0.10481954672E+04  0.21180749278E+04  0.18405237467E+04 0.  0.
        2    1    3    3  502    0 -0.13981985669E+03  0.86217283568E+03 -0.19058338414E+03  0.89398748158E+03  0.25500000920E-02 0.  1.
       -2    1    3    3    0  502  0.13981985669E+03 -0.86217283568E+03 -0.85761208310E+03  0.12240874462E+04  0.25500000920E-02 0. -1.
</event>
<event>
 5   0  0.1729375E-04  0.1936812E+04  0.7818609E-02  0.8636747E-01
       -3   -1    0    0    0  501  0.00000000000E+00  0.00000000000E+00  0.67845222465E+03  0.67845223217E+03  0.10100000352E+00 0.  1.
        3   -1    0    0  501    0  0.00000000000E+00  0.00000000000E+00 -0.13822783694E+04  0.13822783731E+04  0.10100000352E+00 0. -1.
    10030    2    1    2    0    0  0.00000000000E+00  0.00000000000E+00 -0.70382614475E+03  0.20607306053E+04  0.19368116546E+04 0.  0.
        1    1    3    3  502    0 -0.81557842908E+01  0.73747893569E+03 -0.10196559469E+04  0.12584275694E+04  0.50400001928E-02 0. -1.
       -1    1    3    3    0  502  0.81557842908E+01 -0.73747893569E+03  0.31582980214E+03  0.80230303585E+03  0.50400001928E-02 0.  1.
</event>
<event>
 5   0  0.2510069E-04  0.1899970E+04  0.7818609E-02  0.8654871E-01
       -1   -1    0    0    0  501  0.00000000000E+00  0.00000000000E+00  0.82569140182E+03  0.82569140183E+03  0.50400001928E-02 0. -1.
        1   -1    0    0  501    0  0.00000000000E+00  0.00000000000E+00 -0.10929884486E+04  0.10929884487E+04  0.50400001928E-02 0.  1.
    10030    2    1    2    0    0  0.00000000000E+00  0.00000000000E+00 -0.26729704683E+03  0.19186798505E+04  0.18999696465E+04 0.  0.
        4    1    3    3  502    0 -0.44193417511E+02  0.84499811948E+03 -0.56975151478E+03  0.10200947415E+04  0.12699999809E+01 0.  1.
       -4    1    3    3    0  502  0.44193417511E+02 -0.84499811948E+03  0.30245446795E+03  0.89858510902E+03  0.12699999809E+01 0. -1.
</event>
<event>
 5   0  0.4761944E-04  0.1898440E+04  0.7818609E-02  0.8655633E-01
        2   -1    0    0  501    0  0.00000000000E+00  0.00000000000E+00  0.14689187110E+04  0.14689187110E+04  0.25500000920E-02 0. -1.
       -2   -1    0    0    0  501  0.00000000000E+00  0.00000000000E+00 -0.61338897784E+03  0.61338897784E+03  0.25500000920E-02 0.  1.
    10030    2    1    2    0    0  0.00000000000E+00  0.00000000000E+00  0.85552973315E+03  0.20823076888E+04  0.18984399350E+04 0.  0.
        4    1    3    3  502    0  0.71515920107E+03  0.14737881563E+03 -0.23747723051E+03  0.76783477786E+03  0.12699999809E+01 0.  1.
       -4    1    3    3    0  502 -0.71515920107E+03 -0.14737881563E+03  0.10930069637E+04  0.13144729110E+04  0.12699999809E+01 0. -1.
</event>
<event>
 5   0  0.4839293E-04  0.1953093E+04  0.7818609E-02  0.8628871E-01
       -2   -1    0    0    0  501  0.00000000000E+00  0.00000000000E+00  0.89381653240E+03  0.89381653241E+03  0.25500000920E-02 0.  1.
        2   -1    0    0  501    0  0.00000000000E+00  0.00000000000E+00 -0.10669333564E+04  0.10669333564E+04  0.25500000920E-02 0. -1.
    10030    2    1    2    0    0  0.00000000000E+00  0.00000000000E+00 -0.17311682399E+03  0.19607498888E+04  0.19530925968E+04 0.  0.
        5    1    3    3  502    0 -0.73229142117E+03 -0.50282129250E+03 -0.49378479830E+03  0.10163294224E+04  0.46999998093E+01 0. -1.
       -5    1    3    3    0  502  0.73229142117E+03  0.50282129250E+03  0.32066797431E+03  0.94442046645E+03  0.46999998093E+01 0.  1.
</event>
<event>
 5   0  0.2261755E-04  0.1901327E+04  0.7818609E-02  0.8654196E-01
       -1   -1    0    0    0  501  0.00000000000E+00  0.00000000000E+00  0.56681239333E+03  0.56681239335E+03  0.50400001928E-02 0.  1.
        1   -1    0    0  501    0  0.00000000000E+00  0.00000000000E+00 -0.15944627999E+04  0.15944627999E+04  0.50400001928E-02 0. -1.
    10030    2    1    2    0    0  0.00000000000E+00  0.00000000000E+00 -0.10276504066E+04  0.21612751933E+04  0.19013271951E+04 0.  0.
        1    1    3    3  502    0 -0.82283385908E+03  0.42930788665E+03 -0.27975913257E+03  0.96934307316E+03  0.50400001928E-02 0.  1.
       -1    1    3    3    0  502  0.82283385908E+03 -0.42930788665E+03 -0.74789127401E+03  0.11919321201E+04  0.50400001928E-02 0. -1.
</event>
<event>
 5   0  0.4761944E-04  0.1873243E+04  0.7818609E-02  0.8668291E-01
       -2   -1    0    0    0  501  0.00000000000E+00  0.00000000000E+00  0.96305839009E+03  0.96305839009E+03  0.25500000920E-02 0.  1.
        2   -1    0    0  501    0  0.00000000000E+00  0.00000000000E+00 -0.91091011853E+03  0.91091011854E+03  0.25500000920E-02 0. -1.
    10030    2    1    2    0    0  0.00000000000E+00  0.00000000000E+00  0.52148271552E+02  0.18739685086E+04  0.18732427843E+04 0.  0.
        4    1    3    3  502    0  0.71290770455E+03 -0.30318166925E+03  0.55268238516E+03  0.95163856140E+03  0.12699999809E+01 0.  1.
       -4    1    3    3    0  502 -0.71290770455E+03  0.30318166925E+03 -0.50053411361E+03  0.92232994723E+03  0.12699999809E+01 0. -1.
</event>
<event>
 5   0  0.2317458E-04  0.1841377E+04  0.7818609E-02  0.8684600E-01
        1   -1    0    0  501    0  0.00000000000E+00  0.00000000000E+00  0.12121155606E+04  0.12121155606E+04  0.50400001928E-02 0.  1.
       -1   -1    0    0    0  501  0.00000000000E+00  0.00000000000E+00 -0.69932847738E+03  0.69932847739E+03  0.50400001928E-02 0. -1.
    10030    2    1    2    0    0  0.00000000000E+00  0.00000000000E+00  0.51278708325E+03  0.19114440380E+04  0.18413765823E+04 0.  0.
        3    1    3    3  502    0  0.33503233112E+03  0.12841814754E+03 -0.62376718039E+03  0.71959946431E+03  0.10100000352E+00 0. -1.
       -3    1    3    3    0  502 -0.33503233112E+03 -0.12841814754E+03  0.11365542636E+04  0.11918445737E+04  0.10100000352E+00 0.  1.
</event>
<event>
 5   0  0.2376359E-04  0.1482326E+04  0.7818609E-02  0.8896292E-01
       -1   -1    0    0    0  501  0.00000000000E+00  0.00000000000E+00  0.48035547135E+03  0.48035547137E+03  0.50400001928E-02 0. -1.
        1   -1    0    0  501    0  0.00000000000E+00  0.00000000000E+00 -0.11435755041E+04  0.11435755041E+04  0.50400001928E-02 0.  1.
    10030    2    1    2    0    0  0.00000000000E+00  0.00000000000E+00 -0.66322003278E+03  0.16239309755E+04  0.14823262129E+04 0.  0.
        2    1    3    3  502    0  0.80654899284E+02 -0.41091285958E+02 -0.11374971078E+04  0.11410930623E+04  0.25500000920E-02 0.  1.
       -2    1    3    3    0  502 -0.80654899284E+02  0.41091285958E+02  0.47427707501E+03  0.48283791322E+03  0.25500000920E-02 0. -1.
</event>
<event>
 5   0  0.2376359E-04  0.1885202E+04  0.7818609E-02  0.8662258E-01
        1   -1    0    0  501    0  0.00000000000E+00  0.00000000000E+00  0.86504820467E+03  0.86504820468E+03  0.50400001928E-02 0. -1.
       -1   -1    0    0    0  501  0.00000000000E+00  0.00000000000E+00 -0.10271061108E+04  0.10271061108E+04  0.50400001928E-02 0.  1.
    10030    2    1    2    0    0  0.00000000000E+00  0.00000000000E+00 -0.16205790613E+03  0.18921543155E+04  0.18852016308E+04 0.  0.
        2    1    3    3  502    0 -0.37895998101E+03 -0.66299262221E+03  0.47357241115E+03  0.89857704896E+03  0.25500000920E-02 0. -1.
       -2    1    3    3    0  502  0.37895998101E+03  0.66299262221E+03 -0.63563031728E+03  0.99357726653E+03  0.25500000920E-02 0.  1.
</event>
<event>
 5   0  0.2261755E-04  0.1887630E+04  0.7818609E-02  0.8661038E-01
        1   -1    0    0  501    0  0.00000000000E+00  0.00000000000E+00  0.20422029868E+04  0.20422029868E+04  0.50400001928E-02 0. -1.
       -1   -1    0    0    0  501  0.00000000000E+00  0.00000000000E+00 -0.43618917100E+03  0.43618917103E+03  0.50400001928E-02 0.  1.
    10030    2    1    2    0    0  0.00000000000E+00  0.00000000000E+00  0.16060138158E+04  0.24783921578E+04  0.18876300780E+04 0.  0.
        1    1    3    3  502    0 -0.90671417305E+03  0.89208376829E+01  0.45917887254E+03  0.10163933343E+04  0.50400001928E-02 0.  1.
       -1    1    3    3    0  502  0.90671417305E+03 -0.89208376829E+01  0.11468349433E+04  0.14619988235E+04  0.50400001928E-02 0. -1.
</event>
<event>
 5   0  0.2355414E-04  0.1904543E+04  0.7818609E-02  0.8652598E-01
        1   -1    0    0  501    0  0.00000000000E+00  0.00000000000E+00  0.77506089900E+03  0.77506089902E+03  0.50400001928E-02 0.  1.
       -1   -1    0    0    0  501  0.00000000000E+00  0.00000000000E+00 -0.11700000461E+04  0.11700000462E+04  0.50400001928E-02 0. -1.
    10030    2    1    2    0    0  0.00000000000E+00  0.00000000000E+00 -0.39493914714E+03  0.19450609452E+04  0.19045432918E+04 0.  0.
        5    1    3    3  502    0 -0.84383019496E+03  0.24298575139E+03 -0.57369197283E+03  0.10489213712E+04  0.46999998093E+01 0. -1.
       -5    1    3    3    0  502  0.84383019496E+03 -0.24298575139E+03  0.17875282569E+03  0.89613957395E+03  0.46999998093E+01 0.  1.
</event>
<event>
 5   0  0.2376359E-04  0.1899377E+04  0.7818609E-02  0.8655167E-01
       -1   -1    0    0    0  501  0.00000000000E+00  0.00000000000E+00  0.88533772005E+03  0.88533772007E+03  0.50400001928E-02 0.  1.
        1   -1    0    0  501    0  0.00000000000E+00  0.00000000000E+00 -0.10187161036E+04  0.10187161036E+04  0.50400001928E-02 0. -1.
    10030    2    1    2    0    0  0.00000000000E+00  0.00000000000E+00 -0.13337838351E+03  0.19040538236E+04  0.18993765214E+04 0.  0.
        2    1    3    3  502    0  0.90239243841E+02  0.33885050386E+03 -0.95144119487E+03  0.10140035170E+04  0.25500000920E-02 0. -1.
       -2    1    3    3    0  502 -0.90239243841E+02 -0.33885050386E+03  0.81806281136E+03  0.89005030669E+03  0.25500000920E-02 0.  1.
</event>
<event>
 5   0  0.4761944E-04  0.1827926E+04  0.7818609E-02  0.8691588E-01
        2   -1    0    0  501    0  0.00000000000E+00  0.00000000000E+00  0.88114684160E+03  0.88114684160E+03  0.25500000920E-02 0.  1.
       -2   -1    0    0    0  501  0.00000000000E+00  0.00000000000E+00 -0.94800129410E+03  0.94800129411E+03  0.25500000920E-02 0. -1.
    10030    2    1    2    0    0  0.00000000000E+00  0.00000000000E+00 -0.66854452508E+02  0.18291481357E+04  0.18279259790E+04 0.  0.
        4    1    3    3  502    0  0.65123058211E+03 -0.29457646722E+03 -0.60341333912E+03  0.93540677613E+03  0.12699999809E+01 0. -1.
       -4    1    3    3    0  502 -0.65123058211E+03  0.29457646722E+03  0.53655888661E+03  0.89374135957E+03  0.12699999809E+01 0.  1.
</event>
<event>
 5   0  0.4761944E-04  0.1588119E+04  0.7818609E-02  0.8827880E-01
        2   -1    0    0  501    0  0.00000000000E+00  0.00000000000E+00  0.15425110718E+04  0.15425110718E+04  0.25500000920E-02 0. -1.
       -2   -1    0    0    0  501  0.00000000000E+00  0.00000000000E+00 -0.40876896083E+03  0.40876896084E+03  0.25500000920E-02 0.  1.
    10030    2    1    2    0    0  0.00000000000E+00  0.00000000000E+00  0.11337421110E+04  0.19512800326E+04  0.15881191994E+04 0.  0.
        4    1    3    3  502    0 -0.16361419018E+02  0.47634311574E+03  0.13472079687E+04  0.14290351234E+04  0.12699999809E+01 0. -1.
       -4    1    3    3    0  502  0.16361419018E+02 -0.47634311574E+03 -0.21346585774E+03  0.52224490928E+03  0.12699999809E+01 0.  1.
</event>
<event>
 5   0  0.4973411E-04  0.1954872E+04  0.7818609E-02  0.8628015E-01
       -2   -1    0    0    0  501  0.00000000000E+00  0.00000000000E+00  0.12181579731E+04  0.12181579731E+04  0.25500000920E-02 0.  1.
        2   -1    0    0  501    0  0.00000000000E+00  0.00000000000E+00 -0.78428347763E+03  0.78428347764E+03  0.25500000920E-02 0. -1.
    10030    2    1    2    0    0  0.00000000000E+00  0.00000000000E+00  0.43387449548E+03  0.20024414507E+04  0.19548720382E+04 0.  0.
        1    1    3    3  502    0  0.47526829819E+03 -0.77773746748E+03 -0.14467672766E+03  0.92286883095E+03  0.50400001928E-02 0. -1.
       -1    1    3    3    0  502 -0.47526829819E+03  0.77773746748E+03  0.57855122314E+03  0.10795726198E+04  0.50400001928E-02 0.  1.
</event>
<event>
 5   0  0.2510069E-04  0.2203951E+04  0.7818609E-02  0.8516786E-01
        1   -1    0    0  501    0  0.00000000000E+00  0.00000000000E+00  0.79016465665E+03  0.79016465667E+03  0.50400001928E-02 0.  1.
       -1   -1    0    0    0  501  0.00000000000E+00  0.00000000000E+00 -0.15368312896E+04  0.15368312896E+04  0.50400001928E-02 0. -1.
    10030    2    1    2    0    0  0.00000000000E+00  0.00000000000E+00 -0.74666663291E+03  0.23269959462E+04  0.22039507874E+04 0.  0.
        4    1    3    3  502    0 -0.63756163499E+03 -0.15455520734E+03  0.56152354331E+03  0.86352906906E+03  0.12699999809E+01 0.  1.
       -4    1    3    3    0  502  0.63756163499E+03  0.15455520734E+03 -0.13081901762E+04  0.14634668772E+04  0.12699999809E+01 0. -1.
</event>
<event>
 5   0  0.2510069E-04  0.1075066E+04  0.7818609E-02  0.9229840E-01
       -1   -1    0    0    0  501  0.00000000000E+00  0.00000000000E+00  0.29773619123E+03  0.29773619127E+03  0.50400001928E-02 0. -1.
        1   -1    0    0  501    0  0.00000000000E+00  0.00000000000E+00 -0.97046282817E+03  0.97046282818E+03  0.50400001928E-02 0.  1.
    10030    2    1    2    0    0  0.00000000000E+00  0.00000000000E+00 -0.67272663694E+03  0.12681990195E+04  0.10750663351E+04 0.  0.
        4    1    3    3  502    0 -0.24247835533E+03  0.46114036758E+03 -0.49238967843E+03  0.71686498013E+03  0.12699999809E+01 0. -1.
       -4    1    3    3    0  502  0.24247835533E+03 -0.46114036758E+03 -0.18033695851E+03  0.55133403933E+03  0.12699999809E+01 0.  1.
</event>
<event>
 5   0  0.4839293E-04  0.2103809E+04  0.7818609E-02  0.8559567E-01
        2   -1    0    0  501    0  0.00000000000E+00  0.00000000000E+00  0.18589393861E+04  0.18589393861E+04  0.25500000920E-02 0. -1.
       -2   -1    0    0    0  501  0.00000000000E+00  0.00000000000E+00 -0.59523378615E+03  0.59523378615E+03  0.25500000920E-02 0.  1.
    10030    2    1    2    0    0  0.00000000000E+00  0.00000000000E+00  0.12637055999E+04  0.24541731723E+04  0.21038094296E+04 0.  0.
        5    1    3    3  502    0  0.44150862762E+03  0.93539254361E+02 -0.47654347633E+03  0.65634993349E+03  0.46999998093E+01 0.  1.
       -5    1    3    3    0  502 -0.44150862762E+03 -0.93539254361E+02  0.17402490763E+04  0.17978232388E+04  0.46999998093E+01 0. -1.
</event>
<event>
 5   0  0.2355414E-04  0.1902932E+04  0.7818609E-02  0.8653398E-01
        1   -1    0    0  501    0  0.00000000000E+00  0.00000000000E+00  0.19719674429E+04  0.19719674429E+04  0.50400001928E-02 0. -1.
       -1   -1    0    0    0  501  0.00000000000E+00  0.00000000000E+00 -0.45907844664E+03  0.45907844667E+03  0.50400001928E-02 0.  1.
    10030    2    1    2    0    0  0.00000000000E+00  0.00000000000E+00  0.15128889963E+04  0.24310458896E+04  0.19029322117E+04 0.  0.
        5    1    3    3  502    0 -0.63862395799E+03 -0.22986612167E+03  0.16082649367E+04  0.17456280217E+04  0.46999998093E+01 0. -1.
       -5    1    3    3    0  502  0.63862395799E+03  0.22986612167E+03 -0.95375940399E+02  0.68541786788E+03  0.46999998093E+01 0.  1.
</event>
<event>
 5   0  0.1729375E-04  0.1903004E+04  0.7818609E-02  0.8653363E-01
        3   -1    0    0  501    0  0.00000000000E+00  0.00000000000E+00  0.63056860169E+03  0.63056860978E+03  0.10100000352E+00 0.  1.
       -3   -1    0    0    0  501  0.00000000000E+00  0.00000000000E+00 -0.14357767174E+04  0.14357767209E+04  0.10100000352E+00 0. -1.
    10030    2    1    2    0    0  0.00000000000E+00  0.00000000000E+00 -0.80520811569E+03  0.20663453307E+04  0.19030036564E+04 0.  0.
        2    1    3    3  502    0  0.58199370484E+03 -0.70504498506E+03 -0.11624310367E+03  0.92158426777E+03  0.25500000920E-02 0.  1.
       -2    1    3    3    0  502 -0.58199370484E+03  0.70504498506E+03 -0.68896501202E+03  0.11447610629E+04  0.25500000920E-02 0. -1.
</event>
<event>
 5   0  0.4829134E-04  0.1715587E+04  0.7818609E-02  0.8752524E-01
       -2   -1    0    0    0  501  0.00000000000E+00  0.00000000000E+00  0.14474156244E+04  0.14474156244E+04  0.25500000920E-02 0.  1.
        2   -1    0    0  501    0  0.00000000000E+00  0.00000000000E+00 -0.50836087498E+03  0.50836087498E+03  0.25500000920E-02 0. -1.
    10030    2    1    2    0    0  0.00000000000E+00  0.00000000000E+00  0.93905474945E+03  0.19557764994E+04  0.17155867490E+04 0.  0.
        2    1    3    3  502    0 -0.41616452824E+03  0.61969377517E+03  0.95130056369E+03  0.12092088538E+04  0.25500000920E-02 0.  1.
       -2    1    3    3    0  502  0.41616452824E+03 -0.61969377517E+03 -0.12245814238E+02  0.74656764565E+03  0.25500000920E-02 0. -1.
</event>
<event>
 5   0  0.2317458E-04  0.1173831E+04  0.7818609E-02  0.9136076E-01
       -1   -1    0    0    0  501  0.00000000000E+00  0.00000000000E+00  0.30558053222E+03  0.30558053226E+03  0.50400001928E-02 0.  1.
        1   -1    0    0  501    0  0.00000000000E+00  0.00000000000E+00 -0.11272628196E+04  0.11272628197E+04  0.50400001928E-02 0. -1.
    10030    2    1    2    0    0  0.00000000000E+00  0.00000000000E+00 -0.82168228743E+03  0.14328433519E+04  0.11738306052E+04 0.  0.
        3    1    3    3  502    0 -0.16119510751E+03  0.55367053281E+03 -0.54419265974E+03  0.79289380292E+03  0.10100000352E+00 0. -1.
       -3    1    3    3    0  502  0.16119510751E+03 -0.55367053281E+03 -0.27748962769E+03  0.63994954899E+03  0.10100000352E+00 0.  1.
</event>
<event>
 5   0  0.4802635E-04  0.1942554E+04  0.7818609E-02  0.8633960E-01
       -2   -1    0    0    0  501  0.00000000000E+00  0.00000000000E+00  0.96714161927E+03  0.96714161927E+03  0.25500000920E-02 0. -1.
        2   -1    0    0  501    0  0.00000000000E+00  0.00000000000E+00 -0.97543007228E+03  0.97543007229E+03  0.25500000920E-02 0.  1.
    10030    2    1    2    0    0  0.00000000000E+00  0.00000000000E+00 -0.82884530171E+01  0.19425716916E+04  0.19425540091E+04 0.  0.
        3    1    3    3  502    0  0.64875774964E+03  0.67224570276E+03 -0.26981204862E+03  0.97241938194E+03  0.10100000352E+00 0.  1.
       -3    1    3    3    0  502 -0.64875774964E+03 -0.67224570276E+03  0.26152359561E+03  0.97015230962E+03  0.10100000352E+00 0. -1.
</event>
<event>
 5   0  0.4761944E-04  0.1892056E+04  0.7818609E-02  0.8658821E-01
       -2   -1    0    0    0  501  0.00000000000E+00  0.00000000000E+00  0.74562943307E+03  0.74562943308E+03  0.25500000920E-02 0. -1.
        2   -1    0    0  501    0  0.00000000000E+00  0.00000000000E+00 -0.12002861605E+04  0.12002861605E+04  0.25500000920E-02 0.  1.
    10030    2    1    2    0    0  0.00000000000E+00  0.00000000000E+00 -0.45465672747E+03  0.19459155936E+04  0.18920556962E+04 0.  0.
        4    1    3    3  502    0 -0.13479504017E+02  0.32144018457E+03  0.68763773436E+03  0.75917900123E+03  0.12699999809E+01 0. -1.
       -4    1    3    3    0  502  0.13479504017E+02 -0.32144018457E+03 -0.11422944618E+04  0.11867365924E+04  0.12699999809E+01 0.  1.
</event>
<event>
 5   0  0.4761944E-04  0.1866673E+04  0.7818609E-02  0.8671625E-01
       -2   -1    0    0    0  501  0.00000000000E+00  0.00000000000E+00  0.61362116094E+03  0.61362116095E+03  0.25500000920E-02 0. -1.
        2   -1    0    0  501    0  0.00000000000E+00  0.00000000000E+00 -0.14196333071E+04  0.14196333071E+04  0.25500000920E-02 0.  1.
    10030    2    1    2    0    0  0.00000000000E+00  0.00000000000E+00 -0.80601214617E+03  0.20332544681E+04  0.18666730169E+04 0.  0.
        4    1    3    3  502    0  0.26439993305E+02 -0.88234568321E+03 -0.72834436466E+02  0.88574231352E+03  0.12699999809E+01 0. -1.
       -4    1    3    3    0  502 -0.26439993305E+02  0.88234568321E+03 -0.73317770970E+03  0.11475121545E+04  0.12699999809E+01 0.  1.
</event>
<event>
 5   0  0.2376359E-04  0.1365486E+04  0.7818609E-02  0.8979187E-01
       -1   -1    0    0    0  501  0.00000000000E+00  0.00000000000E+00  0.79356073444E+03  0.79356073446E+03  0.50400001928E-02 0.  1.
        1   -1    0    0  501    0  0.00000000000E+00  0.00000000000E+00 -0.58740084727E+03  0.58740084729E+03  0.50400001928E-02 0. -1.
    10030    2    1    2    0    0  0.00000000000E+00  0.00000000000E+00  0.20615988717E+03  0.13809615817E+04  0.13654863570E+04 0.  0.
        2    1    3    3  502    0 -0.25796905471E+01 -0.30744131093E+03  0.71958801254E+03  0.78251755396E+03  0.25500000920E-02 0.  1.
       -2    1    3    3    0  502  0.25796905471E+01  0.30744131093E+03 -0.51342812537E+03  0.59844402779E+03  0.25500000920E-02 0. -1.
</event>
<event>
 5   0  0.4973411E-04  0.1673947E+04  0.7818609E-02  0.8776364E-01
       -2   -1    0    0    0  501  0.00000000000E+00  0.00000000000E+00  0.43200344502E+03  0.43200344503E+03  0.25500000920E-02 0. -1.
        2   -1    0    0  501    0  0.00000000000E+00  0.00000000000E+00 -0.16215723174E+04  0.16215723174E+04  0.25500000920E-02 0.  1.
    10030    2    1    2    0    0  0.00000000000E+00  0.00000000000E+00 -0.11895688724E+04  0.20535757624E+04  0.16739472243E+04 0.  0.
        1    1    3    3  502    0  0.68877848654E+03 -0.22290262356E+03 -0.79499891427E+02  0.72830049834E+03  0.50400001928E-02 0. -1.
       -1    1    3    3    0  502 -0.68877848654E+03  0.22290262356E+03 -0.11100689809E+04  0.13252752641E+04  0.50400001928E-02 0.  1.
</event>
<event>
 5   0  0.2261755E-04  0.1549448E+04  0.7818609E-02  0.8852221E-01
       -1   -1    0    0    0  501  0.00000000000E+00  0.00000000000E+00  0.41083489832E+03  0.41083489836E+03  0.50400001928E-02 0. -1.
        1   -1    0    0  501    0  0.00000000000E+00  0.00000000000E+00 -0.14609200715E+04  0.14609200715E+04  0.50400001928E-02 0.  1.
    10030    2    1    2    0    0  0.00000000000E+00  0.00000000000E+00 -0.10500851732E+04  0.18717549699E+04  0.15494475778E+04 0.  0.
        1    1    3    3  502    0  0.15349617015E+03 -0.36842073321E+02 -0.14412866905E+04  0.14499054234E+04  0.50400001928E-02 0.  1.
       -1    1    3    3    0  502 -0.15349617015E+03  0.36842073321E+02  0.39120151735E+03  0.42184954642E+03  0.50400001928E-02 0. -1.
</event>
<event>
 5   0  0.2355414E-04  0.1930790E+04  0.7818609E-02  0.8639680E-01
        1   -1    0    0  501    0  0.00000000000E+00  0.00000000000E+00  0.12305050583E+04  0.12305050583E+04  0.50400001928E-02 0.  1.
       -1   -1    0    0    0  501  0.00000000000E+00  0.00000000000E+00 -0.75740254257E+03  0.75740254259E+03  0.50400001928E-02 0. -1.
    10030    2    1    2    0    0  0.00000000000E+00  0.00000000000E+00  0.47310251572E+03  0.19879076009E+04  0.19307901593E+04 0.  0.
        5    1    3    3  502    0 -0.44398710499E+03  0.15920462935E+03  0.11037841845E+04  0.12003467330E+04  0.46999998093E+01 0.  1.
       -5    1    3    3    0  502  0.44398710499E+03 -0.15920462935E+03 -0.63068166876E+03  0.78756086794E+03  0.46999998093E+01 0. -1.
</event>
<event>
 5   0  0.4973411E-04  0.1916086E+04  0.7818609E-02  0.8646891E-01
       -2   -1    0    0    0  501  0.00000000000E+00  0.00000000000E+00  0.11053326133E+04  0.11053326133E+04  0.25500000920E-02 0. -1.
        2   -1    0    0  501    0  0.00000000000E+00  0.00000000000E+00 -0.83037995276E+03  0.83037995277E+03  0.25500000920E-02 0.  1.
    10030    2    1    2    0    0  0.00000000000E+00  0.00000000000E+00  0.27495266049E+03  0.19357125660E+04  0.19160856382E+04 0.  0.
        1    1    3    3  502    0  0.20805601981E+03 -0.44900820646E+03  0.96621474564E+03  0.10855720204E+04  0.50400001928E-02 0. -1.
       -1    1    3    3    0  502 -0.20805601981E+03  0.44900820646E+03 -0.69126208515E+03  0.85014054558E+03  0.50400001928E-02 0.  1.
</event>
<event>
 5   0  0.2355414E-04  0.1803368E+04  0.7818609E-02  0.8704510E-01
       -1   -1    0    0    0  501  0.00000000000E+00  0.00000000000E+00  0.48472065690E+03  0.48472065692E+03  0.50400001928E-02 0. -1.
        1   -1    0    0  501    0  0.00000000000E+00  0.00000000000E+00 -0.16773256686E+04  0.16773256686E+04  0.50400001928E-02 0.  1.
    10030    2    1    2    0    0  0.00000000000E+00  0.00000000000E+00 -0.11926050117E+04  0.21620463255E+04  0.18033684038E+04 0.  0.
        5    1    3    3  502    0  0.36013223453E+03  0.75467990847E+03 -0.10006963822E+04  0.13040906141E+04  0.46999998093E+01 0.  1.
       -5    1    3    3    0  502 -0.36013223453E+03 -0.75467990847E+03 -0.19190862950E+03  0.85795571136E+03  0.46999998093E+01 0. -1.
</event>
<event>
 5   0  0.2317458E-04  0.1894606E+04  0.7818609E-02  0.8657546E-01
        1   -1    0    0  501    0  0.00000000000E+00  0.00000000000E+00  0.72708572459E+03  0.72708572461E+03  0.50400001928E-02 0. -1.
       -1   -1    0    0    0  501  0.00000000000E+00  0.00000000000E+00 -0.12342191080E+04  0.12342191080E+04  0.50400001928E-02 0.  1.
    10030    2    1    2    0    0  0.00000000000E+00  0.00000000000E+00 -0.50713338342E+03  0.19613048326E+04  0.18946061274E+04 0.  0.
        3    1    3    3  502    0  0.52924145056E+03 -0.36964887997E+03  0.46412670787E+03  0.79507887572E+03  0.10100000352E+00 0. -1.
       -3    1    3    3    0  502 -0.52924145056E+03  0.36964887997E+03 -0.97126009129E+03  0.11662259569E+04  0.10100000352E+00 0.  1.
</event>
<event>
 5   0  0.2510069E-04  0.1428156E+04  0.7818609E-02  0.8933686E-01
       -1   -1    0    0    0  501  0.00000000000E+00  0.00000000000E+00  0.38822118387E+03  0.38822118390E+03  0.50400001928E-02 0. -1.
        1   -1    0    0  501    0  0.00000000000E+00  0.00000000000E+00 -0.13134451935E+04  0.13134451935E+04  0.50400001928E-02 0.  1.
    10030    2    1    2    0    0  0.00000000000E+00  0.00000000000E+00 -0.92522400962E+03  0.17016663774E+04  0.14281558010E+04 0.  0.
        4    1    3    3  502    0  0.83859100670E+02 -0.29423167184E+03 -0.12313928636E+04  0.12688319916E+04  0.12699999809E+01 0.  1.
       -4    1    3    3    0  502 -0.83859100670E+02  0.29423167184E+03  0.30616885399E+03  0.43283438580E+03  0.12699999809E+01 0. -1.
</event>
<event>
 5   0  0.4839293E-04  0.1204553E+04  0.7818609E-02  0.9108881E-01
       -2   -1    0    0    0  501  0.00000000000E+00  0.00000000000E+00  0.56941565836E+03  0.56941565837E+03  0.25500000920E-02 0.  1.
        2   -1    0    0  501    0  0.00000000000E+00  0.00000000000E+00 -0.63703335638E+03  0.63703335639E+03  0.25500000920E-02 0. -1.
    10030    2    1    2    0    0  0.00000000000E+00  0.00000000000E+00 -0.67617698022E+02  0.12064490148E+04  0.12045526440E+04 0.  0.
        5    1    3    3  502    0  0.13161119793E+03  0.52836455949E+03  0.22393665512E+03  0.58877867713E+03  0.46999998093E+01 0.  1.
       -5    1    3    3    0  502 -0.13161119793E+03 -0.52836455949E+03 -0.29155435314E+03  0.61767033762E+03  0.46999998093E+01 0. -1.
</event>
<event>
 5   0  0.4973411E-04  0.1919246E+04  0.7818609E-02  0.8645335E-01
        2   -1    0    0  501    0  0.00000000000E+00  0.00000000000E+00  0.13821866090E+04  0.13821866090E+04  0.25500000920E-02 0.  1.
       -2   -1    0    0    0  501  0.00000000000E+00  0.00000000000E+00 -0.66624630840E+03  0.66624630840E+03  0.25500000920E-02 0. -1.
    10030    2    1    2    0    0  0.00000000000E+00  0.00000000000E+00  0.71594030059E+03  0.20484329174E+04  0.19192464415E+04 0.  0.
        1    1    3    3  502    0 -0.63538393226E+03 -0.34016328290E+03 -0.31828146511E+03  0.78786222874E+03  0.50400001928E-02 0. -1.
       -1    1    3    3    0  502  0.63538393226E+03  0.34016328290E+03  0.10342217657E+04  0.12605706887E+04  0.50400001928E-02 0.  1.
</event>
<event>
 5   0  0.2376359E-04  0.1901622E+04  0.7818609E-02  0.8654049E-01
        1   -1    0    0  501    0  0.00000000000E+00  0.00000000000E+00  0.17591701224E+04  0.17591701224E+04  0.50400001928E-02 0.  1.
       -1   -1    0    0    0  501  0.00000000000E+00  0.00000000000E+00 -0.51390255717E+03  0.51390255720E+03  0.50400001928E-02 0. -1.
    10030    2    1    2    0    0  0.00000000000E+00  0.00000000000E+00  0.12452675652E+04  0.22730726796E+04  0.19016224908E+04 0.  0.
        2    1    3    3  502    0  0.59251133897E+03 -0.53113073826E+03  0.51766066669E+00  0.79571968426E+03  0.25500000920E-02 0. -1.
       -2    1    3    3    0  502 -0.59251133897E+03  0.53113073826E+03  0.12447499045E+04  0.14773529953E+04  0.25500000920E-02 0.  1.
</event>
<event>
 5   0  0.2355414E-04  0.1916676E+04  0.7818609E-02  0.8646600E-01
        1   -1    0    0  501    0  0.00000000000E+00  0.00000000000E+00  0.86836478735E+03  0.86836478737E+03  0.50400001928E-02 0.  1.
       -1   -1    0    0    0  501  0.00000000000E+00  0.00000000000E+00 -0.10576333633E+04  0.10576333633E+04  0.50400001928E-02 0. -1.
    10030    2    1    2    0    0  0.00000000000E+00  0.00000000000E+00 -0.18926857592E+03  0.19259981507E+04  0.19166758418E+04 0.  0.
        5    1    3    3  502    0  0.78581218157E+03 -0.54727462892E+03 -0.57316394959E+02  0.95933183169E+03  0.46999998093E+01 0.  1.
       -5    1    3    3    0  502 -0.78581218157E+03  0.54727462892E+03 -0.13195218096E+03  0.96666631896E+03  0.46999998093E+01 0. -1.
</event>
<event>
 5   0  0.4802635E-04  0.1949075E+04  0.7818609E-02  0.8630807E-01
        2   -1    0    0  501    0  0.00000000000E+00  0.00000000000E+00  0.11992193850E+04  0.11992193850E+04  0.25500000920E-02 0. -1.
       -2   -1    0    0    0  501  0.00000000000E+00  0.00000000000E+00 -0.79195158560E+03  0.79195158561E+03  0.25500000920E-02 0.  1.
    10030    2    1    2    0    0  0.00000000000E+00  0.00000000000E+00  0.40726779939E+03  0.19911709706E+04  0.19490753638E+04 0.  0.
        3    1    3    3  502    0  0.64430332126E+03  0.36391511941E+03  0.85149337297E+03  0.11280966086E+04  0.10100000352E+00 0. -1.
       -3    1    3    3    0  502 -0.64430332126E+03 -0.36391511941E+03 -0.44422557358E+03  0.86307436200E+03  0.10100000352E+00 0.  1.
</event>
<event>
 5   0  0.4973411E-04  0.1732437E+04  0.7818609E-02  0.8743078E-01
        2   -1    0    0  501    0  0.00000000000E+00  0.00000000000E+00  0.14940952362E+04  0.14940952362E+04  0.25500000920E-02 0. -1.
       -2   -1    0    0    0  501  0.00000000000E+00  0.00000000000E+00 -0.50219994760E+03  0.50219994761E+03  0.25500000920E-02 0.  1.
    10030    2    1    2    0    0  0.00000000000E+00  0.00000000000E+00  0.99189528855E+03  0.19962951838E+04  0.17324370688E+04 0.  0.
        1    1    3    3  502    0 -0.51393080224E+03  0.20449576743E+03 -0.27220936424E+03  0.61647491951E+03  0.50400001928E-02 0.  1.
       -1    1    3    3    0  502  0.51393080224E+03 -0.20449576743E+03  0.12641046528E+04  0.13798202642E+04  0.50400001928E-02 0. -1.
</event>
<event>
 5   0  0.1729375E-04  0.1559753E+04  0.7818609E-02  0.8845662E-01
       -3   -1    0    0    0  501  0.00000000000E+00  0.00000000000E+00  0.17539489302E+04  0.17539489332E+04  0.10100000352E+00 0.  1.
        3   -1    0    0  501    0  0.00000000000E+00  0.00000000000E+00 -0.34676468154E+03  0.34676469625E+03  0.10100000352E+00 0. -1.
    10030    2    1    2    0    0  0.00000000000E+00  0.00000000000E+00  0.14071842487E+04  0.21007136294E+04  0.15597532635E+04 0.  0.
        4    1    3    3  502    0  0.10124528092E+02  0.62193899025E+03  0.70018515278E+02  0.62595113151E+03  0.12699999809E+01 0. -1.
       -4    1    3    3    0  502 -0.10124528092E+02 -0.62193899025E+03  0.13371657334E+04  0.14747624979E+04  0.12699999809E+01 0.  1.
</event>
<event>
 5   0  0.2376359E-04  0.1872643E+04  0.7818609E-02  0.8668595E-01
        1   -1    0    0  501    0  0.00000000000E+00  0.00000000000E+00  0.16866024100E+04  0.16866024100E+04  0.50400001928E-02 0. -1.
       -1   -1    0    0    0  501  0.00000000000E+00  0.00000000000E+00 -0.51980135376E+03  0.51980135379E+03  0.50400001928E-02 0.  1.
    10030    2    1    2    0    0  0.00000000000E+00  0.00000000000E+00  0.11668010562E+04  0.22064037638E+04  0.18726432826E+04 0.  0.
        2    1    3    3  502    0 -0.37658793965E+03  0.48866251351E+03 -0.24646857285E+03  0.66434651035E+03  0.25500000920E-02 0.  1.
       -2    1    3    3    0  502  0.37658793965E+03 -0.48866251351E+03  0.14132696291E+04  0.15420572534E+04  0.25500000920E-02 0. -1.
</event>
<event>
 5   0  0.2355414E-04  0.1917075E+04  0.7818609E-02  0.8646403E-01
       -1   -1    0    0    0  501  0.00000000000E+00  0.00000000000E+00  0.12537838844E+04  0.12537838844E+04  0.50400001928E-02 0. -1.
        1   -1    0    0  501    0  0.00000000000E+00  0.00000000000E+00 -0.73281691815E+03  0.73281691817E+03  0.50400001928E-02 0.  1.
    10030    2    1    2    0    0  0.00000000000E+00  0.00000000000E+00  0.52096696623E+03  0.19866008026E+04  0.19170748991E+04 0.  0.
        5    1    3    3  502    0  0.46682892007E+03  0.29424070676E+02  0.11274720907E+04  0.12206598306E+04  0.46999998093E+01 0. -1.
       -5    1    3    3    0  502 -0.46682892007E+03 -0.29424070676E+02 -0.60650512450E+03  0.76594097201E+03  0.46999998093E+01 0.  1.
</event>
<event>
 5   0  0.2376359E-04  0.1771991E+04  0.7818609E-02  0.8721338E-01
       -1   -1    0    0    0  501  0.00000000000E+00  0.00000000000E+00  0.77481235443E+03  0.77481235445E+03  0.50400001928E-02 0. -1.
        1   -1    0    0  501    0  0.00000000000E+00  0.00000000000E+00 -0.10131333503E+04  0.10131333503E+04  0.50400001928E-02 0.  1.
    10030    2    1    2    0    0  0.00000000000E+00  0.00000000000E+00 -0.23832099588E+03  0.17879457048E+04  0.17719912376E+04 0.  0.
        2    1    3    3  502    0  0.35048716400E+03  0.39361617312E+03  0.59944091967E+03  0.79818817334E+03  0.25500000920E-02 0. -1.
       -2    1    3    3    0  502 -0.35048716400E+03 -0.39361617312E+03 -0.83776191555E+03  0.98975753143E+03  0.25500000920E-02 0.  1.
</event>
<event>
 5   0  0.2355414E-04  0.1222639E+04  0.7818609E-02  0.9093268E-01
       -1   -1    0    0    0  501  0.00000000000E+00  0.00000000000E+00  0.55556377164E+03  0.55556377166E+03  0.50400001928E-02 0. -1.
        1   -1    0    0  501    0  0.00000000000E+00  0.00000000000E+00 -0.67267063292E+03  0.67267063294E+03  0.50400001928E-02 0.  1.
    10030    2    1    2    0    0  0.00000000000E+00  0.00000000000E+00 -0.11710686128E+03  0.12282344046E+04  0.12226388411E+04 0.  0.
        5    1    3    3  502    0  0.11121140207E+03 -0.40296372233E+03 -0.50662344411E+03  0.65683874854E+03  0.46999998093E+01 0.  1.
       -5    1    3    3    0  502 -0.11121140207E+03  0.40296372233E+03  0.38951658282E+03  0.57139565606E+03  0.46999998093E+01 0. -1.
</event>
<event>
 5   0  0.2376359E-04  0.1893730E+04  0.7818609E-02  0.8657984E-01
        1   -1    0    0  501    0  0.00000000000E+00  0.00000000000E+00  0.12775990169E+04  0.12775990169E+04  0.50400001928E-02 0. -1.
       -1   -1    0    0    0  501  0.00000000000E+00  0.00000000000E+00 -0.70174824977E+03  0.70174824979E+03  0.50400001928E-02 0.  1.
    10030    2    1    2    0    0  0.00000000000E+00  0.00000000000E+00  0.57585076708E+03  0.19793472666E+04  0.18937295203E+04 0.  0.
        2    1    3    3  502    0  0.72206325268E+03  0.48666281897E+03 -0.10082690814E+03  0.87657407311E+03  0.25500000920E-02 0.  1.
       -2    1    3    3    0  502 -0.72206325268E+03 -0.48666281897E+03  0.67667767523E+03  0.11027731935E+04  0.25500000920E-02 0. -1.
</event>
<event>
 5   0  0.4802635E-04  0.1893359E+04  0.7818609E-02  0.8658169E-01
        2   -1    0    0  501    0  0.00000000000E+00  0.00000000000E+00  0.18108945380E+04  0.18108945380E+04  0.25500000920E-02 0. -1.
       -2   -1    0    0    0  501  0.00000000000E+00  0.00000000000E+00 -0.49489452757E+03  0.49489452758E+03  0.25500000920E-02 0.  1.
    10030    2    1    2    0    0  0.00000000000E+00  0.00000000000E+00  0.13160000104E+04  0.23057890656E+04  0.18933587055E+04 0.  0.
        3    1    3    3  502    0 -0.53838100582E+03  0.56674270857E+02  0.16037888655E+04  0.16926915891E+04  0.10100000352E+00 0. -1.
       -3    1    3    3    0  502  0.53838100582E+03 -0.56674270857E+02 -0.28778885507E+03  0.61309747652E+03  0.10100000352E+00 0.  1.
</event>
<event>
 5   0  0.4829134E-04  0.1905853E+04  0.7818609E-02  0.8651949E-01
       -2   -1    0    0    0  501  0.00000000000E+00  0.00000000000E+00  0.78511355287E+03  0.78511355287E+03  0.25500000920E-02 0.  1.
        2   -1    0    0  501    0  0.00000000000E+00  0.00000000000E+00 -0.11566082405E+04  0.11566082405E+04  0.25500000920E-02 0. -1.
    10030    2    1    2    0    0  0.00000000000E+00  0.00000000000E+00 -0.37149468768E+03  0.19417217934E+04  0.19058528852E+04 0.  0.
        2    1    3    3  502    0  0.70300725542E+03 -0.50266923281E+03 -0.59476693259E+03  0.10491154669E+04  0.25500000920E-02 0. -1.
       -2    1    3    3    0  502 -0.70300725542E+03  0.50266923281E+03  0.22327224491E+03  0.89260632652E+03  0.25500000920E-02 0.  1.
</event>
<event>
 5   0  0.4973411E-04  0.1810712E+04  0.7818609E-02  0.8700623E-01
        2   -1    0    0  501    0  0.00000000000E+00  0.00000000000E+00  0.17254743947E+04  0.17254743947E+04  0.25500000920E-02 0.  1.
       -2   -1    0    0    0  501  0.00000000000E+00  0.00000000000E+00 -0.47504024750E+03  0.47504024750E+03  0.25500000920E-02 0. -1.
    10030    2    1    2    0    0  0.00000000000E+00  0.00000000000E+00  0.12504341472E+04  0.22005146422E+04  0.18107123278E+04 0.  0.
        1    1    3    3  502    0 -0.34852738880E+03  0.82536671301E+03  0.46691263260E+03  0.10103014195E+04  0.50400001928E-02 0. -1.
       -1    1    3    3    0  502  0.34852738880E+03 -0.82536671301E+03  0.78352151462E+03  0.11902132227E+04  0.50400001928E-02 0.  1.
</event>
<event>
 5   0  0.2376359E-04  0.1904390E+04  0.7818609E-02  0.8652675E-01
        1   -1    0    0  501    0  0.00000000000E+00  0.00000000000E+00  0.56214804846E+03  0.56214804848E+03  0.50400001928E-02 0.  1.
       -1   -1    0    0    0  501  0.00000000000E+00  0.00000000000E+00 -0.16128755801E+04  0.16128755801E+04  0.50400001928E-02 0. -1.
    10030    2    1    2    0    0  0.00000000000E+00  0.00000000000E+00 -0.10507275316E+04  0.21750236285E+04  0.19043895187E+04 0.  0.
        2    1    3    3  502    0 -0.24150240908E+03 -0.17869227379E+03 -0.15573292028E+04  0.15860417990E+04  0.25500000920E-02 0. -1.
       -2    1    3    3    0  502  0.24150240908E+03  0.17869227379E+03  0.50660167118E+03  0.58898182956E+03  0.25500000920E-02 0.  1.
</event>
<event>
 5   0  0.4761944E-04  0.2049125E+04  0.7818609E-02  0.8583991E-01
        2   -1    0    0  501    0  0.00000000000E+00  0.00000000000E+00  0.16568848301E+04  0.16568848301E+04  0.25500000920E-02 0.  1.
       -2   -1    0    0    0  501  0.00000000000E+00  0.00000000000E+00 -0.63355557491E+03  0.63355557491E+03  0.25500000920E-02 0. -1.
    10030    2    1    2    0    0  0.00000000000E+00  0.00000000000E+00  0.10233292552E+04  0.22904404050E+04  0.20491252974E+04 0.  0.
        4    1    3    3  502    0 -0.46631214655E+02 -0.40801515026E+03 -0.53753278362E+03  0.67645690135E+03  0.12699999809E+01 0. -1.
       -4    1    3    3    0  502  0.46631214655E+02  0.40801515026E+03  0.15608620388E+04  0.16139835037E+04  0.12699999809E+01 0.  1.
</event>
<event>
 5   0  0.2261755E-04  0.1324887E+04  0.7818609E-02  0.9010059E-01
        1   -1    0    0  501    0  0.00000000000E+00  0.00000000000E+00  0.94889190770E+03  0.94889190771E+03  0.50400001928E-02 0. -1.
       -1   -1    0    0    0  501  0.00000000000E+00  0.00000000000E+00 -0.46246720830E+03  0.46246720833E+03  0.50400001928E-02 0.  1.
    10030    2    1    2    0    0  0.00000000000E+00  0.00000000000E+00  0.48642469939E+03  0.14113591160E+04  0.13248870013E+04 0.  0.
        1    1    3    3  502    0 -0.28911128517E+03 -0.26266840638E+03  0.81315673075E+03  0.90211080013E+03  0.50400001928E-02 0. -1.
       -1    1    3    3    0  502  0.28911128517E+03  0.26266840638E+03 -0.32673203136E+03  0.50924831591E+03  0.50400001928E-02 0.  1.
</event>
<event>
 5   0  0.2510069E-04  0.1973913E+04  0.7818609E-02  0.8618915E-01
        1   -1    0    0  501    0  0.00000000000E+00  0.00000000000E+00  0.16859650246E+04  0.16859650246E+04  0.50400001928E-02 0.  1.
       -1   -1    0    0    0  501  0.00000000000E+00  0.00000000000E+00 -0.57775996766E+03  0.57775996768E+03  0.50400001928E-02 0. -1.
    10030    2    1    2    0    0  0.00000000000E+00  0.00000000000E+00  0.11082050570E+04  0.22637249923E+04  0.19739129648E+04 0.  0.
        4    1    3    3  502    0 -0.31739899925E+03 -0.77653574410E+03  0.11503740567E+04  0.14237668243E+04  0.12699999809E+01 0.  1.
       -4    1    3    3    0  502  0.31739899925E+03  0.77653574410E+03 -0.42168999793E+02  0.83995816802E+03  0.12699999809E+01 0. -1.
</event>
<event>
 5   0  0.4802635E-04  0.1180192E+04  0.7818609E-02  0.9130373E-01
        2   -1    0    0  501    0  0.00000000000E+00  0.00000000000E+00  0.12259848057E+04  0.12259848057E+04  0.25500000920E-02 0.  1.
       -2   -1    0    0    0  501  0.00000000000E+00  0.00000000000E+00 -0.28402754112E+03  0.28402754113E+03  0.25500000920E-02 0. -1.
    10030    2    1    2    0    0  0.00000000000E+00  0.00000000000E+00  0.94195726460E+03  0.15100123469E+04  0.11801922722E+04 0.  0.
        3    1    3    3  502    0 -0.29386321945E+03 -0.31113931587E+03  0.99077797390E+03  0.10792609830E+04  0.10100000352E+00 0.  1.
       -3    1    3    3    0  502  0.29386321945E+03  0.31113931587E+03 -0.48820709295E+02  0.43075136388E+03  0.10100000352E+00 0. -1.
</event>
<event>
 5   0  0.2355414E-04  0.1926152E+04  0.7818609E-02  0.8641947E-01
        1   -1    0    0  501    0  0.00000000000E+00  0.00000000000E+00  0.73397464134E+03  0.73397464135E+03  0.50400001928E-02 0. -1.
       -1   -1    0    0    0  501  0.00000000000E+00  0.00000000000E+00 -0.12636881333E+04  0.12636881334E+04  0.50400001928E-02 0.  1.
    10030    2    1    2    0    0  0.00000000000E+00  0.00000000000E+00 -0.52971349201E+03  0.19976627747E+04  0.19261516498E+04 0.  0.
        5    1    3    3  502    0  0.39615534804E+03  0.89750333902E+02  0.64077424170E+03  0.75868827659E+03  0.46999998093E+01 0. -1.
       -5    1    3    3    0  502 -0.39615534804E+03 -0.89750333902E+02 -0.11704877337E+04  0.12389744981E+04  0.46999998093E+01 0.  1.
</event>
<event>
 5   0  0.4802635E-04  0.1905527E+04  0.7818609E-02  0.8652110E-01
       -2   -1    0    0    0  501  0.00000000000E+00  0.00000000000E+00  0.51830703633E+03  0.51830703634E+03  0.25500000920E-02 0.  1.
        2   -1    0    0  501    0  0.00000000000E+00  0.00000000000E+00 -0.17513916913E+04  0.17513916913E+04  0.25500000920E-02 0. -1.
    10030    2    1    2    0    0  0.00000000000E+00  0.00000000000E+00 -0.12330846550E+04  0.22696987277E+04  0.19055273674E+04 0.  0.
        3    1    3    3  502    0  0.43529025691E+03  0.68633937680E+03 -0.24307161824E+02  0.81309913062E+03  0.10100000352E+00 0.  1.
       -3    1    3    3    0  502 -0.43529025691E+03 -0.68633937680E+03 -0.12087774932E+04  0.14565995970E+04  0.10100000352E+00 0. -1.
</event>
<event>
 5   0  0.2510069E-04  0.2018669E+04  0.7818609E-02  0.8597942E-01
       -1   -1    0    0    0  501  0.00000000000E+00  0.00000000000E+00  0.16278823203E+04  0.16278823203E+04  0.50400001928E-02 0.  1.
        1   -1    0    0  501    0  0.00000000000E+00  0.00000000000E+00 -0.62581652034E+03  0.62581652037E+03  0.50400001928E-02 0. -1.
    10030    2    1    2    0    0  0.00000000000E+00  0.00000000000E+00  0.10020658000E+04  0.22536988407E+04  0.20186685208E+04 0.  0.
        4    1    3    3  502    0  0.15741815290E+03 -0.11635796142E+03 -0.60441973173E+03  0.63533020947E+03  0.12699999809E+01 0. -1.
       -4    1    3    3    0  502 -0.15741815290E+03  0.11635796142E+03  0.16064855317E+04  0.16183686312E+04  0.12699999809E+01 0.  1.
</event>
<event>
 5   0  0.2355414E-04  0.1921291E+04  0.7818609E-02  0.8644331E-01
        1   -1    0    0  501    0  0.00000000000E+00  0.00000000000E+00  0.58320746080E+03  0.58320746082E+03  0.50400001928E-02 0.  1.
       -1   -1    0    0    0  501  0.00000000000E+00  0.00000000000E+00 -0.15823517014E+04  0.15823517014E+04  0.50400001928E-02 0. -1.
    10030    2    1    2    0    0  0.00000000000E+00  0.00000000000E+00 -0.99914424060E+03  0.21655591622E+04  0.19212905224E+04 0.  0.
        5    1    3    3  502    0 -0.32595731695E+03 -0.54324357813E+03 -0.13134994409E+04  0.14583088249E+04  0.46999998093E+01 0. -1.
       -5    1    3    3    0  502  0.32595731695E+03  0.54324357813E+03  0.31435520029E+03  0.70725033729E+03  0.46999998093E+01 0.  1.
</event>
<event>
 5   0  0.4839293E-04  0.1896113E+04  0.7818609E-02  0.8656794E-01
       -2   -1    0    0    0  501  0.00000000000E+00  0.00000000000E+00  0.10300649162E+04  0.10300649162E+04  0.25500000920E-02 0. -1.
        2   -1    0    0  501    0  0.00000000000E+00  0.00000000000E+00 -0.87257671244E+03  0.87257671244E+03  0.25500000920E-02 0.  1.
    10030    2    1    2    0    0  0.00000000000E+00  0.00000000000E+00  0.15748820372E+03  0.19026416286E+04  0.18961125053E+04 0.  0.
        5    1    3    3  502    0 -0.33572049993E+03 -0.66980661620E+03  0.66163972496E+03  0.99956909357E+03  0.46999998093E+01 0. -1.
       -5    1    3    3    0  502  0.33572049993E+03  0.66980661620E+03 -0.50415152123E+03  0.90307253504E+03  0.46999998093E+01 0.  1.
</event>
<event>
 5   0  0.2261755E-04  0.1884390E+04  0.7818609E-02  0.8662666E-01
        1   -1    0    0  501    0  0.00000000000E+00  0.00000000000E+00  0.15126121336E+04  0.15126121336E+04  0.50400001928E-02 0.  1.
       -1   -1    0    0    0  501  0.00000000000E+00  0.00000000000E+00 -0.58688606604E+03  0.58688606606E+03  0.50400001928E-02 0. -1.
    10030    2    1    2    0    0  0.00000000000E+00  0.00000000000E+00  0.92572606755E+03  0.20994981997E+04  0.18843895399E+04 0.  0.
        1    1    3    3  502    0  0.20481995217E+03 -0.24930070127E+03  0.14491426392E+04  0.14846267009E+04  0.50400001928E-02 0.  1.
       -1    1    3    3    0  502 -0.20481995217E+03  0.24930070127E+03 -0.52341657162E+03  0.61487149872E+03  0.50400001928E-02 0. -1.
</event>
<event>
 5   0  0.4839293E-04  0.1909500E+04  0.7818609E-02  0.8650142E-01
       -2   -1    0    0    0  501  0.00000000000E+00  0.00000000000E+00  0.56514271735E+03  0.56514271735E+03  0.25500000920E-02 0. -1.
        2   -1    0    0  501    0  0.00000000000E+00  0.00000000000E+00 -0.16129514886E+04  0.16129514886E+04  0.25500000920E-02 0.  1.
    10030    2    1    2    0    0  0.00000000000E+00  0.00000000000E+00 -0.10478087712E+04  0.21780942059E+04  0.19095002354E+04 0.  0.
        5    1    3    3  502    0 -0.61591401504E+03  0.60640816014E+03 -0.98646321139E+03  0.13115687889E+04  0.46999998093E+01 0.  1.
       -5    1    3    3    0  502  0.61591401504E+03 -0.60640816014E+03 -0.61345559820E+02  0.86652541701E+03  0.46999998093E+01 0. -1.
</event>
<event>
 5   0  0.2376359E-04  0.1888072E+04  0.7818609E-02  0.8660816E-01
       -1   -1    0    0    0  501  0.00000000000E+00  0.00000000000E+00  0.45426060084E+03  0.45426060086E+03  0.50400001928E-02 0.  1.
        1   -1    0    0  501    0  0.00000000000E+00  0.00000000000E+00 -0.19618786891E+04  0.19618786891E+04  0.50400001928E-02 0. -1.
    10030    2    1    2    0    0  0.00000000000E+00  0.00000000000E+00 -0.15076180882E+04  0.24161392899E+04  0.18880722360E+04 0.  0.
        2    1    3    3  502    0  0.17426076259E+02 -0.90494979444E+03 -0.41051344878E+03  0.99386069961E+03  0.25500000920E-02 0.  1.
       -2    1    3    3    0  502 -0.17426076259E+02  0.90494979444E+03 -0.10971046395E+04  0.14222785903E+04  0.25500000920E-02 0. -1.
</event>
<event>
 5   0  0.2317458E-04  0.1949251E+04  0.7818609E-02  0.8630722E-01
        1   -1    0    0  501    0  0.00000000000E+00  0.00000000000E+00  0.13567856299E+04  0.13567856299E+04  0.50400001928E-02 0.  1.
       -1   -1    0    0    0  501  0.00000000000E+00  0.00000000000E+00 -0.70010666062E+03  0.70010666064E+03  0.50400001928E-02 0. -1.
    10030    2    1    2    0    0  0.00000000000E+00  0.00000000000E+00  0.65667896925E+03  0.20568922905E+04  0.19492507859E+04 0.  0.
        3    1    3    3  502    0 -0.28337576521E+02  0.45113884158E+03 -0.58280383923E+03  0.73755650485E+03  0.10100000352E+00 0. -1.
       -3    1    3    3    0  502  0.28337576521E+02 -0.45113884158E+03  0.12394828085E+04  0.13193357857E+04  0.10100000352E+00 0.  1.
</event>
<event>
 5   0  0.2355414E-04  0.1868677E+04  0.7818609E-02  0.8670607E-01
        1   -1    0    0  501    0  0.00000000000E+00  0.00000000000E+00  0.19081786222E+04  0.19081786222E+04  0.50400001928E-02 0. -1.
       -1   -1    0    0    0  501  0.00000000000E+00  0.00000000000E+00 -0.45749839472E+03  0.45749839475E+03  0.50400001928E-02 0.  1.
    10030    2    1    2    0    0  0.00000000000E+00  0.00000000000E+00  0.14506802275E+04  0.23656770170E+04  0.18686772397E+04 0.  0.
        5    1    3    3  502    0 -0.42071579835E+03  0.46165601923E+03  0.16050148152E+04  0.17222725423E+04  0.46999998093E+01 0. -1.
       -5    1    3    3    0  502  0.42071579835E+03 -0.46165601923E+03 -0.15433458767E+03  0.64340447467E+03  0.46999998093E+01 0.  1.
</event>
<event>
 5   0  0.4829134E-04  0.1755417E+04  0.7818609E-02  0.8730374E-01
       -2   -1    0    0    0  501  0.00000000000E+00  0.00000000000E+00  0.52621435469E+03  0.52621435469E+03  0.25500000920E-02 0. -1.
        2   -1    0    0  501    0  0.00000000000E+00  0.00000000000E+00 -0.14639895507E+04  0.14639895507E+04  0.25500000920E-02 0.  1.
    10030    2    1    2    0    0  0.00000000000E+00  0.00000000000E+00 -0.93777519599E+03  0.19902039054E+04  0.17554171204E+04 0.  0.
        2    1    3    3  502    0 -0.11540745527E+03 -0.65897462101E+03  0.17526381848E+03  0.69158068072E+03  0.25500000920E-02 0. -1.
       -2    1    3    3    0  502  0.11540745527E+03  0.65897462101E+03 -0.11130390145E+04  0.12986232247E+04  0.25500000920E-02 0.  1.
</event>
<event>
 5   0  0.4973411E-04  0.1708358E+04  0.7818609E-02  0.8756612E-01
       -2   -1    0    0    0  501  0.00000000000E+00  0.00000000000E+00  0.50240662943E+03  0.50240662943E+03  0.25500000920E-02 0.  1.
        2   -1    0    0  501    0  0.00000000000E+00  0.00000000000E+00 -0.14522528030E+04  0.14522528030E+04  0.25500000920E-02 0. -1.
    10030    2    1    2    0    0  0.00000000000E+00  0.00000000000E+00 -0.94984617360E+03  0.19546594325E+04  0.17083576158E+04 0.  0.
        1    1    3    3  502    0 -0.51469140613E+01 -0.20780613556E+03 -0.14228712829E+04  0.14379751626E+04  0.50400001928E-02 0. -1.
       -1    1    3    3    0  502  0.51469140613E+01  0.20780613556E+03  0.47302510925E+03  0.51668426985E+03  0.50400001928E-02 0.  1.
</event>
<event>
 5   0  0.2261755E-04  0.1832603E+04  0.7818609E-02  0.8689151E-01
        1   -1    0    0  501    0  0.00000000000E+00  0.00000000000E+00  0.70116101296E+03  0.70116101297E+03  0.50400001928E-02 0.  1.
       -1   -1    0    0    0  501  0.00000000000E+00  0.00000000000E+00 -0.11974546725E+04  0.11974546725E+04  0.50400001928E-02 0. -1.
    10030    2    1    2    0    0  0.00000000000E+00  0.00000000000E+00 -0.49629365954E+03  0.18986156855E+04  0.18326031007E+04 0.  0.
        1    1    3    3  502    0 -0.19181632607E+03 -0.55923040631E+03  0.47712453941E+03  0.75972361844E+03  0.50400001928E-02 0.  1.
       -1    1    3    3    0  502  0.19181632607E+03  0.55923040631E+03 -0.97341819896E+03  0.11388920670E+04  0.50400001928E-02 0. -1.
</event>
<event>
 5   0  0.2317458E-04  0.1844330E+04  0.7818609E-02  0.8683074E-01
        1   -1    0    0  501    0  0.00000000000E+00  0.00000000000E+00  0.39115911738E+03  0.39115911741E+03  0.50400001928E-02 0.  1.
       -1   -1    0    0    0  501  0.00000000000E+00  0.00000000000E+00 -0.21740217566E+04  0.21740217566E+04  0.50400001928E-02 0. -1.
    10030    2    1    2    0    0  0.00000000000E+00  0.00000000000E+00 -0.17828626392E+04  0.25651808740E+04  0.18443301565E+04 0.  0.
        3    1    3    3  502    0  0.67276842504E+03  0.11019592837E+03 -0.27730039102E+02  0.68229719450E+03  0.10100000352E+00 0.  1.
       -3    1    3    3    0  502 -0.67276842504E+03 -0.11019592837E+03 -0.17551326001E+04  0.18828836795E+04  0.10100000352E+00 0. -1.
</event>
<event>
 5   0  0.2317458E-04  0.1945150E+04  0.7818609E-02  0.8632703E-01
       -1   -1    0    0    0  501  0.00000000000E+00  0.00000000000E+00  0.60513108764E+03  0.60513108766E+03  0.50400001928E-02 0.  1.
        1   -1    0    0  501    0  0.00000000000E+00  0.00000000000E+00 -0.15631351805E+04  0.15631351805E+04  0.50400001928E-02 0. -1.
    10030    2    1    2    0    0  0.00000000000E+00  0.00000000000E+00 -0.95800409285E+03  0.21682662682E+04  0.19451495489E+04 0.  0.
        3    1    3    3  502    0  0.79388927380E+03  0.43343919944E+02  0.14539429216E+03  0.80825638559E+03  0.10100000352E+00 0. -1.
       -3    1    3    3    0  502 -0.79388927380E+03 -0.43343919944E+02 -0.11033983850E+04  0.13600098826E+04  0.10100000352E+00 0.  1.
</event>
<event>
 5   0  0.2510069E-04  0.1923102E+04  0.7818609E-02  0.8643442E-01
       -1   -1    0    0    0  501  0.00000000000E+00  0.00000000000E+00  0.89035953165E+03  0.89035953167E+03  0.50400001928E-02 0. -1.
        1   -1    0    0  501    0  0.00000000000E+00  0.00000000000E+00 -0.10384343955E+04  0.10384343956E+04  0.50400001928E-02 0.  1.
    10030    2    1    2    0    0  0.00000000000E+00  0.00000000000E+00 -0.14807486389E+03  0.19287939272E+04  0.19231016220E+04 0.  0.
        4    1    3    3  502    0 -0.89021341250E+03 -0.27986410176E+03 -0.30661715156E+03  0.98225227197E+03  0.12699999809E+01 0.  1.
       -4    1    3    3    0  502  0.89021341250E+03  0.27986410176E+03  0.15854228767E+03  0.94654165526E+03  0.12699999809E+01 0. -1.
</event>
<event>
 5   0  0.4973411E-04  0.1702523E+04  0.7818609E-02  0.8759927E-01
       -2   -1    0    0    0  501  0.00000000000E+00  0.00000000000E+00  0.21592664095E+03  0.21592664096E+03  0.25500000920E-02 0. -1.
        2   -1    0    0  501    0  0.00000000000E+00  0.00000000000E+00 -0.33559814207E+04  0.33559814207E+04  0.25500000920E-02 0.  1.
    10030    2    1    2    0    0  0.00000000000E+00  0.00000000000E+00 -0.31400547798E+04  0.35719080617E+04  0.17025225934E+04 0.  0.
        1    1    3    3  502    0 -0.43365181792E+03  0.57362331283E+03 -0.61422774630E+03  0.94571313228E+03  0.50400001928E-02 0. -1.
       -1    1    3    3    0  502  0.43365181792E+03 -0.57362331283E+03 -0.25258270335E+04  0.26261949294E+04  0.50400001928E-02 0.  1.
</event>
<event>
 5   0  0.4802635E-04  0.1905683E+04  0.7818609E-02  0.8652033E-01
        2   -1    0    0  501    0  0.00000000000E+00  0.00000000000E+00  0.91336408066E+03  0.91336408066E+03  0.25500000920E-02 0.  1.
       -2   -1    0    0    0  501  0.00000000000E+00  0.00000000000E+00 -0.99402518538E+03  0.99402518538E+03  0.25500000920E-02 0. -1.
    10030    2    1    2    0    0  0.00000000000E+00  0.00000000000E+00 -0.80661104720E+02  0.19073892660E+04  0.19056829743E+04 0.  0.
        3    1    3    3  502    0  0.70345324331E+03 -0.73286544859E+02 -0.67940793355E+03  0.98072041559E+03  0.10100000352E+00 0. -1.
       -3    1    3    3    0  502 -0.70345324331E+03  0.73286544859E+02  0.59874682883E+03  0.92666885046E+03  0.10100000352E+00 0.  1.
</event>
<event>
 5   0  0.2317458E-04  0.1798141E+04  0.7818609E-02  0.8707289E-01
        1   -1    0    0  501    0  0.00000000000E+00  0.00000000000E+00  0.46083751959E+03  0.46083751962E+03  0.50400001928E-02 0. -1.
       -1   -1    0    0    0  501  0.00000000000E+00  0.00000000000E+00 -0.17540406579E+04  0.17540406580E+04  0.50400001928E-02 0.  1.
    10030    2    1    2    0    0  0.00000000000E+00  0.00000000000E+00 -0.12932031384E+04  0.22148781776E+04  0.17981409801E+04 0.  0.
        3    1    3    3  502    0 -0.44130639620E+03 -0.76602142759E+03 -0.44500051925E+03  0.98973008199E+03  0.10100000352E+00 0. -1.
       -3    1    3    3    0  502  0.44130639620E+03  0.76602142759E+03 -0.84820261910E+03  0.12251480956E+04  0.10100000352E+00 0.  1.
</event>
<event>
 5   0  0.4761944E-04  0.1912981E+04  0.7818609E-02  0.8648422E-01
        2   -1    0    0  501    0  0.00000000000E+00  0.00000000000E+00  0.18066847192E+04  0.18066847192E+04  0.25500000920E-02 0. -1.
       -2   -1    0    0    0  501  0.00000000000E+00  0.00000000000E+00 -0.50638279337E+03  0.50638279338E+03  0.25500000920E-02 0.  1.
    10030    2    1    2    0    0  0.00000000000E+00  0.00000000000E+00  0.13003019258E+04  0.23130675125E+04  0.19129809773E+04 0.  0.
        4    1    3    3  502    0 -0.93695543936E+02  0.64470749462E+02 -0.49817659026E+03  0.51099594957E+03  0.12699999809E+01 0.  1.
       -4    1    3    3    0  502  0.93695543936E+02 -0.64470749462E+02  0.17984785160E+04  0.18020715630E+04  0.12699999809E+01 0. -1.
</event>
<event>
 5   0  0.2317458E-04  0.1779415E+04  0.7818609E-02  0.8717323E-01
        1   -1    0    0  501    0  0.00000000000E+00  0.00000000000E+00  0.74353404984E+03  0.74353404986E+03  0.50400001928E-02 0.  1.
       -1   -1    0    0    0  501  0.00000000000E+00  0.00000000000E+00 -0.10646180803E+04  0.10646180803E+04  0.50400001928E-02 0. -1.
    10030    2    1    2    0    0  0.00000000000E+00  0.00000000000E+00 -0.32108403046E+03  0.18081521302E+04  0.17794154015E+04 0.  0.
        3    1    3    3  502    0 -0.85535332490E+03 -0.41733785279E+02  0.84619224329E+02  0.86054136598E+03  0.10100000352E+00 0.  1.
       -3    1    3    3    0  502  0.85535332490E+03  0.41733785279E+02 -0.40570325478E+03  0.94761076418E+03  0.10100000352E+00 0. -1.
</event>
<event>
 5   0  0.2317458E-04  0.1612791E+04  0.7818609E-02  0.8812728E-01
       -1   -1    0    0    0  501  0.00000000000E+00  0.00000000000E+00  0.15904389109E+04  0.15904389109E+04  0.50400001928E-02 0.  1.
        1   -1    0    0  501    0  0.00000000000E+00  0.00000000000E+00 -0.40886448534E+03  0.40886448537E+03  0.50400001928E-02 0. -1.
    10030    2    1    2    0    0  0.00000000000E+00  0.00000000000E+00  0.11815744255E+04  0.19993033962E+04  0.16127913526E+04 0.  0.
        3    1    3    3  502    0 -0.41664582139E+03  0.32672604405E+03  0.13447683594E+04  0.14452493207E+04  0.10100000352E+00 0.  1.
       -3    1    3    3    0  502  0.41664582139E+03 -0.32672604405E+03 -0.16319393389E+03  0.55405407553E+03  0.10100000352E+00 0. -1.
</event>
<event>
 5   0  0.4839293E-04  0.1730489E+04  0.7818609E-02  0.8744164E-01
        2   -1    0    0  501    0  0.00000000000E+00  0.00000000000E+00  0.17734835624E+04  0.17734835624E+04  0.25500000920E-02 0.  1.
       -2   -1    0    0    0  501  0.00000000000E+00  0.00000000000E+00 -0.42213433381E+03  0.42213433382E+03  0.25500000920E-02 0. -1.
    10030    2    1    2    0    0  0.00000000000E+00  0.00000000000E+00  0.13513492286E+04  0.21956178962E+04  0.17304892974E+04 0.  0.
        5    1    3    3  502    0 -0.54879187409E+03  0.59226153810E+03  0.10701828545E+04  0.13406191415E+04  0.46999998093E+01 0.  1.
       -5    1    3    3    0  502  0.54879187409E+03 -0.59226153810E+03  0.28116637406E+03  0.85499875467E+03  0.46999998093E+01 0. -1.
</event>
<event>
 5   0  0.2510069E-04  0.1888245E+04  0.7818609E-02  0.8660730E-01
       -1   -1    0    0    0  501  0.00000000000E+00  0.00000000000E+00  0.15405709534E+04  0.15405709534E+04  0.50400001928E-02 0. -1.
        1   -1    0    0  501    0  0.00000000000E+00  0.00000000000E+00 -0.57859521337E+03  0.57859521340E+03  0.50400001928E-02 0.  1.
    10030    2    1    2    0    0  0.00000000000E+00  0.00000000000E+00  0.96197573998E+03  0.21191661668E+04  0.18882446658E+04 0.  0.
        4    1    3    3  502    0 -0.37869992117E+02 -0.91575091320E+03  0.73525996590E+03  0.11750075326E+04  0.12699999809E+01 0. -1.
       -4    1    3    3    0  502  0.37869992117E+02  0.91575091320E+03  0.22671577408E+03  0.94415863415E+03  0.12699999809E+01 0.  1.
</event>
<event>
 5   0  0.2317458E-04  0.1912911E+04  0.7818609E-02  0.8648456E-01
        1   -1    0    0  501    0  0.00000000000E+00  0.00000000000E+00  0.14686350157E+04  0.14686350157E+04  0.50400001928E-02 0. -1.
       -1   -1    0    0    0  501  0.00000000000E+00  0.00000000000E+00 -0.62289602079E+03  0.62289602081E+03  0.50400001928E-02 0.  1.
    10030    2    1    2    0    0  0.00000000000E+00  0.00000000000E+00  0.84573899491E+03  0.20915310365E+04  0.19129107740E+04 0.  0.
        3    1    3    3  502    0 -0.44684150554E+03 -0.58720282836E+03  0.10882429325E+04  0.13148183080E+04  0.10100000352E+00 0. -1.
       -3    1    3    3    0  502  0.44684150554E+03  0.58720282836E+03 -0.24250393759E+03  0.77671272853E+03  0.10100000352E+00 0.  1.
</event>
<event>
 5   0  0.4829134E-04  0.1868725E+04  0.7818609E-02  0.8670583E-01
        2   -1    0    0  501    0  0.00000000000E+00  0.00000000000E+00  0.23786721595E+04  0.23786721595E+04  0.25500000920E-02 0. -1.
       -2   -1    0    0    0  501  0.00000000000E+00  0.00000000000E+00 -0.36702529387E+03  0.36702529388E+03  0.25500000920E-02 0.  1.
    10030    2    1    2    0    0  0.00000000000E+00  0.00000000000E+00  0.20116468657E+04  0.27456974534E+04  0.18687245366E+04 0.  0.
        2    1    3    3  502    0 -0.63984246853E+02  0.87633605557E+03  0.53893605271E+03  0.10307817107E+04  0.25500000920E-02 0. -1.
       -2    1    3    3    0  502  0.63984246853E+02 -0.87633605557E+03  0.14727108130E+04  0.17149157428E+04  0.25500000920E-02 0.  1.
</event>
<event>
 5   0  0.2261755E-04  0.9730955E+03  0.7818609E-02  0.9338556E-01
        1   -1    0    0  501    0  0.00000000000E+00  0.00000000000E+00  0.29634140469E+03  0.29634140473E+03  0.50400001928E-02 0. -1.
       -1   -1    0    0    0  501  0.00000000000E+00  0.00000000000E+00 -0.79883776631E+03  0.79883776633E+03  0.50400001928E-02 0.  1.
    10030    2    1    2    0    0  0.00000000000E+00  0.00000000000E+00 -0.50249636163E+03  0.10951791711E+04  0.97309548518E+03 0.  0.
        1    1    3    3  502    0 -0.27885002841E+03  0.13170786985E+03 -0.67479240745E+03  0.74192256637E+03  0.50400001928E-02 0.  1.
       -1    1    3    3    0  502  0.27885002841E+03 -0.13170786985E+03  0.17229604582E+03  0.35325660469E+03  0.50400001928E-02 0. -1.
</event>
<event>
 5   0  0.4973411E-04  0.2063508E+04  0.7818609E-02  0.8577491E-01
       -2   -1    0    0    0  501  0.00000000000E+00  0.00000000000E+00  0.66659819715E+03  0.66659819716E+03  0.25500000920E-02 0.  1.
        2   -1    0    0  501    0  0.00000000000E+00  0.00000000000E+00 -0.15969387155E+04  0.15969387155E+04  0.25500000920E-02 0. -1.
    10030    2    1    2    0    0  0.00000000000E+00  0.00000000000E+00 -0.93034051831E+03  0.22635369126E+04  0.20635081475E+04 0.  0.
        1    1    3    3  502    0 -0.94134465586E+03 -0.10094737802E+03 -0.91504297704E+03  0.13166714792E+04  0.50400001928E-02 0. -1.
       -1    1    3    3    0  502  0.94134465586E+03  0.10094737802E+03 -0.15297541274E+02  0.94686543344E+03  0.50400001928E-02 0.  1.
</event>
<event>
 5   0  0.2376359E-04  0.1185310E+04  0.7818609E-02  0.9125813E-01
        1   -1    0    0  501    0  0.00000000000E+00  0.00000000000E+00  0.14395303204E+04  0.14395303204E+04  0.50400001928E-02 0. -1.
       -1   -1    0    0    0  501  0.00000000000E+00  0.00000000000E+00 -0.24399606028E+03  0.24399606034E+03  0.50400001928E-02 0.  1.
    10030    2    1    2    0    0  0.00000000000E+00  0.00000000000E+00  0.11955342601E+04  0.16835263807E+04  0.11853096252E+04 0.  0.
        2    1    3    3  502    0  0.15954387044E+03  0.72621871124E+02  0.14018669286E+04  0.14127841549E+04  0.25500000920E-02 0. -1.
       -2    1    3    3    0  502 -0.15954387044E+03 -0.72621871124E+02 -0.20633266850E+03  0.27074222585E+03  0.25500000920E-02 0.  1.
</event>
<event>
 5   0  0.2510069E-04  0.1877780E+04  0.7818609E-02  0.8665996E-01
        1   -1    0    0  501    0  0.00000000000E+00  0.00000000000E+00  0.12520831732E+04  0.12520831732E+04  0.50400001928E-02 0. -1.
       -1   -1    0    0    0  501  0.00000000000E+00  0.00000000000E+00 -0.70403843355E+03  0.70403843357E+03  0.50400001928E-02 0.  1.
    10030    2    1    2    0    0  0.00000000000E+00  0.00000000000E+00  0.54804473964E+03  0.19561216068E+04  0.18777802597E+04 0.  0.
        4    1    3    3  502    0 -0.75825202377E+03 -0.14708750791E+03 -0.28203787173E+03  0.82226993166E+03  0.12699999809E+01 0.  1.
       -4    1    3    3    0  502  0.75825202377E+03  0.14708750791E+03  0.83008261137E+03  0.11338516751E+04  0.12699999809E+01 0. -1.
</event>
<event>
 5   0  0.4802635E-04  0.1901486E+04  0.7818609E-02  0.8654117E-01
       -2   -1    0    0    0  501  0.00000000000E+00  0.00000000000E+00  0.51595294128E+03  0.51595294129E+03  0.25500000920E-02 0. -1.
        2   -1    0    0  501    0  0.00000000000E+00  0.00000000000E+00 -0.17519274415E+04  0.17519274415E+04  0.25500000920E-02 0.  1.
    10030    2    1    2    0    0  0.00000000000E+00  0.00000000000E+00 -0.12359745002E+04  0.22678803828E+04  0.19014858573E+04 0.  0.
        3    1    3    3  502    0  0.38297201076E+03 -0.46632889427E+03 -0.14942537458E+04  0.16114975847E+04  0.10100000352E+00 0.  1.
       -3    1    3    3    0  502 -0.38297201076E+03  0.46632889427E+03  0.25827924558E+03  0.65638279803E+03  0.10100000352E+00 0. -1.
</event>
<event>
 5   0  0.2317458E-04  0.1940386E+04  0.7818609E-02  0.8635011E-01
        1   -1    0    0  501    0  0.00000000000E+00  0.00000000000E+00  0.12235512852E+04  0.12235512852E+04  0.50400001928E-02 0.  1.
       -1   -1    0    0    0  501  0.00000000000E+00  0.00000000000E+00 -0.76929706315E+03  0.76929706317E+03  0.50400001928E-02 0. -1.
    10030    2    1    2    0    0  0.00000000000E+00  0.00000000000E+00  0.45425422207E+03  0.19928483484E+04  0.19403859517E+04 0.  0.
        3    1    3    3  502    0 -0.80532215802E+03 -0.14490947017E+03  0.76250005070E+03  0.11184582559E+04  0.10100000352E+00 0.  1.
       -3    1    3    3    0  502  0.80532215802E+03  0.14490947017E+03 -0.30824582863E+03  0.87439009247E+03  0.10100000352E+00 0. -1.
</event>
<event>
 5   0  0.4829134E-04  0.1826088E+04  0.7818609E-02  0.8692548E-01
        2   -1    0    0  501    0  0.00000000000E+00  0.00000000000E+00  0.18545617015E+04  0.18545617015E+04  0.25500000920E-02 0.  1.
       -2   -1    0    0    0  501  0.00000000000E+00  0.00000000000E+00 -0.44951275803E+03  0.44951275804E+03  0.25500000920E-02 0. -1.
    10030    2    1    2    0    0  0.00000000000E+00  0.00000000000E+00  0.14050489435E+04  0.23040744596E+04  0.18260877804E+04 0.  0.
        2    1    3    3  502    0  0.33421667504E+03  0.13771108598E+03 -0.35538275734E+03  0.50691422677E+03  0.25500000920E-02 0. -1.
       -2    1    3    3    0  502 -0.33421667504E+03 -0.13771108598E+03  0.17604317008E+04  0.17971602328E+04  0.25500000920E-02 0.  1.
</event>
<event>
 5   0  0.4802635E-04  0.1777046E+04  0.7818609E-02  0.8718602E-01
       -2   -1    0    0    0  501  0.00000000000E+00  0.00000000000E+00  0.48825881583E+03  0.48825881584E+03  0.25500000920E-02 0. -1.
        2   -1    0    0  501    0  0.00000000000E+00  0.00000000000E+00 -0.16169158703E+04  0.16169158703E+04  0.25500000920E-02 0.  1.
    10030    2    1    2    0    0  0.00000000000E+00  0.00000000000E+00 -0.11286570545E+04  0.21051746861E+04  0.17770463451E+04 0.  0.
        3    1    3    3  502    0 -0.56612416804E+03 -0.46023711387E+03 -0.11650732270E+04  0.13746673813E+04  0.10100000352E+00 0.  1.
       -3    1    3    3    0  502  0.56612416804E+03  0.46023711387E+03  0.36416172545E+02  0.73050730486E+03  0.10100000352E+00 0. -1.
</event>
<event>
 5   0  0.4829134E-04  0.1859271E+04  0.7818609E-02  0.8675400E-01
        2   -1    0    0  501    0  0.00000000000E+00  0.00000000000E+00  0.13630288509E+04  0.13630288509E+04  0.25500000920E-02 0. -1.
       -2   -1    0    0    0  501  0.00000000000E+00  0.00000000000E+00 -0.63404521334E+03  0.63404521335E+03  0.25500000920E-02 0.  1.
    10030    2    1    2    0    0  0.00000000000E+00  0.00000000000E+00  0.72898363755E+03  0.19970740642E+04  0.18592707372E+04 0.  0.
        2    1    3    3  502    0  0.89546940515E+03  0.41284176801E+02  0.62902148634E+03  0.10950971962E+04  0.25500000920E-02 0. -1.
       -2    1    3    3    0  502 -0.89546940515E+03 -0.41284176801E+02  0.99962151203E+02  0.90197686805E+03  0.25500000920E-02 0.  1.
</event>
<event>
 5   0  0.4829134E-04  0.1862465E+04  0.7818609E-02  0.8673769E-01
       -2   -1    0    0    0  501  0.00000000000E+00  0.00000000000E+00  0.63212820139E+03  0.63212820139E+03  0.25500000920E-02 0. -1.
        2   -1    0    0  501    0  0.00000000000E+00  0.00000000000E+00 -0.13718641741E+04  0.13718641741E+04  0.25500000920E-02 0.  1.
    10030    2    1    2    0    0  0.00000000000E+00  0.00000000000E+00 -0.73973597268E+03  0.20039923755E+04  0.18624650686E+04 0.  0.
        2    1    3    3  502    0 -0.65269918512E+03 -0.31425069233E+03  0.25976898727E+03  0.76957757935E+03  0.25500000920E-02 0. -1.
       -2    1    3    3    0  502  0.65269918512E+03  0.31425069233E+03 -0.99950495994E+03  0.12344147961E+04  0.25500000920E-02 0.  1.
</event>
<event>
 5   0  0.2355414E-04  0.1710940E+04  0.7818609E-02  0.8755149E-01
        1   -1    0    0  501    0  0.00000000000E+00  0.00000000000E+00  0.33268166575E+04  0.33268166575E+04  0.50400001928E-02 0.  1.
       -1   -1    0    0    0  501  0.00000000000E+00  0.00000000000E+00 -0.21997872778E+03  0.21997872784E+03  0.50400001928E-02 0. -1.
    10030    2    1    2    0    0  0.00000000000E+00  0.00000000000E+00  0.31068379297E+04  0.35467953853E+04  0.17109399709E+04 0.  0.
        5    1    3    3  502    0 -0.25458759231E+03  0.40774843961E+03  0.86505332293E+02  0.48844538556E+03  0.46999998093E+01 0. -1.
       -5    1    3    3    0  502  0.25458759231E+03 -0.40774843961E+03  0.30203325974E+04  0.30583499998E+04  0.46999998093E+01 0.  1.
</event>
<event>
 5   0  0.2261755E-04  0.1902351E+04  0.7818609E-02  0.8653687E-01
       -1   -1    0    0    0  501  0.00000000000E+00  0.00000000000E+00  0.12965905957E+04  0.12965905957E+04  0.50400001928E-02 0. -1.
        1   -1    0    0  501    0  0.00000000000E+00  0.00000000000E+00 -0.69778024250E+03  0.69778024252E+03  0.50400001928E-02 0.  1.
    10030    2    1    2    0    0  0.00000000000E+00  0.00000000000E+00  0.59881035319E+03  0.19943708382E+04  0.19023514926E+04 0.  0.
        1    1    3    3  502    0 -0.39795734817E+03  0.86159676750E+03  0.36584462801E+03  0.10171338814E+04  0.50400001928E-02 0.  1.
       -1    1    3    3    0  502  0.39795734817E+03 -0.86159676750E+03  0.23296572518E+03  0.97723695687E+03  0.50400001928E-02 0. -1.
</event>
<event>
 5   0  0.4829134E-04  0.1883795E+04  0.7818609E-02  0.8662965E-01
       -2   -1    0    0    0  501  0.00000000000E+00  0.00000000000E+00  0.52771122219E+03  0.52771122219E+03  0.25500000920E-02 0.  1.
        2   -1    0    0  501    0  0.00000000000E+00  0.00000000000E+00 -0.16811670062E+04  0.16811670062E+04  0.25500000920E-02 0. -1.
    10030    2    1    2    0    0  0.00000000000E+00  0.00000000000E+00 -0.11534557840E+04  0.22088782284E+04  0.18837947824E+04 0.  0.
        2    1    3    3  502    0  0.79632367341E+03  0.31572896213E+03 -0.10359116128E+04  0.13442206068E+04  0.25500000920E-02 0. -1.
       -2    1    3    3    0  502 -0.79632367341E+03 -0.31572896213E+03 -0.11754417127E+03  0.86465762159E+03  0.25500000920E-02 0.  1.
</event>
<event>
 5   0  0.4829134E-04  0.1876899E+04  0.7818609E-02  0.8666441E-01
       -2   -1    0    0    0  501  0.00000000000E+00  0.00000000000E+00  0.42453764802E+03  0.42453764803E+03  0.25500000920E-02 0.  1.
        2   -1    0    0  501    0  0.00000000000E+00  0.00000000000E+00 -0.20744636107E+04  0.20744636107E+04  0.25500000920E-02 0. -1.
    10030    2    1    2    0    0  0.00000000000E+00  0.00000000000E+00 -0.16499259627E+04  0.24990012588E+04  0.18768994669E+04 0.  0.
        2    1    3    3  502    0 -0.38595355456E+03 -0.84303200844E+03 -0.63190343394E+03  0.11220361239E+04  0.25500000920E-02 0. -1.
       -2    1    3    3    0  502  0.38595355456E+03  0.84303200844E+03 -0.10180225288E+04  0.13769651349E+04  0.25500000920E-02 0.  1.
</event>
<event>
 5   0  0.1729375E-04  0.1669351E+04  0.7818609E-02  0.8779040E-01
       -3   -1    0    0    0  501  0.00000000000E+00  0.00000000000E+00  0.33869304762E+03  0.33869306268E+03  0.10100000352E+00 0.  1.
        3   -1    0    0  501    0  0.00000000000E+00  0.00000000000E+00 -0.20569760784E+04  0.20569760809E+04  0.10100000352E+00 0. -1.
    10030    2    1    2    0    0  0.00000000000E+00  0.00000000000E+00 -0.17182830308E+04  0.23956691436E+04  0.16693513925E+04 0.  0.
        5    1    3    3  502    0  0.73070955728E+03 -0.40234326865E+03 -0.90085464036E+03  0.12277531250E+04  0.46999998093E+01 0. -1.
       -5    1    3    3    0  502 -0.73070955728E+03  0.40234326865E+03 -0.81742839043E+03  0.11679160186E+04  0.46999998093E+01 0.  1.
</event>
<event>
 5   0  0.4802635E-04  0.1763453E+04  0.7818609E-02  0.8725980E-01
       -2   -1    0    0    0  501  0.00000000000E+00  0.00000000000E+00  0.48189399196E+03  0.48189399197E+03  0.25500000920E-02 0.  1.
        2   -1    0    0  501    0  0.00000000000E+00  0.00000000000E+00 -0.16133033677E+04  0.16133033677E+04  0.25500000920E-02 0. -1.
    10030    2    1    2    0    0  0.00000000000E+00  0.00000000000E+00 -0.11314093758E+04  0.20951973597E+04  0.17634525229E+04 0.  0.
        3    1    3    3  502    0 -0.18719131730E+03 -0.27756024285E+02 -0.15888913512E+04  0.16001208462E+04  0.10100000352E+00 0. -1.
       -3    1    3    3    0  502  0.18719131730E+03  0.27756024285E+02  0.45748197547E+03  0.49507651352E+03  0.10100000352E+00 0.  1.
</event>
<event>
 5   0  0.2376359E-04  0.1177588E+04  0.7818609E-02  0.9132703E-01
        1   -1    0    0  501    0  0.00000000000E+00  0.00000000000E+00  0.56154979353E+03  0.56154979355E+03  0.50400001928E-02 0. -1.
       -1   -1    0    0    0  501  0.00000000000E+00  0.00000000000E+00 -0.61736042491E+03  0.61736042493E+03  0.50400001928E-02 0.  1.
    10030    2    1    2    0    0  0.00000000000E+00  0.00000000000E+00 -0.55810631384E+02  0.11789102185E+04  0.11775884156E+04 0.  0.
        2    1    3    3  502    0 -0.29227633311E+03 -0.33537477599E+03  0.35824375577E+03  0.57117447756E+03  0.25500000920E-02 0. -1.
       -2    1    3    3    0  502  0.29227633311E+03  0.33537477599E+03 -0.41405438716E+03  0.60773574092E+03  0.25500000920E-02 0.  1.
</event>
<event>
 5   0  0.2261755E-04  0.1750884E+04  0.7818609E-02  0.8732864E-01
        1   -1    0    0  501    0  0.00000000000E+00  0.00000000000E+00  0.14202098017E+04  0.14202098018E+04  0.50400001928E-02 0.  1.
       -1   -1    0    0    0  501  0.00000000000E+00  0.00000000000E+00 -0.53963740502E+03  0.53963740504E+03  0.50400001928E-02 0. -1.
    10030    2    1    2    0    0  0.00000000000E+00  0.00000000000E+00  0.88057239673E+03  0.19598472068E+04  0.17508835850E+04 0.  0.
        1    1    3    3  502    0  0.42980560178E+02  0.87071462775E+03  0.35068915534E+03  0.93966705552E+03  0.50400001928E-02 0.  1.
       -1    1    3    3    0  502 -0.42980560178E+02 -0.87071462775E+03  0.52988324138E+03  0.10201801513E+04  0.50400001928E-02 0. -1.
</event>
<event>
 5   0  0.4829134E-04  0.1912025E+04  0.7818609E-02  0.8648894E-01
        2   -1    0    0  501    0  0.00000000000E+00  0.00000000000E+00  0.15331592979E+04  0.15331592979E+04  0.25500000920E-02 0.  1.
       -2   -1    0    0    0  501  0.00000000000E+00  0.00000000000E+00 -0.59612836260E+03  0.59612836261E+03  0.25500000920E-02 0. -1.
    10030    2    1    2    0    0  0.00000000000E+00  0.00000000000E+00  0.93703093526E+03  0.21292876605E+04  0.19120248344E+04 0.  0.
        2    1    3    3  502    0  0.61074552180E+03 -0.56538764999E+03  0.99237906860E+03  0.12951793324E+04  0.25500000920E-02 0. -1.
       -2    1    3    3    0  502 -0.61074552180E+03  0.56538764999E+03 -0.55348133340E+02  0.83410832812E+03  0.25500000920E-02 0.  1.
</event>
<event>
 5   0  0.4839293E-04  0.1602532E+04  0.7818609E-02  0.8818994E-01
       -2   -1    0    0    0  501  0.00000000000E+00  0.00000000000E+00  0.25634535920E+03  0.25634535922E+03  0.25500000920E-02 0. -1.
        2   -1    0    0  501    0  0.00000000000E+00  0.00000000000E+00 -0.25045414300E+04  0.25045414300E+04  0.25500000920E-02 0.  1.
    10030    2    1    2    0    0  0.00000000000E+00  0.00000000000E+00 -0.22481960708E+04  0.27608867892E+04  0.16025324615E+04 0.  0.
        5    1    3    3  502    0  0.19694779511E+03 -0.77097445342E+03 -0.96234077700E+03  0.12487241100E+04  0.46999998093E+01 0.  1.
       -5    1    3    3    0  502 -0.19694779511E+03  0.77097445342E+03 -0.12858552938E+04  0.15121626792E+04  0.46999998093E+01 0. -1.
</event>
<event>
 5   0  0.2376359E-04  0.1869535E+04  0.7818609E-02  0.8670171E-01
        1   -1    0    0  501    0  0.00000000000E+00  0.00000000000E+00  0.94404692353E+03  0.94404692354E+03  0.50400001928E-02 0. -1.
       -1   -1    0    0    0  501  0.00000000000E+00  0.00000000000E+00 -0.92557941029E+03  0.92557941030E+03  0.50400001928E-02 0.  1.
    10030    2    1    2    0    0  0.00000000000E+00  0.00000000000E+00  0.18467513242E+02  0.18696263338E+04  0.18695351238E+04 0.  0.
        2    1    3    3  502    0 -0.59492736731E+03 -0.72080041753E+03  0.26514081663E+02  0.93498385591E+03  0.25500000920E-02 0.  1.
       -2    1    3    3    0  502  0.59492736731E+03  0.72080041753E+03 -0.80465684213E+01  0.93464247793E+03  0.25500000920E-02 0. -1.
</event>
<event>
 5   0  0.2355414E-04  0.1803283E+04  0.7818609E-02  0.8704555E-01
       -1   -1    0    0    0  501  0.00000000000E+00  0.00000000000E+00  0.15852281377E+04  0.15852281378E+04  0.50400001928E-02 0. -1.
        1   -1    0    0  501    0  0.00000000000E+00  0.00000000000E+00 -0.51283315423E+03  0.51283315426E+03  0.50400001928E-02 0.  1.
    10030    2    1    2    0    0  0.00000000000E+00  0.00000000000E+00  0.10723949835E+04  0.20980612920E+04  0.18032831681E+04 0.  0.
        5    1    3    3  502    0 -0.92898052474E+02  0.37240216015E+03  0.14854201338E+04  0.15342126583E+04  0.46999998093E+01 0. -1.
       -5    1    3    3    0  502  0.92898052474E+02 -0.37240216015E+03 -0.41302515025E+03  0.56384863374E+03  0.46999998093E+01 0.  1.
</event>
<event>
 5   0  0.4761944E-04  0.1911676E+04  0.7818609E-02  0.8649066E-01
       -2   -1    0    0    0  501  0.00000000000E+00  0.00000000000E+00  0.66884743526E+03  0.66884743527E+03  0.25500000920E-02 0. -1.
        2   -1    0    0  501    0  0.00000000000E+00  0.00000000000E+00 -0.13659705798E+04  0.13659705798E+04  0.25500000920E-02 0.  1.
    10030    2    1    2    0    0  0.00000000000E+00  0.00000000000E+00 -0.69712314452E+03  0.20348180151E+04  0.19116756199E+04 0.  0.
        4    1    3    3  502    0  0.89750737712E+03 -0.22184695405E+02 -0.69773649225E+03  0.11370353900E+04  0.12699999809E+01 0. -1.
       -4    1    3    3    0  502 -0.89750737712E+03  0.22184695405E+02  0.61334772751E+00  0.89778262502E+03  0.12699999809E+01 0.  1.
</event>
<event>
 5   0  0.2317458E-04  0.1865960E+04  0.7818609E-02  0.8671988E-01
        1   -1    0    0  501    0  0.00000000000E+00  0.00000000000E+00  0.15695512681E+04  0.15695512681E+04  0.50400001928E-02 0. -1.
       -1   -1    0    0    0  501  0.00000000000E+00  0.00000000000E+00 -0.55458629673E+03  0.55458629675E+03  0.50400001928E-02 0.  1.
    10030    2    1    2    0    0  0.00000000000E+00  0.00000000000E+00  0.10149649714E+04  0.21241375649E+04  0.18659599410E+04 0.  0.
        3    1    3    3  502    0  0.20189120610E+03 -0.76313772964E+03 -0.58630654853E+02  0.79156605371E+03  0.10100000352E+00 0.  1.
       -3    1    3    3    0  502 -0.20189120610E+03  0.76313772964E+03  0.10735956262E+04  0.13325715111E+04  0.10100000352E+00 0. -1.
</event>
<event>
 5   0  0.2376359E-04  0.1924600E+04  0.7818609E-02  0.8642707E-01
       -1   -1    0    0    0  501  0.00000000000E+00  0.00000000000E+00  0.12328725679E+04  0.12328725679E+04  0.50400001928E-02 0. -1.
        1   -1    0    0  501    0  0.00000000000E+00  0.00000000000E+00 -0.75110862408E+03  0.75110862410E+03  0.50400001928E-02 0.  1.
    10030    2    1    2    0    0  0.00000000000E+00  0.00000000000E+00  0.48176394384E+03  0.19839811920E+04  0.19245999254E+04 0.  0.
        2    1    3    3  502    0  0.26142848146E+03  0.30881140993E+03  0.11409253277E+04  0.12105453073E+04  0.25500000920E-02 0. -1.
       -2    1    3    3    0  502 -0.26142848146E+03 -0.30881140993E+03 -0.65916138381E+03  0.77343588470E+03  0.25500000920E-02 0.  1.
</event>
<event>
 5   0  0.4829134E-04  0.1817310E+04  0.7818609E-02  0.8697148E-01
       -2   -1    0    0    0  501  0.00000000000E+00  0.00000000000E+00  0.35014790558E+03  0.35014790559E+03  0.25500000920E-02 0. -1.
        2   -1    0    0  501    0  0.00000000000E+00  0.00000000000E+00 -0.23580140650E+04  0.23580140650E+04  0.25500000920E-02 0.  1.
    10030    2    1    2    0    0  0.00000000000E+00  0.00000000000E+00 -0.20078661594E+04  0.27081619706E+04  0.18173097548E+04 0.  0.
        2    1    3    3  502    0 -0.26813518405E+03 -0.83028293441E+03 -0.62579856706E+03  0.10737271882E+04  0.25500000920E-02 0. -1.
       -2    1    3    3    0  502  0.26813518405E+03  0.83028293441E+03 -0.13820675923E+04  0.16344347824E+04  0.25500000920E-02 0.  1.
</event>
<event>
 5   0  0.4839293E-04  0.1993543E+04  0.7818609E-02  0.8609646E-01
       -2   -1    0    0    0  501  0.00000000000E+00  0.00000000000E+00  0.78654209115E+03  0.78654209115E+03  0.25500000920E-02 0.  1.
        2   -1    0    0  501    0  0.00000000000E+00  0.00000000000E+00 -0.12631911667E+04  0.12631911667E+04  0.25500000920E-02 0. -1.
    10030    2    1    2    0    0  0.00000000000E+00  0.00000000000E+00 -0.47664907555E+03  0.20497332579E+04  0.19935425973E+04 0.  0.
        5    1    3    3  502    0  0.83897157921E+03 -0.36811864304E+03  0.16535650972E+03  0.93099382994E+03  0.46999998093E+01 0.  1.
       -5    1    3    3    0  502 -0.83897157921E+03  0.36811864304E+03 -0.64200558527E+03  0.11187394279E+04  0.46999998093E+01 0. -1.
</event>
<event>
 5   0  0.2510069E-04  0.1894440E+04  0.7818609E-02  0.8657629E-01
       -1   -1    0    0    0  501  0.00000000000E+00  0.00000000000E+00  0.14364756774E+04  0.14364756774E+04  0.50400001928E-02 0.  1.
        1   -1    0    0  501    0  0.00000000000E+00  0.00000000000E+00 -0.62460204304E+03  0.62460204306E+03  0.50400001928E-02 0. -1.
    10030    2    1    2    0    0  0.00000000000E+00  0.00000000000E+00  0.81187363437E+03  0.20610777205E+04  0.18944399098E+04 0.  0.
        4    1    3    3  502    0 -0.63143474143E+03  0.36225106933E+02 -0.36121256785E+03  0.72835308960E+03  0.12699999809E+01 0. -1.
       -4    1    3    3    0  502  0.63143474143E+03 -0.36225106933E+02  0.11730862022E+04  0.13327246309E+04  0.12699999809E+01 0.  1.
</event>
<event>
 5   0  0.4839293E-04  0.1853380E+04  0.7818609E-02  0.8678417E-01
        2   -1    0    0  501    0  0.00000000000E+00  0.00000000000E+00  0.75981231406E+03  0.75981231406E+03  0.25500000920E-02 0.  1.
       -2   -1    0    0    0  501  0.00000000000E+00  0.00000000000E+00 -0.11302188407E+04  0.11302188407E+04  0.25500000920E-02 0. -1.
    10030    2    1    2    0    0  0.00000000000E+00  0.00000000000E+00 -0.37040652660E+03  0.18900311547E+04  0.18533798237E+04 0.  0.
        5    1    3    3  502    0  0.10975913866E+03  0.65449795708E+03  0.47436162367E+03  0.81575467167E+03  0.46999998093E+01 0.  1.
       -5    1    3    3    0  502 -0.10975913866E+03 -0.65449795708E+03 -0.84476815026E+03  0.10742764831E+04  0.46999998093E+01 0. -1.
</event>
<event>
 5   0  0.2317458E-04  0.1889944E+04  0.7818609E-02  0.8659878E-01
       -1   -1    0    0    0  501  0.00000000000E+00  0.00000000000E+00  0.94634252554E+03  0.94634252555E+03  0.50400001928E-02 0.  1.
        1   -1    0    0  501    0  0.00000000000E+00  0.00000000000E+00 -0.94360363453E+03  0.94360363454E+03  0.50400001928E-02 0. -1.
    10030    2    1    2    0    0  0.00000000000E+00  0.00000000000E+00  0.27388910084E+01  0.18899461601E+04  0.18899441755E+04 0.  0.
        3    1    3    3  502    0 -0.21038833195E+03  0.91009877214E+03  0.14430038712E+03  0.94518021413E+03  0.10100000352E+00 0. -1.
       -3    1    3    3    0  502  0.21038833195E+03 -0.91009877214E+03 -0.14156149611E+03  0.94476594596E+03  0.10100000352E+00 0.  1.
</event>
<event>
 5   0  0.4829134E-04  0.1901719E+04  0.7818609E-02  0.8654001E-01
        2   -1    0    0  501    0  0.00000000000E+00  0.00000000000E+00  0.17522695879E+04  0.17522695879E+04  0.25500000920E-02 0.  1.
       -2   -1    0    0    0  501  0.00000000000E+00  0.00000000000E+00 -0.51597876319E+03  0.51597876320E+03  0.25500000920E-02 0. -1.
    10030    2    1    2    0    0  0.00000000000E+00  0.00000000000E+00  0.12362908247E+04  0.22682483511E+04  0.19017191115E+04 0.  0.
        2    1    3    3  502    0 -0.91365522183E+02  0.56063191642E+03  0.15276626000E+04  0.16298493255E+04  0.25500000920E-02 0.  1.
       -2    1    3    3    0  502  0.91365522183E+02 -0.56063191642E+03 -0.29137177535E+03  0.63839902555E+03  0.25500000920E-02 0. -1.
</event>
<event>
 5   0  0.4802635E-04  0.1883574E+04  0.7818609E-02  0.8663076E-01
        2   -1    0    0  501    0  0.00000000000E+00  0.00000000000E+00  0.97117551207E+03  0.97117551207E+03  0.25500000920E-02 0.  1.
       -2   -1    0    0    0  501  0.00000000000E+00  0.00000000000E+00 -0.91328778324E+03  0.91328778325E+03  0.25500000920E-02 0. -1.
    10030    2    1    2    0    0  0.00000000000E+00  0.00000000000E+00  0.57887728828E+02  0.18844632953E+04  0.18835739758E+04 0.  0.
        3    1    3    3  502    0 -0.56899564791E+03 -0.64215025178E+03 -0.35963329214E+03  0.93029517263E+03  0.10100000352E+00 0. -1.
       -3    1    3    3    0  502  0.56899564791E+03  0.64215025178E+03  0.41752102097E+03  0.95416812269E+03  0.10100000352E+00 0.  1.
</event>
<event>
 5   0  0.4973411E-04  0.1881334E+04  0.7818609E-02  0.8664204E-01
        2   -1    0    0  501    0  0.00000000000E+00  0.00000000000E+00  0.21071830598E+04  0.21071830598E+04  0.25500000920E-02 0.  1.
       -2   -1    0    0    0  501  0.00000000000E+00  0.00000000000E+00 -0.41992291171E+03  0.41992291172E+03  0.25500000920E-02 0. -1.
    10030    2    1    2    0    0  0.00000000000E+00  0.00000000000E+00  0.16872601481E+04  0.25271059715E+04  0.18813340437E+04 0.  0.
        1    1    3    3  502    0 -0.12921448728E+03 -0.27037098924E+03  0.20413542993E+04  0.20632315020E+04  0.50400001928E-02 0.  1.
       -1    1    3    3    0  502  0.12921448728E+03  0.27037098924E+03 -0.35409415120E+03  0.46387446953E+03  0.50400001928E-02 0. -1.
</event>
<event>
 5   0  0.2261755E-04  0.1910041E+04  0.7818609E-02  0.8649874E-01
        1   -1    0    0  501    0  0.00000000000E+00  0.00000000000E+00  0.19610703259E+04  0.19610703259E+04  0.50400001928E-02 0.  1.
       -1   -1    0    0    0  501  0.00000000000E+00  0.00000000000E+00 -0.46508485624E+03  0.46508485626E+03  0.50400001928E-02 0. -1.
    10030    2    1    2    0    0  0.00000000000E+00  0.00000000000E+00  0.14959854697E+04  0.24261551822E+04  0.19100409531E+04 0.  0.
        1    1    3    3  502    0 -0.59134950114E+03 -0.71716199019E+03  0.10264227658E+04  0.13847596351E+04  0.50400001928E-02 0. -1.
       -1    1    3    3    0  502  0.59134950114E+03  0.71716199019E+03  0.46956270384E+03  0.10413955471E+04  0.50400001928E-02 0.  1.
</event>
<event>
 5   0  0.4802635E-04  0.1856951E+04  0.7818609E-02  0.8676587E-01
        2   -1    0    0  501    0  0.00000000000E+00  0.00000000000E+00  0.73821442597E+03  0.73821442597E+03  0.25500000920E-02 0.  1.
       -2   -1    0    0    0  501  0.00000000000E+00  0.00000000000E+00 -0.11677722419E+04  0.11677722419E+04  0.25500000920E-02 0. -1.
    10030    2    1    2    0    0  0.00000000000E+00  0.00000000000E+00 -0.42955781594E+03  0.19059866679E+04  0.18569505273E+04 0.  0.
        3    1    3    3  502    0 -0.11405229171E+03 -0.68636659802E+03 -0.84579731426E+03  0.10952078064E+04  0.10100000352E+00 0. -1.
       -3    1    3    3    0  502  0.11405229171E+03  0.68636659802E+03  0.41623949832E+03  0.81077886152E+03  0.10100000352E+00 0.  1.
</event>
<event>
 5   0  0.2510069E-04  0.1849866E+04  0.7818609E-02  0.8680222E-01
        1   -1    0    0  501    0  0.00000000000E+00  0.00000000000E+00  0.82663275773E+03  0.82663275775E+03  0.50400001928E-02 0.  1.
       -1   -1    0    0    0  501  0.00000000000E+00  0.00000000000E+00 -0.10349225111E+04  0.10349225111E+04  0.50400001928E-02 0. -1.
    10030    2    1    2    0    0  0.00000000000E+00  0.00000000000E+00 -0.20828975334E+03  0.18615552688E+04  0.18498657783E+04 0.  0.
        4    1    3    3  502    0  0.20891154296E+03  0.30503881610E+03  0.74903719687E+03  0.83531493899E+03  0.12699999809E+01 0.  1.
       -4    1    3    3    0  502 -0.20891154296E+03 -0.30503881610E+03 -0.95732695020E+03  0.10262403298E+04  0.12699999809E+01 0. -1.
</event>
<event>
 5   0  0.4839293E-04  0.1555186E+04  0.7818609E-02  0.8848562E-01
       -2   -1    0    0    0  501  0.00000000000E+00  0.00000000000E+00  0.38795248308E+03  0.38795248309E+03  0.25500000920E-02 0. -1.
        2   -1    0    0  501    0  0.00000000000E+00  0.00000000000E+00 -0.15585686108E+04  0.15585686108E+04  0.25500000920E-02 0.  1.
    10030    2    1    2    0    0  0.00000000000E+00  0.00000000000E+00 -0.11706161278E+04  0.19465210939E+04  0.15551856000E+04 0.  0.
        5    1    3    3  502    0 -0.76555636046E+03 -0.43295458139E+02 -0.74694533704E+03  0.10704674046E+04  0.46999998093E+01 0.  1.
       -5    1    3    3    0  502  0.76555636046E+03  0.43295458139E+02 -0.42367079072E+03  0.87605368936E+03  0.46999998093E+01 0. -1.
</event>
<event>
 5   0  0.2510069E-04  0.1900450E+04  0.7818609E-02  0.8654632E-01
        1   -1    0    0  501    0  0.00000000000E+00  0.00000000000E+00  0.12607637236E+04  0.12607637236E+04  0.50400001928E-02 0. -1.
       -1   -1    0    0    0  501  0.00000000000E+00  0.00000000000E+00 -0.71617518121E+03  0.71617518123E+03  0.50400001928E-02 0.  1.
    10030    2    1    2    0    0  0.00000000000E+00  0.00000000000E+00  0.54458854238E+03  0.19769389048E+04  0.19004501448E+04 0.  0.
        4    1    3    3  502    0  0.12962576446E+03  0.60862044320E+03 -0.47473424839E+03  0.78268505938E+03  0.12699999809E+01 0.  1.
       -4    1    3    3    0  502 -0.12962576446E+03 -0.60862044320E+03  0.10193227908E+04  0.11942538454E+04  0.12699999809E+01 0. -1.
</event>
<event>
 5   0  0.2317458E-04  0.1825067E+04  0.7818609E-02  0.8693082E-01
        1   -1    0    0  501    0  0.00000000000E+00  0.00000000000E+00  0.79547820124E+03  0.79547820126E+03  0.50400001928E-02 0.  1.
       -1   -1    0    0    0  501  0.00000000000E+00  0.00000000000E+00 -0.10468133814E+04  0.10468133814E+04  0.50400001928E-02 0. -1.
    10030    2    1    2    0    0  0.00000000000E+00  0.00000000000E+00 -0.25133518019E+03  0.18422915827E+04  0.18250668215E+04 0.  0.
        3    1    3    3  502    0  0.59683100007E+03 -0.10095987531E+02 -0.82240501764E+03  0.10161984033E+04  0.10100000352E+00 0. -1.
       -3    1    3    3    0  502 -0.59683100007E+03  0.10095987531E+02  0.57106983745E+03  0.82609317941E+03  0.10100000352E+00 0.  1.
</event>
<event>
 5   0  0.4973411E-04  0.1914305E+04  0.7818609E-02  0.8647768E-01
        2   -1    0    0  501    0  0.00000000000E+00  0.00000000000E+00  0.27699645442E+04  0.27699645442E+04  0.25500000920E-02 0. -1.
       -2   -1    0    0    0  501  0.00000000000E+00  0.00000000000E+00 -0.33074109259E+03  0.33074109260E+03  0.25500000920E-02 0.  1.
    10030    2    1    2    0    0  0.00000000000E+00  0.00000000000E+00  0.24392234516E+04  0.31007056368E+04  0.19143052001E+04 0.  0.
        1    1    3    3  502    0  0.79265139107E+03 -0.27589612009E+03  0.19649212383E+04  0.21366633730E+04  0.50400001928E-02 0.  1.
       -1    1    3    3    0  502 -0.79265139107E+03  0.27589612009E+03  0.47430221338E+03  0.96404226385E+03  0.50400001928E-02 0. -1.
</event>
<event>
 5   0  0.4761944E-04  0.1839655E+04  0.7818609E-02  0.8685491E-01
       -2   -1    0    0    0  501  0.00000000000E+00  0.00000000000E+00  0.10848068744E+04  0.10848068744E+04  0.25500000920E-02 0. -1.
        2   -1    0    0  501    0  0.00000000000E+00  0.00000000000E+00 -0.77993839444E+03  0.77993839445E+03  0.25500000920E-02 0.  1.
    10030    2    1    2    0    0  0.00000000000E+00  0.00000000000E+00  0.30486847996E+03  0.18647452688E+04  0.18396548936E+04 0.  0.
        4    1    3    3  502    0  0.45514711173E+03  0.39403415630E+02 -0.65680839838E+03  0.80006900175E+03  0.12699999809E+01 0.  1.
       -4    1    3    3    0  502 -0.45514711173E+03 -0.39403415630E+02  0.96167687834E+03  0.10646762671E+04  0.12699999809E+01 0. -1.
</event>
<event>
 5   0  0.4802635E-04  0.1902318E+04  0.7818609E-02  0.8653703E-01
       -2   -1    0    0    0  501  0.00000000000E+00  0.00000000000E+00  0.69375150926E+03  0.69375150926E+03  0.25500000920E-02 0. -1.
        2   -1    0    0  501    0  0.00000000000E+00  0.00000000000E+00 -0.13040741778E+04  0.13040741778E+04  0.25500000920E-02 0.  1.
    10030    2    1    2    0    0  0.00000000000E+00  0.00000000000E+00 -0.61032266849E+03  0.19978256870E+04  0.19023179850E+04 0.  0.
        3    1    3    3  502    0 -0.62480230577E+03 -0.51481249818E+03  0.21919924449E+03  0.83872411946E+03  0.10100000352E+00 0. -1.
       -3    1    3    3    0  502  0.62480230577E+03  0.51481249818E+03 -0.82952191299E+03  0.11591015676E+04  0.10100000352E+00 0.  1.
</event>
<event>
 5   0  0.2510069E-04  0.1848188E+04  0.7818609E-02  0.8681085E-01
       -1   -1    0    0    0  501  0.00000000000E+00  0.00000000000E+00  0.64390101089E+03  0.64390101091E+03  0.50400001928E-02 0. -1.
        1   -1    0    0  501    0  0.00000000000E+00  0.00000000000E+00 -0.13262128563E+04  0.13262128563E+04  0.50400001928E-02 0.  1.
    10030    2    1    2    0    0  0.00000000000E+00  0.00000000000E+00 -0.68231184537E+03  0.19701138672E+04  0.18481880844E+04 0.  0.
        4    1    3    3  502    0 -0.83039405022E+03 -0.64111656760E+02 -0.76792182192E+03  0.11328592678E+04  0.12699999809E+01 0.  1.
       -4    1    3    3    0  502  0.83039405022E+03  0.64111656760E+02  0.85609976543E+02  0.83725459937E+03  0.12699999809E+01 0. -1.
</event>
<event>
 5   0  0.2376359E-04  0.1917404E+04  0.7818609E-02  0.8646242E-01
        1   -1    0    0  501    0  0.00000000000E+00  0.00000000000E+00  0.12792676818E+04  0.12792676818E+04  0.50400001928E-02 0. -1.
       -1   -1    0    0    0  501  0.00000000000E+00  0.00000000000E+00 -0.71846512177E+03  0.71846512179E+03  0.50400001928E-02 0.  1.
    10030    2    1    2    0    0  0.00000000000E+00  0.00000000000E+00  0.56080256001E+03  0.19977328036E+04  0.19174036725E+04 0.  0.
        2    1    3    3  502    0 -0.24848045558E+03 -0.31809449271E+03 -0.62561745186E+03  0.74452927356E+03  0.25500000920E-02 0.  1.
       -2    1    3    3    0  502  0.24848045558E+03  0.31809449271E+03  0.11864200119E+04  0.12532035300E+04  0.25500000920E-02 0. -1.
</event>
<event>
 5   0  0.4839293E-04  0.1799297E+04  0.7818609E-02  0.8706674E-01
       -2   -1    0    0    0  501  0.00000000000E+00  0.00000000000E+00  0.65204585200E+03  0.65204585200E+03  0.25500000920E-02 0. -1.
        2   -1    0    0  501    0  0.00000000000E+00  0.00000000000E+00 -0.12412733382E+04  0.12412733382E+04  0.25500000920E-02 0.  1.
    10030    2    1    2    0    0  0.00000000000E+00  0.00000000000E+00 -0.58922748617E+03  0.18933191902E+04  0.17992966752E+04 0.  0.
        5    1    3    3  502    0 -0.24958669538E+03 -0.76522907033E+03  0.12822526075E+03  0.81506616669E+03  0.46999998093E+01 0. -1.
       -5    1    3    3    0  502  0.24958669538E+03  0.76522907033E+03 -0.71745274692E+03  0.10782530235E+04  0.46999998093E+01 0.  1.
</event>
<event>
 5   0  0.2261755E-04  0.1995713E+04  0.7818609E-02  0.8608628E-01
        1   -1    0    0  501    0  0.00000000000E+00  0.00000000000E+00  0.14599253472E+04  0.14599253472E+04  0.50400001928E-02 0. -1.
       -1   -1    0    0    0  501  0.00000000000E+00  0.00000000000E+00 -0.68203293358E+03  0.68203293360E+03  0.50400001928E-02 0.  1.
    10030    2    1    2    0    0  0.00000000000E+00  0.00000000000E+00  0.77789241357E+03  0.21419582808E+04  0.19957125718E+04 0.  0.
        1    1    3    3  502    0  0.27116184813E+03  0.19550211600E+03 -0.62014663363E+03  0.70450810675E+03  0.50400001928E-02 0.  1.
       -1    1    3    3    0  502 -0.27116184813E+03 -0.19550211600E+03  0.13980390472E+04  0.14374501740E+04  0.50400001928E-02 0. -1.
</event>
<event>
 5   0  0.4802635E-04  0.1946977E+04  0.7818609E-02  0.8631820E-01
       -2   -1    0    0    0  501  0.00000000000E+00  0.00000000000E+00  0.82349982015E+03  0.82349982016E+03  0.25500000920E-02 0.  1.
        2   -1    0    0  501    0  0.00000000000E+00  0.00000000000E+00 -0.11507949247E+04  0.11507949247E+04  0.25500000920E-02 0. -1.
    10030    2    1    2    0    0  0.00000000000E+00  0.00000000000E+00 -0.32729510453E+03  0.19742947448E+04  0.19469765417E+04 0.  0.
        3    1    3    3  502    0 -0.14997991050E+03  0.72396316775E+03  0.47853343058E+03  0.88068774046E+03  0.10100000352E+00 0.  1.
       -3    1    3    3    0  502  0.14997991050E+03 -0.72396316775E+03 -0.80582853511E+03  0.10936070044E+04  0.10100000352E+00 0. -1.
</event>
<event>
 5   0  0.2376359E-04  0.1907624E+04  0.7818609E-02  0.8651071E-01
        1   -1    0    0  501    0  0.00000000000E+00  0.00000000000E+00  0.15515607246E+04  0.15515607246E+04  0.50400001928E-02 0.  1.
       -1   -1    0    0    0  501  0.00000000000E+00  0.00000000000E+00 -0.58634975181E+03  0.58634975183E+03  0.50400001928E-02 0. -1.
    10030    2    1    2    0    0  0.00000000000E+00  0.00000000000E+00  0.96521097278E+03  0.21379104764E+04  0.19076239103E+04 0.  0.
        2    1    3    3  502    0 -0.93054781395E+03 -0.89840812682E+02  0.27065431030E+03  0.97326479509E+03  0.25500000920E-02 0. -1.
       -2    1    3    3    0  502  0.93054781395E+03  0.89840812682E+02  0.69455666248E+03  0.11646456813E+04  0.25500000920E-02 0.  1.
</event>
<event>
 5   0  0.2510069E-04  0.2106489E+04  0.7818609E-02  0.8558390E-01
        1   -1    0    0  501    0  0.00000000000E+00  0.00000000000E+00  0.10982832335E+04  0.10982832335E+04  0.50400001928E-02 0.  1.
       -1   -1    0    0    0  501  0.00000000000E+00  0.00000000000E+00 -0.10100526632E+04  0.10100526632E+04  0.50400001928E-02 0. -1.
    10030    2    1    2    0    0  0.00000000000E+00  0.00000000000E+00  0.88230570307E+02  0.21083358967E+04  0.21064889318E+04 0.  0.
        4    1    3    3  502    0  0.33343221054E+03 -0.59355445322E+03 -0.76023003864E+03  0.10205073505E+04  0.12699999809E+01 0. -1.
       -4    1    3    3    0  502 -0.33343221054E+03  0.59355445322E+03  0.84846060895E+03  0.10878285461E+04  0.12699999809E+01 0.  1.
</event>
<event>
 5   0  0.1729375E-04  0.1930449E+04  0.7818609E-02  0.8639847E-01
        3   -1    0    0  501    0  0.00000000000E+00  0.00000000000E+00  0.67927108037E+03  0.67927108788E+03  0.10100000352E+00 0. -1.
       -3   -1    0    0    0  501  0.00000000000E+00  0.00000000000E+00 -0.13715561467E+04  0.13715561504E+04  0.10100000352E+00 0.  1.
    10030    2    1    2    0    0  0.00000000000E+00  0.00000000000E+00 -0.69228506631E+03  0.20508272383E+04  0.19304491053E+04 0.  0.
        4    1    3    3  502    0  0.39791036394E+03  0.86615126676E+03 -0.50762839674E+03  0.10799254033E+04  0.12699999809E+01 0.  1.
       -4    1    3    3    0  502 -0.39791036394E+03 -0.86615126676E+03 -0.18465666957E+03  0.97090183497E+03  0.12699999809E+01 0. -1.
</event>
<event>
 5   0  0.4761944E-04  0.1896034E+04  0.7818609E-02  0.8656833E-01
        2   -1    0    0  501    0  0.00000000000E+00  0.00000000000E+00  0.15987063752E+04  0.15987063752E+04  0.25500000920E-02 0.  1.
       -2   -1    0    0    0  501  0.00000000000E+00  0.00000000000E+00 -0.56216450286E+03  0.56216450287E+03  0.25500000920E-02 0. -1.
    10030    2    1    2    0    0  0.00000000000E+00  0.00000000000E+00  0.10365418723E+04  0.21608708780E+04  0.18960337282E+04 0.  0.
        4    1    3    3  502    0  0.27053722943E+03 -0.41101053268E+03 -0.40523125454E+03  0.63744335673E+03  0.12699999809E+01 0. -1.
       -4    1    3    3    0  502 -0.27053722943E+03  0.41101053268E+03  0.14417731268E+04  0.15234275213E+04  0.12699999809E+01 0.  1.
</event>
<event>
 5   0  0.2355414E-04  0.1918717E+04  0.7818609E-02  0.8645595E-01
        1   -1    0    0  501    0  0.00000000000E+00  0.00000000000E+00  0.13009379551E+04  0.13009379551E+04  0.50400001928E-02 0.  1.
       -1   -1    0    0    0  501  0.00000000000E+00  0.00000000000E+00 -0.70746582805E+03  0.70746582806E+03  0.50400001928E-02 0. -1.
    10030    2    1    2    0    0  0.00000000000E+00  0.00000000000E+00  0.59347212707E+03  0.20084037832E+04  0.19187174338E+04 0.  0.
        5    1    3    3  502    0  0.26552204903E+03 -0.32525880711E+03 -0.60616797836E+03  0.73739877821E+03  0.46999998093E+01 0. -1.
       -5    1    3    3    0  502 -0.26552204903E+03  0.32525880711E+03  0.11996401054E+04  0.12710050050E+04  0.46999998093E+01 0.  1.
</event>
<event>
 5   0  0.4829134E-04  0.1912037E+04  0.7818609E-02  0.8648888E-01
       -2   -1    0    0    0  501  0.00000000000E+00  0.00000000000E+00  0.72927909371E+03  0.72927909372E+03  0.25500000920E-02 0.  1.
        2   -1    0    0  501    0  0.00000000000E+00  0.00000000000E+00 -0.12532528850E+04  0.12532528850E+04  0.25500000920E-02 0. -1.
    10030    2    1    2    0    0  0.00000000000E+00  0.00000000000E+00 -0.52397379130E+03  0.19825319787E+04  0.19120367446E+04 0.  0.
        2    1    3    3  502    0 -0.68400157262E+01  0.69737890905E+03 -0.93999707375E+03  0.11704608611E+04  0.25500000920E-02 0. -1.
       -2    1    3    3    0  502  0.68400157262E+01 -0.69737890905E+03  0.41602328245E+03  0.81207111767E+03  0.25500000920E-02 0.  1.
</event>
<event>
 5   0  0.2510069E-04  0.1875077E+04  0.7818609E-02  0.8667363E-01
       -1   -1    0    0    0  501  0.00000000000E+00  0.00000000000E+00  0.49193435222E+03  0.49193435225E+03  0.50400001928E-02 0. -1.
        1   -1    0    0  501    0  0.00000000000E+00  0.00000000000E+00 -0.17867798351E+04  0.17867798352E+04  0.50400001928E-02 0.  1.
    10030    2    1    2    0    0  0.00000000000E+00  0.00000000000E+00 -0.12948454829E+04  0.22787141874E+04  0.18750769379E+04 0.  0.
        4    1    3    3  502    0  0.20479280931E+02 -0.77818486722E+03 -0.12823744504E+04  0.15001589690E+04  0.12699999809E+01 0.  1.
       -4    1    3    3    0  502 -0.20479280931E+02  0.77818486722E+03 -0.12471032562E+02  0.77855521838E+03  0.12699999809E+01 0. -1.
</event>
<event>
 5   0  0.2261755E-04  0.2014939E+04  0.7818609E-02  0.8599668E-01
        1   -1    0    0  501    0  0.00000000000E+00  0.00000000000E+00  0.10160377683E+04  0.10160377683E+04  0.50400001928E-02 0.  1.
       -1   -1    0    0    0  501  0.00000000000E+00  0.00000000000E+00 -0.99897397936E+03  0.99897397937E+03  0.50400001928E-02 0. -1.
    10030    2    1    2    0    0  0.00000000000E+00  0.00000000000E+00  0.17063788934E+02  0.20150117477E+04  0.20149394955E+04 0.  0.
        1    1    3    3  502    0  0.50461675215E+03  0.86874604957E+03  0.83618056321E+02  0.10081417284E+04  0.50400001928E-02 0. -1.
       -1    1    3    3    0  502 -0.50461675215E+03 -0.86874604957E+03 -0.66554267386E+02  0.10068700193E+04  0.50400001928E-02 0.  1.
</event>
<event>
 5   0  0.4829134E-04  0.1880288E+04  0.7818609E-02  0.8664731E-01
        2   -1    0    0  501    0  0.00000000000E+00  0.00000000000E+00  0.67569973223E+03  0.67569973224E+03  0.25500000920E-02 0.  1.
       -2   -1    0    0    0  501  0.00000000000E+00  0.00000000000E+00 -0.13080820564E+04  0.13080820564E+04  0.25500000920E-02 0. -1.
    10030    2    1    2    0    0  0.00000000000E+00  0.00000000000E+00 -0.63238232413E+03  0.19837817886E+04  0.18802879516E+04 0.  0.
        2    1    3    3  502    0  0.71483385940E+03 -0.21303341631E+03  0.28758393458E+03  0.79942179258E+03  0.25500000920E-02 0.  1.
       -2    1    3    3    0  502 -0.71483385940E+03  0.21303341631E+03 -0.91996625871E+03  0.11843599960E+04  0.25500000920E-02 0. -1.
</event>
<event>
 5   0  0.4973411E-04  0.1837410E+04  0.7818609E-02  0.8686654E-01
       -2   -1    0    0    0  501  0.00000000000E+00  0.00000000000E+00  0.11530265290E+04  0.11530265290E+04  0.25500000920E-02 0.  1.
        2   -1    0    0  501    0  0.00000000000E+00  0.00000000000E+00 -0.73200338603E+03  0.73200338604E+03  0.25500000920E-02 0. -1.
    10030    2    1    2    0    0  0.00000000000E+00  0.00000000000E+00  0.42102314298E+03  0.18850299151E+04  0.18374104859E+04 0.  0.
        1    1    3    3  502    0  0.15572585400E+03 -0.49828749391E+03  0.98606540576E+03  0.11157356106E+04  0.50400001928E-02 0.  1.
       -1    1    3    3    0  502 -0.15572585400E+03  0.49828749391E+03 -0.56504226278E+03  0.76929430450E+03  0.50400001928E-02 0. -1.
</event>
<event>
 5   0  0.2376359E-04  0.1794654E+04  0.7818609E-02  0.8709148E-01
        1   -1    0    0  501    0  0.00000000000E+00  0.00000000000E+00  0.18602232940E+04  0.18602232940E+04  0.50400001928E-02 0. -1.
       -1   -1    0    0    0  501  0.00000000000E+00  0.00000000000E+00 -0.43284891736E+03  0.43284891739E+03  0.50400001928E-02 0.  1.
    10030    2    1    2    0    0  0.00000000000E+00  0.00000000000E+00  0.14273743766E+04  0.22930722114E+04  0.17946538818E+04 0.  0.
        2    1    3    3  502    0 -0.36680459724E+02  0.77205541099E+03  0.12961115776E+04  0.15090792674E+04  0.25500000920E-02 0. -1.
       -2    1    3    3    0  502  0.36680459724E+02 -0.77205541099E+03  0.13126279904E+03  0.78399294397E+03  0.25500000920E-02 0.  1.
</event>
<event>
 5   0  0.2261755E-04  0.1884287E+04  0.7818609E-02  0.8662718E-01
       -1   -1    0    0    0  501  0.00000000000E+00  0.00000000000E+00  0.65544388501E+03  0.65544388503E+03  0.50400001928E-02 0.  1.
        1   -1    0    0  501    0  0.00000000000E+00  0.00000000000E+00 -0.13542486005E+04  0.13542486005E+04  0.50400001928E-02 0. -1.
    10030    2    1    2    0    0  0.00000000000E+00  0.00000000000E+00 -0.69880471545E+03  0.20096924855E+04  0.18842865642E+04 0.  0.
        1    1    3    3  502    0  0.60158096795E+02  0.69640697168E+03  0.32432887593E+03  0.77057828065E+03  0.50400001928E-02 0.  1.
       -1    1    3    3    0  502 -0.60158096795E+02 -0.69640697168E+03 -0.10231335914E+04  0.12391142048E+04  0.50400001928E-02 0. -1.
</event>
<event>
 5   0  0.2261755E-04  0.1870033E+04  0.7818609E-02  0.8669918E-01
        1   -1    0    0  501    0  0.00000000000E+00  0.00000000000E+00  0.13154093053E+04  0.13154093053E+04  0.50400001928E-02 0. -1.
       -1   -1    0    0    0  501  0.00000000000E+00  0.00000000000E+00 -0.66462662593E+03  0.66462662595E+03  0.50400001928E-02 0.  1.
    10030    2    1    2    0    0  0.00000000000E+00  0.00000000000E+00  0.65078267937E+03  0.19800359313E+04  0.18700332065E+04 0.  0.
        1    1    3    3  502    0  0.49019006832E+03  0.12869538500E+03  0.11573650688E+04  0.12634645653E+04  0.50400001928E-02 0. -1.
       -1    1    3    3    0  502 -0.49019006832E+03 -0.12869538500E+03 -0.50658238945E+03  0.71657136596E+03  0.50400001928E-02 0.  1.
</event>
<event>
 5   0  0.4761944E-04  0.1866753E+04  0.7818609E-02  0.8671585E-01
        2   -1    0    0  501    0  0.00000000000E+00  0.00000000000E+00  0.79979029063E+03  0.79979029064E+03  0.25500000920E-02 0.  1.
       -2   -1    0    0    0  501  0.00000000000E+00  0.00000000000E+00 -0.10892746843E+04  0.10892746843E+04  0.25500000920E-02 0. -1.
    10030    2    1    2    0    0  0.00000000000E+00  0.00000000000E+00 -0.28948439364E+03  0.18890649749E+04  0.18667525988E+04 0.  0.
        4    1    3    3  502    0  0.60759900537E+03  0.29575084584E+03 -0.79628920777E+03  0.10443769575E+04  0.12699999809E+01 0. -1.
       -4    1    3    3    0  502 -0.60759900537E+03 -0.29575084584E+03  0.50680481414E+03  0.84468801736E+03  0.12699999809E+01 0.  1.
</event>
<event>
 5   0  0.2317458E-04  0.1670796E+04  0.7818609E-02  0.8778198E-01
        1   -1    0    0  501    0  0.00000000000E+00  0.00000000000E+00  0.89637158067E+03  0.89637158068E+03  0.50400001928E-02 0.  1.
       -1   -1    0    0    0  501  0.00000000000E+00  0.00000000000E+00 -0.77857172331E+03  0.77857172333E+03  0.50400001928E-02 0. -1.
    10030    2    1    2    0    0  0.00000000000E+00  0.00000000000E+00  0.11779985735E+03  0.16749433040E+04  0.16707956982E+04 0.  0.
        3    1    3    3  502    0  0.41345913882E+03 -0.50411087805E+03  0.58251187599E+03  0.87429762251E+03  0.10100000352E+00 0.  1.
       -3    1    3    3    0  502 -0.41345913882E+03  0.50411087805E+03 -0.46471201864E+03  0.80064568151E+03  0.10100000352E+00 0. -1.
</event>
<event>
 5   0  0.2261755E-04  0.1927040E+04  0.7818609E-02  0.8641513E-01
       -1   -1    0    0    0  501  0.00000000000E+00  0.00000000000E+00  0.56920645912E+03  0.56920645914E+03  0.50400001928E-02 0. -1.
        1   -1    0    0  501    0  0.00000000000E+00  0.00000000000E+00 -0.16309919270E+04  0.16309919270E+04  0.50400001928E-02 0.  1.
    10030    2    1    2    0    0  0.00000000000E+00  0.00000000000E+00 -0.10617854679E+04  0.22001983861E+04  0.19270403625E+04 0.  0.
        1    1    3    3  502    0  0.49418592908E+03  0.12267977873E+03  0.40304279177E+03  0.64939475870E+03  0.50400001928E-02 0. -1.
       -1    1    3    3    0  502 -0.49418592908E+03 -0.12267977873E+03 -0.14648282596E+04  0.15508036274E+04  0.50400001928E-02 0.  1.
</event>
<event>
 5   0  0.2261755E-04  0.1120105E+04  0.7818609E-02  0.9185815E-01
        1   -1    0    0  501    0  0.00000000000E+00  0.00000000000E+00  0.95592006193E+03  0.95592006195E+03  0.50400001928E-02 0.  1.
       -1   -1    0    0    0  501  0.00000000000E+00  0.00000000000E+00 -0.32812228837E+03  0.32812228841E+03  0.50400001928E-02 0. -1.
    10030    2    1    2    0    0  0.00000000000E+00  0.00000000000E+00  0.62779777357E+03  0.12840423504E+04  0.11201047777E+04 0.  0.
        1    1    3    3  502    0  0.51735456123E+02 -0.53936970886E+03  0.47627141457E+03  0.72140883042E+03  0.50400001928E-02 0.  1.
       -1    1    3    3    0  502 -0.51735456123E+02  0.53936970886E+03  0.15152635900E+03  0.56263351993E+03  0.50400001928E-02 0. -1.
</event>
<event>
 5   0  0.4761944E-04  0.1534936E+04  0.7818609E-02  0.8861548E-01
       -2   -1    0    0    0  501  0.00000000000E+00  0.00000000000E+00  0.37988573413E+03  0.37988573414E+03  0.25500000920E-02 0.  1.
        2   -1    0    0  501    0  0.00000000000E+00  0.00000000000E+00 -0.15504848817E+04  0.15504848817E+04  0.25500000920E-02 0. -1.
    10030    2    1    2    0    0  0.00000000000E+00  0.00000000000E+00 -0.11705991476E+04  0.19303706159E+04  0.15349359434E+04 0.  0.
        4    1    3    3  502    0 -0.30779789882E+03  0.13440404388E+03  0.28255271470E+03  0.43890960688E+03  0.12699999809E+01 0.  1.
       -4    1    3    3    0  502  0.30779789882E+03 -0.13440404388E+03 -0.14531518623E+04  0.14914610090E+04  0.12699999809E+01 0. -1.
</event>
<event>
 5   0  0.4802635E-04  0.1873419E+04  0.7818609E-02  0.8668202E-01
        2   -1    0    0  501    0  0.00000000000E+00  0.00000000000E+00  0.63834514898E+03  0.63834514898E+03  0.25500000920E-02 0.  1.
       -2   -1    0    0    0  501  0.00000000000E+00  0.00000000000E+00 -0.13745303205E+04  0.13745303205E+04  0.25500000920E-02 0. -1.
    10030    2    1    2    0    0  0.00000000000E+00  0.00000000000E+00 -0.73618517149E+03  0.20128754694E+04  0.18734190799E+04 0.  0.
        3    1    3    3  502    0  0.48130983589E+03 -0.12349719507E+03 -0.12212503509E+04  0.13184700016E+04  0.10100000352E+00 0. -1.
       -3    1    3    3    0  502 -0.48130983589E+03  0.12349719507E+03  0.48506517941E+03  0.69440546786E+03  0.10100000352E+00 0.  1.
</event>
<event>
 5   0  0.4839293E-04  0.2006154E+04  0.7818609E-02  0.8603749E-01
        2   -1    0    0  501    0  0.00000000000E+00  0.00000000000E+00  0.20869175277E+04  0.20869175277E+04  0.25500000920E-02 0. -1.
       -2   -1    0    0    0  501  0.00000000000E+00  0.00000000000E+00 -0.48212906587E+03  0.48212906588E+03  0.25500000920E-02 0.  1.
    10030    2    1    2    0    0  0.00000000000E+00  0.00000000000E+00  0.16047884619E+04  0.25690465936E+04  0.20061541299E+04 0.  0.
        5    1    3    3  502    0  0.47662052929E+03  0.66709051362E+03  0.15424388732E+04  0.17468018347E+04  0.46999998093E+01 0. -1.
       -5    1    3    3    0  502 -0.47662052929E+03 -0.66709051362E+03  0.62349588668E+02  0.82224475888E+03  0.46999998093E+01 0.  1.
</event>
<event>
 5   0  0.4802635E-04  0.1999699E+04  0.7818609E-02  0.8606761E-01
        2   -1    0    0  501    0  0.00000000000E+00  0.00000000000E+00  0.16709419680E+04  0.16709419680E+04  0.25500000920E-02 0. -1.
       -2   -1    0    0    0  501  0.00000000000E+00  0.00000000000E+00 -0.59828466314E+03  0.59828466314E+03  0.25500000920E-02 0.  1.
    10030    2    1    2    0    0  0.00000000000E+00  0.00000000000E+00  0.10726573049E+04  0.22692266311E+04  0.19996989298E+04 0.  0.
        3    1    3    3  502    0 -0.13795538567E+03 -0.18076928290E+03 -0.56855124389E+03  0.61233957018E+03  0.10100000352E+00 0.  1.
       -3    1    3    3    0  502  0.13795538567E+03  0.18076928290E+03  0.16412085488E+04  0.16568870610E+04  0.10100000352E+00 0. -1.
</event>
<event>
 5   0  0.2355414E-04  0.1047401E+04  0.7818609E-02  0.9258032E-01
       -1   -1    0    0    0  501  0.00000000000E+00  0.00000000000E+00  0.45210746480E+03  0.45210746483E+03  0.50400001928E-02 0. -1.
        1   -1    0    0  501    0  0.00000000000E+00  0.00000000000E+00 -0.60663030053E+03  0.60663030055E+03  0.50400001928E-02 0.  1.
    10030    2    1    2    0    0  0.00000000000E+00  0.00000000000E+00 -0.15452283573E+03  0.10587377654E+04  0.10474007586E+04 0.  0.
        5    1    3    3  502    0 -0.52269555347E+03 -0.29661275209E+02 -0.89623443622E+02  0.53117312104E+03  0.46999998093E+01 0.  1.
       -5    1    3    3    0  502  0.52269555347E+03  0.29661275209E+02 -0.64899392104E+02  0.52756464435E+03  0.46999998093E+01 0. -1.
</event>
<event>
 5   0  0.4839293E-04  0.1921665E+04  0.7818609E-02  0.8644147E-01
       -2   -1    0    0    0  501  0.00000000000E+00  0.00000000000E+00  0.84777095703E+03  0.84777095703E+03  0.25500000920E-02 0.  1.
        2   -1    0    0  501    0  0.00000000000E+00  0.00000000000E+00 -0.10889723674E+04  0.10889723674E+04  0.25500000920E-02 0. -1.
    10030    2    1    2    0    0  0.00000000000E+00  0.00000000000E+00 -0.24120141036E+03  0.19367433244E+04  0.19216650552E+04 0.  0.
        5    1    3    3  502    0 -0.39618728716E+03 -0.54620359131E+03  0.56877977539E+03  0.88251643189E+03  0.46999998093E+01 0.  1.
       -5    1    3    3    0  502  0.39618728716E+03  0.54620359131E+03 -0.80998118575E+03  0.10542268925E+04  0.46999998093E+01 0. -1.
</event>
<event>
 5   0  0.4829134E-04  0.1867333E+04  0.7818609E-02  0.8671290E-01
        2   -1    0    0  501    0  0.00000000000E+00  0.00000000000E+00  0.86198338689E+03  0.86198338689E+03  0.25500000920E-02 0. -1.
       -2   -1    0    0    0  501  0.00000000000E+00  0.00000000000E+00 -0.10113110289E+04  0.10113110289E+04  0.25500000920E-02 0.  1.
    10030    2    1    2    0    0  0.00000000000E+00  0.00000000000E+00 -0.14932764197E+03  0.18732944157E+04  0.18673331849E+04 0.  0.
        2    1    3    3  502    0 -0.50694572082E+03  0.17520042323E+03 -0.84133133932E+03  0.99776128141E+03  0.25500000920E-02 0.  1.
       -2    1    3    3    0  502  0.50694572082E+03 -0.17520042323E+03  0.69200369736E+03  0.87553313433E+03  0.25500000920E-02 0. -1.
</event>
<event>
 5   0  0.4839293E-04  0.1877582E+04  0.7818609E-02  0.8666096E-01
       -2   -1    0    0    0  501  0.00000000000E+00  0.00000000000E+00  0.10243055434E+04  0.10243055434E+04  0.25500000920E-02 0.  1.
        2   -1    0    0  501    0  0.00000000000E+00  0.00000000000E+00 -0.86041564659E+03  0.86041564659E+03  0.25500000920E-02 0. -1.
    10030    2    1    2    0    0  0.00000000000E+00  0.00000000000E+00  0.16388989677E+03  0.18847211900E+04  0.18775819731E+04 0.  0.
        5    1    3    3  502    0  0.64266663436E+03  0.23445739632E+03  0.72728584101E+03  0.99847757018E+03  0.46999998093E+01 0. -1.
       -5    1    3    3    0  502 -0.64266663436E+03 -0.23445739632E+03 -0.56339594424E+03  0.88624361978E+03  0.46999998093E+01 0.  1.
</event>
<event>
 5   0  0.2261755E-04  0.1889507E+04  0.7818609E-02  0.8660097E-01
       -1   -1    0    0    0  501  0.00000000000E+00  0.00000000000E+00  0.52831501199E+03  0.52831501201E+03  0.50400001928E-02 0.  1.
        1   -1    0    0  501    0  0.00000000000E+00  0.00000000000E+00 -0.16894454462E+04  0.16894454462E+04  0.50400001928E-02 0. -1.
    10030    2    1    2    0    0  0.00000000000E+00  0.00000000000E+00 -0.11611304342E+04  0.22177604582E+04  0.18895072280E+04 0.  0.
        1    1    3    3  502    0  0.58493157281E+03  0.48854113050E+03 -0.12359007917E+04  0.14519876542E+04  0.50400001928E-02 0. -1.
       -1    1    3    3    0  502 -0.58493157281E+03 -0.48854113050E+03  0.74770357428E+02  0.76577280406E+03  0.50400001928E-02 0.  1.
</event>
<event>
 5   0  0.4829134E-04  0.1668016E+04  0.7818609E-02  0.8779819E-01
       -2   -1    0    0    0  501  0.00000000000E+00  0.00000000000E+00  0.77969614492E+03  0.77969614492E+03  0.25500000920E-02 0.  1.
        2   -1    0    0  501    0  0.00000000000E+00  0.00000000000E+00 -0.89210345262E+03  0.89210345262E+03  0.25500000920E-02 0. -1.
    10030    2    1    2    0    0  0.00000000000E+00  0.00000000000E+00 -0.11240730770E+03  0.16717995975E+04  0.16680163343E+04 0.  0.
        2    1    3    3  502    0 -0.59685445296E+03  0.35939801652E+02 -0.63893678166E+03  0.87508120670E+03  0.25500000920E-02 0. -1.
       -2    1    3    3    0  502  0.59685445296E+03 -0.35939801652E+02  0.52652947395E+03  0.79671839084E+03  0.25500000920E-02 0.  1.
</event>
<event>
 5   0  0.2355414E-04  0.1881294E+04  0.7818609E-02  0.8664224E-01
       -1   -1    0    0    0  501  0.00000000000E+00  0.00000000000E+00  0.11369540017E+04  0.11369540017E+04  0.50400001928E-02 0. -1.
        1   -1    0    0  501    0  0.00000000000E+00  0.00000000000E+00 -0.77823459992E+03  0.77823459993E+03  0.50400001928E-02 0.  1.
    10030    2    1    2    0    0  0.00000000000E+00  0.00000000000E+00  0.35871940177E+03  0.19151886016E+04  0.18812941744E+04 0.  0.
        5    1    3    3  502    0 -0.63695197703E+03 -0.50267500590E+03 -0.30503314455E+03  0.86686636332E+03  0.46999998093E+01 0.  1.
       -5    1    3    3    0  502  0.63695197703E+03  0.50267500590E+03  0.66375254632E+03  0.10483222383E+04  0.46999998093E+01 0. -1.
</event>
<event>
 5   0  0.2317458E-04  0.9804079E+03  0.7818609E-02  0.9330298E-01
       -1   -1    0    0    0  501  0.00000000000E+00  0.00000000000E+00  0.34253981033E+03  0.34253981037E+03  0.50400001928E-02 0. -1.
        1   -1    0    0  501    0  0.00000000000E+00  0.00000000000E+00 -0.70152399394E+03  0.70152399395E+03  0.50400001928E-02 0.  1.
    10030    2    1    2    0    0  0.00000000000E+00  0.00000000000E+00 -0.35898418360E+03  0.10440638043E+04  0.98040786585E+03 0.  0.
        3    1    3    3  502    0  0.11206708411E+02  0.18814336886E+03 -0.66139569215E+03  0.68772653675E+03  0.10100000352E+00 0.  1.
       -3    1    3    3    0  502 -0.11206708411E+02 -0.18814336886E+03  0.30241150855E+03  0.35633726757E+03  0.10100000352E+00 0. -1.
</event>
<event>
 5   0  0.4761944E-04  0.9646266E+03  0.7818609E-02  0.9348216E-01
       -2   -1    0    0    0  501  0.00000000000E+00  0.00000000000E+00  0.17582284778E+03  0.17582284780E+03  0.25500000920E-02 0.  1.
        2   -1    0    0  501    0  0.00000000000E+00  0.00000000000E+00 -0.13230710210E+04  0.13230710211E+04  0.25500000920E-02 0. -1.
    10030    2    1    2    0    0  0.00000000000E+00  0.00000000000E+00 -0.11472481733E+04  0.14988938688E+04  0.96462659045E+03 0.  0.
        4    1    3    3  502    0 -0.28382055984E+03  0.30471083492E+03 -0.95176362023E+03  0.10388736231E+04  0.12699999809E+01 0. -1.
       -4    1    3    3    0  502  0.28382055984E+03 -0.30471083492E+03 -0.19548455304E+03  0.46002024573E+03  0.12699999809E+01 0.  1.
</event>
<event>
 5   0  0.2355414E-04  0.1879454E+04  0.7818609E-02  0.8665152E-01
        1   -1    0    0  501    0  0.00000000000E+00  0.00000000000E+00  0.13316362540E+04  0.13316362540E+04  0.50400001928E-02 0. -1.
       -1   -1    0    0    0  501  0.00000000000E+00  0.00000000000E+00 -0.66315907398E+03  0.66315907400E+03  0.50400001928E-02 0.  1.
    10030    2    1    2    0    0  0.00000000000E+00  0.00000000000E+00  0.66847718000E+03  0.19947953280E+04  0.18794538197E+04 0.  0.
        5    1    3    3  502    0 -0.86668636151E+03  0.36271521560E+03  0.35429253078E+03  0.10041179533E+04  0.46999998093E+01 0. -1.
       -5    1    3    3    0  502  0.86668636151E+03 -0.36271521560E+03  0.31418464922E+03  0.99067737466E+03  0.46999998093E+01 0.  1.
</event>
<event>
 5   0  0.2261755E-04  0.1808462E+04  0.7818609E-02  0.8701813E-01
        1   -1    0    0  501    0  0.00000000000E+00  0.00000000000E+00  0.75531570366E+03  0.75531570367E+03  0.50400001928E-02 0. -1.
       -1   -1    0    0    0  501  0.00000000000E+00  0.00000000000E+00 -0.10825054209E+04  0.10825054209E+04  0.50400001928E-02 0.  1.
    10030    2    1    2    0    0  0.00000000000E+00  0.00000000000E+00 -0.32718971722E+03  0.18378211246E+04  0.18084616045E+04 0.  0.
        1    1    3    3  502    0  0.66913609626E+03  0.47076225146E+03  0.22771895195E+03  0.84924444880E+03  0.50400001928E-02 0. -1.
       -1    1    3    3    0  502 -0.66913609626E+03 -0.47076225146E+03 -0.55490866917E+03  0.98857667576E+03  0.50400001928E-02 0.  1.
</event>
<event>
 5   0  0.2355414E-04  0.1902654E+04  0.7818609E-02  0.8653536E-01
        1   -1    0    0  501    0  0.00000000000E+00  0.00000000000E+00  0.94030416867E+03  0.94030416868E+03  0.50400001928E-02 0. -1.
       -1   -1    0    0    0  501  0.00000000000E+00  0.00000000000E+00 -0.96247934713E+03  0.96247934714E+03  0.50400001928E-02 0.  1.
    10030    2    1    2    0    0  0.00000000000E+00  0.00000000000E+00 -0.22175178461E+02  0.19027835158E+04  0.19026542959E+04 0.  0.
        5    1    3    3  502    0 -0.76345930752E+03  0.43160842471E+03  0.35750942450E+03  0.94709610132E+03  0.46999998093E+01 0. -1.
       -5    1    3    3    0  502  0.76345930752E+03 -0.43160842471E+03 -0.37968460296E+03  0.95568741451E+03  0.46999998093E+01 0.  1.
</event>
<event>
 5   0  0.4839293E-04  0.1969568E+04  0.7818609E-02  0.8620982E-01
       -2   -1    0    0    0  501  0.00000000000E+00  0.00000000000E+00  0.54025152515E+03  0.54025152516E+03  0.25500000920E-02 0.  1.
        2   -1    0    0  501    0  0.00000000000E+00  0.00000000000E+00 -0.17950888351E+04  0.17950888351E+04  0.25500000920E-02 0. -1.
    10030    2    1    2    0    0  0.00000000000E+00  0.00000000000E+00 -0.12548373099E+04  0.23353403602E+04  0.19695679536E+04 0.  0.
        5    1    3    3  502    0 -0.30092951531E+03 -0.32941664082E+03  0.41351459162E+03  0.60835047786E+03  0.46999998093E+01 0.  1.
       -5    1    3    3    0  502  0.30092951531E+03  0.32941664082E+03 -0.16683519015E+04  0.17269898824E+04  0.46999998093E+01 0. -1.
</event>
<event>
 5   0  0.2261755E-04  0.1943412E+04  0.7818609E-02  0.8633544E-01
       -1   -1    0    0    0  501  0.00000000000E+00  0.00000000000E+00  0.95085193377E+03  0.95085193379E+03  0.50400001928E-02 0.  1.
        1   -1    0    0  501    0  0.00000000000E+00  0.00000000000E+00 -0.99301747850E+03  0.99301747851E+03  0.50400001928E-02 0. -1.
    10030    2    1    2    0    0  0.00000000000E+00  0.00000000000E+00 -0.42165544725E+02  0.19438694123E+04  0.19434120404E+04 0.  0.
        1    1    3    3  502    0 -0.53932210288E+03 -0.74654307870E+03 -0.33102291259E+03  0.97865778886E+03  0.50400001928E-02 0. -1.
       -1    1    3    3    0  502  0.53932210288E+03  0.74654307870E+03  0.28885736786E+03  0.96521162343E+03  0.50400001928E-02 0.  1.
</event>
<event>
 5   0  0.1729375E-04  0.1871708E+04  0.7818609E-02  0.8669069E-01
        3   -1    0    0  501    0  0.00000000000E+00  0.00000000000E+00  0.10821323210E+04  0.10821323257E+04  0.10100000352E+00 0. -1.
       -3   -1    0    0    0  501  0.00000000000E+00  0.00000000000E+00 -0.80934883343E+03  0.80934883973E+03  0.10100000352E+00 0.  1.
    10030    2    1    2    0    0  0.00000000000E+00  0.00000000000E+00  0.27278348758E+03  0.18914811654E+04  0.18717078213E+04 0.  0.
        2    1    3    3  502    0  0.17901163690E+03  0.83397088836E+03 -0.25273449120E+03  0.88962201627E+03  0.25500000920E-02 0.  1.
       -2    1    3    3    0  502 -0.17901163690E+03 -0.83397088836E+03  0.52551797877E+03  0.10018591492E+04  0.25500000920E-02 0. -1.
</event>
<event>
 5   0  0.4839293E-04  0.1881449E+04  0.7818609E-02  0.8664146E-01
        2   -1    0    0  501    0  0.00000000000E+00  0.00000000000E+00  0.16989781182E+04  0.16989781182E+04  0.25500000920E-02 0. -1.
       -2   -1    0    0    0  501  0.00000000000E+00  0.00000000000E+00 -0.52087952288E+03  0.52087952289E+03  0.25500000920E-02 0.  1.
    10030    2    1    2    0    0  0.00000000000E+00  0.00000000000E+00  0.11780985953E+04  0.22198576410E+04  0.18814493473E+04 0.  0.
        5    1    3    3  502    0  0.93865685815E+03  0.49902559510E+02  0.63278173064E+03  0.11331380196E+04  0.46999998093E+01 0.  1.
       -5    1    3    3    0  502 -0.93865685815E+03 -0.49902559510E+02  0.54531686464E+03  0.10867196215E+04  0.46999998093E+01 0. -1.
</event>
<event>
 5   0  0.2355414E-04  0.1888334E+04  0.7818609E-02  0.8660685E-01
        1   -1    0    0  501    0  0.00000000000E+00  0.00000000000E+00  0.86745938659E+03  0.86745938661E+03  0.50400001928E-02 0. -1.
       -1   -1    0    0    0  501  0.00000000000E+00  0.00000000000E+00 -0.10276573851E+04  0.10276573851E+04  0.50400001928E-02 0.  1.
    10030    2    1    2    0    0  0.00000000000E+00  0.00000000000E+00 -0.16019799847E+03  0.18951167717E+04  0.18883337045E+04 0.  0.
        5    1    3    3  502    0  0.28711261003E+03  0.53571352621E+03 -0.80519433517E+03  0.10088521400E+04  0.46999998093E+01 0.  1.
       -5    1    3    3    0  502 -0.28711261003E+03 -0.53571352621E+03  0.64499633670E+03  0.88626463167E+03  0.46999998093E+01 0. -1.
</event>
<event>
 5   0  0.4761944E-04  0.1843638E+04  0.7818609E-02  0.8683431E-01
       -2   -1    0    0    0  501  0.00000000000E+00  0.00000000000E+00  0.88908762417E+03  0.88908762417E+03  0.25500000920E-02 0. -1.
        2   -1    0    0  501    0  0.00000000000E+00  0.00000000000E+00 -0.95575537277E+03  0.95575537278E+03  0.25500000920E-02 0.  1.
    10030    2    1    2    0    0  0.00000000000E+00  0.00000000000E+00 -0.66667748609E+02  0.18448429969E+04  0.18436380053E+04 0.  0.
        4    1    3    3  502    0 -0.77438333337E+03 -0.13191884173E+03 -0.51601470525E+03  0.93986430762E+03  0.12699999809E+01 0.  1.
       -4    1    3    3    0  502  0.77438333337E+03  0.13191884173E+03  0.44934695664E+03  0.90497868933E+03  0.12699999809E+01 0. -1.
</event>
<event>
 5   0  0.2510069E-04  0.1968501E+04  0.7818609E-02  0.8621491E-01
       -1   -1    0    0    0  501  0.00000000000E+00  0.00000000000E+00  0.52571373185E+03  0.52571373188E+03  0.50400001928E-02 0. -1.
        1   -1    0    0  501    0  0.00000000000E+00  0.00000000000E+00 -0.18427311026E+04  0.18427311026E+04  0.50400001928E-02 0.  1.
    10030    2    1    2    0    0  0.00000000000E+00  0.00000000000E+00 -0.13170173708E+04  0.23684448345E+04  0.19685009980E+04 0.  0.
        4    1    3    3  502    0  0.39319193133E+02 -0.56446577644E+03  0.31045912617E+03  0.64541001979E+03  0.12699999809E+01 0. -1.
       -4    1    3    3    0  502 -0.39319193133E+02  0.56446577644E+03 -0.16274764969E+04  0.17230348147E+04  0.12699999809E+01 0.  1.
</event>
<event>
 5   0  0.2376359E-04  0.1907677E+04  0.7818609E-02  0.8651044E-01
        1   -1    0    0  501    0  0.00000000000E+00  0.00000000000E+00  0.92072992527E+03  0.92072992528E+03  0.50400001928E-02 0. -1.
       -1   -1    0    0    0  501  0.00000000000E+00  0.00000000000E+00 -0.98813761653E+03  0.98813761655E+03  0.50400001928E-02 0.  1.
    10030    2    1    2    0    0  0.00000000000E+00  0.00000000000E+00 -0.67407691268E+02  0.19088675418E+04  0.19076769893E+04 0.  0.
        2    1    3    3  502    0  0.75959499148E+03 -0.36788452285E+03 -0.47837324136E+03  0.97013634675E+03  0.25500000920E-02 0. -1.
       -2    1    3    3    0  502 -0.75959499148E+03  0.36788452285E+03  0.41096555010E+03  0.93873119507E+03  0.25500000920E-02 0.  1.
</event>
<event>
 5   0  0.2317458E-04  0.1867741E+04  0.7818609E-02  0.8671083E-01
        1   -1    0    0  501    0  0.00000000000E+00  0.00000000000E+00  0.10335180847E+04  0.10335180847E+04  0.50400001928E-02 0.  1.
       -1   -1    0    0    0  501  0.00000000000E+00  0.00000000000E+00 -0.84383014667E+03  0.84383014668E+03  0.50400001928E-02 0. -1.
    10030    2    1    2    0    0  0.00000000000E+00  0.00000000000E+00  0.18968793806E+03  0.18773482314E+04  0.18677405784E+04 0.  0.
        3    1    3    3  502    0 -0.10720170998E+02  0.21769812632E+03  0.10075934834E+04  0.10308986537E+04  0.10100000352E+00 0.  1.
       -3    1    3    3    0  502  0.10720170998E+02 -0.21769812632E+03 -0.81790554534E+03  0.84644957769E+03  0.10100000352E+00 0. -1.
</event>
<event>
 5   0  0.4802635E-04  0.1867183E+04  0.7818609E-02  0.8671366E-01
       -2   -1    0    0    0  501  0.00000000000E+00  0.00000000000E+00  0.83621346421E+03  0.83621346422E+03  0.25500000920E-02 0.  1.
        2   -1    0    0  501    0  0.00000000000E+00  0.00000000000E+00 -0.10423093260E+04  0.10423093260E+04  0.25500000920E-02 0. -1.
    10030    2    1    2    0    0  0.00000000000E+00  0.00000000000E+00 -0.20609586182E+03  0.18785227903E+04  0.18671830037E+04 0.  0.
        3    1    3    3  502    0 -0.58644778553E+03  0.66619619426E+03  0.18828750184E+03  0.90729849992E+03  0.10100000352E+00 0.  1.
       -3    1    3    3    0  502  0.58644778553E+03 -0.66619619426E+03 -0.39438336367E+03  0.97122429034E+03  0.10100000352E+00 0. -1.
</event>
<event>
 5   0  0.2376359E-04  0.1929250E+04  0.7818609E-02  0.8640432E-01
        1   -1    0    0  501    0  0.00000000000E+00  0.00000000000E+00  0.99490560294E+03  0.99490560295E+03  0.50400001928E-02 0. -1.
       -1   -1    0    0    0  501  0.00000000000E+00  0.00000000000E+00 -0.93526594649E+03  0.93526594651E+03  0.50400001928E-02 0.  1.
    10030    2    1    2    0    0  0.00000000000E+00  0.00000000000E+00  0.59639656443E+02  0.19301715495E+04  0.19292499376E+04 0.  0.
        2    1    3    3  502    0  0.41055964051E+03 -0.67841198440E+03 -0.51971416221E+03  0.94810592732E+03  0.25500000920E-02 0.  1.
       -2    1    3    3    0  502 -0.41055964051E+03  0.67841198440E+03  0.57935381866E+03  0.98206562214E+03  0.25500000920E-02 0. -1.
</event>
<event>
 5   0  0.2376359E-04  0.1911601E+04  0.7818609E-02  0.8649103E-01
       -1   -1    0    0    0  501  0.00000000000E+00  0.00000000000E+00  0.58977586278E+03  0.58977586280E+03  0.50400001928E-02 0. -1.
        1   -1    0    0  501    0  0.00000000000E+00  0.00000000000E+00 -0.15489858305E+04  0.15489858305E+04  0.50400001928E-02 0.  1.
    10030    2    1    2    0    0  0.00000000000E+00  0.00000000000E+00 -0.95920996769E+03  0.21387616933E+04  0.19116008523E+04 0.  0.
        2    1    3    3  502    0  0.79391437970E+03  0.46943132318E+03 -0.76018148861E+03  0.11952161751E+04  0.25500000920E-02 0.  1.
       -2    1    3    3    0  502 -0.79391437970E+03 -0.46943132318E+03 -0.19902847908E+03  0.94354551823E+03  0.25500000920E-02 0. -1.
</event>
<event>
 5   0  0.4839293E-04  0.1701680E+04  0.7818609E-02  0.8760407E-01
       -2   -1    0    0    0  501  0.00000000000E+00  0.00000000000E+00  0.38068992253E+03  0.38068992254E+03  0.25500000920E-02 0. -1.
        2   -1    0    0  501    0  0.00000000000E+00  0.00000000000E+00 -0.19016237786E+04  0.19016237786E+04  0.25500000920E-02 0.  1.
    10030    2    1    2    0    0  0.00000000000E+00  0.00000000000E+00 -0.15209338560E+04  0.22823137011E+04  0.17016803565E+04 0.  0.
        5    1    3    3  502    0 -0.87093361190E+02  0.56331124406E+03  0.86731120545E+02  0.57658406891E+03  0.46999998093E+01 0. -1.
       -5    1    3    3    0  502  0.87093361190E+02 -0.56331124406E+03 -0.16076649766E+04  0.17057296322E+04  0.46999998093E+01 0.  1.
</event>
<event>
 5   0  0.4761944E-04  0.1921354E+04  0.7818609E-02  0.8644300E-01
        2   -1    0    0  501    0  0.00000000000E+00  0.00000000000E+00  0.13205940770E+04  0.13205940770E+04  0.25500000920E-02 0. -1.
       -2   -1    0    0    0  501  0.00000000000E+00  0.00000000000E+00 -0.69885233966E+03  0.69885233966E+03  0.25500000920E-02 0.  1.
    10030    2    1    2    0    0  0.00000000000E+00  0.00000000000E+00  0.62174173734E+03  0.20194464167E+04  0.19213539606E+04 0.  0.
        4    1    3    3  502    0 -0.25894664619E+03 -0.49684977453E+03 -0.50934555309E+03  0.75719717999E+03  0.12699999809E+01 0.  1.
       -4    1    3    3    0  502  0.25894664619E+03  0.49684977453E+03  0.11310872904E+04  0.12622492367E+04  0.12699999809E+01 0. -1.
</event>
<event>
 5   0  0.2376359E-04  0.2003864E+04  0.7818609E-02  0.8604816E-01
        1   -1    0    0  501    0  0.00000000000E+00  0.00000000000E+00  0.17106947635E+04  0.17106947635E+04  0.50400001928E-02 0. -1.
       -1   -1    0    0    0  501  0.00000000000E+00  0.00000000000E+00 -0.58681874901E+03  0.58681874904E+03  0.50400001928E-02 0.  1.
    10030    2    1    2    0    0  0.00000000000E+00  0.00000000000E+00  0.11238760145E+04  0.22975135125E+04  0.20038640284E+04 0.  0.
        2    1    3    3  502    0 -0.36263413367E+03 -0.91254625598E+03  0.33371119530E+03  0.10371149146E+04  0.25500000920E-02 0.  1.
       -2    1    3    3    0  502  0.36263413367E+03  0.91254625598E+03  0.79016481918E+03  0.12603985979E+04  0.25500000920E-02 0. -1.
</event>
<event>
 5   0  0.2317458E-04  0.1755978E+04  0.7818609E-02  0.8730066E-01
        1   -1    0    0  501    0  0.00000000000E+00  0.00000000000E+00  0.17524602444E+04  0.17524602444E+04  0.50400001928E-02 0. -1.
       -1   -1    0    0    0  501  0.00000000000E+00  0.00000000000E+00 -0.43987589523E+03  0.43987589526E+03  0.50400001928E-02 0.  1.
    10030    2    1    2    0    0  0.00000000000E+00  0.00000000000E+00  0.13125843492E+04  0.21923361397E+04  0.17559783813E+04 0.  0.
        3    1    3    3  502    0  0.19922789997E+03  0.36387899719E+03 -0.30979496387E+03  0.51775728924E+03  0.10100000352E+00 0.  1.
       -3    1    3    3    0  502 -0.19922789997E+03 -0.36387899719E+03  0.16223793131E+04  0.16745788504E+04  0.10100000352E+00 0. -1.
</event>
<event>
 5   0  0.2317458E-04  0.1874041E+04  0.7818609E-02  0.8667887E-01
        1   -1    0    0  501    0  0.00000000000E+00  0.00000000000E+00  0.15045283056E+04  0.15045283056E+04  0.50400001928E-02 0.  1.
       -1   -1    0    0    0  501  0.00000000000E+00  0.00000000000E+00 -0.58357651483E+03  0.58357651485E+03  0.50400001928E-02 0. -1.
    10030    2    1    2    0    0  0.00000000000E+00  0.00000000000E+00  0.92095179076E+03  0.20881048205E+04  0.18740409655E+04 0.  0.
        3    1    3    3  502    0  0.85048347355E+03  0.15329863252E+03  0.56909572905E+02  0.86606080572E+03  0.10100000352E+00 0.  1.
       -3    1    3    3    0  502 -0.85048347355E+03 -0.15329863252E+03  0.86404221786E+03  0.12220440147E+04  0.10100000352E+00 0. -1.
</event>
<event>
 5   0  0.4829134E-04  0.1857071E+04  0.7818609E-02  0.8676525E-01
       -2   -1    0    0    0  501  0.00000000000E+00  0.00000000000E+00  0.82416811820E+03  0.82416811820E+03  0.25500000920E-02 0.  1.
        2   -1    0    0  501    0  0.00000000000E+00  0.00000000000E+00 -0.10461189442E+04  0.10461189442E+04  0.25500000920E-02 0. -1.
    10030    2    1    2    0    0  0.00000000000E+00  0.00000000000E+00 -0.22195082595E+03  0.18702870624E+04  0.18570706843E+04 0.  0.
        2    1    3    3  502    0  0.66276114124E+03 -0.52858022602E+03  0.27057234181E+03  0.88986447161E+03  0.25500000920E-02 0. -1.
       -2    1    3    3    0  502 -0.66276114124E+03  0.52858022602E+03 -0.49252316776E+03  0.98042259075E+03  0.25500000920E-02 0.  1.
</event>
<event>
 5   0  0.2261755E-04  0.1950213E+04  0.7818609E-02  0.8630258E-01
        1   -1    0    0  501    0  0.00000000000E+00  0.00000000000E+00  0.15586267555E+04  0.15586267555E+04  0.50400001928E-02 0. -1.
       -1   -1    0    0    0  501  0.00000000000E+00  0.00000000000E+00 -0.61004491131E+03  0.61004491133E+03  0.50400001928E-02 0.  1.
    10030    2    1    2    0    0  0.00000000000E+00  0.00000000000E+00  0.94858184420E+03  0.21686716669E+04  0.19502126252E+04 0.  0.
        1    1    3    3  502    0 -0.35316108784E+03  0.52337273449E+03  0.13006262608E+04  0.14457767613E+04  0.50400001928E-02 0. -1.
       -1    1    3    3    0  502  0.35316108784E+03 -0.52337273449E+03 -0.35204441662E+03  0.72289490555E+03  0.50400001928E-02 0.  1.
</event>
<event>
 5   0  0.4839293E-04  0.1929857E+04  0.7818609E-02  0.8640136E-01
        2   -1    0    0  501    0  0.00000000000E+00  0.00000000000E+00  0.89545554140E+03  0.89545554140E+03  0.25500000920E-02 0.  1.
       -2   -1    0    0    0  501  0.00000000000E+00  0.00000000000E+00 -0.10397910520E+04  0.10397910520E+04  0.25500000920E-02 0. -1.
    10030    2    1    2    0    0  0.00000000000E+00  0.00000000000E+00 -0.14433551064E+03  0.19352465934E+04  0.19298566366E+04 0.  0.
        5    1    3    3  502    0 -0.92305049320E+03  0.21533846839E+03 -0.25342573436E+03  0.98114196822E+03  0.46999998093E+01 0. -1.
       -5    1    3    3    0  502  0.92305049320E+03 -0.21533846839E+03  0.10909022372E+03  0.95410462522E+03  0.46999998093E+01 0.  1.
</event>
<event>
 5   0  0.2317458E-04  0.2105205E+04  0.7818609E-02  0.8558954E-01
       -1   -1    0    0    0  501  0.00000000000E+00  0.00000000000E+00  0.98237808232E+03  0.98237808234E+03  0.50400001928E-02 0. -1.
        1   -1    0    0  501    0  0.00000000000E+00  0.00000000000E+00 -0.11278468819E+04  0.11278468819E+04  0.50400001928E-02 0.  1.
    10030    2    1    2    0    0  0.00000000000E+00  0.00000000000E+00 -0.14546879953E+03  0.21102249642E+04  0.21052050323E+04 0.  0.
        3    1    3    3  502    0 -0.40055815710E+03 -0.12014745683E+03  0.89553471132E+03  0.98836464829E+03  0.10100000352E+00 0. -1.
       -3    1    3    3    0  502  0.40055815710E+03  0.12014745683E+03 -0.10410035108E+04  0.11218603159E+04  0.10100000352E+00 0.  1.
</event>
<event>
 5   0  0.4829134E-04  0.1937462E+04  0.7818609E-02  0.8636431E-01
       -2   -1    0    0    0  501  0.00000000000E+00  0.00000000000E+00  0.70308445609E+03  0.70308445609E+03  0.25500000920E-02 0. -1.
        2   -1    0    0  501    0  0.00000000000E+00  0.00000000000E+00 -0.13347462133E+04  0.13347462134E+04  0.25500000920E-02 0.  1.
    10030    2    1    2    0    0  0.00000000000E+00  0.00000000000E+00 -0.63166175726E+03  0.20378306694E+04  0.19374615510E+04 0.  0.
        2    1    3    3  502    0 -0.18645736220E+03  0.74977713596E+03  0.29882910837E+03  0.82839057065E+03  0.25500000920E-02 0. -1.
       -2    1    3    3    0  502  0.18645736220E+03 -0.74977713596E+03 -0.93049086563E+03  0.12094400988E+04  0.25500000920E-02 0.  1.
</event>
<event>
 5   0  0.1729375E-04  0.1903405E+04  0.7818609E-02  0.8653163E-01
       -3   -1    0    0    0  501  0.00000000000E+00  0.00000000000E+00  0.41404553769E+03  0.41404555001E+03  0.10100000352E+00 0.  1.
        3   -1    0    0  501    0  0.00000000000E+00  0.00000000000E+00 -0.21875323664E+04  0.21875323687E+04  0.10100000352E+00 0. -1.
    10030    2    1    2    0    0  0.00000000000E+00  0.00000000000E+00 -0.17734868287E+04  0.26015779187E+04  0.19034054050E+04 0.  0.
        5    1    3    3  502    0 -0.59232410137E+03 -0.55049530199E+03 -0.20085532993E+03  0.83322138243E+03  0.46999998093E+01 0.  1.
       -5    1    3    3    0  502  0.59232410137E+03  0.55049530199E+03 -0.15726314987E+04  0.17683565363E+04  0.46999998093E+01 0. -1.
</event>
<event>
 5   0  0.4839293E-04  0.1879131E+04  0.7818609E-02  0.8665314E-01
       -2   -1    0    0    0  501  0.00000000000E+00  0.00000000000E+00  0.37744265442E+03  0.37744265443E+03  0.25500000920E-02 0. -1.
        2   -1    0    0  501    0  0.00000000000E+00  0.00000000000E+00 -0.23388552236E+04  0.23388552236E+04  0.25500000920E-02 0.  1.
    10030    2    1    2    0    0  0.00000000000E+00  0.00000000000E+00 -0.19614125692E+04  0.27162978780E+04  0.18791314205E+04 0.  0.
        5    1    3    3  502    0  0.19741546932E+02 -0.73224230108E+03 -0.13019622444E+03  0.74400380578E+03  0.46999998093E+01 0. -1.
       -5    1    3    3    0  502 -0.19741546932E+02  0.73224230108E+03 -0.18312163447E+04  0.19722940722E+04  0.46999998093E+01 0.  1.
</event>
<event>
 5   0  0.2261755E-04  0.1503330E+04  0.7818609E-02  0.8882242E-01
       -1   -1    0    0    0  501  0.00000000000E+00  0.00000000000E+00  0.36879808277E+03  0.36879808281E+03  0.50400001928E-02 0.  1.
        1   -1    0    0  501    0  0.00000000000E+00  0.00000000000E+00 -0.15320035890E+04  0.15320035890E+04  0.50400001928E-02 0. -1.
    10030    2    1    2    0    0  0.00000000000E+00  0.00000000000E+00 -0.11632055062E+04  0.19008016718E+04  0.15033296198E+04 0.  0.
        1    1    3    3  502    0  0.58028319714E+03  0.11467728940E+02  0.22322518938E+02  0.58082561288E+03  0.50400001928E-02 0.  1.
       -1    1    3    3    0  502 -0.58028319714E+03 -0.11467728940E+02 -0.11855280252E+04  0.13199760589E+04  0.50400001928E-02 0. -1.
</event>
<event>
 5   0  0.2510069E-04  0.1915313E+04  0.7818609E-02  0.8647272E-01
       -1   -1    0    0    0  501  0.00000000000E+00  0.00000000000E+00  0.60533258637E+03  0.60533258639E+03  0.50400001928E-02 0. -1.
        1   -1    0    0  501    0  0.00000000000E+00  0.00000000000E+00 -0.15150440039E+04  0.15150440039E+04  0.50400001928E-02 0.  1.
    10030    2    1    2    0    0  0.00000000000E+00  0.00000000000E+00 -0.90971141750E+03  0.21203765903E+04  0.19153125127E+04 0.  0.
        4    1    3    3  502    0  0.91940186398E+03  0.19357802589E+01 -0.15821096405E+03  0.93291792607E+03  0.12699999809E+01 0. -1.
       -4    1    3    3    0  502 -0.91940186398E+03 -0.19357802589E+01 -0.75150045345E+03  0.11874586642E+04  0.12699999809E+01 0.  1.
</event>
<event>
 5   0  0.4802635E-04  0.2268190E+04  0.7818609E-02  0.8490570E-01
        2   -1    0    0  501    0  0.00000000000E+00  0.00000000000E+00  0.24669069889E+04  0.24669069889E+04  0.25500000920E-02 0.  1.
       -2   -1    0    0    0  501  0.00000000000E+00  0.00000000000E+00 -0.52136990437E+03  0.52136990438E+03  0.25500000920E-02 0. -1.
    10030    2    1    2    0    0  0.00000000000E+00  0.00000000000E+00  0.19455370845E+04  0.29882768932E+04  0.22681896401E+04 0.  0.
        3    1    3    3  502    0  0.10938216528E+04  0.24730469846E+03  0.11954393923E+04  0.16391097501E+04  0.10100000352E+00 0.  1.
       -3    1    3    3    0  502 -0.10938216528E+04 -0.24730469846E+03  0.75009769221E+03  0.13491671431E+04  0.10100000352E+00 0. -1.
</event>
<event>
 5   0  0.2355414E-04  0.1815720E+04  0.7818609E-02  0.8697984E-01
       -1   -1    0    0    0  501  0.00000000000E+00  0.00000000000E+00  0.20375992071E+04  0.20375992071E+04  0.50400001928E-02 0. -1.
        1   -1    0    0  501    0  0.00000000000E+00  0.00000000000E+00 -0.40450050107E+03  0.40450050111E+03  0.50400001928E-02 0.  1.
    10030    2    1    2    0    0  0.00000000000E+00  0.00000000000E+00  0.16330987061E+04  0.24420997082E+04  0.18157201330E+04 0.  0.
        5    1    3    3  502    0 -0.38600053068E+03 -0.76441718214E+03  0.41113835625E+03  0.94994045919E+03  0.46999998093E+01 0.  1.
       -5    1    3    3    0  502  0.38600053068E+03  0.76441718214E+03  0.12219603498E+04  0.14921592491E+04  0.46999998093E+01 0. -1.
</event>
<event>
 5   0  0.4973411E-04  0.1969904E+04  0.7818609E-02  0.8620822E-01
        2   -1    0    0  501    0  0.00000000000E+00  0.00000000000E+00  0.72956114614E+03  0.72956114614E+03  0.25500000920E-02 0.  1.
       -2   -1    0    0    0  501  0.00000000000E+00  0.00000000000E+00 -0.13297445470E+04  0.13297445470E+04  0.25500000920E-02 0. -1.
    10030    2    1    2    0    0  0.00000000000E+00  0.00000000000E+00 -0.60018340090E+03  0.20593056932E+04  0.19699035061E+04 0.  0.
        1    1    3    3  502    0 -0.21853363639E+03  0.29504175961E+03 -0.12555311780E+04  0.13081151054E+04  0.50400001928E-02 0. -1.
       -1    1    3    3    0  502  0.21853363639E+03 -0.29504175961E+03  0.65534777709E+03  0.75119058774E+03  0.50400001928E-02 0.  1.
</event>
<event>
 5   0  0.2261755E-04  0.1869039E+04  0.7818609E-02  0.8670423E-01
       -1   -1    0    0    0  501  0.00000000000E+00  0.00000000000E+00  0.11330178336E+04  0.11330178337E+04  0.50400001928E-02 0.  1.
        1   -1    0    0  501    0  0.00000000000E+00  0.00000000000E+00 -0.77079726778E+03  0.77079726780E+03  0.50400001928E-02 0. -1.
    10030    2    1    2    0    0  0.00000000000E+00  0.00000000000E+00  0.36222056586E+03  0.19038151014E+04  0.18690393795E+04 0.  0.
        1    1    3    3  502    0  0.48429127690E+03  0.49427386380E+03 -0.45865417310E+03  0.83018572852E+03  0.50400001928E-02 0. -1.
       -1    1    3    3    0  502 -0.48429127690E+03 -0.49427386380E+03  0.82087473896E+03  0.10736293729E+04  0.50400001928E-02 0.  1.
</event>
<event>
 5   0  0.4829134E-04  0.1920714E+04  0.7818609E-02  0.8644614E-01
        2   -1    0    0  501    0  0.00000000000E+00  0.00000000000E+00  0.10869114567E+04  0.10869114567E+04  0.25500000920E-02 0.  1.
       -2   -1    0    0    0  501  0.00000000000E+00  0.00000000000E+00 -0.84853764354E+03  0.84853764354E+03  0.25500000920E-02 0. -1.
    10030    2    1    2    0    0  0.00000000000E+00  0.00000000000E+00  0.23837381320E+03  0.19354491003E+04  0.19207137072E+04 0.  0.
        2    1    3    3  502    0  0.62764668065E+03 -0.48630035124E+03  0.66356933741E+03  0.10347717878E+04  0.25500000920E-02 0.  1.
       -2    1    3    3    0  502 -0.62764668065E+03  0.48630035124E+03 -0.42519552421E+03  0.90067731245E+03  0.25500000920E-02 0. -1.
</event>
<event>
 5   0  0.2317458E-04  0.1902690E+04  0.7818609E-02  0.8653518E-01
        1   -1    0    0  501    0  0.00000000000E+00  0.00000000000E+00  0.10980815807E+04  0.10980815807E+04  0.50400001928E-02 0.  1.
       -1   -1    0    0    0  501  0.00000000000E+00  0.00000000000E+00 -0.82421695038E+03  0.82421695039E+03  0.50400001928E-02 0. -1.
    10030    2    1    2    0    0  0.00000000000E+00  0.00000000000E+00  0.27386463031E+03  0.19222985311E+04  0.19026901500E+04 0.  0.
        3    1    3    3  502    0  0.70991079034E+03 -0.38239937899E+03 -0.37310176383E+03  0.88848610099E+03  0.10100000352E+00 0. -1.
       -3    1    3    3    0  502 -0.70991079034E+03  0.38239937899E+03  0.64696639414E+03  0.10338124301E+04  0.10100000352E+00 0.  1.
</event>
<event>
 5   0  0.4761944E-04  0.1002675E+04  0.7818609E-02  0.9305616E-01
        2   -1    0    0  501    0  0.00000000000E+00  0.00000000000E+00  0.20318164048E+04  0.20318164049E+04  0.25500000920E-02 0. -1.
       -2   -1    0    0    0  501  0.00000000000E+00  0.00000000000E+00 -0.12370180829E+03  0.12370180831E+03  0.25500000920E-02 0.  1.
    10030    2    1    2    0    0  0.00000000000E+00  0.00000000000E+00  0.19081145966E+04  0.21555182132E+04  0.10026751486E+04 0.  0.
        4    1    3    3  502    0  0.39061792936E+03 -0.16631422696E+03  0.15272634703E+04  0.15851744729E+04  0.12699999809E+01 0. -1.
       -4    1    3    3    0  502 -0.39061792936E+03  0.16631422696E+03  0.38085112627E+03  0.57034374030E+03  0.12699999809E+01 0.  1.
</event>
<event>
 5   0  0.4973411E-04  0.1943271E+04  0.7818609E-02  0.8633613E-01
        2   -1    0    0  501    0  0.00000000000E+00  0.00000000000E+00  0.24377775071E+04  0.24377775071E+04  0.25500000920E-02 0. -1.
       -2   -1    0    0    0  501  0.00000000000E+00  0.00000000000E+00 -0.38726886449E+03  0.38726886450E+03  0.25500000920E-02 0.  1.
    10030    2    1    2    0    0  0.00000000000E+00  0.00000000000E+00  0.20505086426E+04  0.28250463716E+04  0.19432707758E+04 0.  0.
        1    1    3    3  502    0  0.29066865134E+03  0.96832267872E+02 -0.31521078211E+03  0.43957091596E+03  0.50400001928E-02 0.  1.
       -1    1    3    3    0  502 -0.29066865134E+03 -0.96832267872E+02  0.23657194247E+04  0.23854754556E+04  0.50400001928E-02 0. -1.
</event>
<event>
 5   0  0.2317458E-04  0.1608688E+04  0.7818609E-02  0.8815229E-01
        1   -1    0    0  501    0  0.00000000000E+00  0.00000000000E+00  0.80694938444E+03  0.80694938445E+03  0.50400001928E-02 0. -1.
       -1   -1    0    0    0  501  0.00000000000E+00  0.00000000000E+00 -0.80174678662E+03  0.80174678663E+03  0.50400001928E-02 0.  1.
    10030    2    1    2    0    0  0.00000000000E+00  0.00000000000E+00  0.52025978167E+01  0.16086961711E+04  0.16086877583E+04 0.  0.
        3    1    3    3  502    0 -0.62406601294E+02 -0.56652304520E+03  0.57016582414E+03  0.80618361547E+03  0.10100000352E+00 0. -1.
       -3    1    3    3    0  502  0.62406601294E+02  0.56652304520E+03 -0.56496322633E+03  0.80251255562E+03  0.10100000352E+00 0.  1.
</event>
<event>
 5   0  0.2355414E-04  0.1884260E+04  0.7818609E-02  0.8662731E-01
        1   -1    0    0  501    0  0.00000000000E+00  0.00000000000E+00  0.13883016755E+04  0.13883016755E+04  0.50400001928E-02 0. -1.
       -1   -1    0    0    0  501  0.00000000000E+00  0.00000000000E+00 -0.63934849141E+03  0.63934849143E+03  0.50400001928E-02 0.  1.
    10030    2    1    2    0    0  0.00000000000E+00  0.00000000000E+00  0.74895318407E+03  0.20276501669E+04  0.18842596232E+04 0.  0.
        5    1    3    3  502    0  0.19007503723E+03 -0.58380435035E+02  0.13654521375E+04  0.13798617412E+04  0.46999998093E+01 0. -1.
       -5    1    3    3    0  502 -0.19007503723E+03  0.58380435035E+02 -0.61649895342E+03  0.64778842575E+03  0.46999998093E+01 0.  1.
</event>
<event>
 5   0  0.2317458E-04  0.9428706E+03  0.7818609E-02  0.9373523E-01
       -1   -1    0    0    0  501  0.00000000000E+00  0.00000000000E+00  0.81595738584E+03  0.81595738585E+03  0.50400001928E-02 0. -1.
        1   -1    0    0  501    0  0.00000000000E+00  0.00000000000E+00 -0.27238096181E+03  0.27238096186E+03  0.50400001928E-02 0.  1.
    10030    2    1    2    0    0  0.00000000000E+00  0.00000000000E+00  0.54357642402E+03  0.10883383477E+04  0.94287063288E+03 0.  0.
        3    1    3    3  502    0 -0.30884685962E+03  0.30186051120E+03  0.49002102937E+03  0.65316672477E+03  0.10100000352E+00 0. -1.
       -3    1    3    3    0  502  0.30884685962E+03 -0.30186051120E+03  0.53555394654E+02  0.43517162294E+03  0.10100000352E+00 0.  1.
</event>
<event>
 5   0  0.1729375E-04  0.1899670E+04  0.7818609E-02  0.8655021E-01
        3   -1    0    0  501    0  0.00000000000E+00  0.00000000000E+00  0.69852330207E+03  0.69852330937E+03  0.10100000352E+00 0.  1.
       -3   -1    0    0    0  501  0.00000000000E+00  0.00000000000E+00 -0.12915624838E+04  0.12915624878E+04  0.10100000352E+00 0. -1.
    10030    2    1    2    0    0  0.00000000000E+00  0.00000000000E+00 -0.59303918175E+03  0.19900857971E+04  0.18996699737E+04 0.  0.
        2    1    3    3  502    0 -0.33830134994E+03 -0.80957892593E+03  0.84552790235E+02  0.88148455178E+03  0.25500000920E-02 0. -1.
       -2    1    3    3    0  502  0.33830134994E+03  0.80957892593E+03 -0.67759197199E+03  0.11086012454E+04  0.25500000920E-02 0.  1.
</event>
<event>
 5   0  0.4829134E-04  0.1913621E+04  0.7818609E-02  0.8648106E-01
        2   -1    0    0  501    0  0.00000000000E+00  0.00000000000E+00  0.21111349754E+04  0.21111349754E+04  0.25500000920E-02 0. -1.
       -2   -1    0    0    0  501  0.00000000000E+00  0.00000000000E+00 -0.43364637492E+03  0.43364637492E+03  0.25500000920E-02 0.  1.
    10030    2    1    2    0    0  0.00000000000E+00  0.00000000000E+00  0.16774886005E+04  0.25447813504E+04  0.19136206824E+04 0.  0.
        2    1    3    3  502    0  0.28471205308E+03 -0.89493415861E+03  0.10822074279E+04  0.14328785777E+04  0.25500000920E-02 0.  1.
       -2    1    3    3    0  502 -0.28471205308E+03  0.89493415861E+03  0.59528117266E+03  0.11119027727E+04  0.25500000920E-02 0. -1.
</event>
<event>
 5   0  0.2317458E-04  0.1920660E+04  0.7818609E-02  0.8644641E-01
        1   -1    0    0  501    0  0.00000000000E+00  0.00000000000E+00  0.88225715011E+03  0.88225715013E+03  0.50400001928E-02 0. -1.
       -1   -1    0    0    0  501  0.00000000000E+00  0.00000000000E+00 -0.10453113675E+04  0.10453113675E+04  0.50400001928E-02 0.  1.
    10030    2    1    2    0    0  0.00000000000E+00  0.00000000000E+00 -0.16305421736E+03  0.19275685176E+04  0.19206597076E+04 0.  0.
        3    1    3    3  502    0 -0.20931532040E+03 -0.71040665614E+03  0.53201711666E+03  0.91188417195E+03  0.10100000352E+00 0. -1.
       -3    1    3    3    0  502  0.20931532040E+03  0.71040665614E+03 -0.69507133401E+03  0.10156843457E+04  0.10100000352E+00 0.  1.
</event>
<event>
 5   0  0.4973411E-04  0.1888791E+04  0.7818609E-02  0.8660456E-01
       -2   -1    0    0    0  501  0.00000000000E+00  0.00000000000E+00  0.42902822168E+03  0.42902822169E+03  0.25500000920E-02 0. -1.
        2   -1    0    0  501    0  0.00000000000E+00  0.00000000000E+00 -0.20788451358E+04  0.20788451358E+04  0.25500000920E-02 0.  1.
    10030    2    1    2    0    0  0.00000000000E+00  0.00000000000E+00 -0.16498169141E+04  0.25078733575E+04  0.18887913932E+04 0.  0.
        1    1    3    3  502    0  0.89936463269E+03 -0.22968413854E+03 -0.10559233132E+04  0.14059109465E+04  0.50400001928E-02 0.  1.
       -1    1    3    3    0  502 -0.89936463269E+03  0.22968413854E+03 -0.59389360090E+03  0.11019624110E+04  0.50400001928E-02 0. -1.
</event>
<event>
 5   0  0.4761944E-04  0.1908275E+04  0.7818609E-02  0.8650748E-01
        2   -1    0    0  501    0  0.00000000000E+00  0.00000000000E+00  0.10936073444E+04  0.10936073444E+04  0.25500000920E-02 0. -1.
       -2   -1    0    0    0  501  0.00000000000E+00  0.00000000000E+00 -0.83245466472E+03  0.83245466472E+03  0.25500000920E-02 0.  1.
    10030    2    1    2    0    0  0.00000000000E+00  0.00000000000E+00  0.26115267965E+03  0.19260620091E+04  0.19082751743E+04 0.  0.
        4    1    3    3  502    0  0.24280686004E+03 -0.89511586914E+03 -0.95541574847E+02  0.93237191930E+03  0.12699999809E+01 0. -1.
       -4    1    3    3    0  502 -0.24280686004E+03  0.89511586914E+03  0.35669425449E+03  0.99369008979E+03  0.12699999809E+01 0.  1.
</event>
<event>
 5   0  0.2355414E-04  0.1880044E+04  0.7818609E-02  0.8664854E-01
        1   -1    0    0  501    0  0.00000000000E+00  0.00000000000E+00  0.85073001460E+03  0.85073001461E+03  0.50400001928E-02 0.  1.
       -1   -1    0    0    0  501  0.00000000000E+00  0.00000000000E+00 -0.10386859969E+04  0.10386859969E+04  0.50400001928E-02 0. -1.
    10030    2    1    2    0    0  0.00000000000E+00  0.00000000000E+00 -0.18795598232E+03  0.18894160115E+04  0.18800439924E+04 0.  0.
        5    1    3    3  502    0  0.25481729339E+03  0.77400522402E+03 -0.56493258112E+03  0.99155779006E+03  0.46999998093E+01 0. -1.
       -5    1    3    3    0  502 -0.25481729339E+03 -0.77400522402E+03  0.37697659881E+03  0.89785822147E+03  0.46999998093E+01 0.  1.
</event>
<event>
 5   0  0.4802635E-04  0.1280295E+04  0.7818609E-02  0.9045339E-01
       -2   -1    0    0    0  501  0.00000000000E+00  0.00000000000E+00  0.40643382792E+03  0.40643382792E+03  0.25500000920E-02 0.  1.
        2   -1    0    0  501    0  0.00000000000E+00  0.00000000000E+00 -0.10082539375E+04  0.10082539375E+04  0.25500000920E-02 0. -1.
    10030    2    1    2    0    0  0.00000000000E+00  0.00000000000E+00 -0.60182010963E+03  0.14146877655E+04  0.12802945089E+04 0.  0.
        3    1    3    3  502    0  0.56164619004E+03  0.19024499603E+03 -0.56736356825E+03  0.82069545513E+03  0.10100000352E+00 0. -1.
       -3    1    3    3    0  502 -0.56164619004E+03 -0.19024499603E+03 -0.34456541375E+02  0.59399231034E+03  0.10100000352E+00 0.  1.
</event>
<event>
 5   0  0.4802635E-04  0.1375676E+04  0.7818609E-02  0.8971616E-01
       -2   -1    0    0    0  501  0.00000000000E+00  0.00000000000E+00  0.60257268223E+03  0.60257268224E+03  0.25500000920E-02 0. -1.
        2   -1    0    0  501    0  0.00000000000E+00  0.00000000000E+00 -0.78516830491E+03  0.78516830492E+03  0.25500000920E-02 0.  1.
    10030    2    1    2    0    0  0.00000000000E+00  0.00000000000E+00 -0.18259562268E+03  0.13877409872E+04  0.13756757925E+04 0.  0.
        3    1    3    3  502    0  0.64155401729E+03  0.13261736757E+03  0.12016422888E+03  0.66604682672E+03  0.10100000352E+00 0. -1.
       -3    1    3    3    0  502 -0.64155401729E+03 -0.13261736757E+03 -0.30275985156E+03  0.72169416043E+03  0.10100000352E+00 0.  1.
</event>
<event>
 5   0  0.2376359E-04  0.1717989E+04  0.7818609E-02  0.8751171E-01
        1   -1    0    0  501    0  0.00000000000E+00  0.00000000000E+00  0.13236805702E+04  0.13236805703E+04  0.50400001928E-02 0. -1.
       -1   -1    0    0    0  501  0.00000000000E+00  0.00000000000E+00 -0.55743912309E+03  0.55743912312E+03  0.50400001928E-02 0.  1.
    10030    2    1    2    0    0  0.00000000000E+00  0.00000000000E+00  0.76624144715E+03  0.18811196934E+04  0.17179887501E+04 0.  0.
        2    1    3    3  502    0  0.70580120657E+03  0.47449077059E+03  0.25093243703E+03  0.88671524321E+03  0.25500000920E-02 0.  1.
       -2    1    3    3    0  502 -0.70580120657E+03 -0.47449077059E+03  0.51530901012E+03  0.99440445016E+03  0.25500000920E-02 0. -1.
</event>
<event>
 5   0  0.2355414E-04  0.1949379E+04  0.7818609E-02  0.8630660E-01
       -1   -1    0    0    0  501  0.00000000000E+00  0.00000000000E+00  0.15723730000E+04  0.15723730001E+04  0.50400001928E-02 0.  1.
        1   -1    0    0  501    0  0.00000000000E+00  0.00000000000E+00 -0.60419495906E+03  0.60419495908E+03  0.50400001928E-02 0. -1.
    10030    2    1    2    0    0  0.00000000000E+00  0.00000000000E+00  0.96817804099E+03  0.21765679591E+04  0.19493792247E+04 0.  0.
        5    1    3    3  502    0  0.25936442608E+03 -0.50951995104E+03  0.13654641480E+04  0.14803360819E+04  0.46999998093E+01 0.  1.
       -5    1    3    3    0  502 -0.25936442608E+03  0.50951995104E+03 -0.39728610700E+03  0.69623187720E+03  0.46999998093E+01 0. -1.
</event>
<event>
 5   0  0.2261755E-04  0.1871683E+04  0.7818609E-02  0.8669082E-01
       -1   -1    0    0    0  501  0.00000000000E+00  0.00000000000E+00  0.54489047804E+03  0.54489047806E+03  0.50400001928E-02 0. -1.
        1   -1    0    0  501    0  0.00000000000E+00  0.00000000000E+00 -0.16072936364E+04  0.16072936364E+04  0.50400001928E-02 0.  1.
    10030    2    1    2    0    0  0.00000000000E+00  0.00000000000E+00 -0.10624031584E+04  0.21521841145E+04  0.18716826632E+04 0.  0.
        1    1    3    3  502    0  0.80570319371E+03 -0.46998085301E+03 -0.44393774475E+03  0.10330151789E+04  0.50400001928E-02 0.  1.
       -1    1    3    3    0  502 -0.80570319371E+03  0.46998085301E+03 -0.61846541361E+03  0.11191689356E+04  0.50400001928E-02 0. -1.
</event>
<event>
 5   0  0.4839293E-04  0.1688552E+04  0.7818609E-02  0.8767921E-01
       -2   -1    0    0    0  501  0.00000000000E+00  0.00000000000E+00  0.13590570279E+04  0.13590570279E+04  0.25500000920E-02 0. -1.
        2   -1    0    0  501    0  0.00000000000E+00  0.00000000000E+00 -0.52448272648E+03  0.52448272649E+03  0.25500000920E-02 0.  1.
    10030    2    1    2    0    0  0.00000000000E+00  0.00000000000E+00  0.83457430139E+03  0.18835397544E+04  0.16885519660E+04 0.  0.
        5    1    3    3  502    0  0.44086174229E+02 -0.32723585629E+03  0.12840294518E+04  0.13258131918E+04  0.46999998093E+01 0. -1.
       -5    1    3    3    0  502 -0.44086174229E+02  0.32723585629E+03 -0.44945515040E+03  0.55772656259E+03  0.46999998093E+01 0.  1.
</event>
<event>
 5   0  0.4802635E-04  0.1885449E+04  0.7818609E-02  0.8662133E-01
       -2   -1    0    0    0  501  0.00000000000E+00  0.00000000000E+00  0.53577030969E+03  0.53577030970E+03  0.25500000920E-02 0.  1.
        2   -1    0    0  501    0  0.00000000000E+00  0.00000000000E+00 -0.16587889282E+04  0.16587889283E+04  0.25500000920E-02 0. -1.
    10030    2    1    2    0    0  0.00000000000E+00  0.00000000000E+00 -0.11230186186E+04  0.21945592380E+04  0.18854493977E+04 0.  0.
        3    1    3    3  502    0 -0.16223144113E+03 -0.91228334897E+03 -0.35940510269E+03  0.99385712622E+03  0.10100000352E+00 0. -1.
       -3    1    3    3    0  502  0.16223144113E+03  0.91228334897E+03 -0.76361351587E+03  0.12007021117E+04  0.10100000352E+00 0.  1.
</event>
<event>
 5   0  0.4761944E-04  0.1901313E+04  0.7818609E-02  0.8654203E-01
        2   -1    0    0  501    0  0.00000000000E+00  0.00000000000E+00  0.21494877835E+04  0.21494877835E+04  0.25500000920E-02 0.  1.
       -2   -1    0    0    0  501  0.00000000000E+00  0.00000000000E+00 -0.42044817829E+03  0.42044817829E+03  0.25500000920E-02 0. -1.
    10030    2    1    2    0    0  0.00000000000E+00  0.00000000000E+00  0.17290396052E+04  0.25699359618E+04  0.19013134648E+04 0.  0.
        4    1    3    3  502    0  0.48676780945E+03  0.80223070232E+03  0.10705303878E+04  0.14235708357E+04  0.12699999809E+01 0. -1.
       -4    1    3    3    0  502 -0.48676780945E+03 -0.80223070232E+03  0.65850921739E+03  0.11463651261E+04  0.12699999809E+01 0.  1.
</event>
<event>
 5   0  0.4802635E-04  0.1359601E+04  0.7818609E-02  0.8983592E-01
       -2   -1    0    0    0  501  0.00000000000E+00  0.00000000000E+00  0.86885731908E+03  0.86885731909E+03  0.25500000920E-02 0.  1.
        2   -1    0    0  501    0  0.00000000000E+00  0.00000000000E+00 -0.53188079356E+03  0.53188079357E+03  0.25500000920E-02 0. -1.
    10030    2    1    2    0    0  0.00000000000E+00  0.00000000000E+00  0.33697652552E+03  0.14007381127E+04  0.13596007066E+04 0.  0.
        3    1    3    3  502    0  0.25346250215E+03  0.52823149909E+03 -0.18669909197E+03  0.61492139154E+03  0.10100000352E+00 0. -1.
       -3    1    3    3    0  502 -0.25346250215E+03 -0.52823149909E+03  0.52367561749E+03  0.78581672111E+03  0.10100000352E+00 0.  1.
</event>
<event>
 5   0  0.2355414E-04  0.1955005E+04  0.7818609E-02  0.8627951E-01
       -1   -1    0    0    0  501  0.00000000000E+00  0.00000000000E+00  0.63334959687E+03  0.63334959689E+03  0.50400001928E-02 0. -1.
        1   -1    0    0  501    0  0.00000000000E+00  0.00000000000E+00 -0.15086631422E+04  0.15086631422E+04  0.50400001928E-02 0.  1.
    10030    2    1    2    0    0  0.00000000000E+00  0.00000000000E+00 -0.87531354537E+03  0.21420127391E+04  0.19550050567E+04 0.  0.
        5    1    3    3  502    0 -0.86290798698E+03  0.36371813421E+03 -0.74480807384E+03  0.11965208866E+04  0.46999998093E+01 0.  1.
       -5    1    3    3    0  502  0.86290798698E+03 -0.36371813421E+03 -0.13050547152E+03  0.94549185256E+03  0.46999998093E+01 0. -1.
</event>
<event>
 5   0  0.2510069E-04  0.1873573E+04  0.7818609E-02  0.8668124E-01
       -1   -1    0    0    0  501  0.00000000000E+00  0.00000000000E+00  0.49905337383E+03  0.49905337385E+03  0.50400001928E-02 0. -1.
        1   -1    0    0  501    0  0.00000000000E+00  0.00000000000E+00 -0.17584665573E+04  0.17584665573E+04  0.50400001928E-02 0.  1.
    10030    2    1    2    0    0  0.00000000000E+00  0.00000000000E+00 -0.12594131835E+04  0.22575199312E+04  0.18735727029E+04 0.  0.
        4    1    3    3  502    0 -0.88755376081E+03  0.29010587220E+03 -0.72030851254E+03  0.11793044821E+04  0.12699999809E+01 0. -1.
       -4    1    3    3    0  502  0.88755376081E+03 -0.29010587220E+03 -0.53910467093E+03  0.10782154490E+04  0.12699999809E+01 0.  1.
</event>
<event>
 5   0  0.2355414E-04  0.1724145E+04  0.7818609E-02  0.8747712E-01
        1   -1    0    0  501    0  0.00000000000E+00  0.00000000000E+00  0.15894792567E+04  0.15894792567E+04  0.50400001928E-02 0. -1.
       -1   -1    0    0    0  501  0.00000000000E+00  0.00000000000E+00 -0.46755482142E+03  0.46755482145E+03  0.50400001928E-02 0.  1.
    10030    2    1    2    0    0  0.00000000000E+00  0.00000000000E+00  0.11219244352E+04  0.20570340781E+04  0.17241446459E+04 0.  0.
        5    1    3    3  502    0  0.47763047145E+03 -0.17765761962E+03 -0.26859270419E+03  0.57607050593E+03  0.46999998093E+01 0.  1.
       -5    1    3    3    0  502 -0.47763047145E+03  0.17765761962E+03  0.13905171394E+04  0.14809635722E+04  0.46999998093E+01 0. -1.
</event>
<event>
 5   0  0.2510069E-04  0.1946314E+04  0.7818609E-02  0.8632140E-01
       -1   -1    0    0    0  501  0.00000000000E+00  0.00000000000E+00  0.78484716128E+03  0.78484716129E+03  0.50400001928E-02 0.  1.
        1   -1    0    0  501    0  0.00000000000E+00  0.00000000000E+00 -0.12066486395E+04  0.12066486395E+04  0.50400001928E-02 0. -1.
    10030    2    1    2    0    0  0.00000000000E+00  0.00000000000E+00 -0.42180147823E+03  0.19914958008E+04  0.19463142186E+04 0.  0.
        4    1    3    3  502    0 -0.36954454512E+03  0.74169585646E+03  0.31119633892E+03  0.88516703993E+03  0.12699999809E+01 0.  1.
       -4    1    3    3    0  502  0.36954454512E+03 -0.74169585646E+03 -0.73299781715E+03  0.11063287609E+04  0.12699999809E+01 0. -1.
</event>
<event>
 5   0  0.4802635E-04  0.1939482E+04  0.7818609E-02  0.8635449E-01
       -2   -1    0    0    0  501  0.00000000000E+00  0.00000000000E+00  0.91734465377E+03  0.91734465377E+03  0.25500000920E-02 0.  1.
        2   -1    0    0  501    0  0.00000000000E+00  0.00000000000E+00 -0.10251304469E+04  0.10251304469E+04  0.25500000920E-02 0. -1.
    10030    2    1    2    0    0  0.00000000000E+00  0.00000000000E+00 -0.10778579310E+03  0.19424751006E+04  0.19394823380E+04 0.  0.
        3    1    3    3  502    0  0.77081609891E+03 -0.48176622187E+03  0.28447717264E+03  0.95246176975E+03  0.10100000352E+00 0.  1.
       -3    1    3    3    0  502 -0.77081609891E+03  0.48176622187E+03 -0.39226296575E+03  0.99001333090E+03  0.10100000352E+00 0. -1.
</event>
<event>
 5   0  0.2317458E-04  0.1856043E+04  0.7818609E-02  0.8677051E-01
        1   -1    0    0  501    0  0.00000000000E+00  0.00000000000E+00  0.13014905142E+04  0.13014905142E+04  0.50400001928E-02 0.  1.
       -1   -1    0    0    0  501  0.00000000000E+00  0.00000000000E+00 -0.66172100945E+03  0.66172100947E+03  0.50400001928E-02 0. -1.
    10030    2    1    2    0    0  0.00000000000E+00  0.00000000000E+00  0.63976950477E+03  0.19632115237E+04  0.18560426901E+04 0.  0.
        3    1    3    3  502    0  0.50213676862E+03 -0.55039146461E+03  0.90514272030E+03  0.11723290720E+04  0.10100000352E+00 0.  1.
       -3    1    3    3    0  502 -0.50213676862E+03  0.55039146461E+03 -0.26537321553E+03  0.79088245172E+03  0.10100000352E+00 0. -1.
</event>
<event>
 5   0  0.1729375E-04  0.1850565E+04  0.7818609E-02  0.8679862E-01
        4   -1    0    0  501    0  0.00000000000E+00  0.00000000000E+00  0.20165107865E+04  0.20165111864E+04  0.12699999809E+01 0.  1.
       -4   -1    0    0    0  501  0.00000000000E+00  0.00000000000E+00 -0.42456733397E+03  0.42456923343E+03  0.12699999809E+01 0. -1.
    10030    2    1    2    0    0  0.00000000000E+00  0.00000000000E+00  0.15919434525E+04  0.24410804198E+04  0.18505646868E+04 0.  0.
        4    1    3    3  502    0  0.33067337096E+03  0.83488235983E+03  0.10902593331E+04  0.14124590115E+04  0.12699999809E+01 0. -1.
       -4    1    3    3    0  502 -0.33067337096E+03 -0.83488235983E+03  0.50168411945E+03  0.10286214083E+04  0.12699999809E+01 0.  1.
</event>
<event>
 5   0  0.4802635E-04  0.1889313E+04  0.7818609E-02  0.8660194E-01
       -2   -1    0    0    0  501  0.00000000000E+00  0.00000000000E+00  0.12015277090E+04  0.12015277090E+04  0.25500000920E-02 0. -1.
        2   -1    0    0  501    0  0.00000000000E+00  0.00000000000E+00 -0.74270091449E+03  0.74270091450E+03  0.25500000920E-02 0.  1.
    10030    2    1    2    0    0  0.00000000000E+00  0.00000000000E+00  0.45882679453E+03  0.19442286235E+04  0.18893128151E+04 0.  0.
        3    1    3    3  502    0  0.79881641471E+03 -0.27629139145E+03 -0.20466624585E+03  0.86967400777E+03  0.10100000352E+00 0.  1.
       -3    1    3    3    0  502 -0.79881641471E+03  0.27629139145E+03  0.66349304038E+03  0.10745546158E+04  0.10100000352E+00 0. -1.
</event>
<event>
 5   0  0.2317458E-04  0.1845540E+04  0.7818609E-02  0.8682450E-01
       -1   -1    0    0    0  501  0.00000000000E+00  0.00000000000E+00  0.59284382531E+03  0.59284382533E+03  0.50400001928E-02 0.  1.
        1   -1    0    0  501    0  0.00000000000E+00  0.00000000000E+00 -0.14363049234E+04  0.14363049234E+04  0.50400001928E-02 0. -1.
    10030    2    1    2    0    0  0.00000000000E+00  0.00000000000E+00 -0.84346109807E+03  0.20291487487E+04  0.18455400349E+04 0.  0.
        3    1    3    3  502    0  0.58787782739E+03 -0.45269752870E+03  0.18145561416E+03  0.76384654384E+03  0.10100000352E+00 0.  1.
       -3    1    3    3    0  502 -0.58787782739E+03  0.45269752870E+03 -0.10249167122E+04  0.12653022049E+04  0.10100000352E+00 0. -1.
</event>
<event>
 5   0  0.4761944E-04  0.1897844E+04  0.7818609E-02  0.8655930E-01
        2   -1    0    0  501    0  0.00000000000E+00  0.00000000000E+00  0.13247997809E+04  0.13247997809E+04  0.25500000920E-02 0. -1.
       -2   -1    0    0    0  501  0.00000000000E+00  0.00000000000E+00 -0.67969019677E+03  0.67969019677E+03  0.25500000920E-02 0.  1.
    10030    2    1    2    0    0  0.00000000000E+00  0.00000000000E+00  0.64510958417E+03  0.20044899777E+04  0.18978444866E+04 0.  0.
        4    1    3    3  502    0 -0.30129529538E+03 -0.73407245094E+03  0.87219195650E+03  0.11791359719E+04  0.12699999809E+01 0. -1.
       -4    1    3    3    0  502  0.30129529538E+03  0.73407245094E+03 -0.22708237233E+03  0.82535400585E+03  0.12699999809E+01 0.  1.
</event>
<event>
 5   0  0.1729375E-04  0.1124789E+04  0.7818609E-02  0.9181362E-01
       -4   -1    0    0    0  501  0.00000000000E+00  0.00000000000E+00  0.22796414744E+03  0.22796768503E+03  0.12699999809E+01 0. -1.
        4   -1    0    0  501    0  0.00000000000E+00  0.00000000000E+00 -0.13874296616E+04  0.13874302428E+04  0.12699999809E+01 0.  1.
    10030    2    1    2    0    0  0.00000000000E+00  0.00000000000E+00 -0.11594655141E+04  0.16153979279E+04  0.11247889521E+04 0.  0.
        3    1    3    3  502    0 -0.46748553119E+03  0.23311106882E+03 -0.87894101678E+03  0.10224582209E+04  0.10100000352E+00 0. -1.
       -3    1    3    3    0  502  0.46748553119E+03 -0.23311106882E+03 -0.28052449736E+03  0.59293970697E+03  0.10100000352E+00 0.  1.
</event>
<event>
 5   0  0.2376359E-04  0.1925624E+04  0.7818609E-02  0.8642206E-01
       -1   -1    0    0    0  501  0.00000000000E+00  0.00000000000E+00  0.67681454855E+03  0.67681454857E+03  0.50400001928E-02 0. -1.
        1   -1    0    0  501    0  0.00000000000E+00  0.00000000000E+00 -0.13696622075E+04  0.13696622075E+04  0.50400001928E-02 0.  1.
    10030    2    1    2    0    0  0.00000000000E+00  0.00000000000E+00 -0.69284765893E+03  0.20464767561E+04  0.19256243753E+04 0.  0.
        2    1    3    3  502    0  0.16025306835E+03  0.80342470018E+03 -0.88396933204E+03  0.12052278103E+04  0.25500000920E-02 0.  1.
       -2    1    3    3    0  502 -0.16025306835E+03 -0.80342470018E+03  0.19112167312E+03  0.84124894574E+03  0.25500000920E-02 0. -1.
</event>
<event>
 5   0  0.2510069E-04  0.2232176E+04  0.7818609E-02  0.8505154E-01
        1   -1    0    0  501    0  0.00000000000E+00  0.00000000000E+00  0.11890575777E+04  0.11890575777E+04  0.50400001928E-02 0.  1.
       -1   -1    0    0    0  501  0.00000000000E+00  0.00000000000E+00 -0.10475962068E+04  0.10475962068E+04  0.50400001928E-02 0. -1.
    10030    2    1    2    0    0  0.00000000000E+00  0.00000000000E+00  0.14146137093E+03  0.22366537845E+04  0.22321758068E+04 0.  0.
        4    1    3    3  502    0 -0.81245908837E+03 -0.26633354213E+03 -0.64808370811E+03  0.10728641254E+04  0.12699999809E+01 0. -1.
       -4    1    3    3    0  502  0.81245908837E+03  0.26633354213E+03  0.78954507904E+03  0.11637896591E+04  0.12699999809E+01 0.  1.
</event>
<event>
 5   0  0.2317458E-04  0.1909236E+04  0.7818609E-02  0.8650273E-01
        1   -1    0    0  501    0  0.00000000000E+00  0.00000000000E+00  0.12129101376E+04  0.12129101376E+04  0.50400001928E-02 0.  1.
       -1   -1    0    0    0  501  0.00000000000E+00  0.00000000000E+00 -0.75132963105E+03  0.75132963107E+03  0.50400001928E-02 0. -1.
    10030    2    1    2    0    0  0.00000000000E+00  0.00000000000E+00  0.46158050651E+03  0.19642397686E+04  0.19092357908E+04 0.  0.
        3    1    3    3  502    0  0.40638658623E+03 -0.73522209593E+03  0.69727759499E+03  0.10917406480E+04  0.10100000352E+00 0.  1.
       -3    1    3    3    0  502 -0.40638658623E+03  0.73522209593E+03 -0.23569708848E+03  0.87249912065E+03  0.10100000352E+00 0. -1.
</event>
<event>
 5   0  0.2355414E-04  0.1903409E+04  0.7818609E-02  0.8653161E-01
        1   -1    0    0  501    0  0.00000000000E+00  0.00000000000E+00  0.11484016801E+04  0.11484016802E+04  0.50400001928E-02 0.  1.
       -1   -1    0    0    0  501  0.00000000000E+00  0.00000000000E+00 -0.78869736565E+03  0.78869736566E+03  0.50400001928E-02 0. -1.
    10030    2    1    2    0    0  0.00000000000E+00  0.00000000000E+00  0.35970431450E+03  0.19370990458E+04  0.19034089207E+04 0.  0.
        5    1    3    3  502    0 -0.19554123850E+03  0.45195447870E+02 -0.76690431004E+03  0.79274416758E+03  0.46999998093E+01 0. -1.
       -5    1    3    3    0  502  0.19554123850E+03 -0.45195447870E+02  0.11266086245E+04  0.11443548782E+04  0.46999998093E+01 0.  1.
</event>
<event>
 5   0  0.4802635E-04  0.1948907E+04  0.7818609E-02  0.8630888E-01
        2   -1    0    0  501    0  0.00000000000E+00  0.00000000000E+00  0.14718899020E+04  0.14718899020E+04  0.25500000920E-02 0. -1.
       -2   -1    0    0    0  501  0.00000000000E+00  0.00000000000E+00 -0.64512962134E+03  0.64512962134E+03  0.25500000920E-02 0.  1.
    10030    2    1    2    0    0  0.00000000000E+00  0.00000000000E+00  0.82676028067E+03  0.21170195234E+04  0.19489071554E+04 0.  0.
        3    1    3    3  502    0  0.71050174532E+03 -0.29871674188E+03  0.10610637206E+04  0.13114498280E+04  0.10100000352E+00 0. -1.
       -3    1    3    3    0  502 -0.71050174532E+03  0.29871674188E+03 -0.23430343989E+03  0.80556969539E+03  0.10100000352E+00 0.  1.
</event>
<event>
 5   0  0.2261755E-04  0.1903747E+04  0.7818609E-02  0.8652994E-01
        1   -1    0    0  501    0  0.00000000000E+00  0.00000000000E+00  0.10641477397E+04  0.10641477397E+04  0.50400001928E-02 0. -1.
       -1   -1    0    0    0  501  0.00000000000E+00  0.00000000000E+00 -0.85144458790E+03  0.85144458791E+03  0.50400001928E-02 0.  1.
    10030    2    1    2    0    0  0.00000000000E+00  0.00000000000E+00  0.21270315184E+03  0.19155923277E+04  0.19037466572E+04 0.  0.
        1    1    3    3  502    0 -0.75072147767E+03  0.44007011243E+03 -0.28181866773E+03  0.91469459515E+03  0.50400001928E-02 0.  1.
       -1    1    3    3    0  502  0.75072147767E+03 -0.44007011243E+03  0.49452181957E+03  0.10008977325E+04  0.50400001928E-02 0. -1.
</event>
<event>
 5   0  0.4973411E-04  0.1991935E+04  0.7818609E-02  0.8610400E-01
       -2   -1    0    0    0  501  0.00000000000E+00  0.00000000000E+00  0.52860593381E+03  0.52860593382E+03  0.25500000920E-02 0. -1.
        2   -1    0    0  501    0  0.00000000000E+00  0.00000000000E+00 -0.18765426967E+04  0.18765426967E+04  0.25500000920E-02 0.  1.
    10030    2    1    2    0    0  0.00000000000E+00  0.00000000000E+00 -0.13479367629E+04  0.24051486305E+04  0.19919353449E+04 0.  0.
        1    1    3    3  502    0  0.18855462514E+03  0.56883290739E+02  0.50485917845E+03  0.54191451864E+03  0.50400001928E-02 0. -1.
       -1    1    3    3    0  502 -0.18855462514E+03 -0.56883290739E+02 -0.18527959413E+04  0.18632341119E+04  0.50400001928E-02 0.  1.
</event>
<event>
 5   0  0.2317458E-04  0.1896613E+04  0.7818609E-02  0.8656544E-01
       -1   -1    0    0    0  501  0.00000000000E+00  0.00000000000E+00  0.91461939365E+03  0.91461939367E+03  0.50400001928E-02 0. -1.
        1   -1    0    0  501    0  0.00000000000E+00  0.00000000000E+00 -0.98323392864E+03  0.98323392866E+03  0.50400001928E-02 0.  1.
    10030    2    1    2    0    0  0.00000000000E+00  0.00000000000E+00 -0.68614534990E+02  0.18978533223E+04  0.18966125800E+04 0.  0.
        3    1    3    3  502    0  0.23111636983E+03  0.95448366317E+02  0.88103681959E+03  0.91583353002E+03  0.10100000352E+00 0. -1.
       -3    1    3    3    0  502 -0.23111636983E+03 -0.95448366317E+02 -0.94965135458E+03  0.98201979231E+03  0.10100000352E+00 0.  1.
</event>
<event>
 5   0  0.2376359E-04  0.1999197E+04  0.7818609E-02  0.8606996E-01
        1   -1    0    0  501    0  0.00000000000E+00  0.00000000000E+00  0.46654996582E+03  0.46654996585E+03  0.50400001928E-02 0. -1.
       -1   -1    0    0    0  501  0.00000000000E+00  0.00000000000E+00 -0.21416728474E+04  0.21416728474E+04  0.50400001928E-02 0.  1.
    10030    2    1    2    0    0  0.00000000000E+00  0.00000000000E+00 -0.16751228816E+04  0.26082228132E+04  0.19991972327E+04 0.  0.
        2    1    3    3  502    0 -0.64692172198E+02  0.57167257852E+03 -0.19040180405E+04  0.19890397967E+04  0.25500000920E-02 0.  1.
       -2    1    3    3    0  502  0.64692172198E+02 -0.57167257852E+03  0.22889515896E+03  0.61918301654E+03  0.25500000920E-02 0. -1.
</event>
<event>
 5   0  0.2355414E-04  0.1904339E+04  0.7818609E-02  0.8652699E-01
       -1   -1    0    0    0  501  0.00000000000E+00  0.00000000000E+00  0.10673789784E+04  0.10673789784E+04  0.50400001928E-02 0. -1.
        1   -1    0    0  501    0  0.00000000000E+00  0.00000000000E+00 -0.84939580425E+03  0.84939580426E+03  0.50400001928E-02 0.  1.
    10030    2    1    2    0    0  0.00000000000E+00  0.00000000000E+00  0.21798317414E+03  0.19167747827E+04  0.19043394926E+04 0.  0.
        5    1    3    3  502    0  0.16700741476E+03  0.69467890767E+03  0.74249396895E+03  0.10304317761E+04  0.46999998093E+01 0. -1.
       -5    1    3    3    0  502 -0.16700741476E+03 -0.69467890767E+03 -0.52451079481E+03  0.88634300652E+03  0.46999998093E+01 0.  1.
</event>
<event>
 5   0  0.4839293E-04  0.1865127E+04  0.7818609E-02  0.8672412E-01
       -2   -1    0    0    0  501  0.00000000000E+00  0.00000000000E+00  0.27894027573E+04  0.27894027573E+04  0.25500000920E-02 0.  1.
        2   -1    0    0  501    0  0.00000000000E+00  0.00000000000E+00 -0.31177797865E+03  0.31177797867E+03  0.25500000920E-02 0. -1.
    10030    2    1    2    0    0  0.00000000000E+00  0.00000000000E+00  0.24776247786E+04  0.31011807359E+04  0.18651266481E+04 0.  0.
        5    1    3    3  502    0  0.45423102726E+03  0.83037527852E+01  0.25929407384E+04  0.26324434545E+04  0.46999998093E+01 0.  1.
       -5    1    3    3    0  502 -0.45423102726E+03 -0.83037527852E+01 -0.11531595975E+03  0.46873728144E+03  0.46999998093E+01 0. -1.
</event>
<event>
 5   0  0.4839293E-04  0.1932737E+04  0.7818609E-02  0.8638731E-01
        2   -1    0    0  501    0  0.00000000000E+00  0.00000000000E+00  0.15491657499E+04  0.15491657499E+04  0.25500000920E-02 0. -1.
       -2   -1    0    0    0  501  0.00000000000E+00  0.00000000000E+00 -0.60281971088E+03  0.60281971088E+03  0.25500000920E-02 0.  1.
    10030    2    1    2    0    0  0.00000000000E+00  0.00000000000E+00  0.94634603906E+03  0.21519854608E+04  0.19327365568E+04 0.  0.
        5    1    3    3  502    0  0.47263348728E+03  0.79819189846E+03  0.77473399289E+03  0.12086056304E+04  0.46999998093E+01 0. -1.
       -5    1    3    3    0  502 -0.47263348728E+03 -0.79819189846E+03  0.17161204617E+03  0.94337983043E+03  0.46999998093E+01 0.  1.
</event>
<event>
 5   0  0.4839293E-04  0.1803853E+04  0.7818609E-02  0.8704253E-01
        2   -1    0    0  501    0  0.00000000000E+00  0.00000000000E+00  0.13895277708E+04  0.13895277708E+04  0.25500000920E-02 0. -1.
       -2   -1    0    0    0  501  0.00000000000E+00  0.00000000000E+00 -0.58542986460E+03  0.58542986460E+03  0.25500000920E-02 0.  1.
    10030    2    1    2    0    0  0.00000000000E+00  0.00000000000E+00  0.80409790622E+03  0.19749576354E+04  0.18038526045E+04 0.  0.
        5    1    3    3  502    0  0.29292706696E+03 -0.42876517162E+03  0.12094282075E+04  0.13162007894E+04  0.46999998093E+01 0. -1.
       -5    1    3    3    0  502 -0.29292706696E+03  0.42876517162E+03 -0.40533030132E+03  0.65875684598E+03  0.46999998093E+01 0.  1.
</event>
<event>
 5   0  0.2510069E-04  0.1911108E+04  0.7818609E-02  0.8649347E-01
       -1   -1    0    0    0  501  0.00000000000E+00  0.00000000000E+00  0.80101443507E+03  0.80101443508E+03  0.50400001928E-02 0.  1.
        1   -1    0    0  501    0  0.00000000000E+00  0.00000000000E+00 -0.11399083032E+04  0.11399083033E+04  0.50400001928E-02 0. -1.
    10030    2    1    2    0    0  0.00000000000E+00  0.00000000000E+00 -0.33889386818E+03  0.19409227383E+04  0.19111075381E+04 0.  0.
        4    1    3    3  502    0  0.90974921837E+03 -0.65782443962E+02  0.11979513127E+03  0.91995839940E+03  0.12699999809E+01 0.  1.
       -4    1    3    3    0  502 -0.90974921837E+03  0.65782443962E+02 -0.45868899944E+03  0.10209643389E+04  0.12699999809E+01 0. -1.
</event>
<event>
 5   0  0.4829134E-04  0.1954515E+04  0.7818609E-02  0.8628186E-01
       -2   -1    0    0    0  501  0.00000000000E+00  0.00000000000E+00  0.92796399735E+03  0.92796399735E+03  0.25500000920E-02 0.  1.
        2   -1    0    0  501    0  0.00000000000E+00  0.00000000000E+00 -0.10291698463E+04  0.10291698463E+04  0.25500000920E-02 0. -1.
    10030    2    1    2    0    0  0.00000000000E+00  0.00000000000E+00 -0.10120584894E+03  0.19571338437E+04  0.19545153512E+04 0.  0.
        2    1    3    3  502    0  0.17534891003E+00 -0.97585991622E+03  0.17160713632E+01  0.97586144085E+03  0.25500000920E-02 0. -1.
       -2    1    3    3    0  502 -0.17534891003E+00  0.97585991622E+03 -0.10292192031E+03  0.98127240281E+03  0.25500000920E-02 0.  1.
</event>
<event>
 5   0  0.4802635E-04  0.2542789E+04  0.7818609E-02  0.8387898E-01
        2   -1    0    0  501    0  0.00000000000E+00  0.00000000000E+00  0.67220780932E+03  0.67220780932E+03  0.25500000920E-02 0.  1.
       -2   -1    0    0    0  501  0.00000000000E+00  0.00000000000E+00 -0.24046798336E+04  0.24046798336E+04  0.25500000920E-02 0. -1.
    10030    2    1    2    0    0  0.00000000000E+00  0.00000000000E+00 -0.17324720243E+04  0.30768876430E+04  0.25427894629E+04 0.  0.
        3    1    3    3  502    0  0.43129445962E+03  0.80469302999E+03  0.20443005768E+03  0.93559469970E+03  0.10100000352E+00 0.  1.
       -3    1    3    3    0  502 -0.43129445962E+03 -0.80469302999E+03 -0.19369020820E+04  0.21412929433E+04  0.10100000352E+00 0. -1.
</event>
<event>
 5   0  0.2317458E-04  0.1951201E+04  0.7818609E-02  0.8629782E-01
       -1   -1    0    0    0  501  0.00000000000E+00  0.00000000000E+00  0.49219426761E+03  0.49219426764E+03  0.50400001928E-02 0.  1.
        1   -1    0    0  501    0  0.00000000000E+00  0.00000000000E+00 -0.19337818453E+04  0.19337818453E+04  0.50400001928E-02 0. -1.
    10030    2    1    2    0    0  0.00000000000E+00  0.00000000000E+00 -0.14415875777E+04  0.24259761130E+04  0.19512010036E+04 0.  0.
        3    1    3    3  502    0  0.77858738885E+02  0.32810978892E+03  0.41742777901E+03  0.53662275175E+03  0.10100000352E+00 0.  1.
       -3    1    3    3    0  502 -0.77858738885E+02 -0.32810978892E+03 -0.18590153567E+04  0.18893533612E+04  0.10100000352E+00 0. -1.
</event>
<event>
 5   0  0.4802635E-04  0.1902613E+04  0.7818609E-02  0.8653557E-01
       -2   -1    0    0    0  501  0.00000000000E+00  0.00000000000E+00  0.48415581233E+03  0.48415581234E+03  0.25500000920E-02 0. -1.
        2   -1    0    0  501    0  0.00000000000E+00  0.00000000000E+00 -0.18692001355E+04  0.18692001355E+04  0.25500000920E-02 0.  1.
    10030    2    1    2    0    0  0.00000000000E+00  0.00000000000E+00 -0.13850443231E+04  0.23533559478E+04  0.19026130558E+04 0.  0.
        3    1    3    3  502    0  0.79849399642E+02  0.64377147265E+02  0.47729643458E+03  0.48819283114E+03  0.10100000352E+00 0. -1.
       -3    1    3    3    0  502 -0.79849399642E+02 -0.64377147265E+02 -0.18623407577E+04  0.18651631167E+04  0.10100000352E+00 0.  1.
</event>
<event>
 5   0  0.2261755E-04  0.1939622E+04  0.7818609E-02  0.8635381E-01
       -1   -1    0    0    0  501  0.00000000000E+00  0.00000000000E+00  0.85131044990E+03  0.85131044992E+03  0.50400001928E-02 0. -1.
        1   -1    0    0  501    0  0.00000000000E+00  0.00000000000E+00 -0.11048067747E+04  0.11048067747E+04  0.50400001928E-02 0.  1.
    10030    2    1    2    0    0  0.00000000000E+00  0.00000000000E+00 -0.25349632478E+03  0.19561172246E+04  0.19396221822E+04 0.  0.
        1    1    3    3  502    0 -0.16084971139E+03  0.87769958302E+03 -0.50985285238E+03  0.10277057550E+04  0.50400001928E-02 0.  1.
       -1    1    3    3    0  502  0.16084971139E+03 -0.87769958302E+03  0.25635652761E+03  0.92841146964E+03  0.50400001928E-02 0. -1.
</event>
<event>
 5   0  0.4839293E-04  0.1923433E+04  0.7818609E-02  0.8643280E-01
        2   -1    0    0  501    0  0.00000000000E+00  0.00000000000E+00  0.12681038711E+04  0.12681038711E+04  0.25500000920E-02 0. -1.
       -2   -1    0    0    0  501  0.00000000000E+00  0.00000000000E+00 -0.72935543163E+03  0.72935543164E+03  0.25500000920E-02 0.  1.
    10030    2    1    2    0    0  0.00000000000E+00  0.00000000000E+00  0.53874843951E+03  0.19974593028E+04  0.19234328128E+04 0.  0.
        5    1    3    3  502    0 -0.16170773681E+03 -0.54965900179E+03  0.10715014350E+04  0.12150768805E+04  0.46999998093E+01 0. -1.
       -5    1    3    3    0  502  0.16170773681E+03  0.54965900179E+03 -0.53275299551E+03  0.78238242223E+03  0.46999998093E+01 0.  1.
</event>
<event>
 5   0  0.2317458E-04  0.1877749E+04  0.7818609E-02  0.8666012E-01
       -1   -1    0    0    0  501  0.00000000000E+00  0.00000000000E+00  0.41363156011E+03  0.41363156014E+03  0.50400001928E-02 0.  1.
        1   -1    0    0  501    0  0.00000000000E+00  0.00000000000E+00 -0.21310892579E+04  0.21310892579E+04  0.50400001928E-02 0. -1.
    10030    2    1    2    0    0  0.00000000000E+00  0.00000000000E+00 -0.17174576978E+04  0.25447208180E+04  0.18777494769E+04 0.  0.
        3    1    3    3  502    0  0.82009637517E+03  0.30545980988E+02 -0.24067179463E+03  0.85522748112E+03  0.10100000352E+00 0.  1.
       -3    1    3    3    0  502 -0.82009637517E+03 -0.30545980988E+02 -0.14767859031E+04  0.16894933369E+04  0.10100000352E+00 0. -1.
</event>
<event>
 5   0  0.4829134E-04  0.1071516E+04  0.7818609E-02  0.9233408E-01
        2   -1    0    0  501    0  0.00000000000E+00  0.00000000000E+00  0.22987060102E+03  0.22987060103E+03  0.25500000920E-02 0. -1.
       -2   -1    0    0    0  501  0.00000000000E+00  0.00000000000E+00 -0.12486872526E+04  0.12486872526E+04  0.25500000920E-02 0.  1.
    10030    2    1    2    0    0  0.00000000000E+00  0.00000000000E+00 -0.10188166516E+04  0.14785578536E+04  0.10715157288E+04 0.  0.
        2    1    3    3  502    0 -0.50348754336E+03  0.14705912015E+03 -0.66000067594E+03  0.84304625222E+03  0.25500000920E-02 0. -1.
       -2    1    3    3    0  502  0.50348754336E+03 -0.14705912015E+03 -0.35881597562E+03  0.63551160139E+03  0.25500000920E-02 0.  1.
</event>
<event>
 5   0  0.2355414E-04  0.1902645E+04  0.7818609E-02  0.8653541E-01
       -1   -1    0    0    0  501  0.00000000000E+00  0.00000000000E+00  0.32930180814E+03  0.32930180818E+03  0.50400001928E-02 0.  1.
        1   -1    0    0  501    0  0.00000000000E+00  0.00000000000E+00 -0.27482814173E+04  0.27482814173E+04  0.50400001928E-02 0. -1.
    10030    2    1    2    0    0  0.00000000000E+00  0.00000000000E+00 -0.24189796092E+04  0.30775832255E+04  0.19026445176E+04 0.  0.
        5    1    3    3  502    0 -0.63417889841E+03 -0.52243758190E+03 -0.19850070432E+04  0.21483479592E+04  0.46999998093E+01 0. -1.
       -5    1    3    3    0  502  0.63417889841E+03  0.52243758190E+03 -0.43397256597E+03  0.92923526632E+03  0.46999998093E+01 0.  1.
</event>
<event>
 5   0  0.2376359E-04  0.1938567E+04  0.7818609E-02  0.8635894E-01
        1   -1    0    0  501    0  0.00000000000E+00  0.00000000000E+00  0.12183189311E+04  0.12183189311E+04  0.50400001928E-02 0.  1.
       -1   -1    0    0    0  501  0.00000000000E+00  0.00000000000E+00 -0.77115327630E+03  0.77115327631E+03  0.50400001928E-02 0. -1.
    10030    2    1    2    0    0  0.00000000000E+00  0.00000000000E+00  0.44716565478E+03  0.19894722074E+04  0.19385671361E+04 0.  0.
        2    1    3    3  502    0 -0.28058677528E+02  0.26145482403E+03  0.11810142352E+04  0.12099341048E+04  0.25500000920E-02 0.  1.
       -2    1    3    3    0  502  0.28058677528E+02 -0.26145482403E+03 -0.73384858039E+03  0.77953810256E+03  0.25500000920E-02 0. -1.
</event>
<event>
 5   0  0.2355414E-04  0.1865486E+04  0.7818609E-02  0.8672230E-01
       -1   -1    0    0    0  501  0.00000000000E+00  0.00000000000E+00  0.77497086443E+03  0.77497086444E+03  0.50400001928E-02 0. -1.
        1   -1    0    0  501    0  0.00000000000E+00  0.00000000000E+00 -0.11226349185E+04  0.11226349185E+04  0.50400001928E-02 0.  1.
    10030    2    1    2    0    0  0.00000000000E+00  0.00000000000E+00 -0.34766405407E+03  0.18976057829E+04  0.18654858383E+04 0.  0.
        5    1    3    3  502    0  0.25253999445E+03 -0.47347415682E+03 -0.94987872807E+03  0.10909839201E+04  0.46999998093E+01 0.  1.
       -5    1    3    3    0  502 -0.25253999445E+03  0.47347415682E+03  0.60221467400E+03  0.80662186281E+03  0.46999998093E+01 0. -1.
</event>
<event>
 5   0  0.4839293E-04  0.1885181E+04  0.7818609E-02  0.8662268E-01
       -2   -1    0    0    0  501  0.00000000000E+00  0.00000000000E+00  0.11649259132E+04  0.11649259132E+04  0.25500000920E-02 0. -1.
        2   -1    0    0  501    0  0.00000000000E+00  0.00000000000E+00 -0.76268956122E+03  0.76268956122E+03  0.25500000920E-02 0.  1.
    10030    2    1    2    0    0  0.00000000000E+00  0.00000000000E+00  0.40223635200E+03  0.19276154744E+04  0.18851809819E+04 0.  0.
        5    1    3    3  502    0  0.15790230990E+03  0.68934036271E+03  0.83830772900E+03  0.10967703559E+04  0.46999998093E+01 0. -1.
       -5    1    3    3    0  502 -0.15790230990E+03 -0.68934036271E+03 -0.43607137700E+03  0.83084511852E+03  0.46999998093E+01 0.  1.
</event>
<event>
 5   0  0.2355414E-04  0.1817761E+04  0.7818609E-02  0.8696911E-01
       -1   -1    0    0    0  501  0.00000000000E+00  0.00000000000E+00  0.15219879021E+04  0.15219879021E+04  0.50400001928E-02 0. -1.
        1   -1    0    0  501    0  0.00000000000E+00  0.00000000000E+00 -0.54275337788E+03  0.54275337790E+03  0.50400001928E-02 0.  1.
    10030    2    1    2    0    0  0.00000000000E+00  0.00000000000E+00  0.97923452422E+03  0.20647412800E+04  0.18177613430E+04 0.  0.
        5    1    3    3  502    0  0.43263605233E+03  0.77305492220E+03  0.72032514451E+03  0.11417873140E+04  0.46999998093E+01 0.  1.
       -5    1    3    3    0  502 -0.43263605233E+03 -0.77305492220E+03  0.25890937971E+03  0.92295396604E+03  0.46999998093E+01 0. -1.
</event>
<event>
 5   0  0.4973411E-04  0.1828771E+04  0.7818609E-02  0.8691147E-01
       -2   -1    0    0    0  501  0.00000000000E+00  0.00000000000E+00  0.76125281460E+03  0.76125281460E+03  0.25500000920E-02 0. -1.
        2   -1    0    0  501    0  0.00000000000E+00  0.00000000000E+00 -0.10983217759E+04  0.10983217759E+04  0.25500000920E-02 0.  1.
    10030    2    1    2    0    0  0.00000000000E+00  0.00000000000E+00 -0.33706896129E+03  0.18595745905E+04  0.18287706726E+04 0.  0.
        1    1    3    3  502    0  0.15504588371E+03  0.71552503483E+03 -0.72556202801E+03  0.10307548487E+04  0.50400001928E-02 0.  1.
       -1    1    3    3    0  502 -0.15504588371E+03 -0.71552503483E+03  0.38849306672E+03  0.82881974183E+03  0.50400001928E-02 0. -1.
</event>
<event>
 5   0  0.4839293E-04  0.1961085E+04  0.7818609E-02  0.8625034E-01
        2   -1    0    0  501    0  0.00000000000E+00  0.00000000000E+00  0.16420710743E+04  0.16420710743E+04  0.25500000920E-02 0. -1.
       -2   -1    0    0    0  501  0.00000000000E+00  0.00000000000E+00 -0.58551890897E+03  0.58551890897E+03  0.25500000920E-02 0.  1.
    10030    2    1    2    0    0  0.00000000000E+00  0.00000000000E+00  0.10565521653E+04  0.22275899832E+04  0.19610850709E+04 0.  0.
        5    1    3    3  502    0  0.39817041635E+03 -0.26987542580E+02  0.15456321888E+04  0.15963298409E+04  0.46999998093E+01 0. -1.
       -5    1    3    3    0  502 -0.39817041635E+03  0.26987542580E+02 -0.48908002351E+03  0.63126014234E+03  0.46999998093E+01 0.  1.
</event>
<event>
 5   0  0.4839293E-04  0.1925942E+04  0.7818609E-02  0.8642050E-01
       -2   -1    0    0    0  501  0.00000000000E+00  0.00000000000E+00  0.73410446895E+03  0.73410446896E+03  0.25500000920E-02 0. -1.
        2   -1    0    0  501    0  0.00000000000E+00  0.00000000000E+00 -0.12631898921E+04  0.12631898921E+04  0.25500000920E-02 0.  1.
    10030    2    1    2    0    0  0.00000000000E+00  0.00000000000E+00 -0.52908542318E+03  0.19972943611E+04  0.19259422057E+04 0.  0.
        5    1    3    3  502    0  0.85243119989E+01 -0.89865930469E+03  0.94147032073E+02  0.90362988189E+03  0.46999998093E+01 0.  1.
       -5    1    3    3    0  502 -0.85243119989E+01  0.89865930469E+03 -0.62323245525E+03  0.10936644792E+04  0.46999998093E+01 0. -1.
</event>
<event>
 5   0  0.2355414E-04  0.1917006E+04  0.7818609E-02  0.8646437E-01
        1   -1    0    0  501    0  0.00000000000E+00  0.00000000000E+00  0.16950937434E+04  0.16950937434E+04  0.50400001928E-02 0. -1.
       -1   -1    0    0    0  501  0.00000000000E+00  0.00000000000E+00 -0.54199254823E+03  0.54199254826E+03  0.50400001928E-02 0.  1.
    10030    2    1    2    0    0  0.00000000000E+00  0.00000000000E+00  0.11531011952E+04  0.22370862917E+04  0.19170061842E+04 0.  0.
        5    1    3    3  502    0  0.40807631505E+03  0.66015730484E+02  0.15857064974E+04  0.16387103287E+04  0.46999998093E+01 0. -1.
       -5    1    3    3    0  502 -0.40807631505E+03 -0.66015730484E+02 -0.43260530220E+03  0.59837596297E+03  0.46999998093E+01 0.  1.
</event>
<event>
 5   0  0.2355414E-04  0.1755494E+04  0.7818609E-02  0.8730332E-01
        1   -1    0    0  501    0  0.00000000000E+00  0.00000000000E+00  0.74376207127E+03  0.74376207129E+03  0.50400001928E-02 0.  1.
       -1   -1    0    0    0  501  0.00000000000E+00  0.00000000000E+00 -0.10358682468E+04  0.10358682468E+04  0.50400001928E-02 0. -1.
    10030    2    1    2    0    0  0.00000000000E+00  0.00000000000E+00 -0.29210617550E+03  0.17796303181E+04  0.17554936774E+04 0.  0.
        5    1    3    3  502    0 -0.50118600048E+03 -0.31804505586E+03 -0.80153219006E+03  0.99740463520E+03  0.46999998093E+01 0. -1.
       -5    1    3    3    0  502  0.50118600048E+03  0.31804505586E+03  0.50942601456E+03  0.78222568287E+03  0.46999998093E+01 0.  1.
</event>
<event>
 5   0  0.4839293E-04  0.1931512E+04  0.7818609E-02  0.8639328E-01
       -2   -1    0    0    0  501  0.00000000000E+00  0.00000000000E+00  0.47568189732E+03  0.47568189733E+03  0.25500000920E-02 0.  1.
        2   -1    0    0  501    0  0.00000000000E+00  0.00000000000E+00 -0.19607324679E+04  0.19607324679E+04  0.25500000920E-02 0. -1.
    10030    2    1    2    0    0  0.00000000000E+00  0.00000000000E+00 -0.14850505705E+04  0.24364143652E+04  0.19315122992E+04 0.  0.
        5    1    3    3  502    0 -0.21425837667E+03  0.92227191864E+03 -0.50262422366E+03  0.10719819700E+04  0.46999998093E+01 0.  1.
       -5    1    3    3    0  502  0.21425837667E+03 -0.92227191864E+03 -0.98242634687E+03  0.13644323951E+04  0.46999998093E+01 0. -1.
</event>
<event>
 5   0  0.2510069E-04  0.1345236E+04  0.7818609E-02  0.8994443E-01
       -1   -1    0    0    0  501  0.00000000000E+00  0.00000000000E+00  0.26039137530E+03  0.26039137535E+03  0.50400001928E-02 0. -1.
        1   -1    0    0  501    0  0.00000000000E+00  0.00000000000E+00 -0.17374412222E+04  0.17374412222E+04  0.50400001928E-02 0.  1.
    10030    2    1    2    0    0  0.00000000000E+00  0.00000000000E+00 -0.14770498469E+04  0.19978325976E+04  0.13452356067E+04 0.  0.
        4    1    3    3  502    0 -0.36539774087E+03  0.51779311227E+03 -0.40383642749E+03  0.75147234761E+03  0.12699999809E+01 0. -1.
       -4    1    3    3    0  502  0.36539774087E+03 -0.51779311227E+03 -0.10732134194E+04  0.12463602500E+04  0.12699999809E+01 0.  1.
</event>
<event>
 5   0  0.4973411E-04  0.1896011E+04  0.7818609E-02  0.8656845E-01
       -2   -1    0    0    0  501  0.00000000000E+00  0.00000000000E+00  0.63195106659E+03  0.63195106659E+03  0.25500000920E-02 0. -1.
        2   -1    0    0  501    0  0.00000000000E+00  0.00000000000E+00 -0.14221261809E+04  0.14221261809E+04  0.25500000920E-02 0.  1.
    10030    2    1    2    0    0  0.00000000000E+00  0.00000000000E+00 -0.79017511426E+03  0.20540772475E+04  0.18960107139E+04 0.  0.
        1    1    3    3  502    0 -0.53849960885E+03  0.50599444832E+03 -0.10384858631E+04  0.12745450554E+04  0.50400001928E-02 0.  1.
       -1    1    3    3    0  502  0.53849960885E+03 -0.50599444832E+03  0.24831074879E+03  0.77953219205E+03  0.50400001928E-02 0. -1.
</event>
<event>
 5   0  0.2355414E-04  0.1647517E+04  0.7818609E-02  0.8791877E-01
       -1   -1    0    0    0  501  0.00000000000E+00  0.00000000000E+00  0.89735305188E+03  0.89735305189E+03  0.50400001928E-02 0. -1.
        1   -1    0    0  501    0  0.00000000000E+00  0.00000000000E+00 -0.75619977879E+03  0.75619977880E+03  0.50400001928E-02 0.  1.
    10030    2    1    2    0    0  0.00000000000E+00  0.00000000000E+00  0.14115327309E+03  0.16535528307E+04  0.16475171372E+04 0.  0.
        5    1    3    3  502    0 -0.21387947121E+03 -0.36199433314E+03  0.78153021370E+03  0.88746599392E+03  0.46999998093E+01 0. -1.
       -5    1    3    3    0  502  0.21387947121E+03  0.36199433314E+03 -0.64037694061E+03  0.76608683678E+03  0.46999998093E+01 0.  1.
</event>
<event>
 5   0  0.2261755E-04  0.1876437E+04  0.7818609E-02  0.8666675E-01
        1   -1    0    0  501    0  0.00000000000E+00  0.00000000000E+00  0.13026153470E+04  0.13026153470E+04  0.50400001928E-02 0.  1.
       -1   -1    0    0    0  501  0.00000000000E+00  0.00000000000E+00 -0.67575876327E+03  0.67575876329E+03  0.50400001928E-02 0. -1.
    10030    2    1    2    0    0  0.00000000000E+00  0.00000000000E+00  0.62685658370E+03  0.19783741103E+04  0.18764367678E+04 0.  0.
        1    1    3    3  502    0  0.55342463257E+03  0.33209270063E+03 -0.40451153598E+03  0.76170464651E+03  0.50400001928E-02 0. -1.
       -1    1    3    3    0  502 -0.55342463257E+03 -0.33209270063E+03  0.10313681197E+04  0.12166694638E+04  0.50400001928E-02 0.  1.
</event>
<event>
 5   0  0.2261755E-04  0.1844438E+04  0.7818609E-02  0.8683018E-01
       -1   -1    0    0    0  501  0.00000000000E+00  0.00000000000E+00  0.79464360169E+03  0.79464360171E+03  0.50400001928E-02 0. -1.
        1   -1    0    0  501    0  0.00000000000E+00  0.00000000000E+00 -0.10702757477E+04  0.10702757477E+04  0.50400001928E-02 0.  1.
    10030    2    1    2    0    0  0.00000000000E+00  0.00000000000E+00 -0.27563214605E+03  0.18649193495E+04  0.18444378819E+04 0.  0.
        1    1    3    3  502    0 -0.82357943126E+03 -0.41456035474E+03 -0.11905177075E+03  0.92968634037E+03  0.50400001928E-02 0. -1.
       -1    1    3    3    0  502  0.82357943126E+03  0.41456035474E+03 -0.15658037530E+03  0.93523300909E+03  0.50400001928E-02 0.  1.
</event>
<event>
 5   0  0.2510069E-04  0.1877016E+04  0.7818609E-02  0.8666382E-01
        1   -1    0    0  501    0  0.00000000000E+00  0.00000000000E+00  0.17716647582E+04  0.17716647582E+04  0.50400001928E-02 0.  1.
       -1   -1    0    0    0  501  0.00000000000E+00  0.00000000000E+00 -0.49715801199E+03  0.49715801202E+03  0.50400001928E-02 0. -1.
    10030    2    1    2    0    0  0.00000000000E+00  0.00000000000E+00  0.12745067462E+04  0.22688227702E+04  0.18770160672E+04 0.  0.
        4    1    3    3  502    0 -0.43998404537E+03  0.77493089070E+03  0.99314827688E+03  0.13343346500E+04  0.12699999809E+01 0.  1.
       -4    1    3    3    0  502  0.43998404537E+03 -0.77493089070E+03  0.28135846930E+03  0.93448812014E+03  0.12699999809E+01 0. -1.
</event>
<event>
 5   0  0.4761944E-04  0.1852090E+04  0.7818609E-02  0.8679079E-01
        2   -1    0    0  501    0  0.00000000000E+00  0.00000000000E+00  0.86571640717E+03  0.86571640717E+03  0.25500000920E-02 0.  1.
       -2   -1    0    0    0  501  0.00000000000E+00  0.00000000000E+00 -0.99057819223E+03  0.99057819223E+03  0.25500000920E-02 0. -1.
    10030    2    1    2    0    0  0.00000000000E+00  0.00000000000E+00 -0.12486178505E+03  0.18562945994E+04  0.18520904876E+04 0.  0.
        4    1    3    3  502    0  0.20929414271E+03 -0.31948042762E+03  0.78309913027E+03  0.87127357503E+03  0.12699999809E+01 0.  1.
       -4    1    3    3    0  502 -0.20929414271E+03  0.31948042762E+03 -0.90796091533E+03  0.98502102438E+03  0.12699999809E+01 0. -1.
</event>
<event>
 5   0  0.4802635E-04  0.1910655E+04  0.7818609E-02  0.8649571E-01
       -2   -1    0    0    0  501  0.00000000000E+00  0.00000000000E+00  0.80930636077E+03  0.80930636077E+03  0.25500000920E-02 0. -1.
        2   -1    0    0  501    0  0.00000000000E+00  0.00000000000E+00 -0.11276951913E+04  0.11276951913E+04  0.25500000920E-02 0.  1.
    10030    2    1    2    0    0  0.00000000000E+00  0.00000000000E+00 -0.31838883055E+03  0.19370015521E+04  0.19106552712E+04 0.  0.
        3    1    3    3  502    0 -0.61382885520E+03  0.56924639101E+03  0.30739487631E+03  0.89180655825E+03  0.10100000352E+00 0. -1.
       -3    1    3    3    0  502  0.61382885520E+03 -0.56924639101E+03 -0.62578370686E+03  0.10451949938E+04  0.10100000352E+00 0.  1.
</event>
<event>
 5   0  0.2261755E-04  0.1883945E+04  0.7818609E-02  0.8662889E-01
       -1   -1    0    0    0  501  0.00000000000E+00  0.00000000000E+00  0.69418606589E+03  0.69418606591E+03  0.50400001928E-02 0. -1.
        1   -1    0    0  501    0  0.00000000000E+00  0.00000000000E+00 -0.12782055683E+04  0.12782055683E+04  0.50400001928E-02 0.  1.
    10030    2    1    2    0    0  0.00000000000E+00  0.00000000000E+00 -0.58401950245E+03  0.19723916343E+04  0.18839453229E+04 0.  0.
        1    1    3    3  502    0  0.74616564923E+02  0.91972214690E+03 -0.93763039312E+02  0.92749553467E+03  0.50400001928E-02 0. -1.
       -1    1    3    3    0  502 -0.74616564923E+02 -0.91972214690E+03 -0.49025646313E+03  0.10448960996E+04  0.50400001928E-02 0.  1.
</event>
<event>
 5   0  0.4839293E-04  0.1931919E+04  0.7818609E-02  0.8639130E-01
       -2   -1    0    0    0  501  0.00000000000E+00  0.00000000000E+00  0.50719010223E+03  0.50719010224E+03  0.25500000920E-02 0. -1.
        2   -1    0    0  501    0  0.00000000000E+00  0.00000000000E+00 -0.18396994872E+04  0.18396994872E+04  0.25500000920E-02 0.  1.
    10030    2    1    2    0    0  0.00000000000E+00  0.00000000000E+00 -0.13325093850E+04  0.23468895895E+04  0.19319186018E+04 0.  0.
        5    1    3    3  502    0  0.29578096916E+02  0.88440546766E+03 -0.19575412038E+03  0.90630550075E+03  0.46999998093E+01 0. -1.
       -5    1    3    3    0  502 -0.29578096916E+02 -0.88440546766E+03 -0.11367552646E+04  0.14405840887E+04  0.46999998093E+01 0.  1.
</event>
<event>
 5   0  0.4802635E-04  0.1855532E+04  0.7818609E-02  0.8677313E-01
       -2   -1    0    0    0  501  0.00000000000E+00  0.00000000000E+00  0.38981610752E+03  0.38981610752E+03  0.25500000920E-02 0.  1.
        2   -1    0    0  501    0  0.00000000000E+00  0.00000000000E+00 -0.22080909069E+04  0.22080909069E+04  0.25500000920E-02 0. -1.
    10030    2    1    2    0    0  0.00000000000E+00  0.00000000000E+00 -0.18182747994E+04  0.25979070144E+04  0.18555316245E+04 0.  0.
        3    1    3    3  502    0 -0.16710317477E+03  0.49335715454E+02  0.36670431083E+03  0.40599205118E+03  0.10100000352E+00 0.  1.
       -3    1    3    3    0  502  0.16710317477E+03 -0.49335715454E+02 -0.21849791102E+04  0.21919149633E+04  0.10100000352E+00 0. -1.
</event>
<event>
 5   0  0.4761944E-04  0.1905381E+04  0.7818609E-02  0.8652182E-01
       -2   -1    0    0    0  501  0.00000000000E+00  0.00000000000E+00  0.55137152634E+03  0.55137152634E+03  0.25500000920E-02 0.  1.
        2   -1    0    0  501    0  0.00000000000E+00  0.00000000000E+00 -0.16461123491E+04  0.16461123491E+04  0.25500000920E-02 0. -1.
    10030    2    1    2    0    0  0.00000000000E+00  0.00000000000E+00 -0.10947408227E+04  0.21974838754E+04  0.19053813040E+04 0.  0.
        4    1    3    3  502    0  0.32453112128E+03  0.78179112077E+03 -0.43203650685E+02  0.84757652960E+03  0.12699999809E+01 0.  1.
       -4    1    3    3    0  502 -0.32453112128E+03 -0.78179112077E+03 -0.10515371720E+04  0.13499073458E+04  0.12699999809E+01 0. -1.
</event>
<event>
 5   0  0.4829134E-04  0.1943998E+04  0.7818609E-02  0.8633260E-01
        2   -1    0    0  501    0  0.00000000000E+00  0.00000000000E+00  0.11987293244E+04  0.11987293244E+04  0.25500000920E-02 0.  1.
       -2   -1    0    0    0  501  0.00000000000E+00  0.00000000000E+00 -0.78815326281E+03  0.78815326282E+03  0.25500000920E-02 0. -1.
    10030    2    1    2    0    0  0.00000000000E+00  0.00000000000E+00  0.41057606154E+03  0.19868825872E+04  0.19439983829E+04 0.  0.
        2    1    3    3  502    0  0.71114190303E+00 -0.96727761849E+03  0.10749057287E+03  0.97323209987E+03  0.25500000920E-02 0.  1.
       -2    1    3    3    0  502 -0.71114190303E+00  0.96727761849E+03  0.30308548867E+03  0.10136504873E+04  0.25500000920E-02 0. -1.
</event>
<event>
 5   0  0.4829134E-04  0.1907370E+04  0.7818609E-02  0.8651196E-01
       -2   -1    0    0    0  501  0.00000000000E+00  0.00000000000E+00  0.12914681375E+04  0.12914681375E+04  0.25500000920E-02 0.  1.
        2   -1    0    0  501    0  0.00000000000E+00  0.00000000000E+00 -0.70424931158E+03  0.70424931158E+03  0.25500000920E-02 0. -1.
    10030    2    1    2    0    0  0.00000000000E+00  0.00000000000E+00  0.58721882595E+03  0.19957174491E+04  0.19073704903E+04 0.  0.
        2    1    3    3  502    0 -0.27309579941E+03 -0.89270377381E+03  0.49761259523E+03  0.10578845109E+04  0.25500000920E-02 0.  1.
       -2    1    3    3    0  502  0.27309579941E+03  0.89270377381E+03  0.89606230715E+02  0.93783293823E+03  0.25500000920E-02 0. -1.
</event>
<event>
 5   0  0.4829134E-04  0.2271313E+04  0.7818609E-02  0.8489319E-01
       -2   -1    0    0    0  501  0.00000000000E+00  0.00000000000E+00  0.51100124934E+03  0.51100124935E+03  0.25500000920E-02 0.  1.
        2   -1    0    0  501    0  0.00000000000E+00  0.00000000000E+00 -0.25238986212E+04  0.25238986212E+04  0.25500000920E-02 0. -1.
    10030    2    1    2    0    0  0.00000000000E+00  0.00000000000E+00 -0.20128973719E+04  0.30348998706E+04  0.22713127030E+04 0.  0.
        2    1    3    3  502    0 -0.87904983430E+03  0.22559701523E+03 -0.19186771075E+04  0.21224854457E+04  0.25500000920E-02 0. -1.
       -2    1    3    3    0  502  0.87904983430E+03 -0.22559701523E+03 -0.94220264392E+02  0.91241442486E+03  0.25500000920E-02 0.  1.
</event>
<event>
 5   0  0.4802635E-04  0.1868235E+04  0.7818609E-02  0.8670831E-01
       -2   -1    0    0    0  501  0.00000000000E+00  0.00000000000E+00  0.33753907004E+03  0.33753907005E+03  0.25500000920E-02 0. -1.
        2   -1    0    0  501    0  0.00000000000E+00  0.00000000000E+00 -0.25851098562E+04  0.25851098562E+04  0.25500000920E-02 0.  1.
    10030    2    1    2    0    0  0.00000000000E+00  0.00000000000E+00 -0.22475707862E+04  0.29226489262E+04  0.18682350782E+04 0.  0.
        3    1    3    3  502    0 -0.94374211110E+02  0.71748277256E+03 -0.19975158430E+03  0.75072546665E+03  0.10100000352E+00 0. -1.
       -3    1    3    3    0  502  0.94374211110E+02 -0.71748277256E+03 -0.20478192019E+04  0.21719234596E+04  0.10100000352E+00 0.  1.
</event>
<event>
 5   0  0.4761944E-04  0.1853270E+04  0.7818609E-02  0.8678473E-01
       -2   -1    0    0    0  501  0.00000000000E+00  0.00000000000E+00  0.76471507072E+03  0.76471507072E+03  0.25500000920E-02 0. -1.
        2   -1    0    0  501    0  0.00000000000E+00  0.00000000000E+00 -0.11228392735E+04  0.11228392735E+04  0.25500000920E-02 0.  1.
    10030    2    1    2    0    0  0.00000000000E+00  0.00000000000E+00 -0.35812420276E+03  0.18875543442E+04  0.18532696667E+04 0.  0.
        4    1    3    3  502    0  0.83645105882E+03  0.38527286865E+03 -0.28374951124E+03  0.96363943212E+03  0.12699999809E+01 0. -1.
       -4    1    3    3    0  502 -0.83645105882E+03 -0.38527286865E+03 -0.74374691523E+02  0.92391491207E+03  0.12699999809E+01 0.  1.
</event>
<event>
 5   0  0.4973411E-04  0.1915102E+04  0.7818609E-02  0.8647375E-01
       -2   -1    0    0    0  501  0.00000000000E+00  0.00000000000E+00  0.80644832729E+03  0.80644832729E+03  0.25500000920E-02 0.  1.
        2   -1    0    0  501    0  0.00000000000E+00  0.00000000000E+00 -0.11369656059E+04  0.11369656059E+04  0.25500000920E-02 0. -1.
    10030    2    1    2    0    0  0.00000000000E+00  0.00000000000E+00 -0.33051727859E+03  0.19434139332E+04  0.19151020976E+04 0.  0.
        1    1    3    3  502    0  0.21884741962E+03 -0.33076909996E+03 -0.10496944552E+04  0.11221233622E+04  0.50400001928E-02 0. -1.
       -1    1    3    3    0  502 -0.21884741962E+03  0.33076909996E+03  0.71917717665E+03  0.82129057099E+03  0.50400001928E-02 0.  1.
</event>
<event>
 5   0  0.2261755E-04  0.1834609E+04  0.7818609E-02  0.8688109E-01
        1   -1    0    0  501    0  0.00000000000E+00  0.00000000000E+00  0.10228513260E+04  0.10228513261E+04  0.50400001928E-02 0. -1.
       -1   -1    0    0    0  501  0.00000000000E+00  0.00000000000E+00 -0.82264854581E+03  0.82264854583E+03  0.50400001928E-02 0.  1.
    10030    2    1    2    0    0  0.00000000000E+00  0.00000000000E+00  0.20020278024E+03  0.18454998719E+04  0.18346085751E+04 0.  0.
        1    1    3    3  502    0  0.90361238513E+02 -0.87086103809E+02  0.10141751039E+04  0.10219101156E+04  0.50400001928E-02 0. -1.
       -1    1    3    3    0  502 -0.90361238513E+02  0.87086103809E+02 -0.81397232370E+03  0.82358975629E+03  0.50400001928E-02 0.  1.
</event>
<event>
 5   0  0.2317458E-04  0.1804426E+04  0.7818609E-02  0.8703949E-01
        1   -1    0    0  501    0  0.00000000000E+00  0.00000000000E+00  0.12470170141E+04  0.12470170141E+04  0.50400001928E-02 0.  1.
       -1   -1    0    0    0  501  0.00000000000E+00  0.00000000000E+00 -0.65274856078E+03  0.65274856080E+03  0.50400001928E-02 0. -1.
    10030    2    1    2    0    0  0.00000000000E+00  0.00000000000E+00  0.59426845327E+03  0.18997655749E+04  0.18044262925E+04 0.  0.
        3    1    3    3  502    0 -0.56369147906E+03 -0.34627213018E+03  0.94300970337E+03  0.11519200417E+04  0.10100000352E+00 0.  1.
       -3    1    3    3    0  502  0.56369147906E+03  0.34627213018E+03 -0.34874125010E+03  0.74784553313E+03  0.10100000352E+00 0. -1.
</event>
<event>
 5   0  0.2261755E-04  0.1912838E+04  0.7818609E-02  0.8648492E-01
        1   -1    0    0  501    0  0.00000000000E+00  0.00000000000E+00  0.10883810946E+04  0.10883810947E+04  0.50400001928E-02 0.  1.
       -1   -1    0    0    0  501  0.00000000000E+00  0.00000000000E+00 -0.84045684944E+03  0.84045684945E+03  0.50400001928E-02 0. -1.
    10030    2    1    2    0    0  0.00000000000E+00  0.00000000000E+00  0.24792424520E+03  0.19288379441E+04  0.19128380442E+04 0.  0.
        1    1    3    3  502    0  0.14017881443E+03 -0.46166896448E+03 -0.70874732622E+03  0.85738620541E+03  0.50400001928E-02 0. -1.
       -1    1    3    3    0  502 -0.14017881443E+03  0.46166896448E+03  0.95667157142E+03  0.10714517387E+04  0.50400001928E-02 0.  1.
</event>
<event>
 5   0  0.4761944E-04  0.1946760E+04  0.7818609E-02  0.8631925E-01
       -2   -1    0    0    0  501  0.00000000000E+00  0.00000000000E+00  0.94280412663E+03  0.94280412664E+03  0.25500000920E-02 0. -1.
        2   -1    0    0  501    0  0.00000000000E+00  0.00000000000E+00 -0.10049469600E+04  0.10049469600E+04  0.25500000920E-02 0.  1.
    10030    2    1    2    0    0  0.00000000000E+00  0.00000000000E+00 -0.62142833396E+02  0.19477510867E+04  0.19467595033E+04 0.  0.
        4    1    3    3  502    0  0.46822240873E+03  0.79458495763E+03  0.28032504267E+03  0.96394046568E+03  0.12699999809E+01 0. -1.
       -4    1    3    3    0  502 -0.46822240873E+03 -0.79458495763E+03 -0.34246787607E+03  0.98381062099E+03  0.12699999809E+01 0.  1.
</event>
<event>
 5   0  0.4829134E-04  0.1822369E+04  0.7818609E-02  0.8694494E-01
        2   -1    0    0  501    0  0.00000000000E+00  0.00000000000E+00  0.28007155095E+04  0.28007155095E+04  0.25500000920E-02 0. -1.
       -2   -1    0    0    0  501  0.00000000000E+00  0.00000000000E+00 -0.29644457967E+03  0.29644457968E+03  0.25500000920E-02 0.  1.
    10030    2    1    2    0    0  0.00000000000E+00  0.00000000000E+00  0.25042709298E+04  0.30971600892E+04  0.18223687135E+04 0.  0.
        2    1    3    3  502    0  0.44825983533E+03  0.73639382412E+03  0.75072049927E+03  0.11431509140E+04  0.25500000920E-02 0. -1.
       -2    1    3    3    0  502 -0.44825983533E+03 -0.73639382412E+03  0.17535504306E+04  0.19540091752E+04  0.25500000920E-02 0.  1.
</event>
<event>
 5   0  0.4829134E-04  0.1899986E+04  0.7818609E-02  0.8654864E-01
        2   -1    0    0  501    0  0.00000000000E+00  0.00000000000E+00  0.23585106456E+04  0.23585106456E+04  0.25500000920E-02 0.  1.
       -2   -1    0    0    0  501  0.00000000000E+00  0.00000000000E+00 -0.38265093969E+03  0.38265093970E+03  0.25500000920E-02 0. -1.
    10030    2    1    2    0    0  0.00000000000E+00  0.00000000000E+00  0.19758597059E+04  0.27411615853E+04  0.18999855945E+04 0.  0.
        2    1    3    3  502    0 -0.79142459152E+03  0.13581637160E+03  0.25555930096E+03  0.84267996723E+03  0.25500000920E-02 0. -1.
       -2    1    3    3    0  502  0.79142459152E+03 -0.13581637160E+03  0.17203004050E+04  0.18984816181E+04  0.25500000920E-02 0.  1.
</event>
<event>
 5   0  0.4973411E-04  0.1909211E+04  0.7818609E-02  0.8650285E-01
       -2   -1    0    0    0  501  0.00000000000E+00  0.00000000000E+00  0.61537078075E+03  0.61537078076E+03  0.25500000920E-02 0.  1.
        2   -1    0    0  501    0  0.00000000000E+00  0.00000000000E+00 -0.14808491934E+04  0.14808491934E+04  0.25500000920E-02 0. -1.
    10030    2    1    2    0    0  0.00000000000E+00  0.00000000000E+00 -0.86547841261E+03  0.20962199741E+04  0.19092106477E+04 0.  0.
        1    1    3    3  502    0  0.51135028903E+03  0.55955188988E+03  0.20435055263E+03  0.78507106936E+03  0.50400001928E-02 0.  1.
       -1    1    3    3    0  502 -0.51135028903E+03 -0.55955188988E+03 -0.10698289652E+04  0.13111489048E+04  0.50400001928E-02 0. -1.
</event>
<event>
 5   0  0.4839293E-04  0.1888130E+04  0.7818609E-02  0.8660787E-01
        2   -1    0    0  501    0  0.00000000000E+00  0.00000000000E+00  0.11143740378E+04  0.11143740378E+04  0.25500000920E-02 0. -1.
       -2   -1    0    0    0  501  0.00000000000E+00  0.00000000000E+00 -0.79978422533E+03  0.79978422533E+03  0.25500000920E-02 0.  1.
    10030    2    1    2    0    0  0.00000000000E+00  0.00000000000E+00  0.31458981251E+03  0.19141582632E+04  0.18881300555E+04 0.  0.
        5    1    3    3  502    0  0.45623507570E+03 -0.20477220005E+03  0.96905428387E+03  0.10904908956E+04  0.46999998093E+01 0. -1.
       -5    1    3    3    0  502 -0.45623507570E+03  0.20477220005E+03 -0.65446447136E+03  0.82366736762E+03  0.46999998093E+01 0.  1.
</event>
<event>
 5   0  0.2376359E-04  0.1939916E+04  0.7818609E-02  0.8635239E-01
       -1   -1    0    0    0  501  0.00000000000E+00  0.00000000000E+00  0.77654384004E+03  0.77654384006E+03  0.50400001928E-02 0.  1.
        1   -1    0    0  501    0  0.00000000000E+00  0.00000000000E+00 -0.12115464468E+04  0.12115464468E+04  0.50400001928E-02 0. -1.
    10030    2    1    2    0    0  0.00000000000E+00  0.00000000000E+00 -0.43500260678E+03  0.19880902869E+04  0.19399164211E+04 0.  0.
        2    1    3    3  502    0  0.85333089675E+03 -0.24859417118E+03 -0.61553545988E+03  0.10811367091E+04  0.25500000920E-02 0.  1.
       -2    1    3    3    0  502 -0.85333089675E+03  0.24859417118E+03  0.18053285310E+03  0.90695357783E+03  0.25500000920E-02 0. -1.
</event>
<event>
 5   0  0.2317458E-04  0.1870941E+04  0.7818609E-02  0.8669457E-01
        1   -1    0    0  501    0  0.00000000000E+00  0.00000000000E+00  0.17955214814E+04  0.17955214814E+04  0.50400001928E-02 0.  1.
       -1   -1    0    0    0  501  0.00000000000E+00  0.00000000000E+00 -0.48738234847E+03  0.48738234849E+03  0.50400001928E-02 0. -1.
    10030    2    1    2    0    0  0.00000000000E+00  0.00000000000E+00  0.13081391329E+04  0.22829038299E+04  0.18709414489E+04 0.  0.
        3    1    3    3  502    0  0.77735058090E+03  0.38731670305E+03  0.10781927424E+04  0.13844810414E+04  0.10100000352E+00 0.  1.
       -3    1    3    3    0  502 -0.77735058090E+03 -0.38731670305E+03  0.22994639051E+03  0.89842278845E+03  0.10100000352E+00 0. -1.
</event>
<event>
 5   0  0.2261755E-04  0.1919049E+04  0.7818609E-02  0.8645432E-01
       -1   -1    0    0    0  501  0.00000000000E+00  0.00000000000E+00  0.80180307366E+03  0.80180307368E+03  0.50400001928E-02 0.  1.
        1   -1    0    0  501    0  0.00000000000E+00  0.00000000000E+00 -0.11482714925E+04  0.11482714925E+04  0.50400001928E-02 0. -1.
    10030    2    1    2    0    0  0.00000000000E+00  0.00000000000E+00 -0.34646841880E+03  0.19500745661E+04  0.19190493606E+04 0.  0.
        1    1    3    3  502    0  0.26242362150E+03  0.62071782310E+03 -0.86730737045E+03  0.10983527884E+04  0.50400001928E-02 0. -1.
       -1    1    3    3    0  502 -0.26242362150E+03 -0.62071782310E+03  0.52083895164E+03  0.85172177770E+03  0.50400001928E-02 0.  1.
</event>
<event>
 5   0  0.2376359E-04  0.2012717E+04  0.7818609E-02  0.8600698E-01
        1   -1    0    0  501    0  0.00000000000E+00  0.00000000000E+00  0.11069007950E+04  0.11069007950E+04  0.50400001928E-02 0. -1.
       -1   -1    0    0    0  501  0.00000000000E+00  0.00000000000E+00 -0.91494870459E+03  0.91494870460E+03  0.50400001928E-02 0.  1.
    10030    2    1    2    0    0  0.00000000000E+00  0.00000000000E+00  0.19195209045E+03  0.20218494997E+04  0.20127170179E+04 0.  0.
        2    1    3    3  502    0 -0.67925270072E+02 -0.67569415525E+03  0.84203090036E+03  0.10817543487E+04  0.25500000920E-02 0. -1.
       -2    1    3    3    0  502  0.67925270072E+02  0.67569415525E+03 -0.65007880991E+03  0.94009515096E+03  0.25500000920E-02 0.  1.
</event>
<event>
 5   0  0.4802635E-04  0.1897223E+04  0.7818609E-02  0.8656240E-01
        2   -1    0    0  501    0  0.00000000000E+00  0.00000000000E+00  0.10676108745E+04  0.10676108745E+04  0.25500000920E-02 0. -1.
       -2   -1    0    0    0  501  0.00000000000E+00  0.00000000000E+00 -0.84287586206E+03  0.84287586206E+03  0.25500000920E-02 0.  1.
    10030    2    1    2    0    0  0.00000000000E+00  0.00000000000E+00  0.22473501243E+03  0.19104867366E+04  0.18972226397E+04 0.  0.
        3    1    3    3  502    0 -0.62257955188E+03 -0.17349062765E+03  0.81159891114E+03  0.10374955899E+04  0.10100000352E+00 0.  1.
       -3    1    3    3    0  502  0.62257955188E+03  0.17349062765E+03 -0.58686389872E+03  0.87299114665E+03  0.10100000352E+00 0. -1.
</event>
<event>
 5   0  0.2376359E-04  0.2077821E+04  0.7818609E-02  0.8571077E-01
       -1   -1    0    0    0  501  0.00000000000E+00  0.00000000000E+00  0.15118296237E+04  0.15118296238E+04  0.50400001928E-02 0.  1.
        1   -1    0    0  501    0  0.00000000000E+00  0.00000000000E+00 -0.71392640398E+03  0.71392640400E+03  0.50400001928E-02 0. -1.
    10030    2    1    2    0    0  0.00000000000E+00  0.00000000000E+00  0.79790321977E+03  0.22257560278E+04  0.20778210575E+04 0.  0.
        2    1    3    3  502    0 -0.64883502844E+03 -0.71671246251E+03 -0.84857181735E+01  0.96681728132E+03  0.25500000920E-02 0. -1.
       -2    1    3    3    0  502  0.64883502844E+03  0.71671246251E+03  0.80638893794E+03  0.12589387464E+04  0.25500000920E-02 0.  1.
</event>
<event>
 5   0  0.4839293E-04  0.1930042E+04  0.7818609E-02  0.8640045E-01
        2   -1    0    0  501    0  0.00000000000E+00  0.00000000000E+00  0.88448909851E+03  0.88448909851E+03  0.25500000920E-02 0.  1.
       -2   -1    0    0    0  501  0.00000000000E+00  0.00000000000E+00 -0.10528852396E+04  0.10528852396E+04  0.25500000920E-02 0. -1.
    10030    2    1    2    0    0  0.00000000000E+00  0.00000000000E+00 -0.16839614110E+03  0.19373743381E+04  0.19300419855E+04 0.  0.
        5    1    3    3  502    0 -0.49388104779E+03  0.28511165444E+03 -0.86563889967E+03  0.10366098299E+04  0.46999998093E+01 0. -1.
       -5    1    3    3    0  502  0.49388104779E+03 -0.28511165444E+03  0.69724275857E+03  0.90076450820E+03  0.46999998093E+01 0.  1.
</event>
<event>
 5   0  0.4973411E-04  0.1887523E+04  0.7818609E-02  0.8661092E-01
        2   -1    0    0  501    0  0.00000000000E+00  0.00000000000E+00  0.91158346585E+03  0.91158346585E+03  0.25500000920E-02 0.  1.
       -2   -1    0    0    0  501  0.00000000000E+00  0.00000000000E+00 -0.97707509323E+03  0.97707509323E+03  0.25500000920E-02 0. -1.
    10030    2    1    2    0    0  0.00000000000E+00  0.00000000000E+00 -0.65491627385E+02  0.18886585591E+04  0.18875227150E+04 0.  0.
        1    1    3    3  502    0 -0.29658071712E+03  0.50864673982E+02  0.86229689044E+03  0.91329254027E+03  0.50400001928E-02 0.  1.
       -1    1    3    3    0  502  0.29658071712E+03 -0.50864673982E+02 -0.92778851782E+03  0.97536601881E+03  0.50400001928E-02 0. -1.
</event>
<event>
 5   0  0.2355414E-04  0.1894765E+04  0.7818609E-02  0.8657467E-01
       -1   -1    0    0    0  501  0.00000000000E+00  0.00000000000E+00  0.80899431094E+03  0.80899431096E+03  0.50400001928E-02 0.  1.
        1   -1    0    0  501    0  0.00000000000E+00  0.00000000000E+00 -0.11094436727E+04  0.11094436727E+04  0.50400001928E-02 0. -1.
    10030    2    1    2    0    0  0.00000000000E+00  0.00000000000E+00 -0.30044936177E+03  0.19184379837E+04  0.18947650193E+04 0.  0.
        5    1    3    3  502    0  0.73304913075E+03 -0.37200490663E+03  0.32657593129E+03  0.88454655477E+03  0.46999998093E+01 0.  1.
       -5    1    3    3    0  502 -0.73304913075E+03  0.37200490663E+03 -0.62702529306E+03  0.10338914289E+04  0.46999998093E+01 0. -1.
</event>
<event>
 5   0  0.2317458E-04  0.1173555E+04  0.7818609E-02  0.9136324E-01
       -1   -1    0    0    0  501  0.00000000000E+00  0.00000000000E+00  0.20863061687E+03  0.20863061693E+03  0.50400001928E-02 0.  1.
        1   -1    0    0  501    0  0.00000000000E+00  0.00000000000E+00 -0.16503215570E+04  0.16503215570E+04  0.50400001928E-02 0. -1.
    10030    2    1    2    0    0  0.00000000000E+00  0.00000000000E+00 -0.14416909401E+04  0.18589521739E+04  0.11735546081E+04 0.  0.
        3    1    3    3  502    0 -0.50719114982E+03  0.26059593275E+03 -0.50161534605E+03  0.75945445434E+03  0.10100000352E+00 0.  1.
       -3    1    3    3    0  502  0.50719114982E+03 -0.26059593275E+03 -0.94007559403E+03  0.10994977196E+04  0.10100000352E+00 0. -1.
</event>
<event>
 5   0  0.2261755E-04  0.1607004E+04  0.7818609E-02  0.8816257E-01
        1   -1    0    0  501    0  0.00000000000E+00  0.00000000000E+00  0.43043649121E+03  0.43043649124E+03  0.50400001928E-02 0.  1.
       -1   -1    0    0    0  501  0.00000000000E+00  0.00000000000E+00 -0.14999085150E+04  0.14999085150E+04  0.50400001928E-02 0. -1.
    10030    2    1    2    0    0  0.00000000000E+00  0.00000000000E+00 -0.10694720238E+04  0.19303450063E+04  0.16070038685E+04 0.  0.
        1    1    3    3  502    0 -0.65693635523E+03 -0.83363397862E+02  0.11913061930E+02  0.66231167286E+03  0.50400001928E-02 0.  1.
       -1    1    3    3    0  502  0.65693635523E+03  0.83363397862E+02 -0.10813850857E+04  0.12680333334E+04  0.50400001928E-02 0. -1.
</event>
<event>
 5   0  0.2355414E-04  0.1819199E+04  0.7818609E-02  0.8696156E-01
        1   -1    0    0  501    0  0.00000000000E+00  0.00000000000E+00  0.12370016104E+04  0.12370016104E+04  0.50400001928E-02 0.  1.
       -1   -1    0    0    0  501  0.00000000000E+00  0.00000000000E+00 -0.66885208473E+03  0.66885208475E+03  0.50400001928E-02 0. -1.
    10030    2    1    2    0    0  0.00000000000E+00  0.00000000000E+00  0.56814952569E+03  0.19058536952E+04  0.18191988412E+04 0.  0.
        5    1    3    3  502    0 -0.30925596058E+03  0.22363973586E+03 -0.58090202560E+03  0.69507066832E+03  0.46999998093E+01 0. -1.
       -5    1    3    3    0  502  0.30925596058E+03 -0.22363973586E+03  0.11490515513E+04  0.12107830269E+04  0.46999998093E+01 0.  1.
</event>
<event>
 5   0  0.4829134E-04  0.1823446E+04  0.7818609E-02  0.8693929E-01
       -2   -1    0    0    0  501  0.00000000000E+00  0.00000000000E+00  0.40128959476E+03  0.40128959477E+03  0.25500000920E-02 0. -1.
        2   -1    0    0  501    0  0.00000000000E+00  0.00000000000E+00 -0.20714193439E+04  0.20714193439E+04  0.25500000920E-02 0.  1.
    10030    2    1    2    0    0  0.00000000000E+00  0.00000000000E+00 -0.16701297492E+04  0.24727089387E+04  0.18234462198E+04 0.  0.
        2    1    3    3  502    0 -0.62048246074E+03  0.65989086132E+03 -0.97589059569E+03  0.13314716999E+04  0.25500000920E-02 0.  1.
       -2    1    3    3    0  502  0.62048246074E+03 -0.65989086132E+03 -0.69423915348E+03  0.11412372388E+04  0.25500000920E-02 0. -1.
</event>
<event>
 5   0  0.2376359E-04  0.1895212E+04  0.7818609E-02  0.8657243E-01
       -1   -1    0    0    0  501  0.00000000000E+00  0.00000000000E+00  0.92361585486E+03  0.92361585487E+03  0.50400001928E-02 0. -1.
        1   -1    0    0  501    0  0.00000000000E+00  0.00000000000E+00 -0.97221957551E+03  0.97221957553E+03  0.50400001928E-02 0.  1.
    10030    2    1    2    0    0  0.00000000000E+00  0.00000000000E+00 -0.48603720654E+02  0.18958354304E+04  0.18952122988E+04 0.  0.
        2    1    3    3  502    0 -0.67504297320E+03  0.54142478988E+03  0.36200330369E+03  0.93801397146E+03  0.25500000920E-02 0.  1.
       -2    1    3    3    0  502  0.67504297320E+03 -0.54142478988E+03 -0.41060702434E+03  0.95782145894E+03  0.25500000920E-02 0. -1.
</event>
<event>
 5   0  0.4839293E-04  0.1982956E+04  0.7818609E-02  0.8614631E-01
       -2   -1    0    0    0  501  0.00000000000E+00  0.00000000000E+00  0.76414072834E+03  0.76414072835E+03  0.25500000920E-02 0. -1.
        2   -1    0    0  501    0  0.00000000000E+00  0.00000000000E+00 -0.12864493759E+04  0.12864493759E+04  0.25500000920E-02 0.  1.
    10030    2    1    2    0    0  0.00000000000E+00  0.00000000000E+00 -0.52230864754E+03  0.20505901042E+04  0.19829557363E+04 0.  0.
        5    1    3    3  502    0 -0.60044520756E+02 -0.88622103210E+03 -0.71664709482E+03  0.11413142471E+04  0.46999998093E+01 0. -1.
       -5    1    3    3    0  502  0.60044520756E+02  0.88622103210E+03  0.19433844728E+03  0.90927585710E+03  0.46999998093E+01 0.  1.
</event>
<event>
 5   0  0.2261755E-04  0.1573689E+04  0.7818609E-02  0.8836877E-01
       -1   -1    0    0    0  501  0.00000000000E+00  0.00000000000E+00  0.10732996076E+04  0.10732996076E+04  0.50400001928E-02 0. -1.
        1   -1    0    0  501    0  0.00000000000E+00  0.00000000000E+00 -0.57684180943E+03  0.57684180946E+03  0.50400001928E-02 0.  1.
    10030    2    1    2    0    0  0.00000000000E+00  0.00000000000E+00  0.49645779813E+03  0.16501414170E+04  0.15736887719E+04 0.  0.
        1    1    3    3  502    0 -0.32527200852E+03  0.34647967750E+03 -0.40935316509E+03  0.62723206251E+03  0.50400001928E-02 0.  1.
       -1    1    3    3    0  502  0.32527200852E+03 -0.34647967750E+03  0.90581096322E+03  0.10229093545E+04  0.50400001928E-02 0. -1.
</event>
<event>
 5   0  0.4802635E-04  0.1912117E+04  0.7818609E-02  0.8648848E-01
        2   -1    0    0  501    0  0.00000000000E+00  0.00000000000E+00  0.14773665139E+04  0.14773665139E+04  0.25500000920E-02 0. -1.
       -2   -1    0    0    0  501  0.00000000000E+00  0.00000000000E+00 -0.61870080926E+03  0.61870080927E+03  0.25500000920E-02 0.  1.
    10030    2    1    2    0    0  0.00000000000E+00  0.00000000000E+00  0.85866570465E+03  0.20960673232E+04  0.19121170024E+04 0.  0.
        3    1    3    3  502    0  0.15652758230E+03 -0.85846316341E+03  0.11286761287E+01  0.87261742538E+03  0.10100000352E+00 0.  1.
       -3    1    3    3    0  502 -0.15652758230E+03  0.85846316341E+03  0.85753702852E+03  0.12234498978E+04  0.10100000352E+00 0. -1.
</event>
<event>
 5   0  0.4839293E-04  0.1863201E+04  0.7818609E-02  0.8673394E-01
        2   -1    0    0  501    0  0.00000000000E+00  0.00000000000E+00  0.11640768185E+04  0.11640768185E+04  0.25500000920E-02 0. -1.
       -2   -1    0    0    0  501  0.00000000000E+00  0.00000000000E+00 -0.74555152660E+03  0.74555152661E+03  0.25500000920E-02 0.  1.
    10030    2    1    2    0    0  0.00000000000E+00  0.00000000000E+00  0.41852529188E+03  0.19096283451E+04  0.18632007397E+04 0.  0.
        5    1    3    3  502    0 -0.77484792537E+03  0.96154384543E+02  0.73008064071E+03  0.10689596836E+04  0.46999998093E+01 0. -1.
       -5    1    3    3    0  502  0.77484792537E+03 -0.96154384543E+02 -0.31155534883E+03  0.84066866155E+03  0.46999998093E+01 0.  1.
</event>
<event>
 5   0  0.4839293E-04  0.1935251E+04  0.7818609E-02  0.8637506E-01
       -2   -1    0    0    0  501  0.00000000000E+00  0.00000000000E+00  0.89142334620E+03  0.89142334620E+03  0.25500000920E-02 0. -1.
        2   -1    0    0  501    0  0.00000000000E+00  0.00000000000E+00 -0.10503421682E+04  0.10503421682E+04  0.25500000920E-02 0.  1.
    10030    2    1    2    0    0  0.00000000000E+00  0.00000000000E+00 -0.15891882201E+03  0.19417655144E+04  0.19352514361E+04 0.  0.
        5    1    3    3  502    0 -0.16124944047E+03 -0.46225197827E+03 -0.91689393422E+03  0.10394204395E+04  0.46999998093E+01 0.  1.
       -5    1    3    3    0  502  0.16124944047E+03  0.46225197827E+03  0.75797511221E+03  0.90234507490E+03  0.46999998093E+01 0. -1.
</event>
<event>
 5   0  0.4802635E-04  0.1832661E+04  0.7818609E-02  0.8689121E-01
       -2   -1    0    0    0  501  0.00000000000E+00  0.00000000000E+00  0.33040936611E+03  0.33040936612E+03  0.25500000920E-02 0. -1.
        2   -1    0    0  501    0  0.00000000000E+00  0.00000000000E+00 -0.25412762907E+04  0.25412762907E+04  0.25500000920E-02 0.  1.
    10030    2    1    2    0    0  0.00000000000E+00  0.00000000000E+00 -0.22108669246E+04  0.28716856568E+04  0.18326608942E+04 0.  0.
        3    1    3    3  502    0  0.85126659988E+02  0.55355943209E+03 -0.22418622953E+04  0.23107620289E+04  0.10100000352E+00 0.  1.
       -3    1    3    3    0  502 -0.85126659988E+02 -0.55355943209E+03  0.30995370720E+02  0.56092362787E+03  0.10100000352E+00 0. -1.
</event>
<event>
 5   0  0.2261755E-04  0.2084078E+04  0.7818609E-02  0.8568290E-01
        1   -1    0    0  501    0  0.00000000000E+00  0.00000000000E+00  0.12391152668E+04  0.12391152668E+04  0.50400001928E-02 0. -1.
       -1   -1    0    0    0  501  0.00000000000E+00  0.00000000000E+00 -0.87630690439E+03  0.87630690440E+03  0.50400001928E-02 0.  1.
    10030    2    1    2    0    0  0.00000000000E+00  0.00000000000E+00  0.36280836242E+03  0.21154221712E+04  0.20840779867E+04 0.  0.
        1    1    3    3  502    0 -0.59888119176E+03 -0.81312511897E+03 -0.79392171529E+02  0.10129828517E+04  0.50400001928E-02 0.  1.
       -1    1    3    3    0  502  0.59888119176E+03  0.81312511897E+03  0.44220053395E+03  0.11024393195E+04  0.50400001928E-02 0. -1.
</event>
<event>
 5   0  0.2510069E-04  0.1863761E+04  0.7818609E-02  0.8673108E-01
       -1   -1    0    0    0  501  0.00000000000E+00  0.00000000000E+00  0.75467324205E+03  0.75467324206E+03  0.50400001928E-02 0.  1.
        1   -1    0    0  501    0  0.00000000000E+00  0.00000000000E+00 -0.11506985516E+04  0.11506985516E+04  0.50400001928E-02 0. -1.
    10030    2    1    2    0    0  0.00000000000E+00  0.00000000000E+00 -0.39602530956E+03  0.19053717937E+04  0.18637611506E+04 0.  0.
        4    1    3    3  502    0 -0.62522151600E+03  0.33786603048E+03 -0.81425098719E+03  0.10807690233E+04  0.12699999809E+01 0. -1.
       -4    1    3    3    0  502  0.62522151600E+03 -0.33786603048E+03  0.41822567763E+03  0.82460277041E+03  0.12699999809E+01 0.  1.
</event>
<event>
 5   0  0.2355414E-04  0.2015959E+04  0.7818609E-02  0.8599195E-01
       -1   -1    0    0    0  501  0.00000000000E+00  0.00000000000E+00  0.21343576911E+04  0.21343576911E+04  0.50400001928E-02 0.  1.
        1   -1    0    0  501    0  0.00000000000E+00  0.00000000000E+00 -0.47603221584E+03  0.47603221586E+03  0.50400001928E-02 0. -1.
    10030    2    1    2    0    0  0.00000000000E+00  0.00000000000E+00  0.16583254752E+04  0.26103899070E+04  0.20159593459E+04 0.  0.
        5    1    3    3  502    0 -0.70278419179E+03 -0.71586234815E+03  0.95627318076E+03  0.13859455285E+04  0.46999998093E+01 0.  1.
       -5    1    3    3    0  502  0.70278419179E+03  0.71586234815E+03  0.70205229449E+03  0.12244443785E+04  0.46999998093E+01 0. -1.
</event>
<event>
 5   0  0.4829134E-04  0.1330358E+04  0.7818609E-02  0.9005832E-01
        2   -1    0    0  501    0  0.00000000000E+00  0.00000000000E+00  0.28498987396E+03  0.28498987397E+03  0.25500000920E-02 0.  1.
       -2   -1    0    0    0  501  0.00000000000E+00  0.00000000000E+00 -0.15525569571E+04  0.15525569571E+04  0.25500000920E-02 0. -1.
    10030    2    1    2    0    0  0.00000000000E+00  0.00000000000E+00 -0.12675670831E+04  0.18375468310E+04  0.13303578639E+04 0.  0.
        2    1    3    3  502    0 -0.56428410679E+03 -0.84040802775E+02 -0.16135902275E+03  0.59288796913E+03  0.25500000920E-02 0.  1.
       -2    1    3    3    0  502  0.56428410679E+03  0.84040802775E+02 -0.11062080604E+04  0.12446588619E+04  0.25500000920E-02 0. -1.
</event>
<event>
 5   0  0.2317458E-04  0.1977921E+04  0.7818609E-02  0.8617013E-01
        1   -1    0    0  501    0  0.00000000000E+00  0.00000000000E+00  0.10558064145E+04  0.10558064145E+04  0.50400001928E-02 0.  1.
       -1   -1    0    0    0  501  0.00000000000E+00  0.00000000000E+00 -0.92634705879E+03  0.92634705881E+03  0.50400001928E-02 0. -1.
    10030    2    1    2    0    0  0.00000000000E+00  0.00000000000E+00  0.12945935571E+03  0.19821534733E+04  0.19779212995E+04 0.  0.
        3    1    3    3  502    0 -0.95989482646E+03  0.21920977370E+03  0.15762188707E+03  0.99714375706E+03  0.10100000352E+00 0.  1.
       -3    1    3    3    0  502  0.95989482646E+03 -0.21920977370E+03 -0.28162531367E+02  0.98500971626E+03  0.10100000352E+00 0. -1.
</event>
<event>
 5   0  0.2510069E-04  0.1687963E+04  0.7818609E-02  0.8768259E-01
       -1   -1    0    0    0  501  0.00000000000E+00  0.00000000000E+00  0.81914327741E+03  0.81914327742E+03  0.50400001928E-02 0. -1.
        1   -1    0    0  501    0  0.00000000000E+00  0.00000000000E+00 -0.86957336496E+03  0.86957336498E+03  0.50400001928E-02 0.  1.
    10030    2    1    2    0    0  0.00000000000E+00  0.00000000000E+00 -0.50430087555E+02  0.16887166424E+04  0.16879634784E+04 0.  0.
        4    1    3    3  502    0 -0.42190906191E+03  0.30176827618E+03 -0.69126897559E+03  0.86424866707E+03  0.12699999809E+01 0.  1.
       -4    1    3    3    0  502  0.42190906191E+03 -0.30176827618E+03  0.64083888803E+03  0.82446797533E+03  0.12699999809E+01 0. -1.
</event>
<event>
 5   0  0.4761944E-04  0.1910448E+04  0.7818609E-02  0.8649673E-01
        2   -1    0    0  501    0  0.00000000000E+00  0.00000000000E+00  0.12727266732E+04  0.12727266732E+04  0.25500000920E-02 0.  1.
       -2   -1    0    0    0  501  0.00000000000E+00  0.00000000000E+00 -0.71692736935E+03  0.71692736935E+03  0.25500000920E-02 0. -1.
    10030    2    1    2    0    0  0.00000000000E+00  0.00000000000E+00  0.55579930382E+03  0.19896540425E+04  0.19104476813E+04 0.  0.
        4    1    3    3  502    0  0.38486400388E+03  0.84649776009E+03  0.50552996828E+03  0.10584143428E+04  0.12699999809E+01 0.  1.
       -4    1    3    3    0  502 -0.38486400388E+03 -0.84649776009E+03  0.50269335540E+02  0.93123969971E+03  0.12699999809E+01 0. -1.
</event>
<event>
 5   0  0.2510069E-04  0.9782658E+03  0.7818609E-02  0.9332709E-01
       -1   -1    0    0    0  501  0.00000000000E+00  0.00000000000E+00  0.23552345737E+03  0.23552345742E+03  0.50400001928E-02 0.  1.
        1   -1    0    0  501    0  0.00000000000E+00  0.00000000000E+00 -0.10158265739E+04  0.10158265739E+04  0.50400001928E-02 0. -1.
    10030    2    1    2    0    0  0.00000000000E+00  0.00000000000E+00 -0.78030311654E+03  0.12513500313E+04  0.97826578559E+03 0.  0.
        4    1    3    3  502    0  0.27461267963E+02 -0.30418644136E+03 -0.87885746914E+03  0.93041688307E+03  0.12699999809E+01 0. -1.
       -4    1    3    3    0  502 -0.27461267963E+02  0.30418644136E+03  0.98554352601E+02  0.32093314827E+03  0.12699999809E+01 0.  1.
</event>
<event>
 5   0  0.2510069E-04  0.1899094E+04  0.7818609E-02  0.8655308E-01
        1   -1    0    0  501    0  0.00000000000E+00  0.00000000000E+00  0.98218000185E+03  0.98218000187E+03  0.50400001928E-02 0. -1.
       -1   -1    0    0    0  501  0.00000000000E+00  0.00000000000E+00 -0.91799806733E+03  0.91799806734E+03  0.50400001928E-02 0.  1.
    10030    2    1    2    0    0  0.00000000000E+00  0.00000000000E+00  0.64181934527E+02  0.19001780692E+04  0.18990938297E+04 0.  0.
        4    1    3    3  502    0  0.29137388317E+03  0.55517058895E+02 -0.87045331737E+03  0.91960397685E+03  0.12699999809E+01 0.  1.
       -4    1    3    3    0  502 -0.29137388317E+03 -0.55517058895E+02  0.93463525189E+03  0.98057409236E+03  0.12699999809E+01 0. -1.
</event>
<event>
 5   0  0.2261755E-04  0.1891951E+04  0.7818609E-02  0.8658873E-01
        1   -1    0    0  501    0  0.00000000000E+00  0.00000000000E+00  0.11265081252E+04  0.11265081252E+04  0.50400001928E-02 0. -1.
       -1   -1    0    0    0  501  0.00000000000E+00  0.00000000000E+00 -0.79437518082E+03  0.79437518084E+03  0.50400001928E-02 0.  1.
    10030    2    1    2    0    0  0.00000000000E+00  0.00000000000E+00  0.33213294438E+03  0.19208833060E+04  0.18919514747E+04 0.  0.
        1    1    3    3  502    0 -0.81713425138E+03 -0.19257093199E+03  0.60871302224E+03  0.10369780577E+04  0.50400001928E-02 0. -1.
       -1    1    3    3    0  502  0.81713425138E+03  0.19257093199E+03 -0.27658007786E+03  0.88390524838E+03  0.50400001928E-02 0.  1.
</event>
<event>
 5   0  0.4973411E-04  0.1827577E+04  0.7818609E-02  0.8691770E-01
        2   -1    0    0  501    0  0.00000000000E+00  0.00000000000E+00  0.17565692628E+04  0.17565692628E+04  0.25500000920E-02 0. -1.
       -2   -1    0    0    0  501  0.00000000000E+00  0.00000000000E+00 -0.47536367953E+03  0.47536367954E+03  0.25500000920E-02 0.  1.
    10030    2    1    2    0    0  0.00000000000E+00  0.00000000000E+00  0.12812055833E+04  0.22319329424E+04  0.18275767870E+04 0.  0.
        1    1    3    3  502    0 -0.29937425248E+02 -0.79234238243E+03  0.11953076808E+04  0.14343859844E+04  0.50400001928E-02 0. -1.
       -1    1    3    3    0  502  0.29937425248E+02  0.79234238243E+03  0.85897902441E+02  0.79754695792E+03  0.50400001928E-02 0.  1.
</event>
<event>
 5   0  0.2317458E-04  0.1863232E+04  0.7818609E-02  0.8673378E-01
       -1   -1    0    0    0  501  0.00000000000E+00  0.00000000000E+00  0.45048914853E+03  0.45048914856E+03  0.50400001928E-02 0. -1.
        1   -1    0    0  501    0  0.00000000000E+00  0.00000000000E+00 -0.19265915392E+04  0.19265915392E+04  0.50400001928E-02 0.  1.
    10030    2    1    2    0    0  0.00000000000E+00  0.00000000000E+00 -0.14761023906E+04  0.23770806877E+04  0.18632322261E+04 0.  0.
        3    1    3    3  502    0  0.16214595262E+03  0.81533660132E+03 -0.20154903714E+03  0.85538711001E+03  0.10100000352E+00 0. -1.
       -3    1    3    3    0  502 -0.16214595262E+03 -0.81533660132E+03 -0.12745533535E+04  0.15216935777E+04  0.10100000352E+00 0.  1.
</event>
<event>
 5   0  0.4829134E-04  0.1901682E+04  0.7818609E-02  0.8654019E-01
       -2   -1    0    0    0  501  0.00000000000E+00  0.00000000000E+00  0.61717132611E+03  0.61717132611E+03  0.25500000920E-02 0. -1.
        2   -1    0    0  501    0  0.00000000000E+00  0.00000000000E+00 -0.14649074285E+04  0.14649074285E+04  0.25500000920E-02 0.  1.
    10030    2    1    2    0    0  0.00000000000E+00  0.00000000000E+00 -0.84773610237E+03  0.20820787546E+04  0.19016822661E+04 0.  0.
        2    1    3    3  502    0 -0.67779881661E+02  0.82080886255E+03  0.96366967813E+02  0.82922125738E+03  0.25500000920E-02 0. -1.
       -2    1    3    3    0  502  0.67779881661E+02 -0.82080886255E+03 -0.94410307018E+03  0.12528574972E+04  0.25500000920E-02 0.  1.
</event>
<event>
 5   0  0.4802635E-04  0.1023394E+04  0.7818609E-02  0.9283252E-01
        2   -1    0    0  501    0  0.00000000000E+00  0.00000000000E+00  0.10935753611E+04  0.10935753611E+04  0.25500000920E-02 0.  1.
       -2   -1    0    0    0  501  0.00000000000E+00  0.00000000000E+00 -0.23942927291E+03  0.23942927292E+03  0.25500000920E-02 0. -1.
    10030    2    1    2    0    0  0.00000000000E+00  0.00000000000E+00  0.85414608819E+03  0.13330046340E+04  0.10233942614E+04 0.  0.
        3    1    3    3  502    0  0.29613544211E+03 -0.35201966482E+03  0.13517808242E+03  0.47946550310E+03  0.10100000352E+00 0. -1.
       -3    1    3    3    0  502 -0.29613544211E+03  0.35201966482E+03  0.71896800577E+03  0.85353913093E+03  0.10100000352E+00 0.  1.
</event>
<event>
 5   0  0.2355414E-04  0.1901062E+04  0.7818609E-02  0.8654328E-01
       -1   -1    0    0    0  501  0.00000000000E+00  0.00000000000E+00  0.66532305868E+03  0.66532305870E+03  0.50400001928E-02 0. -1.
        1   -1    0    0  501    0  0.00000000000E+00  0.00000000000E+00 -0.13580001761E+04  0.13580001761E+04  0.50400001928E-02 0.  1.
    10030    2    1    2    0    0  0.00000000000E+00  0.00000000000E+00 -0.69267711738E+03  0.20233232348E+04  0.19010616306E+04 0.  0.
        5    1    3    3  502    0 -0.42136680090E+03  0.52311617798E+03  0.36943516686E+03  0.76661916821E+03  0.46999998093E+01 0. -1.
       -5    1    3    3    0  502  0.42136680090E+03 -0.52311617798E+03 -0.10621122842E+04  0.12567040665E+04  0.46999998093E+01 0.  1.
</event>
<event>
 5   0  0.4761944E-04  0.1891249E+04  0.7818609E-02  0.8659225E-01
        2   -1    0    0  501    0  0.00000000000E+00  0.00000000000E+00  0.11510415080E+04  0.11510415080E+04  0.25500000920E-02 0.  1.
       -2   -1    0    0    0  501  0.00000000000E+00  0.00000000000E+00 -0.77686621567E+03  0.77686621568E+03  0.25500000920E-02 0. -1.
    10030    2    1    2    0    0  0.00000000000E+00  0.00000000000E+00  0.37417529235E+03  0.19279077237E+04  0.18912485404E+04 0.  0.
        4    1    3    3  502    0  0.14014958284E+03 -0.53934427310E+03 -0.59170373408E+03  0.81280321869E+03  0.12699999809E+01 0. -1.
       -4    1    3    3    0  502 -0.14014958284E+03  0.53934427310E+03  0.96587902643E+03  0.11151045050E+04  0.12699999809E+01 0.  1.
</event>
<event>
 5   0  0.4761944E-04  0.1858612E+04  0.7818609E-02  0.8675736E-01
        2   -1    0    0  501    0  0.00000000000E+00  0.00000000000E+00  0.67790201740E+03  0.67790201740E+03  0.25500000920E-02 0. -1.
       -2   -1    0    0    0  501  0.00000000000E+00  0.00000000000E+00 -0.12739448873E+04  0.12739448873E+04  0.25500000920E-02 0.  1.
    10030    2    1    2    0    0  0.00000000000E+00  0.00000000000E+00 -0.59604286986E+03  0.19518469047E+04  0.18586121802E+04 0.  0.
        4    1    3    3  502    0 -0.79893092128E+03  0.39288019798E+03 -0.18270126426E+02  0.89049473742E+03  0.12699999809E+01 0. -1.
       -4    1    3    3    0  502  0.79893092128E+03 -0.39288019798E+03 -0.57777274343E+03  0.10613521672E+04  0.12699999809E+01 0.  1.
</event>
<event>
 5   0  0.4829134E-04  0.1812097E+04  0.7818609E-02  0.8699893E-01
       -2   -1    0    0    0  501  0.00000000000E+00  0.00000000000E+00  0.16668703574E+04  0.16668703574E+04  0.25500000920E-02 0.  1.
        2   -1    0    0  501    0  0.00000000000E+00  0.00000000000E+00 -0.49249404203E+03  0.49249404204E+03  0.25500000920E-02 0. -1.
    10030    2    1    2    0    0  0.00000000000E+00  0.00000000000E+00  0.11743763154E+04  0.21593643994E+04  0.18120968185E+04 0.  0.
        2    1    3    3  502    0 -0.68937197622E+03  0.20069645015E+03  0.12457352388E+04  0.14378348556E+04  0.25500000920E-02 0.  1.
       -2    1    3    3    0  502  0.68937197622E+03 -0.20069645015E+03 -0.71358923445E+02  0.72152954386E+03  0.25500000920E-02 0. -1.
</event>
<event>
 5   0  0.2355414E-04  0.1872754E+04  0.7818609E-02  0.8668539E-01
        1   -1    0    0  501    0  0.00000000000E+00  0.00000000000E+00  0.91082984723E+03  0.91082984724E+03  0.50400001928E-02 0. -1.
       -1   -1    0    0    0  501  0.00000000000E+00  0.00000000000E+00 -0.96264077401E+03  0.96264077403E+03  0.50400001928E-02 0.  1.
    10030    2    1    2    0    0  0.00000000000E+00  0.00000000000E+00 -0.51810926784E+02  0.18734706213E+04  0.18727540673E+04 0.  0.
        5    1    3    3  502    0  0.53424222544E+03  0.53208364349E+03 -0.58132245294E+03  0.95209539617E+03  0.46999998093E+01 0.  1.
       -5    1    3    3    0  502 -0.53424222544E+03 -0.53208364349E+03  0.52951152615E+03  0.92137522511E+03  0.46999998093E+01 0. -1.
</event>
<event>
 5   0  0.4802635E-04  0.1942501E+04  0.7818609E-02  0.8633986E-01
        2   -1    0    0  501    0  0.00000000000E+00  0.00000000000E+00  0.16294041709E+04  0.16294041709E+04  0.25500000920E-02 0. -1.
       -2   -1    0    0    0  501  0.00000000000E+00  0.00000000000E+00 -0.57894000503E+03  0.57894000504E+03  0.25500000920E-02 0.  1.
    10030    2    1    2    0    0  0.00000000000E+00  0.00000000000E+00  0.10504641658E+04  0.22083441759E+04  0.19425007170E+04 0.  0.
        3    1    3    3  502    0 -0.81775793149E+03 -0.39637831390E+03  0.13556482841E+03  0.91881534333E+03  0.10100000352E+00 0.  1.
       -3    1    3    3    0  502  0.81775793149E+03  0.39637831390E+03  0.91489933743E+03  0.12895288326E+04  0.10100000352E+00 0. -1.
</event>
<event>
 5   0  0.1729375E-04  0.1777785E+04  0.7818609E-02  0.8718203E-01
        3   -1    0    0  501    0  0.00000000000E+00  0.00000000000E+00  0.47603486215E+03  0.47603487286E+03  0.10100000352E+00 0.  1.
       -3   -1    0    0    0  501  0.00000000000E+00  0.00000000000E+00 -0.16598154776E+04  0.16598154806E+04  0.10100000352E+00 0. -1.
    10030    2    1    2    0    0  0.00000000000E+00  0.00000000000E+00 -0.11837806154E+04  0.21358503535E+04  0.17777851915E+04 0.  0.
        1    1    3    3  502    0 -0.72962799954E+03 -0.39096269813E+03 -0.20273482238E+03  0.85223838055E+03  0.50400001928E-02 0.  1.
       -1    1    3    3    0  502  0.72962799954E+03  0.39096269813E+03 -0.98104579303E+03  0.12836119729E+04  0.50400001928E-02 0. -1.
</event>
<event>
 5   0  0.2317458E-04  0.1836103E+04  0.7818609E-02  0.8687332E-01
       -1   -1    0    0    0  501  0.00000000000E+00  0.00000000000E+00  0.85938048428E+03  0.85938048430E+03  0.50400001928E-02 0.  1.
        1   -1    0    0  501    0  0.00000000000E+00  0.00000000000E+00 -0.98072814848E+03  0.98072814849E+03  0.50400001928E-02 0. -1.
    10030    2    1    2    0    0  0.00000000000E+00  0.00000000000E+00 -0.12134766420E+03  0.18401086328E+04  0.18361030812E+04 0.  0.
        3    1    3    3  502    0 -0.42024387221E+03 -0.22367402571E+03 -0.84735994680E+03  0.97193305919E+03  0.10100000352E+00 0. -1.
       -3    1    3    3    0  502  0.42024387221E+03  0.22367402571E+03  0.72601228260E+03  0.86817557360E+03  0.10100000352E+00 0.  1.
</event>
<event>
 5   0  0.1729375E-04  0.1821606E+04  0.7818609E-02  0.8694893E-01
        3   -1    0    0  501    0  0.00000000000E+00  0.00000000000E+00  0.15865941927E+04  0.15865941959E+04  0.10100000352E+00 0.  1.
       -3   -1    0    0    0  501  0.00000000000E+00  0.00000000000E+00 -0.52285729791E+03  0.52285730766E+03  0.10100000352E+00 0. -1.
    10030    2    1    2    0    0  0.00000000000E+00  0.00000000000E+00  0.10637368947E+04  0.21094515035E+04  0.18216062869E+04 0.  0.
        3    1    3    3  502    0  0.69582298637E+03  0.56905640287E+02  0.12092387332E+04  0.13963044812E+04  0.10100000352E+00 0.  1.
       -3    1    3    3    0  502 -0.69582298637E+03 -0.56905640287E+02 -0.14550183842E+03  0.71314702232E+03  0.10100000352E+00 0. -1.
</event>
<event>
 5   0  0.4761944E-04  0.1919564E+04  0.7818609E-02  0.8645179E-01
       -2   -1    0    0    0  501  0.00000000000E+00  0.00000000000E+00  0.76335121576E+03  0.76335121576E+03  0.25500000920E-02 0. -1.
        2   -1    0    0  501    0  0.00000000000E+00  0.00000000000E+00 -0.12067603243E+04  0.12067603243E+04  0.25500000920E-02 0.  1.
    10030    2    1    2    0    0  0.00000000000E+00  0.00000000000E+00 -0.44340910858E+03  0.19701115401E+04  0.19195644930E+04 0.  0.
        4    1    3    3  502    0  0.80795953054E+03  0.37724483905E+03 -0.58611487612E+03  0.10670728806E+04  0.12699999809E+01 0.  1.
       -4    1    3    3    0  502 -0.80795953054E+03 -0.37724483905E+03  0.14270576754E+03  0.90303865951E+03  0.12699999809E+01 0. -1.
</event>
<event>
 5   0  0.2510069E-04  0.1860345E+04  0.7818609E-02  0.8674851E-01
       -1   -1    0    0    0  501  0.00000000000E+00  0.00000000000E+00  0.13075330306E+04  0.13075330306E+04  0.50400001928E-02 0. -1.
        1   -1    0    0  501    0  0.00000000000E+00  0.00000000000E+00 -0.66172023567E+03  0.66172023569E+03  0.50400001928E-02 0.  1.
    10030    2    1    2    0    0  0.00000000000E+00  0.00000000000E+00  0.64581279494E+03  0.19692532663E+04  0.18603451994E+04 0.  0.
        4    1    3    3  502    0 -0.36281552349E+03  0.27197777036E+03 -0.53680454719E+03  0.70268609381E+03  0.12699999809E+01 0.  1.
       -4    1    3    3    0  502  0.36281552349E+03 -0.27197777036E+03  0.11826173421E+04  0.12665671725E+04  0.12699999809E+01 0. -1.
</event>
<event>
 5   0  0.2317458E-04  0.1821325E+04  0.7818609E-02  0.8695041E-01
       -1   -1    0    0    0  501  0.00000000000E+00  0.00000000000E+00  0.70152158835E+03  0.70152158837E+03  0.50400001928E-02 0. -1.
        1   -1    0    0  501    0  0.00000000000E+00  0.00000000000E+00 -0.11821533328E+04  0.11821533329E+04  0.50400001928E-02 0.  1.
    10030    2    1    2    0    0  0.00000000000E+00  0.00000000000E+00 -0.48063174450E+03  0.18836749212E+04  0.18213248845E+04 0.  0.
        3    1    3    3  502    0 -0.82506976277E+03  0.18979025711E+03  0.10664686096E+03  0.85330769262E+03  0.10100000352E+00 0.  1.
       -3    1    3    3    0  502  0.82506976277E+03 -0.18979025711E+03 -0.58727860546E+03  0.10303672286E+04  0.10100000352E+00 0. -1.
</event>
<event>
 5   0  0.4829134E-04  0.1039161E+04  0.7818609E-02  0.9266607E-01
       -2   -1    0    0    0  501  0.00000000000E+00  0.00000000000E+00  0.88699188807E+03  0.88699188808E+03  0.25500000920E-02 0. -1.
        2   -1    0    0  501    0  0.00000000000E+00  0.00000000000E+00 -0.30435877793E+03  0.30435877794E+03  0.25500000920E-02 0.  1.
    10030    2    1    2    0    0  0.00000000000E+00  0.00000000000E+00  0.58263311014E+03  0.11913506660E+04  0.10391607520E+04 0.  0.
        2    1    3    3  502    0 -0.66816052058E+02 -0.48606163527E+03  0.48736857497E+03  0.69155507805E+03  0.25500000920E-02 0. -1.
       -2    1    3    3    0  502  0.66816052058E+02  0.48606163527E+03  0.95264535165E+02  0.49979558797E+03  0.25500000920E-02 0.  1.
</event>
<event>
 5   0  0.2317458E-04  0.1966164E+04  0.7818609E-02  0.8622605E-01
        1   -1    0    0  501    0  0.00000000000E+00  0.00000000000E+00  0.20407298494E+04  0.20407298494E+04  0.50400001928E-02 0. -1.
       -1   -1    0    0    0  501  0.00000000000E+00  0.00000000000E+00 -0.47358090578E+03  0.47358090581E+03  0.50400001928E-02 0.  1.
    10030    2    1    2    0    0  0.00000000000E+00  0.00000000000E+00  0.15671489436E+04  0.25143107552E+04  0.19661644800E+04 0.  0.
        3    1    3    3  502    0 -0.84177228567E+03  0.81472556513E+02  0.14260571158E+03  0.85764489013E+03  0.10100000352E+00 0. -1.
       -3    1    3    3    0  502  0.84177228567E+03 -0.81472556513E+02  0.14245432320E+04  0.16566658651E+04  0.10100000352E+00 0.  1.
</event>
<event>
 5   0  0.4761944E-04  0.1886453E+04  0.7818609E-02  0.8661629E-01
       -2   -1    0    0    0  501  0.00000000000E+00  0.00000000000E+00  0.70542633251E+03  0.70542633252E+03  0.25500000920E-02 0. -1.
        2   -1    0    0  501    0  0.00000000000E+00  0.00000000000E+00 -0.12611891931E+04  0.12611891931E+04  0.25500000920E-02 0.  1.
    10030    2    1    2    0    0  0.00000000000E+00  0.00000000000E+00 -0.55576286063E+03  0.19666155257E+04  0.18864528270E+04 0.  0.
        4    1    3    3  502    0 -0.24143087137E+03 -0.58352440066E+03  0.45252289058E+03  0.77689649968E+03  0.12699999809E+01 0. -1.
       -4    1    3    3    0  502  0.24143087137E+03  0.58352440066E+03 -0.10082857512E+04  0.11897190260E+04  0.12699999809E+01 0.  1.
</event>
<event>
 5   0  0.4973411E-04  0.1412516E+04  0.7818609E-02  0.8944809E-01
       -2   -1    0    0    0  501  0.00000000000E+00  0.00000000000E+00  0.27985144288E+03  0.27985144289E+03  0.25500000920E-02 0. -1.
        2   -1    0    0  501    0  0.00000000000E+00  0.00000000000E+00 -0.17823744624E+04  0.17823744624E+04  0.25500000920E-02 0.  1.
    10030    2    1    2    0    0  0.00000000000E+00  0.00000000000E+00 -0.15025230195E+04  0.20622259053E+04  0.14125155788E+04 0.  0.
        1    1    3    3  502    0 -0.11626093836E+03 -0.61406585575E+02  0.26182576554E+03  0.29298482225E+03  0.50400001928E-02 0. -1.
       -1    1    3    3    0  502  0.11626093836E+03  0.61406585575E+02 -0.17643487851E+04  0.17692410831E+04  0.50400001928E-02 0.  1.
</event>
<event>
 5   0  0.4802635E-04  0.1798660E+04  0.7818609E-02  0.8707012E-01
       -2   -1    0    0    0  501  0.00000000000E+00  0.00000000000E+00  0.10068293138E+04  0.10068293138E+04  0.25500000920E-02 0.  1.
        2   -1    0    0  501    0  0.00000000000E+00  0.00000000000E+00 -0.80330881097E+03  0.80330881098E+03  0.25500000920E-02 0. -1.
    10030    2    1    2    0    0  0.00000000000E+00  0.00000000000E+00  0.20352050283E+03  0.18101381248E+04  0.17986604559E+04 0.  0.
        3    1    3    3  502    0 -0.84900582685E+03  0.12955680062E+03 -0.16677385038E+03  0.87487678332E+03  0.10100000352E+00 0. -1.
       -3    1    3    3    0  502  0.84900582685E+03 -0.12955680062E+03  0.37029435320E+03  0.93526134146E+03  0.10100000352E+00 0.  1.
</event>
<event>
 5   0  0.4802635E-04  0.1836721E+04  0.7818609E-02  0.8687012E-01
       -2   -1    0    0    0  501  0.00000000000E+00  0.00000000000E+00  0.72308265814E+03  0.72308265814E+03  0.25500000920E-02 0. -1.
        2   -1    0    0  501    0  0.00000000000E+00  0.00000000000E+00 -0.11663762660E+04  0.11663762661E+04  0.25500000920E-02 0.  1.
    10030    2    1    2    0    0  0.00000000000E+00  0.00000000000E+00 -0.44329360791E+03  0.18894589242E+04  0.18367214823E+04 0.  0.
        3    1    3    3  502    0 -0.18778220625E+03 -0.81223265135E+03  0.17464456823E+03  0.85175393883E+03  0.10100000352E+00 0. -1.
       -3    1    3    3    0  502  0.18778220625E+03  0.81223265135E+03 -0.61793817614E+03  0.10377049854E+04  0.10100000352E+00 0.  1.
</event>
<event>
 5   0  0.4839293E-04  0.1916989E+04  0.7818609E-02  0.8646446E-01
       -2   -1    0    0    0  501  0.00000000000E+00  0.00000000000E+00  0.38866428415E+03  0.38866428415E+03  0.25500000920E-02 0. -1.
        2   -1    0    0  501    0  0.00000000000E+00  0.00000000000E+00 -0.23637672012E+04  0.23637672012E+04  0.25500000920E-02 0.  1.
    10030    2    1    2    0    0  0.00000000000E+00  0.00000000000E+00 -0.19751029170E+04  0.27524314853E+04  0.19169891884E+04 0.  0.
        5    1    3    3  502    0 -0.38536857194E+02  0.79806989229E+03 -0.22740023195E+03  0.83074279884E+03  0.46999998093E+01 0. -1.
       -5    1    3    3    0  502  0.38536857194E+02 -0.79806989229E+03 -0.17477026851E+04  0.19216886865E+04  0.46999998093E+01 0.  1.
</event>
<event>
 5   0  0.2317458E-04  0.1825468E+04  0.7818609E-02  0.8692872E-01
        1   -1    0    0  501    0  0.00000000000E+00  0.00000000000E+00  0.15177245900E+04  0.15177245900E+04  0.50400001928E-02 0. -1.
       -1   -1    0    0    0  501  0.00000000000E+00  0.00000000000E+00 -0.54890293254E+03  0.54890293256E+03  0.50400001928E-02 0.  1.
    10030    2    1    2    0    0  0.00000000000E+00  0.00000000000E+00  0.96882165741E+03  0.20666275225E+04  0.18254681353E+04 0.  0.
        3    1    3    3  502    0 -0.44582115104E+03 -0.32949995043E+03 -0.33647050797E+03  0.64848988349E+03  0.10100000352E+00 0.  1.
       -3    1    3    3    0  502  0.44582115104E+03  0.32949995043E+03  0.13052921654E+04  0.14181376390E+04  0.10100000352E+00 0. -1.
</event>
<event>
 5   0  0.2510069E-04  0.1890573E+04  0.7818609E-02  0.8659563E-01
        1   -1    0    0  501    0  0.00000000000E+00  0.00000000000E+00  0.13993796366E+04  0.13993796366E+04  0.50400001928E-02 0. -1.
       -1   -1    0    0    0  501  0.00000000000E+00  0.00000000000E+00 -0.63854509945E+03  0.63854509947E+03  0.50400001928E-02 0.  1.
    10030    2    1    2    0    0  0.00000000000E+00  0.00000000000E+00  0.76083453713E+03  0.20379247361E+04  0.18905734677E+04 0.  0.
        4    1    3    3  502    0 -0.70437481410E+02  0.93511208059E+03  0.50872995917E+03  0.10668663582E+04  0.12699999809E+01 0. -1.
       -4    1    3    3    0  502  0.70437481410E+02 -0.93511208059E+03  0.25210457796E+03  0.97105837784E+03  0.12699999809E+01 0.  1.
</event>
<event>
 5   0  0.4761944E-04  0.1883909E+04  0.7818609E-02  0.8662908E-01
        2   -1    0    0  501    0  0.00000000000E+00  0.00000000000E+00  0.79721943525E+03  0.79721943525E+03  0.25500000920E-02 0.  1.
       -2   -1    0    0    0  501  0.00000000000E+00  0.00000000000E+00 -0.11129656487E+04  0.11129656487E+04  0.25500000920E-02 0. -1.
    10030    2    1    2    0    0  0.00000000000E+00  0.00000000000E+00 -0.31574621346E+03  0.19101850840E+04  0.18839085391E+04 0.  0.
        4    1    3    3  502    0 -0.28657295777E+03 -0.23003009329E+03 -0.10372870842E+04  0.11004562744E+04  0.12699999809E+01 0. -1.
       -4    1    3    3    0  502  0.28657295777E+03  0.23003009329E+03  0.72154087074E+03  0.80972880954E+03  0.12699999809E+01 0.  1.
</event>
<event>
 5   0  0.2317458E-04  0.1896501E+04  0.7818609E-02  0.8656600E-01
        1   -1    0    0  501    0  0.00000000000E+00  0.00000000000E+00  0.62826966757E+03  0.62826966759E+03  0.50400001928E-02 0. -1.
       -1   -1    0    0    0  501  0.00000000000E+00  0.00000000000E+00 -0.14311998372E+04  0.14311998372E+04  0.50400001928E-02 0.  1.
    10030    2    1    2    0    0  0.00000000000E+00  0.00000000000E+00 -0.80293016961E+03  0.20594695048E+04  0.18965014590E+04 0.  0.
        3    1    3    3  502    0 -0.11980541971E+03  0.26890494915E+03 -0.13803197289E+04  0.14113630909E+04  0.10100000352E+00 0.  1.
       -3    1    3    3    0  502  0.11980541971E+03 -0.26890494915E+03  0.57738955930E+03  0.64810641383E+03  0.10100000352E+00 0. -1.
</event>
<event>
 5   0  0.2376359E-04  0.1846317E+04  0.7818609E-02  0.8682049E-01
       -1   -1    0    0    0  501  0.00000000000E+00  0.00000000000E+00  0.10888531767E+04  0.10888531767E+04  0.50400001928E-02 0.  1.
        1   -1    0    0  501    0  0.00000000000E+00  0.00000000000E+00 -0.78267775725E+03  0.78267775727E+03  0.50400001928E-02 0. -1.
    10030    2    1    2    0    0  0.00000000000E+00  0.00000000000E+00  0.30617541947E+03  0.18715309340E+04  0.18463165085E+04 0.  0.
        2    1    3    3  502    0  0.80640343428E+01 -0.40181914121E+02  0.10879305871E+04  0.10887022445E+04  0.25500000920E-02 0.  1.
       -2    1    3    3    0  502 -0.80640343428E+01  0.40181914121E+02 -0.78175516765E+03  0.78282868945E+03  0.25500000920E-02 0. -1.
</event>
<event>
 5   0  0.2317458E-04  0.1806578E+04  0.7818609E-02  0.8702809E-01
       -1   -1    0    0    0  501  0.00000000000E+00  0.00000000000E+00  0.82242194103E+03  0.82242194104E+03  0.50400001928E-02 0.  1.
        1   -1    0    0  501    0  0.00000000000E+00  0.00000000000E+00 -0.99210739671E+03  0.99210739672E+03  0.50400001928E-02 0. -1.
    10030    2    1    2    0    0  0.00000000000E+00  0.00000000000E+00 -0.16968545568E+03  0.18145293378E+04  0.18065778599E+04 0.  0.
        3    1    3    3  502    0 -0.43852662888E+03 -0.77458857887E+03 -0.23926535244E+03  0.92170547889E+03  0.10100000352E+00 0.  1.
       -3    1    3    3    0  502  0.43852662888E+03  0.77458857887E+03  0.69579896753E+02  0.89282385888E+03  0.10100000352E+00 0. -1.
</event>
<event>
 5   0  0.2317458E-04  0.1323957E+04  0.7818609E-02  0.9010780E-01
        1   -1    0    0  501    0  0.00000000000E+00  0.00000000000E+00  0.69091417832E+03  0.69091417834E+03  0.50400001928E-02 0.  1.
       -1   -1    0    0    0  501  0.00000000000E+00  0.00000000000E+00 -0.63425436821E+03  0.63425436823E+03  0.50400001928E-02 0. -1.
    10030    2    1    2    0    0  0.00000000000E+00  0.00000000000E+00  0.56659810109E+02  0.13251685466E+04  0.13239566997E+04 0.  0.
        3    1    3    3  502    0 -0.50992311661E+03  0.40904322062E+03 -0.76060257487E+02  0.65812089631E+03  0.10100000352E+00 0. -1.
       -3    1    3    3    0  502  0.50992311661E+03 -0.40904322062E+03  0.13272006760E+03  0.66704765027E+03  0.10100000352E+00 0.  1.
</event>
<event>
 5   0  0.2355414E-04  0.1934390E+04  0.7818609E-02  0.8637925E-01
       -1   -1    0    0    0  501  0.00000000000E+00  0.00000000000E+00  0.10297186991E+04  0.10297186991E+04  0.50400001928E-02 0.  1.
        1   -1    0    0  501    0  0.00000000000E+00  0.00000000000E+00 -0.90846783681E+03  0.90846783682E+03  0.50400001928E-02 0. -1.
    10030    2    1    2    0    0  0.00000000000E+00  0.00000000000E+00  0.12125086225E+03  0.19381865359E+04  0.19343901562E+04 0.  0.
        5    1    3    3  502    0 -0.87850133157E+03  0.20226675730E+03 -0.29044457974E+03  0.94713070617E+03  0.46999998093E+01 0. -1.
       -5    1    3    3    0  502  0.87850133157E+03 -0.20226675730E+03  0.41169544199E+03  0.99105582972E+03  0.46999998093E+01 0.  1.
</event>
<event>
 5   0  0.2376359E-04  0.1920817E+04  0.7818609E-02  0.8644563E-01
       -1   -1    0    0    0  501  0.00000000000E+00  0.00000000000E+00  0.14673580357E+04  0.14673580357E+04  0.50400001928E-02 0.  1.
        1   -1    0    0  501    0  0.00000000000E+00  0.00000000000E+00 -0.62860215361E+03  0.62860215363E+03  0.50400001928E-02 0. -1.
    10030    2    1    2    0    0  0.00000000000E+00  0.00000000000E+00  0.83875588208E+03  0.20959601893E+04  0.19208169318E+04 0.  0.
        2    1    3    3  502    0  0.25390856293E+03 -0.35635317593E+03  0.13522758911E+04  0.14213047632E+04  0.25500000920E-02 0.  1.
       -2    1    3    3    0  502 -0.25390856293E+03  0.35635317593E+03 -0.51352000901E+03  0.67465542611E+03  0.25500000920E-02 0. -1.
</event>
<event>
 5   0  0.2376359E-04  0.1892785E+04  0.7818609E-02  0.8658456E-01
       -1   -1    0    0    0  501  0.00000000000E+00  0.00000000000E+00  0.11851800674E+04  0.11851800674E+04  0.50400001928E-02 0.  1.
        1   -1    0    0  501    0  0.00000000000E+00  0.00000000000E+00 -0.75571513432E+03  0.75571513433E+03  0.50400001928E-02 0. -1.
    10030    2    1    2    0    0  0.00000000000E+00  0.00000000000E+00  0.42946493307E+03  0.19408952017E+04  0.18927847356E+04 0.  0.
        2    1    3    3  502    0 -0.29696627533E+03  0.46530508668E+03 -0.57354691931E+03  0.79602378170E+03  0.25500000920E-02 0. -1.
       -2    1    3    3    0  502  0.29696627533E+03 -0.46530508668E+03  0.10030118524E+04  0.11448714200E+04  0.25500000920E-02 0.  1.
</event>
<event>
 5   0  0.4839293E-04  0.1915463E+04  0.7818609E-02  0.8647198E-01
       -2   -1    0    0    0  501  0.00000000000E+00  0.00000000000E+00  0.92636098230E+03  0.92636098230E+03  0.25500000920E-02 0. -1.
        2   -1    0    0  501    0  0.00000000000E+00  0.00000000000E+00 -0.99016384788E+03  0.99016384788E+03  0.25500000920E-02 0.  1.
    10030    2    1    2    0    0  0.00000000000E+00  0.00000000000E+00 -0.63802865581E+02  0.19165248302E+04  0.19154625079E+04 0.  0.
        5    1    3    3  502    0 -0.85018017736E+02 -0.18747992514E+03 -0.96775448661E+03  0.98941781974E+03  0.46999998093E+01 0.  1.
       -5    1    3    3    0  502  0.85018017736E+02  0.18747992514E+03  0.90395162103E+03  0.92710701045E+03  0.46999998093E+01 0. -1.
</event>
<event>
 5   0  0.2317458E-04  0.1893329E+04  0.7818609E-02  0.8658184E-01
       -1   -1    0    0    0  501  0.00000000000E+00  0.00000000000E+00  0.91794362683E+03  0.91794362685E+03  0.50400001928E-02 0.  1.
        1   -1    0    0  501    0  0.00000000000E+00  0.00000000000E+00 -0.97628430592E+03  0.97628430594E+03  0.50400001928E-02 0. -1.
    10030    2    1    2    0    0  0.00000000000E+00  0.00000000000E+00 -0.58340679090E+02  0.18942279328E+04  0.18933292969E+04 0.  0.
        3    1    3    3  502    0  0.45207318133E+03  0.12488813072E+03 -0.85187854533E+03  0.97245270973E+03  0.10100000352E+00 0. -1.
       -3    1    3    3    0  502 -0.45207318133E+03 -0.12488813072E+03  0.79353786624E+03  0.92177522305E+03  0.10100000352E+00 0.  1.
</event>
<event>
 5   0  0.4839293E-04  0.1912655E+04  0.7818609E-02  0.8648583E-01
        2   -1    0    0  501    0  0.00000000000E+00  0.00000000000E+00  0.91517173149E+03  0.91517173150E+03  0.25500000920E-02 0.  1.
       -2   -1    0    0    0  501  0.00000000000E+00  0.00000000000E+00 -0.99933366397E+03  0.99933366397E+03  0.25500000920E-02 0. -1.
    10030    2    1    2    0    0  0.00000000000E+00  0.00000000000E+00 -0.84161932479E+02  0.19145053955E+04  0.19126546156E+04 0.  0.
        5    1    3    3  502    0 -0.41044365371E+03  0.47951100196E+03  0.67704657067E+03  0.92563974781E+03  0.46999998093E+01 0.  1.
       -5    1    3    3    0  502  0.41044365371E+03 -0.47951100196E+03 -0.76120850315E+03  0.98886564766E+03  0.46999998093E+01 0. -1.
</event>
<event>
 5   0  0.2317458E-04  0.1545365E+04  0.7818609E-02  0.8854834E-01
       -1   -1    0    0    0  501  0.00000000000E+00  0.00000000000E+00  0.51923515446E+03  0.51923515449E+03  0.50400001928E-02 0. -1.
        1   -1    0    0  501    0  0.00000000000E+00  0.00000000000E+00 -0.11498412087E+04  0.11498412087E+04  0.50400001928E-02 0.  1.
    10030    2    1    2    0    0  0.00000000000E+00  0.00000000000E+00 -0.63060605427E+03  0.16690763632E+04  0.15453646530E+04 0.  0.
        3    1    3    3  502    0 -0.11788937083E+03 -0.96556263343E+01  0.50939879220E+03  0.52295150308E+03  0.10100000352E+00 0. -1.
       -3    1    3    3    0  502  0.11788937083E+03  0.96556263343E+01 -0.11400048465E+04  0.11461248602E+04  0.10100000352E+00 0.  1.
</event>
<event>
 5   0  0.4761944E-04  0.1902661E+04  0.7818609E-02  0.8653533E-01
       -2   -1    0    0    0  501  0.00000000000E+00  0.00000000000E+00  0.93393505980E+03  0.93393505980E+03  0.25500000920E-02 0.  1.
        2   -1    0    0  501    0  0.00000000000E+00  0.00000000000E+00 -0.96905015403E+03  0.96905015403E+03  0.25500000920E-02 0. -1.
    10030    2    1    2    0    0  0.00000000000E+00  0.00000000000E+00 -0.35115094229E+02  0.19029852138E+04  0.19026612032E+04 0.  0.
        4    1    3    3  502    0  0.28570775893E+02 -0.21450108116E+03 -0.94410685206E+03  0.96858988435E+03  0.12699999809E+01 0. -1.
       -4    1    3    3    0  502 -0.28570775893E+02  0.21450108116E+03  0.90899175783E+03  0.93439532949E+03  0.12699999809E+01 0.  1.
</event>
<event>
 5   0  0.2510069E-04  0.1879293E+04  0.7818609E-02  0.8665233E-01
       -1   -1    0    0    0  501  0.00000000000E+00  0.00000000000E+00  0.10803902253E+04  0.10803902254E+04  0.50400001928E-02 0. -1.
        1   -1    0    0  501    0  0.00000000000E+00  0.00000000000E+00 -0.81723752488E+03  0.81723752489E+03  0.50400001928E-02 0.  1.
    10030    2    1    2    0    0  0.00000000000E+00  0.00000000000E+00  0.26315270047E+03  0.18976277502E+04  0.18792928816E+04 0.  0.
        4    1    3    3  502    0  0.27428339255E+03 -0.16575250633E+03  0.10234995744E+04  0.10725009392E+04  0.12699999809E+01 0. -1.
       -4    1    3    3    0  502 -0.27428339255E+03  0.16575250633E+03 -0.76034687394E+03  0.82512681109E+03  0.12699999809E+01 0.  1.
</event>
<event>
 5   0  0.4761944E-04  0.1900832E+04  0.7818609E-02  0.8654442E-01
       -2   -1    0    0    0  501  0.00000000000E+00  0.00000000000E+00  0.68503818866E+03  0.68503818866E+03  0.25500000920E-02 0. -1.
        2   -1    0    0  501    0  0.00000000000E+00  0.00000000000E+00 -0.13185992879E+04  0.13185992879E+04  0.25500000920E-02 0.  1.
    10030    2    1    2    0    0  0.00000000000E+00  0.00000000000E+00 -0.63356109922E+03  0.20036374765E+04  0.19008323101E+04 0.  0.
        4    1    3    3  502    0 -0.27669860327E+03  0.86478215234E+03 -0.20736765084E+02  0.90820807879E+03  0.12699999809E+01 0.  1.
       -4    1    3    3    0  502  0.27669860327E+03 -0.86478215234E+03 -0.61282433414E+03  0.10954293978E+04  0.12699999809E+01 0. -1.
</event>
<event>
 5   0  0.4829134E-04  0.1872536E+04  0.7818609E-02  0.8668649E-01
       -2   -1    0    0    0  501  0.00000000000E+00  0.00000000000E+00  0.44842388981E+03  0.44842388982E+03  0.25500000920E-02 0.  1.
        2   -1    0    0  501    0  0.00000000000E+00  0.00000000000E+00 -0.19548426389E+04  0.19548426389E+04  0.25500000920E-02 0. -1.
    10030    2    1    2    0    0  0.00000000000E+00  0.00000000000E+00 -0.15064187491E+04  0.24032665288E+04  0.18725363976E+04 0.  0.
        2    1    3    3  502    0  0.80947036572E+03  0.84487754121E+02 -0.15919174797E+03  0.82929033890E+03  0.25500000920E-02 0. -1.
       -2    1    3    3    0  502 -0.80947036572E+03 -0.84487754121E+02 -0.13472270012E+04  0.15739761898E+04  0.25500000920E-02 0.  1.
</event>
<event>
 5   0  0.2261755E-04  0.1636730E+04  0.7818609E-02  0.8798296E-01
        1   -1    0    0  501    0  0.00000000000E+00  0.00000000000E+00  0.10165124426E+04  0.10165124426E+04  0.50400001928E-02 0. -1.
       -1   -1    0    0    0  501  0.00000000000E+00  0.00000000000E+00 -0.65884243986E+03  0.65884243988E+03  0.50400001928E-02 0.  1.
    10030    2    1    2    0    0  0.00000000000E+00  0.00000000000E+00  0.35767000274E+03  0.16753548825E+04  0.16367303234E+04 0.  0.
        1    1    3    3  502    0  0.58795343748E+03 -0.58138408560E+02  0.75845960471E+03  0.96142097501E+03  0.50400001928E-02 0. -1.
       -1    1    3    3    0  502 -0.58795343748E+03  0.58138408560E+02 -0.40078960196E+03  0.71393390749E+03  0.50400001928E-02 0.  1.
</event>
<event>
 5   0  0.1729375E-04  0.1923703E+04  0.7818609E-02  0.8643147E-01
        3   -1    0    0  501    0  0.00000000000E+00  0.00000000000E+00  0.83837511922E+03  0.83837512530E+03  0.10100000352E+00 0. -1.
       -3   -1    0    0    0  501  0.00000000000E+00  0.00000000000E+00 -0.11035131907E+04  0.11035131953E+04  0.10100000352E+00 0.  1.
    10030    2    1    2    0    0  0.00000000000E+00  0.00000000000E+00 -0.26513807150E+03  0.19418883206E+04  0.19237026935E+04 0.  0.
        3    1    3    3  502    0  0.83686596247E+03 -0.40624676209E+03  0.11423548360E+03  0.93724640664E+03  0.10100000352E+00 0. -1.
       -3    1    3    3    0  502 -0.83686596247E+03  0.40624676209E+03 -0.37937355510E+03  0.10046419140E+04  0.10100000352E+00 0.  1.
</event>
<event>
 5   0  0.2261755E-04  0.1023425E+04  0.7818609E-02  0.9283220E-01
        1   -1    0    0  501    0  0.00000000000E+00  0.00000000000E+00  0.72305495046E+03  0.72305495048E+03  0.50400001928E-02 0. -1.
       -1   -1    0    0    0  501  0.00000000000E+00  0.00000000000E+00 -0.36214326735E+03  0.36214326739E+03  0.50400001928E-02 0.  1.
    10030    2    1    2    0    0  0.00000000000E+00  0.00000000000E+00  0.36091168311E+03  0.10851982179E+04  0.10234246084E+04 0.  0.
        1    1    3    3  502    0  0.28410125915E+03 -0.26493169327E+03  0.53364820176E+03  0.66006267189E+03  0.50400001928E-02 0. -1.
       -1    1    3    3    0  502 -0.28410125915E+03  0.26493169327E+03 -0.17273651866E+03  0.42513554598E+03  0.50400001928E-02 0.  1.
</event>
<event>
 5   0  0.4839293E-04  0.1890071E+04  0.7818609E-02  0.8659814E-01
       -2   -1    0    0    0  501  0.00000000000E+00  0.00000000000E+00  0.89785003354E+03  0.89785003355E+03  0.25500000920E-02 0.  1.
        2   -1    0    0  501    0  0.00000000000E+00  0.00000000000E+00 -0.99470098115E+03  0.99470098115E+03  0.25500000920E-02 0. -1.
    10030    2    1    2    0    0  0.00000000000E+00  0.00000000000E+00 -0.96850947603E+02  0.18925510147E+04  0.18900712254E+04 0.  0.
        5    1    3    3  502    0 -0.73652560369E+03 -0.29419836187E+03  0.46610430967E+03  0.91994454099E+03  0.46999998093E+01 0.  1.
       -5    1    3    3    0  502  0.73652560369E+03  0.29419836187E+03 -0.56295525727E+03  0.97260647371E+03  0.46999998093E+01 0. -1.
</event>
<event>
 5   0  0.4802635E-04  0.1921585E+04  0.7818609E-02  0.8644186E-01
        2   -1    0    0  501    0  0.00000000000E+00  0.00000000000E+00  0.12167471675E+04  0.12167471675E+04  0.25500000920E-02 0. -1.
       -2   -1    0    0    0  501  0.00000000000E+00  0.00000000000E+00 -0.75868009031E+03  0.75868009032E+03  0.25500000920E-02 0.  1.
    10030    2    1    2    0    0  0.00000000000E+00  0.00000000000E+00  0.45806707716E+03  0.19754272578E+04  0.19215846075E+04 0.  0.
        3    1    3    3  502    0  0.42849041668E+03  0.81825990911E+03  0.50096088778E+03  0.10507688315E+04  0.10100000352E+00 0.  1.
       -3    1    3    3    0  502 -0.42849041668E+03 -0.81825990911E+03 -0.42893810626E+02  0.92465842625E+03  0.10100000352E+00 0. -1.
</event>
<event>
 5   0  0.4839293E-04  0.1900719E+04  0.7818609E-02  0.8654498E-01
        2   -1    0    0  501    0  0.00000000000E+00  0.00000000000E+00  0.18504279536E+04  0.18504279536E+04  0.25500000920E-02 0.  1.
       -2   -1    0    0    0  501  0.00000000000E+00  0.00000000000E+00 -0.48809445526E+03  0.48809445526E+03  0.25500000920E-02 0. -1.
    10030    2    1    2    0    0  0.00000000000E+00  0.00000000000E+00  0.13623334983E+04  0.23385224089E+04  0.19007194680E+04 0.  0.
        5    1    3    3  502    0  0.14989528188E+02  0.13600771852E+03 -0.47589728313E+03  0.49520006012E+03  0.46999998093E+01 0. -1.
       -5    1    3    3    0  502 -0.14989528188E+02 -0.13600771852E+03  0.18382307815E+04  0.18433223487E+04  0.46999998093E+01 0.  1.
</event>
<event>
 5   0  0.2376359E-04  0.1952885E+04  0.7818609E-02  0.8628971E-01
       -1   -1    0    0    0  501  0.00000000000E+00  0.00000000000E+00  0.85408719066E+03  0.85408719067E+03  0.50400001928E-02 0. -1.
        1   -1    0    0  501    0  0.00000000000E+00  0.00000000000E+00 -0.11163259871E+04  0.11163259871E+04  0.50400001928E-02 0.  1.
    10030    2    1    2    0    0  0.00000000000E+00  0.00000000000E+00 -0.26223879645E+03  0.19704131778E+04  0.19528847649E+04 0.  0.
        2    1    3    3  502    0 -0.72509902433E+03 -0.22923823349E+03 -0.74908792013E+03  0.10674509239E+04  0.25500000920E-02 0.  1.
       -2    1    3    3    0  502  0.72509902433E+03  0.22923823349E+03  0.48684912368E+03  0.90296225392E+03  0.25500000920E-02 0. -1.
</event>
<event>
 5   0  0.4761944E-04  0.1890773E+04  0.7818609E-02  0.8659463E-01
       -2   -1    0    0    0  501  0.00000000000E+00  0.00000000000E+00  0.19311438693E+04  0.19311438693E+04  0.25500000920E-02 0.  1.
        2   -1    0    0  501    0  0.00000000000E+00  0.00000000000E+00 -0.46281140498E+03  0.46281140498E+03  0.25500000920E-02 0. -1.
    10030    2    1    2    0    0  0.00000000000E+00  0.00000000000E+00  0.14683324643E+04  0.23939552742E+04  0.18907727599E+04 0.  0.
        4    1    3    3  502    0 -0.22796193638E+03 -0.53013256867E+03 -0.21394659818E+03  0.61545263390E+03  0.12699999809E+01 0. -1.
       -4    1    3    3    0  502  0.22796193638E+03  0.53013256867E+03  0.16822790625E+04  0.17785026403E+04  0.12699999809E+01 0.  1.
</event>
<event>
 5   0  0.2317458E-04  0.1889934E+04  0.7818609E-02  0.8659883E-01
        1   -1    0    0  501    0  0.00000000000E+00  0.00000000000E+00  0.17743787370E+04  0.17743787370E+04  0.50400001928E-02 0.  1.
       -1   -1    0    0    0  501  0.00000000000E+00  0.00000000000E+00 -0.50325352150E+03  0.50325352153E+03  0.50400001928E-02 0. -1.
    10030    2    1    2    0    0  0.00000000000E+00  0.00000000000E+00  0.12711252155E+04  0.22776322585E+04  0.18899337003E+04 0.  0.
        3    1    3    3  502    0 -0.29085483871E+03 -0.86536999934E+03  0.34159628498E+03  0.97475627984E+03  0.10100000352E+00 0. -1.
       -3    1    3    3    0  502  0.29085483871E+03  0.86536999934E+03  0.92952893050E+03  0.13028759787E+04  0.10100000352E+00 0.  1.
</event>
<event>
 5   0  0.4802635E-04  0.1889300E+04  0.7818609E-02  0.8660201E-01
        2   -1    0    0  501    0  0.00000000000E+00  0.00000000000E+00  0.11823624244E+04  0.11823624244E+04  0.25500000920E-02 0.  1.
       -2   -1    0    0    0  501  0.00000000000E+00  0.00000000000E+00 -0.75472960114E+03  0.75472960115E+03  0.25500000920E-02 0. -1.
    10030    2    1    2    0    0  0.00000000000E+00  0.00000000000E+00  0.42763282321E+03  0.19370920255E+04  0.18893003159E+04 0.  0.
        3    1    3    3  502    0  0.21769427081E+03  0.27104830382E+03  0.11143893466E+04  0.11673566741E+04  0.10100000352E+00 0.  1.
       -3    1    3    3    0  502 -0.21769427081E+03 -0.27104830382E+03 -0.68675652340E+03  0.76973535139E+03  0.10100000352E+00 0. -1.
</event>
<event>
 5   0  0.2261755E-04  0.1923783E+04  0.7818609E-02  0.8643108E-01
        1   -1    0    0  501    0  0.00000000000E+00  0.00000000000E+00  0.36337800378E+03  0.36337800381E+03  0.50400001928E-02 0. -1.
       -1   -1    0    0    0  501  0.00000000000E+00  0.00000000000E+00 -0.25462061348E+04  0.25462061348E+04  0.50400001928E-02 0.  1.
    10030    2    1    2    0    0  0.00000000000E+00  0.00000000000E+00 -0.21828281310E+04  0.29095841386E+04  0.19237830465E+04 0.  0.
        1    1    3    3  502    0 -0.81179512703E+03  0.41684190890E+03 -0.15513186459E+04  0.17998216708E+04  0.50400001928E-02 0.  1.
       -1    1    3    3    0  502  0.81179512703E+03 -0.41684190890E+03 -0.63150948507E+03  0.11097624678E+04  0.50400001928E-02 0. -1.
</event>
<event>
 5   0  0.4839293E-04  0.1838043E+04  0.7818609E-02  0.8686326E-01
       -2   -1    0    0    0  501  0.00000000000E+00  0.00000000000E+00  0.64789537195E+03  0.64789537196E+03  0.25500000920E-02 0.  1.
        2   -1    0    0  501    0  0.00000000000E+00  0.00000000000E+00 -0.13036062448E+04  0.13036062448E+04  0.25500000920E-02 0. -1.
    10030    2    1    2    0    0  0.00000000000E+00  0.00000000000E+00 -0.65571087283E+03  0.19515016167E+04  0.18380429297E+04 0.  0.
        5    1    3    3  502    0 -0.12147873116E+03 -0.87781821752E+03 -0.58630815689E+03  0.10625917607E+04  0.46999998093E+01 0. -1.
       -5    1    3    3    0  502  0.12147873116E+03  0.87781821752E+03 -0.69402715943E+02  0.88890985601E+03  0.46999998093E+01 0.  1.
</event>
<event>
 5   0  0.1729375E-04  0.1955802E+04  0.7818609E-02  0.8627568E-01
        3   -1    0    0  501    0  0.00000000000E+00  0.00000000000E+00  0.11527062129E+04  0.11527062173E+04  0.10100000352E+00 0. -1.
       -3   -1    0    0    0  501  0.00000000000E+00  0.00000000000E+00 -0.82960468636E+03  0.82960469251E+03  0.10100000352E+00 0.  1.
    10030    2    1    2    0    0  0.00000000000E+00  0.00000000000E+00  0.32310152654E+03  0.19823109098E+04  0.19558021236E+04 0.  0.
        5    1    3    3  502    0 -0.51488839708E+03 -0.61178094375E+03  0.73210367417E+03  0.10841512184E+04  0.46999998093E+01 0. -1.
       -5    1    3    3    0  502  0.51488839708E+03  0.61178094375E+03 -0.40900214763E+03  0.89815969145E+03  0.46999998093E+01 0.  1.
</event>
<event>
 5   0  0.2510069E-04  0.1894079E+04  0.7818609E-02  0.8657809E-01
       -1   -1    0    0    0  501  0.00000000000E+00  0.00000000000E+00  0.56182686834E+03  0.56182686837E+03  0.50400001928E-02 0.  1.
        1   -1    0    0  501    0  0.00000000000E+00  0.00000000000E+00 -0.15963709515E+04  0.15963709515E+04  0.50400001928E-02 0. -1.
    10030    2    1    2    0    0  0.00000000000E+00  0.00000000000E+00 -0.10345440832E+04  0.21581978199E+04  0.18940792934E+04 0.  0.
        4    1    3    3  502    0  0.43961337097E+03 -0.44048279572E+03  0.29613274723E+03  0.68918881749E+03  0.12699999809E+01 0.  1.
       -4    1    3    3    0  502 -0.43961337097E+03  0.44048279572E+03 -0.13306768304E+04  0.14690090024E+04  0.12699999809E+01 0. -1.
</event>
<event>
 5   0  0.4829134E-04  0.1922360E+04  0.7818609E-02  0.8643806E-01
        2   -1    0    0  501    0  0.00000000000E+00  0.00000000000E+00  0.17572567339E+04  0.17572567339E+04  0.25500000920E-02 0. -1.
       -2   -1    0    0    0  501  0.00000000000E+00  0.00000000000E+00 -0.52574370906E+03  0.52574370906E+03  0.25500000920E-02 0.  1.
    10030    2    1    2    0    0  0.00000000000E+00  0.00000000000E+00  0.12315130249E+04  0.22830004430E+04  0.19223596678E+04 0.  0.
        2    1    3    3  502    0 -0.77874983607E+03 -0.12935068173E+03 -0.35461404674E+02  0.79021542460E+03  0.25500000920E-02 0.  1.
       -2    1    3    3    0  502  0.77874983607E+03  0.12935068173E+03  0.12669744296E+04  0.14927850184E+04  0.25500000920E-02 0. -1.
</event>
<event>
 5   0  0.4802635E-04  0.2033871E+04  0.7818609E-02  0.8590947E-01
        2   -1    0    0  501    0  0.00000000000E+00  0.00000000000E+00  0.15431348138E+04  0.15431348138E+04  0.25500000920E-02 0.  1.
       -2   -1    0    0    0  501  0.00000000000E+00  0.00000000000E+00 -0.67016685212E+03  0.67016685212E+03  0.25500000920E-02 0. -1.
    10030    2    1    2    0    0  0.00000000000E+00  0.00000000000E+00  0.87296796169E+03  0.22133016659E+04  0.20338709896E+04 0.  0.
        3    1    3    3  502    0 -0.95735121317E+03 -0.33569307318E+03  0.51302087825E+03  0.11368384302E+04  0.10100000352E+00 0. -1.
       -3    1    3    3    0  502  0.95735121317E+03  0.33569307318E+03  0.35994708344E+03  0.10764632357E+04  0.10100000352E+00 0.  1.
</event>
<event>
 5   0  0.2355414E-04  0.1709682E+04  0.7818609E-02  0.8755862E-01
        1   -1    0    0  501    0  0.00000000000E+00  0.00000000000E+00  0.10651160426E+04  0.10651160426E+04  0.50400001928E-02 0.  1.
       -1   -1    0    0    0  501  0.00000000000E+00  0.00000000000E+00 -0.68607835659E+03  0.68607835661E+03  0.50400001928E-02 0. -1.
    10030    2    1    2    0    0  0.00000000000E+00  0.00000000000E+00  0.37903768600E+03  0.17511943992E+04  0.17096819167E+04 0.  0.
        5    1    3    3  502    0 -0.30318394158E+03 -0.14073157635E+03  0.99539100401E+03  0.10500243901E+04  0.46999998093E+01 0.  1.
       -5    1    3    3    0  502  0.30318394158E+03  0.14073157635E+03 -0.61635331801E+03  0.70117000908E+03  0.46999998093E+01 0. -1.
</event>
<event>
 5   0  0.1729375E-04  0.1001312E+04  0.7818609E-02  0.9307107E-01
        4   -1    0    0  501    0  0.00000000000E+00  0.00000000000E+00  0.60370048092E+03  0.60370181676E+03  0.12699999809E+01 0. -1.
       -4   -1    0    0    0  501  0.00000000000E+00  0.00000000000E+00 -0.41519749328E+03  0.41519943560E+03  0.12699999809E+01 0.  1.
    10030    2    1    2    0    0  0.00000000000E+00  0.00000000000E+00  0.18850298764E+03  0.10189012524E+04  0.10013123317E+04 0.  0.
        5    1    3    3  502    0 -0.26485699047E+03  0.90020645653E+02  0.51673323086E+03  0.58761234153E+03  0.46999998093E+01 0. -1.
       -5    1    3    3    0  502  0.26485699047E+03 -0.90020645653E+02 -0.32823024322E+03  0.43128891083E+03  0.46999998093E+01 0.  1.
</event>
<event>
 5   0  0.4761944E-04  0.1937970E+04  0.7818609E-02  0.8636184E-01
       -2   -1    0    0    0  501  0.00000000000E+00  0.00000000000E+00  0.68304391383E+03  0.68304391383E+03  0.25500000920E-02 0.  1.
        2   -1    0    0  501    0  0.00000000000E+00  0.00000000000E+00 -0.13746284412E+04  0.13746284412E+04  0.25500000920E-02 0. -1.
    10030    2    1    2    0    0  0.00000000000E+00  0.00000000000E+00 -0.69158452742E+03  0.20576723551E+04  0.19379696495E+04 0.  0.
        4    1    3    3  502    0 -0.40211865165E+02 -0.19096522225E+03  0.66196132232E+03  0.69012978153E+03  0.12699999809E+01 0.  1.
       -4    1    3    3    0  502  0.40211865165E+02  0.19096522225E+03 -0.13535458497E+04  0.13675425735E+04  0.12699999809E+01 0. -1.
</event>
<event>
 5   0  0.4829134E-04  0.1824825E+04  0.7818609E-02  0.8693208E-01
       -2   -1    0    0    0  501  0.00000000000E+00  0.00000000000E+00  0.59945411076E+03  0.59945411077E+03  0.25500000920E-02 0.  1.
        2   -1    0    0  501    0  0.00000000000E+00  0.00000000000E+00 -0.13887574660E+04  0.13887574660E+04  0.25500000920E-02 0. -1.
    10030    2    1    2    0    0  0.00000000000E+00  0.00000000000E+00 -0.78930335522E+03  0.19882115768E+04  0.18248247827E+04 0.  0.
        2    1    3    3  502    0  0.21424008083E+03 -0.38886932496E+03 -0.12631272058E+04  0.13388833042E+04  0.25500000920E-02 0. -1.
       -2    1    3    3    0  502 -0.21424008083E+03  0.38886932496E+03  0.47382385062E+03  0.64932827256E+03  0.25500000920E-02 0.  1.
</event>
<event>
 5   0  0.2376359E-04  0.1892373E+04  0.7818609E-02  0.8658662E-01
       -1   -1    0    0    0  501  0.00000000000E+00  0.00000000000E+00  0.36755768295E+03  0.36755768298E+03  0.50400001928E-02 0.  1.
        1   -1    0    0  501    0  0.00000000000E+00  0.00000000000E+00 -0.24357227672E+04  0.24357227672E+04  0.50400001928E-02 0. -1.
    10030    2    1    2    0    0  0.00000000000E+00  0.00000000000E+00 -0.20681650842E+04  0.28032804502E+04  0.18923727082E+04 0.  0.
        2    1    3    3  502    0  0.40460797746E+03 -0.61819316952E+03 -0.19097116860E+04  0.20476496609E+04  0.25500000920E-02 0. -1.
       -2    1    3    3    0  502 -0.40460797746E+03  0.61819316952E+03 -0.15845339827E+03  0.75563078927E+03  0.25500000920E-02 0.  1.
</event>
<event>
 5   0  0.4761944E-04  0.1910341E+04  0.7818609E-02  0.8649726E-01
       -2   -1    0    0    0  501  0.00000000000E+00  0.00000000000E+00  0.10076376637E+04  0.10076376637E+04  0.25500000920E-02 0.  1.
        2   -1    0    0  501    0  0.00000000000E+00  0.00000000000E+00 -0.90543554875E+03  0.90543554875E+03  0.25500000920E-02 0. -1.
    10030    2    1    2    0    0  0.00000000000E+00  0.00000000000E+00  0.10220211495E+03  0.19130732124E+04  0.19103412899E+04 0.  0.
        4    1    3    3  502    0 -0.13400540319E+03  0.63195305359E+03 -0.65348683487E+03  0.91889540551E+03  0.12699999809E+01 0. -1.
       -4    1    3    3    0  502  0.13400540319E+03 -0.63195305359E+03  0.75568894982E+03  0.99417780694E+03  0.12699999809E+01 0.  1.
</event>
<event>
 5   0  0.4839293E-04  0.1905293E+04  0.7818609E-02  0.8652226E-01
       -2   -1    0    0    0  501  0.00000000000E+00  0.00000000000E+00  0.54970095862E+03  0.54970095863E+03  0.25500000920E-02 0.  1.
        2   -1    0    0  501    0  0.00000000000E+00  0.00000000000E+00 -0.16509627809E+04  0.16509627809E+04  0.25500000920E-02 0. -1.
    10030    2    1    2    0    0  0.00000000000E+00  0.00000000000E+00 -0.11012618223E+04  0.22006637395E+04  0.19052934927E+04 0.  0.
        5    1    3    3  502    0 -0.19408138056E+03  0.50683150651E+03  0.35366526827E+03  0.64780164421E+03  0.46999998093E+01 0.  1.
       -5    1    3    3    0  502  0.19408138056E+03 -0.50683150651E+03 -0.14549270906E+04  0.15528620953E+04  0.46999998093E+01 0. -1.
</event>
<event>
 5   0  0.4761944E-04  0.1841325E+04  0.7818609E-02  0.8684627E-01
        2   -1    0    0  501    0  0.00000000000E+00  0.00000000000E+00  0.12609562948E+04  0.12609562948E+04  0.25500000920E-02 0.  1.
       -2   -1    0    0    0  501  0.00000000000E+00  0.00000000000E+00 -0.67220338133E+03  0.67220338134E+03  0.25500000920E-02 0. -1.
    10030    2    1    2    0    0  0.00000000000E+00  0.00000000000E+00  0.58875291344E+03  0.19331596761E+04  0.18413246157E+04 0.  0.
        4    1    3    3  502    0  0.39363398808E+03  0.70996971475E+03  0.75033242345E+03  0.11054433821E+04  0.12699999809E+01 0.  1.
       -4    1    3    3    0  502 -0.39363398808E+03 -0.70996971475E+03 -0.16157951001E+03  0.82771629402E+03  0.12699999809E+01 0. -1.
</event>
<event>
 5   0  0.4829134E-04  0.1871911E+04  0.7818609E-02  0.8668966E-01
        2   -1    0    0  501    0  0.00000000000E+00  0.00000000000E+00  0.10562210161E+04  0.10562210161E+04  0.25500000920E-02 0. -1.
       -2   -1    0    0    0  501  0.00000000000E+00  0.00000000000E+00 -0.82938355908E+03  0.82938355908E+03  0.25500000920E-02 0.  1.
    10030    2    1    2    0    0  0.00000000000E+00  0.00000000000E+00  0.22683745705E+03  0.18856045752E+04  0.18719106234E+04 0.  0.
        2    1    3    3  502    0  0.57165796093E+03  0.41442459380E+03 -0.50546313712E+03  0.86835105299E+03  0.25500000920E-02 0.  1.
       -2    1    3    3    0  502 -0.57165796093E+03 -0.41442459380E+03  0.73230059418E+03  0.10172535222E+04  0.25500000920E-02 0. -1.
</event>
<event>
 5   0  0.1729375E-04  0.1898295E+04  0.7818609E-02  0.8655706E-01
       -4   -1    0    0    0  501  0.00000000000E+00  0.00000000000E+00  0.75028961828E+03  0.75029069313E+03  0.12699999809E+01 0.  1.
        4   -1    0    0  501    0  0.00000000000E+00  0.00000000000E+00 -0.12007081717E+04  0.12007088433E+04  0.12699999809E+01 0. -1.
    10030    2    1    2    0    0  0.00000000000E+00  0.00000000000E+00 -0.45041855341E+03  0.19509995365E+04  0.18982945815E+04 0.  0.
        4    1    3    3  502    0 -0.59633356145E+03 -0.65666187528E+03  0.12189587822E+03  0.89536515064E+03  0.12699999809E+01 0.  1.
       -4    1    3    3    0  502  0.59633356145E+03  0.65666187528E+03 -0.57231443163E+03  0.10556343858E+04  0.12699999809E+01 0. -1.
</event>
<event>
 5   0  0.2261755E-04  0.1914299E+04  0.7818609E-02  0.8647772E-01
        1   -1    0    0  501    0  0.00000000000E+00  0.00000000000E+00  0.66330349212E+03  0.66330349213E+03  0.50400001928E-02 0. -1.
       -1   -1    0    0    0  501  0.00000000000E+00  0.00000000000E+00 -0.13811701639E+04  0.13811701640E+04  0.50400001928E-02 0.  1.
    10030    2    1    2    0    0  0.00000000000E+00  0.00000000000E+00 -0.71786667183E+03  0.20444736561E+04  0.19142988199E+04 0.  0.
        1    1    3    3  502    0  0.29960229312E+03 -0.83517275311E+03  0.24447795837E+02  0.88762196702E+03  0.50400001928E-02 0.  1.
       -1    1    3    3    0  502 -0.29960229312E+03  0.83517275311E+03 -0.74231446767E+03  0.11568516891E+04  0.50400001928E-02 0. -1.
</event>
<event>
 5   0  0.4802635E-04  0.1861444E+04  0.7818609E-02  0.8674290E-01
       -2   -1    0    0    0  501  0.00000000000E+00  0.00000000000E+00  0.65121353623E+03  0.65121353623E+03  0.25500000920E-02 0.  1.
        2   -1    0    0  501    0  0.00000000000E+00  0.00000000000E+00 -0.13301983451E+04  0.13301983451E+04  0.25500000920E-02 0. -1.
    10030    2    1    2    0    0  0.00000000000E+00  0.00000000000E+00 -0.67898480886E+03  0.19814118813E+04  0.18614437066E+04 0.  0.
        3    1    3    3  502    0  0.33557012056E+03 -0.36676451251E+03 -0.11770451143E+04  0.12777162145E+04  0.10100000352E+00 0. -1.
       -3    1    3    3    0  502 -0.33557012056E+03  0.36676451251E+03  0.49806030545E+03  0.70369566683E+03  0.10100000352E+00 0.  1.
</event>
<event>
 5   0  0.2261755E-04  0.1927913E+04  0.7818609E-02  0.8641086E-01
        1   -1    0    0  501    0  0.00000000000E+00  0.00000000000E+00  0.12995104467E+04  0.12995104467E+04  0.50400001928E-02 0. -1.
       -1   -1    0    0    0  501  0.00000000000E+00  0.00000000000E+00 -0.71504805472E+03  0.71504805473E+03  0.50400001928E-02 0.  1.
    10030    2    1    2    0    0  0.00000000000E+00  0.00000000000E+00  0.58446239202E+03  0.20145585015E+04  0.19279132937E+04 0.  0.
        1    1    3    3  502    0  0.91860725714E+03  0.40980668200E+02 -0.10069253410E+02  0.91957604249E+03  0.50400001928E-02 0.  1.
       -1    1    3    3    0  502 -0.91860725714E+03 -0.40980668200E+02  0.59453164543E+03  0.10949824590E+04  0.50400001928E-02 0. -1.
</event>
<event>
 5   0  0.4829134E-04  0.2019810E+04  0.7818609E-02  0.8597414E-01
        2   -1    0    0  501    0  0.00000000000E+00  0.00000000000E+00  0.16272296721E+04  0.16272296721E+04  0.25500000920E-02 0. -1.
       -2   -1    0    0    0  501  0.00000000000E+00  0.00000000000E+00 -0.62677596531E+03  0.62677596532E+03  0.25500000920E-02 0.  1.
    10030    2    1    2    0    0  0.00000000000E+00  0.00000000000E+00  0.10004537068E+04  0.22540056374E+04  0.20198103362E+04 0.  0.
        2    1    3    3  502    0  0.22565084548E+03 -0.97077594276E+03  0.68217863611E+03  0.12077631915E+04  0.25500000920E-02 0. -1.
       -2    1    3    3    0  502 -0.22565084548E+03  0.97077594276E+03  0.31827507070E+03  0.10462424460E+04  0.25500000920E-02 0.  1.
</event>
<event>
 5   0  0.4839293E-04  0.1897384E+04  0.7818609E-02  0.8656160E-01
       -2   -1    0    0    0  501  0.00000000000E+00  0.00000000000E+00  0.78843756689E+03  0.78843756689E+03  0.25500000920E-02 0.  1.
        2   -1    0    0  501    0  0.00000000000E+00  0.00000000000E+00 -0.11415193507E+04  0.11415193507E+04  0.25500000920E-02 0. -1.
    10030    2    1    2    0    0  0.00000000000E+00  0.00000000000E+00 -0.35308178381E+03  0.19299569176E+04  0.18973842409E+04 0.  0.
        5    1    3    3  502    0  0.64578124941E+03  0.95923962783E+02 -0.87665920558E+03  0.10930637134E+04  0.46999998093E+01 0. -1.
       -5    1    3    3    0  502 -0.64578124941E+03 -0.95923962783E+02  0.52357742177E+03  0.83689320425E+03  0.46999998093E+01 0.  1.
</event>
<event>
 5   0  0.2317458E-04  0.1959370E+04  0.7818609E-02  0.8625856E-01
        1   -1    0    0  501    0  0.00000000000E+00  0.00000000000E+00  0.97571056030E+03  0.97571056031E+03  0.50400001928E-02 0.  1.
       -1   -1    0    0    0  501  0.00000000000E+00  0.00000000000E+00 -0.98367555825E+03  0.98367555827E+03  0.50400001928E-02 0. -1.
    10030    2    1    2    0    0  0.00000000000E+00  0.00000000000E+00 -0.79649979531E+01  0.19593861186E+04  0.19593699295E+04 0.  0.
        3    1    3    3  502    0  0.62073374428E+03 -0.50572330713E+03 -0.56853669656E+03  0.98198799901E+03  0.10100000352E+00 0. -1.
       -3    1    3    3    0  502 -0.62073374428E+03  0.50572330713E+03  0.56057169861E+03  0.97739811957E+03  0.10100000352E+00 0.  1.
</event>
<event>
 5   0  0.2261755E-04  0.2040854E+04  0.7818609E-02  0.8587755E-01
        1   -1    0    0  501    0  0.00000000000E+00  0.00000000000E+00  0.12981495376E+04  0.12981495376E+04  0.50400001928E-02 0.  1.
       -1   -1    0    0    0  501  0.00000000000E+00  0.00000000000E+00 -0.80211978881E+03  0.80211978882E+03  0.50400001928E-02 0. -1.
    10030    2    1    2    0    0  0.00000000000E+00  0.00000000000E+00  0.49602974880E+03  0.21002693264E+04  0.20408541672E+04 0.  0.
        1    1    3    3  502    0  0.22767951056E+03 -0.99076046166E+03  0.15696786058E+03  0.10286316937E+04  0.50400001928E-02 0. -1.
       -1    1    3    3    0  502 -0.22767951056E+03  0.99076046166E+03  0.33906188821E+03  0.10716376328E+04  0.50400001928E-02 0.  1.
</event>
<event>
 5   0  0.2355414E-04  0.1886014E+04  0.7818609E-02  0.8661849E-01
       -1   -1    0    0    0  501  0.00000000000E+00  0.00000000000E+00  0.61255797287E+03  0.61255797289E+03  0.50400001928E-02 0.  1.
        1   -1    0    0  501    0  0.00000000000E+00  0.00000000000E+00 -0.14517199997E+04  0.14517199997E+04  0.50400001928E-02 0. -1.
    10030    2    1    2    0    0  0.00000000000E+00  0.00000000000E+00 -0.83916202687E+03  0.20642779726E+04  0.18860144859E+04 0.  0.
        5    1    3    3  502    0  0.17163848944E+03 -0.72263621730E+03  0.21635003167E+03  0.77362284080E+03  0.46999998093E+01 0.  1.
       -5    1    3    3    0  502 -0.17163848944E+03  0.72263621730E+03 -0.10555120585E+04  0.12906551318E+04  0.46999998093E+01 0. -1.
</event>
<event>
 5   0  0.1729375E-04  0.1903089E+04  0.7818609E-02  0.8653320E-01
        3   -1    0    0  501    0  0.00000000000E+00  0.00000000000E+00  0.68585184762E+03  0.68585185506E+03  0.10100000352E+00 0. -1.
       -3   -1    0    0    0  501  0.00000000000E+00  0.00000000000E+00 -0.13201638657E+04  0.13201638696E+04  0.10100000352E+00 0.  1.
    10030    2    1    2    0    0  0.00000000000E+00  0.00000000000E+00 -0.63431201811E+03  0.20060157246E+04  0.19030888974E+04 0.  0.
        5    1    3    3  502    0 -0.45477784589E+02 -0.94241352544E+03 -0.44712618424E+03  0.10441050696E+04  0.46999998093E+01 0. -1.
       -5    1    3    3    0  502  0.45477784589E+02  0.94241352544E+03 -0.18718583387E+03  0.96191065501E+03  0.46999998093E+01 0.  1.
</event>
<event>
 5   0  0.1729375E-04  0.1380717E+04  0.7818609E-02  0.8967896E-01
       -3   -1    0    0    0  501  0.00000000000E+00  0.00000000000E+00  0.28052428302E+03  0.28052430120E+03  0.10100000352E+00 0. -1.
        3   -1    0    0  501    0  0.00000000000E+00  0.00000000000E+00 -0.16989441740E+04  0.16989441770E+04  0.10100000352E+00 0.  1.
    10030    2    1    2    0    0  0.00000000000E+00  0.00000000000E+00 -0.14184198910E+04  0.19794684782E+04  0.13807173748E+04 0.  0.
        1    1    3    3  502    0  0.30600758038E+03  0.25084865571E+03 -0.15202433820E+04  0.15708932579E+04  0.50400001928E-02 0.  1.
       -1    1    3    3    0  502 -0.30600758038E+03 -0.25084865571E+03  0.10182349096E+03  0.40857522032E+03  0.50400001928E-02 0. -1.
</event>
<event>
 5   0  0.2317458E-04  0.1922430E+04  0.7818609E-02  0.8643772E-01
       -1   -1    0    0    0  501  0.00000000000E+00  0.00000000000E+00  0.72140347120E+03  0.72140347121E+03  0.50400001928E-02 0.  1.
        1   -1    0    0  501    0  0.00000000000E+00  0.00000000000E+00 -0.12807449517E+04  0.12807449517E+04  0.50400001928E-02 0. -1.
    10030    2    1    2    0    0  0.00000000000E+00  0.00000000000E+00 -0.55934148050E+03  0.20021484229E+04  0.19224295606E+04 0.  0.
        3    1    3    3  502    0 -0.35362758863E+03 -0.34638029347E+03 -0.11377934554E+04  0.12408085011E+04  0.10100000352E+00 0. -1.
       -3    1    3    3    0  502  0.35362758863E+03  0.34638029347E+03  0.57845197485E+03  0.76133992182E+03  0.10100000352E+00 0.  1.
</event>
<event>
 5   0  0.4839293E-04  0.1923218E+04  0.7818609E-02  0.8643385E-01
       -2   -1    0    0    0  501  0.00000000000E+00  0.00000000000E+00  0.48275647580E+03  0.48275647581E+03  0.25500000920E-02 0.  1.
        2   -1    0    0  501    0  0.00000000000E+00  0.00000000000E+00 -0.19154406747E+04  0.19154406747E+04  0.25500000920E-02 0. -1.
    10030    2    1    2    0    0  0.00000000000E+00  0.00000000000E+00 -0.14326841989E+04  0.23981971505E+04  0.19232175017E+04 0.  0.
        5    1    3    3  502    0  0.16262111411E+03  0.17713451973E+03 -0.18773300546E+04  0.18926733708E+04  0.46999998093E+01 0. -1.
       -5    1    3    3    0  502 -0.16262111411E+03 -0.17713451973E+03  0.44464585569E+03  0.50552377967E+03  0.46999998093E+01 0.  1.
</event>
<event>
 5   0  0.1729375E-04  0.1892307E+04  0.7818609E-02  0.8658695E-01
       -3   -1    0    0    0  501  0.00000000000E+00  0.00000000000E+00  0.45932032341E+03  0.45932033451E+03  0.10100000352E+00 0. -1.
        3   -1    0    0  501    0  0.00000000000E+00  0.00000000000E+00 -0.19489810464E+04  0.19489810490E+04  0.10100000352E+00 0.  1.
    10030    2    1    2    0    0  0.00000000000E+00  0.00000000000E+00 -0.14896607230E+04  0.24083013836E+04  0.18923071855E+04 0.  0.
        1    1    3    3  502    0  0.11399633262E+03  0.48441707836E+03 -0.17689633861E+04  0.18376306840E+04  0.50400001928E-02 0.  1.
       -1    1    3    3    0  502 -0.11399633262E+03 -0.48441707836E+03  0.27930266306E+03  0.57067069951E+03  0.50400001928E-02 0. -1.
</event>
<event>
 5   0  0.4839293E-04  0.1370401E+04  0.7818609E-02  0.8975527E-01
        2   -1    0    0  501    0  0.00000000000E+00  0.00000000000E+00  0.51949991705E+03  0.51949991706E+03  0.25500000920E-02 0. -1.
       -2   -1    0    0    0  501  0.00000000000E+00  0.00000000000E+00 -0.90375362211E+03  0.90375362212E+03  0.25500000920E-02 0.  1.
    10030    2    1    2    0    0  0.00000000000E+00  0.00000000000E+00 -0.38425370506E+03  0.14232535392E+04  0.13704013014E+04 0.  0.
        5    1    3    3  502    0  0.59506812335E+03 -0.10879585739E+03 -0.52630541767E+03  0.80184917078E+03  0.46999998093E+01 0.  1.
       -5    1    3    3    0  502 -0.59506812335E+03  0.10879585739E+03  0.14205171260E+03  0.62140436840E+03  0.46999998093E+01 0. -1.
</event>
<event>
 5   0  0.2261755E-04  0.1908234E+04  0.7818609E-02  0.8650769E-01
        1   -1    0    0  501    0  0.00000000000E+00  0.00000000000E+00  0.18702535024E+04  0.18702535024E+04  0.50400001928E-02 0. -1.
       -1   -1    0    0    0  501  0.00000000000E+00  0.00000000000E+00 -0.48674626616E+03  0.48674626619E+03  0.50400001928E-02 0.  1.
    10030    2    1    2    0    0  0.00000000000E+00  0.00000000000E+00  0.13835072363E+04  0.23569997686E+04  0.19082336430E+04 0.  0.
        1    1    3    3  502    0 -0.38049477346E+03  0.41016569780E+03 -0.26287394300E+03  0.61815441616E+03  0.50400001928E-02 0.  1.
       -1    1    3    3    0  502  0.38049477346E+03 -0.41016569780E+03  0.16463811793E+04  0.17388453525E+04  0.50400001928E-02 0. -1.
</event>
<event>
 5   0  0.2355414E-04  0.1883340E+04  0.7818609E-02  0.8663194E-01
        1   -1    0    0  501    0  0.00000000000E+00  0.00000000000E+00  0.13432739913E+04  0.13432739913E+04  0.50400001928E-02 0. -1.
       -1   -1    0    0    0  501  0.00000000000E+00  0.00000000000E+00 -0.66013482467E+03  0.66013482469E+03  0.50400001928E-02 0.  1.
    10030    2    1    2    0    0  0.00000000000E+00  0.00000000000E+00  0.68313916659E+03  0.20034088160E+04  0.18833395241E+04 0.  0.
        5    1    3    3  502    0  0.56025824800E+03  0.40625277825E+02 -0.46237757883E+03  0.72756775152E+03  0.46999998093E+01 0.  1.
       -5    1    3    3    0  502 -0.56025824800E+03 -0.40625277825E+02  0.11455167454E+04  0.12758410644E+04  0.46999998093E+01 0. -1.
</event>
<event>
 5   0  0.4802635E-04  0.1903766E+04  0.7818609E-02  0.8652984E-01
        2   -1    0    0  501    0  0.00000000000E+00  0.00000000000E+00  0.25611950648E+04  0.25611950648E+04  0.25500000920E-02 0. -1.
       -2   -1    0    0    0  501  0.00000000000E+00  0.00000000000E+00 -0.35377269611E+03  0.35377269612E+03  0.25500000920E-02 0.  1.
    10030    2    1    2    0    0  0.00000000000E+00  0.00000000000E+00  0.22074223687E+04  0.29149677610E+04  0.19037656194E+04 0.  0.
        3    1    3    3  502    0 -0.83642714559E+03  0.39734716494E+03  0.14412118701E+04  0.17130635727E+04  0.10100000352E+00 0.  1.
       -3    1    3    3    0  502  0.83642714559E+03 -0.39734716494E+03  0.76621049864E+03  0.12019041883E+04  0.10100000352E+00 0. -1.
</event>
<event>
 5   0  0.4839293E-04  0.1863847E+04  0.7818609E-02  0.8673064E-01
        2   -1    0    0  501    0  0.00000000000E+00  0.00000000000E+00  0.45056131767E+03  0.45056131768E+03  0.25500000920E-02 0. -1.
       -2   -1    0    0    0  501  0.00000000000E+00  0.00000000000E+00 -0.19275546146E+04  0.19275546146E+04  0.25500000920E-02 0.  1.
    10030    2    1    2    0    0  0.00000000000E+00  0.00000000000E+00 -0.14769932970E+04  0.23781159323E+04  0.18638471472E+04 0.  0.
        5    1    3    3  502    0 -0.26185911035E+02 -0.42797177166E+03 -0.17942089719E+04  0.18447366923E+04  0.46999998093E+01 0.  1.
       -5    1    3    3    0  502  0.26185911035E+02  0.42797177166E+03  0.31721567489E+03  0.53337924001E+03  0.46999998093E+01 0. -1.
</event>
<event>
 5   0  0.1729375E-04  0.1896649E+04  0.7818609E-02  0.8656526E-01
        3   -1    0    0  501    0  0.00000000000E+00  0.00000000000E+00  0.13799001778E+04  0.13799001815E+04  0.10100000352E+00 0. -1.
       -3   -1    0    0    0  501  0.00000000000E+00  0.00000000000E+00 -0.65172792304E+03  0.65172793087E+03  0.10100000352E+00 0.  1.
    10030    2    1    2    0    0  0.00000000000E+00  0.00000000000E+00  0.72817225477E+03  0.20316281124E+04  0.18966491384E+04 0.  0.
        3    1    3    3  502    0  0.45681250895E+03  0.28765262825E+03  0.11992515255E+04  0.13151524377E+04  0.10100000352E+00 0. -1.
       -3    1    3    3    0  502 -0.45681250895E+03 -0.28765262825E+03 -0.47107927072E+03  0.71647567465E+03  0.10100000352E+00 0.  1.
</event>
<event>
 5   0  0.4761944E-04  0.1884533E+04  0.7818609E-02  0.8662594E-01
       -2   -1    0    0    0  501  0.00000000000E+00  0.00000000000E+00  0.90078431149E+03  0.90078431149E+03  0.25500000920E-02 0.  1.
        2   -1    0    0  501    0  0.00000000000E+00  0.00000000000E+00 -0.98565906092E+03  0.98565906092E+03  0.25500000920E-02 0. -1.
    10030    2    1    2    0    0  0.00000000000E+00  0.00000000000E+00 -0.84874749432E+02  0.18864433724E+04  0.18845330653E+04 0.  0.
        4    1    3    3  502    0 -0.77887790842E+02 -0.46014589570E+03 -0.86184142462E+03  0.98008826510E+03  0.12699999809E+01 0. -1.
       -4    1    3    3    0  502  0.77887790842E+02  0.46014589570E+03  0.77696667519E+03  0.90635510731E+03  0.12699999809E+01 0.  1.
</event>
<event>
 5   0  0.2317458E-04  0.1898072E+04  0.7818609E-02  0.8655817E-01
        1   -1    0    0  501    0  0.00000000000E+00  0.00000000000E+00  0.14438415242E+04  0.14438415242E+04  0.50400001928E-02 0.  1.
       -1   -1    0    0    0  501  0.00000000000E+00  0.00000000000E+00 -0.62380068006E+03  0.62380068008E+03  0.50400001928E-02 0. -1.
    10030    2    1    2    0    0  0.00000000000E+00  0.00000000000E+00  0.82004084412E+03  0.20676422043E+04  0.18980719952E+04 0.  0.
        3    1    3    3  502    0 -0.20665360260E+03 -0.76425613019E+03 -0.16006486161E+03  0.80772143350E+03  0.10100000352E+00 0. -1.
       -3    1    3    3    0  502  0.20665360260E+03  0.76425613019E+03  0.98010570573E+03  0.12599207708E+04  0.10100000352E+00 0.  1.
</event>
<event>
 5   0  0.2510069E-04  0.1871650E+04  0.7818609E-02  0.8669098E-01
        1   -1    0    0  501    0  0.00000000000E+00  0.00000000000E+00  0.16819610223E+04  0.16819610223E+04  0.50400001928E-02 0. -1.
       -1   -1    0    0    0  501  0.00000000000E+00  0.00000000000E+00 -0.52068290444E+03  0.52068290446E+03  0.50400001928E-02 0.  1.
    10030    2    1    2    0    0  0.00000000000E+00  0.00000000000E+00  0.11612781178E+04  0.22026439267E+04  0.18716499141E+04 0.  0.
        4    1    3    3  502    0  0.69950758509E+03 -0.32067552449E+03 -0.46105344638E+02  0.77088972578E+03  0.12699999809E+01 0. -1.
       -4    1    3    3    0  502 -0.69950758509E+03  0.32067552449E+03  0.12073834625E+04  0.14317542010E+04  0.12699999809E+01 0.  1.
</event>
<event>
 5   0  0.2510069E-04  0.1925065E+04  0.7818609E-02  0.8642480E-01
        1   -1    0    0  501    0  0.00000000000E+00  0.00000000000E+00  0.12075947303E+04  0.12075947303E+04  0.50400001928E-02 0. -1.
       -1   -1    0    0    0  501  0.00000000000E+00  0.00000000000E+00 -0.76720164806E+03  0.76720164807E+03  0.50400001928E-02 0.  1.
    10030    2    1    2    0    0  0.00000000000E+00  0.00000000000E+00  0.44039308223E+03  0.19747963784E+04  0.19250648480E+04 0.  0.
        4    1    3    3  502    0  0.73054661080E+02 -0.11405650756E+03 -0.75737570149E+03  0.76939290128E+03  0.12699999809E+01 0.  1.
       -4    1    3    3    0  502 -0.73054661080E+02  0.11405650756E+03  0.11977687837E+04  0.12054034771E+04  0.12699999809E+01 0. -1.
</event>
<event>
 5   0  0.2510069E-04  0.1895095E+04  0.7818609E-02  0.8657302E-01
       -1   -1    0    0    0  501  0.00000000000E+00  0.00000000000E+00  0.59564253263E+03  0.59564253265E+03  0.50400001928E-02 0.  1.
        1   -1    0    0  501    0  0.00000000000E+00  0.00000000000E+00 -0.15073571787E+04  0.15073571787E+04  0.50400001928E-02 0. -1.
    10030    2    1    2    0    0  0.00000000000E+00  0.00000000000E+00 -0.91171464609E+03  0.21029997114E+04  0.18950947708E+04 0.  0.
        4    1    3    3  502    0  0.86570627996E+03  0.20559378036E+03 -0.81737024064E+03  0.12082267539E+04  0.12699999809E+01 0. -1.
       -4    1    3    3    0  502 -0.86570627996E+03 -0.20559378036E+03 -0.94344405448E+02  0.89477295747E+03  0.12699999809E+01 0.  1.
</event>
<event>
 5   0  0.2261755E-04  0.1929425E+04  0.7818609E-02  0.8640347E-01
       -1   -1    0    0    0  501  0.00000000000E+00  0.00000000000E+00  0.68309632692E+03  0.68309632694E+03  0.50400001928E-02 0. -1.
        1   -1    0    0  501    0  0.00000000000E+00  0.00000000000E+00 -0.13624287123E+04  0.13624287123E+04  0.50400001928E-02 0.  1.
    10030    2    1    2    0    0  0.00000000000E+00  0.00000000000E+00 -0.67933238537E+03  0.20455250392E+04  0.19294248356E+04 0.  0.
        1    1    3    3  502    0  0.17987736530E+03  0.94598958760E+03 -0.27768563062E+03  0.10021783653E+04  0.50400001928E-02 0. -1.
       -1    1    3    3    0  502 -0.17987736530E+03 -0.94598958760E+03 -0.40164675475E+03  0.10433466739E+04  0.50400001928E-02 0.  1.
</event>
<event>
 5   0  0.2355414E-04  0.1867354E+04  0.7818609E-02  0.8671279E-01
        1   -1    0    0  501    0  0.00000000000E+00  0.00000000000E+00  0.16707702653E+04  0.16707702653E+04  0.50400001928E-02 0.  1.
       -1   -1    0    0    0  501  0.00000000000E+00  0.00000000000E+00 -0.52176676828E+03  0.52176676830E+03  0.50400001928E-02 0. -1.
    10030    2    1    2    0    0  0.00000000000E+00  0.00000000000E+00  0.11490034970E+04  0.21925370336E+04  0.18673536375E+04 0.  0.
        5    1    3    3  502    0  0.30842919015E+03  0.40168693259E+03  0.14954727358E+04  0.15789052380E+04  0.46999998093E+01 0.  1.
       -5    1    3    3    0  502 -0.30842919015E+03 -0.40168693259E+03 -0.34646923876E+03  0.61363179559E+03  0.46999998093E+01 0. -1.
</event>
<event>
 5   0  0.4761944E-04  0.9737515E+03  0.7818609E-02  0.9337812E-01
       -2   -1    0    0    0  501  0.00000000000E+00  0.00000000000E+00  0.28588646146E+03  0.28588646147E+03  0.25500000920E-02 0. -1.
        2   -1    0    0  501    0  0.00000000000E+00  0.00000000000E+00 -0.82916827206E+03  0.82916827206E+03  0.25500000920E-02 0.  1.
    10030    2    1    2    0    0  0.00000000000E+00  0.00000000000E+00 -0.54328181059E+03  0.11150547335E+04  0.97375147397E+03 0.  0.
        4    1    3    3  502    0 -0.70348332847E+01  0.46443724675E+03 -0.43874462535E+03  0.63894436708E+03  0.12699999809E+01 0.  1.
       -4    1    3    3    0  502  0.70348332847E+01 -0.46443724675E+03 -0.10453718525E+03  0.47611036646E+03  0.12699999809E+01 0. -1.
</event>
<event>
 5   0  0.2355414E-04  0.1817253E+04  0.7818609E-02  0.8697178E-01
        1   -1    0    0  501    0  0.00000000000E+00  0.00000000000E+00  0.19025833027E+04  0.19025833028E+04  0.50400001928E-02 0. -1.
       -1   -1    0    0    0  501  0.00000000000E+00  0.00000000000E+00 -0.43393732572E+03  0.43393732575E+03  0.50400001928E-02 0.  1.
    10030    2    1    2    0    0  0.00000000000E+00  0.00000000000E+00  0.14686459770E+04  0.23365206285E+04  0.18172527732E+04 0.  0.
        5    1    3    3  502    0  0.83474989446E+03 -0.24825259438E+03  0.40116140293E+03  0.95884790145E+03  0.46999998093E+01 0.  1.
       -5    1    3    3    0  502 -0.83474989446E+03  0.24825259438E+03  0.10674845741E+04  0.13776727270E+04  0.46999998093E+01 0. -1.
</event>
<event>
 5   0  0.4761944E-04  0.1715678E+04  0.7818609E-02  0.8752473E-01
       -2   -1    0    0    0  501  0.00000000000E+00  0.00000000000E+00  0.58434480925E+03  0.58434480926E+03  0.25500000920E-02 0. -1.
        2   -1    0    0  501    0  0.00000000000E+00  0.00000000000E+00 -0.12593388091E+04  0.12593388091E+04  0.25500000920E-02 0.  1.
    10030    2    1    2    0    0  0.00000000000E+00  0.00000000000E+00 -0.67499399981E+03  0.18436836183E+04  0.17156784036E+04 0.  0.
        4    1    3    3  502    0  0.97889405989E+02 -0.22883064795E+03  0.54469141222E+03  0.59886237876E+03  0.12699999809E+01 0. -1.
       -4    1    3    3    0  502 -0.97889405989E+02  0.22883064795E+03 -0.12196854120E+04  0.12448212396E+04  0.12699999809E+01 0.  1.
</event>
<event>
 5   0  0.2261755E-04  0.1929946E+04  0.7818609E-02  0.8640092E-01
       -1   -1    0    0    0  501  0.00000000000E+00  0.00000000000E+00  0.88384351415E+03  0.88384351417E+03  0.50400001928E-02 0. -1.
        1   -1    0    0  501    0  0.00000000000E+00  0.00000000000E+00 -0.10535492937E+04  0.10535492937E+04  0.50400001928E-02 0.  1.
    10030    2    1    2    0    0  0.00000000000E+00  0.00000000000E+00 -0.16970577958E+03  0.19373928079E+04  0.19299458129E+04 0.  0.
        1    1    3    3  502    0 -0.24768879421E+03  0.31741037758E+03  0.79549945672E+03  0.89158200534E+03  0.50400001928E-02 0. -1.
       -1    1    3    3    0  502  0.24768879421E+03 -0.31741037758E+03 -0.96520523631E+03  0.10458108026E+04  0.50400001928E-02 0.  1.
</event>
<event>
 5   0  0.4973411E-04  0.1904973E+04  0.7818609E-02  0.8652385E-01
       -2   -1    0    0    0  501  0.00000000000E+00  0.00000000000E+00  0.10142332346E+04  0.10142332346E+04  0.25500000920E-02 0.  1.
        2   -1    0    0  501    0  0.00000000000E+00  0.00000000000E+00 -0.89449902910E+03  0.89449902910E+03  0.25500000920E-02 0. -1.
    10030    2    1    2    0    0  0.00000000000E+00  0.00000000000E+00  0.11973420555E+03  0.19087322637E+04  0.19049731165E+04 0.  0.
        1    1    3    3  502    0  0.20336073284E+03 -0.90299461017E+03 -0.16524441999E+03  0.94024495320E+03  0.50400001928E-02 0. -1.
       -1    1    3    3    0  502 -0.20336073284E+03  0.90299461017E+03  0.28497862554E+03  0.96848731055E+03  0.50400001928E-02 0.  1.
</event>
<event>
 5   0  0.2317458E-04  0.1910987E+04  0.7818609E-02  0.8649407E-01
        1   -1    0    0  501    0  0.00000000000E+00  0.00000000000E+00  0.11559357003E+04  0.11559357004E+04  0.50400001928E-02 0. -1.
       -1   -1    0    0    0  501  0.00000000000E+00  0.00000000000E+00 -0.78980860874E+03  0.78980860876E+03  0.50400001928E-02 0.  1.
    10030    2    1    2    0    0  0.00000000000E+00  0.00000000000E+00  0.36612709161E+03  0.19457443091E+04  0.19109871452E+04 0.  0.
        3    1    3    3  502    0 -0.91176245333E+03  0.10212002627E+02 -0.10770519111E+03  0.91815874156E+03  0.10100000352E+00 0.  1.
       -3    1    3    3    0  502  0.91176245333E+03 -0.10212002627E+02  0.47383228271E+03  0.10275855676E+04  0.10100000352E+00 0. -1.
</event>
<event>
 5   0  0.4829134E-04  0.1505964E+04  0.7818609E-02  0.8880496E-01
       -2   -1    0    0    0  501  0.00000000000E+00  0.00000000000E+00  0.42171106550E+03  0.42171106551E+03  0.25500000920E-02 0.  1.
        2   -1    0    0  501    0  0.00000000000E+00  0.00000000000E+00 -0.13444801645E+04  0.13444801645E+04  0.25500000920E-02 0. -1.
    10030    2    1    2    0    0  0.00000000000E+00  0.00000000000E+00 -0.92276909901E+03  0.17661912300E+04  0.15059643591E+04 0.  0.
        2    1    3    3  502    0 -0.12393267618E+03 -0.28100087177E+03 -0.12676871907E+04  0.13043586975E+04  0.25500000920E-02 0. -1.
       -2    1    3    3    0  502  0.12393267618E+03  0.28100087177E+03  0.34491809169E+03  0.46183253257E+03  0.25500000920E-02 0.  1.
</event>
<event>
 5   0  0.2261755E-04  0.1905651E+04  0.7818609E-02  0.8652048E-01
       -1   -1    0    0    0  501  0.00000000000E+00  0.00000000000E+00  0.89860277554E+03  0.89860277555E+03  0.50400001928E-02 0. -1.
        1   -1    0    0  501    0  0.00000000000E+00  0.00000000000E+00 -0.10103204196E+04  0.10103204196E+04  0.50400001928E-02 0.  1.
    10030    2    1    2    0    0  0.00000000000E+00  0.00000000000E+00 -0.11171764403E+03  0.19089231951E+04  0.19056513146E+04 0.  0.
        1    1    3    3  502    0  0.81747688463E+02  0.40671607002E+03  0.80338783422E+03  0.90417512595E+03  0.50400001928E-02 0. -1.
       -1    1    3    3    0  502 -0.81747688463E+02 -0.40671607002E+03 -0.91510547824E+03  0.10047480692E+04  0.50400001928E-02 0.  1.
</event>
<event>
 5   0  0.2317458E-04  0.2066506E+04  0.7818609E-02  0.8576143E-01
        1   -1    0    0  501    0  0.00000000000E+00  0.00000000000E+00  0.13334512374E+04  0.13334512374E+04  0.50400001928E-02 0.  1.
       -1   -1    0    0    0  501  0.00000000000E+00  0.00000000000E+00 -0.80063763570E+03  0.80063763572E+03  0.50400001928E-02 0. -1.
    10030    2    1    2    0    0  0.00000000000E+00  0.00000000000E+00  0.53281360170E+03  0.21340888731E+04  0.20665055007E+04 0.  0.
        3    1    3    3  502    0  0.78466701039E+03  0.10265988696E+03 -0.41967717395E+03  0.89575125460E+03  0.10100000352E+00 0. -1.
       -3    1    3    3    0  502 -0.78466701039E+03 -0.10265988696E+03  0.95249077565E+03  0.12383376185E+04  0.10100000352E+00 0.  1.
</event>
<event>
 5   0  0.2261755E-04  0.1617747E+04  0.7818609E-02  0.8809719E-01
       -1   -1    0    0    0  501  0.00000000000E+00  0.00000000000E+00  0.52795978129E+03  0.52795978132E+03  0.50400001928E-02 0. -1.
        1   -1    0    0  501    0  0.00000000000E+00  0.00000000000E+00 -0.12392546808E+04  0.12392546808E+04  0.50400001928E-02 0.  1.
    10030    2    1    2    0    0  0.00000000000E+00  0.00000000000E+00 -0.71129489948E+03  0.17672144621E+04  0.16177473601E+04 0.  0.
        1    1    3    3  502    0 -0.54352840132E+03 -0.19301037232E+02 -0.10096984505E+04  0.11468594570E+04  0.50400001928E-02 0.  1.
       -1    1    3    3    0  502  0.54352840132E+03  0.19301037232E+02  0.29840355103E+03  0.62035500512E+03  0.50400001928E-02 0. -1.
</event>
<event>
 5   0  0.4839293E-04  0.1763258E+04  0.7818609E-02  0.8726086E-01
       -2   -1    0    0    0  501  0.00000000000E+00  0.00000000000E+00  0.50650950306E+03  0.50650950307E+03  0.25500000920E-02 0. -1.
        2   -1    0    0  501    0  0.00000000000E+00  0.00000000000E+00 -0.15345605626E+04  0.15345605626E+04  0.25500000920E-02 0.  1.
    10030    2    1    2    0    0  0.00000000000E+00  0.00000000000E+00 -0.10280510595E+04  0.20410700656E+04  0.17632577894E+04 0.  0.
        5    1    3    3  502    0  0.34376373842E+03  0.26746368875E+03  0.37325253399E+03  0.57362869243E+03  0.46999998093E+01 0. -1.
       -5    1    3    3    0  502 -0.34376373842E+03 -0.26746368875E+03 -0.14013035935E+04  0.14674413732E+04  0.46999998093E+01 0.  1.
</event>
<event>
 5   0  0.4802635E-04  0.1840313E+04  0.7818609E-02  0.8685150E-01
       -2   -1    0    0    0  501  0.00000000000E+00  0.00000000000E+00  0.68767169349E+03  0.68767169349E+03  0.25500000920E-02 0.  1.
        2   -1    0    0  501    0  0.00000000000E+00  0.00000000000E+00 -0.12312393406E+04  0.12312393406E+04  0.25500000920E-02 0. -1.
    10030    2    1    2    0    0  0.00000000000E+00  0.00000000000E+00 -0.54356764712E+03  0.19189110341E+04  0.18403134977E+04 0.  0.
        3    1    3    3  502    0  0.17676079483E+03  0.15387177370E+03  0.65603220883E+03  0.69663417269E+03  0.10100000352E+00 0.  1.
       -3    1    3    3    0  502 -0.17676079483E+03 -0.15387177370E+03 -0.11995998560E+04  0.12222768614E+04  0.10100000352E+00 0. -1.
</event>
<event>
 5   0  0.4973411E-04  0.1918555E+04  0.7818609E-02  0.8645675E-01
       -2   -1    0    0    0  501  0.00000000000E+00  0.00000000000E+00  0.12455956764E+04  0.12455956764E+04  0.25500000920E-02 0.  1.
        2   -1    0    0  501    0  0.00000000000E+00  0.00000000000E+00 -0.73877359988E+03  0.73877359989E+03  0.25500000920E-02 0. -1.
    10030    2    1    2    0    0  0.00000000000E+00  0.00000000000E+00  0.50682207652E+03  0.19843692763E+04  0.19185548748E+04 0.  0.
        1    1    3    3  502    0  0.10520907082E+03 -0.50215836613E+03 -0.58493776616E+03  0.77806436981E+03  0.50400001928E-02 0. -1.
       -1    1    3    3    0  502 -0.10520907082E+03  0.50215836613E+03  0.10917598427E+04  0.12063049065E+04  0.50400001928E-02 0.  1.
</event>
<event>
 5   0  0.2376359E-04  0.1841263E+04  0.7818609E-02  0.8684659E-01
        1   -1    0    0  501    0  0.00000000000E+00  0.00000000000E+00  0.93085352088E+03  0.93085352089E+03  0.50400001928E-02 0. -1.
       -1   -1    0    0    0  501  0.00000000000E+00  0.00000000000E+00 -0.91052220731E+03  0.91052220732E+03  0.50400001928E-02 0.  1.
    10030    2    1    2    0    0  0.00000000000E+00  0.00000000000E+00  0.20331313569E+02  0.18413757282E+04  0.18412634820E+04 0.  0.
        2    1    3    3  502    0 -0.35649559007E+03 -0.81577116225E+03  0.24468178101E+03  0.92327724377E+03  0.25500000920E-02 0. -1.
       -2    1    3    3    0  502  0.35649559007E+03  0.81577116225E+03 -0.22435046744E+03  0.91809848445E+03  0.25500000920E-02 0.  1.
</event>
<event>
 5   0  0.2261755E-04  0.1929109E+04  0.7818609E-02  0.8640501E-01
        1   -1    0    0  501    0  0.00000000000E+00  0.00000000000E+00  0.10150433238E+04  0.10150433238E+04  0.50400001928E-02 0. -1.
       -1   -1    0    0    0  501  0.00000000000E+00  0.00000000000E+00 -0.91657675855E+03  0.91657675856E+03  0.50400001928E-02 0.  1.
    10030    2    1    2    0    0  0.00000000000E+00  0.00000000000E+00  0.98466565252E+02  0.19316200824E+04  0.19291087264E+04 0.  0.
        1    1    3    3  502    0  0.12879015220E+03  0.55441955495E+03 -0.73049554411E+03  0.92606246344E+03  0.50400001928E-02 0.  1.
       -1    1    3    3    0  502 -0.12879015220E+03 -0.55441955495E+03  0.82896210936E+03  0.10055576189E+04  0.50400001928E-02 0. -1.
</event>
<event>
 5   0  0.4839293E-04  0.1704959E+04  0.7818609E-02  0.8758541E-01
       -2   -1    0    0    0  501  0.00000000000E+00  0.00000000000E+00  0.78975181301E+03  0.78975181301E+03  0.25500000920E-02 0. -1.
        2   -1    0    0  501    0  0.00000000000E+00  0.00000000000E+00 -0.92018982711E+03  0.92018982711E+03  0.25500000920E-02 0.  1.
    10030    2    1    2    0    0  0.00000000000E+00  0.00000000000E+00 -0.13043801410E+03  0.17099416401E+04  0.17049593359E+04 0.  0.
        5    1    3    3  502    0  0.83023525459E+02  0.76280675031E+03  0.30725887434E+03  0.82655740875E+03  0.46999998093E+01 0. -1.
       -5    1    3    3    0  502 -0.83023525459E+02 -0.76280675031E+03 -0.43769688845E+03  0.88338423138E+03  0.46999998093E+01 0.  1.
</event>
<event>
 5   0  0.2355414E-04  0.1866465E+04  0.7818609E-02  0.8671731E-01
        1   -1    0    0  501    0  0.00000000000E+00  0.00000000000E+00  0.84784158467E+03  0.84784158469E+03  0.50400001928E-02 0. -1.
       -1   -1    0    0    0  501  0.00000000000E+00  0.00000000000E+00 -0.10272235705E+04  0.10272235705E+04  0.50400001928E-02 0.  1.
    10030    2    1    2    0    0  0.00000000000E+00  0.00000000000E+00 -0.17938198586E+03  0.18750651552E+04  0.18664649580E+04 0.  0.
        5    1    3    3  502    0 -0.49724925698E+03  0.62934205269E+03 -0.56893472183E+03  0.98338042006E+03  0.46999998093E+01 0.  1.
       -5    1    3    3    0  502  0.49724925698E+03 -0.62934205269E+03  0.38955273597E+03  0.89168473518E+03  0.46999998093E+01 0. -1.
</event>
<event>
 5   0  0.2510069E-04  0.1888308E+04  0.7818609E-02  0.8660698E-01
       -1   -1    0    0    0  501  0.00000000000E+00  0.00000000000E+00  0.96319052311E+03  0.96319052313E+03  0.50400001928E-02 0. -1.
        1   -1    0    0  501    0  0.00000000000E+00  0.00000000000E+00 -0.92549394598E+03  0.92549394599E+03  0.50400001928E-02 0.  1.
    10030    2    1    2    0    0  0.00000000000E+00  0.00000000000E+00  0.37696577138E+02  0.18886844691E+04  0.18883082354E+04 0.  0.
        4    1    3    3  502    0 -0.92232757883E+02  0.28356673478E+03 -0.87715853724E+03  0.92645868070E+03  0.12699999809E+01 0.  1.
       -4    1    3    3    0  502  0.92232757883E+02 -0.28356673478E+03  0.91485511437E+03  0.96222578842E+03  0.12699999809E+01 0. -1.
</event>
<event>
 5   0  0.4839293E-04  0.1887481E+04  0.7818609E-02  0.8661113E-01
       -2   -1    0    0    0  501  0.00000000000E+00  0.00000000000E+00  0.38319392087E+03  0.38319392088E+03  0.25500000920E-02 0. -1.
        2   -1    0    0  501    0  0.00000000000E+00  0.00000000000E+00 -0.23242711927E+04  0.23242711927E+04  0.25500000920E-02 0.  1.
    10030    2    1    2    0    0  0.00000000000E+00  0.00000000000E+00 -0.19410772718E+04  0.27074651135E+04  0.18874814876E+04 0.  0.
        5    1    3    3  502    0  0.20835058785E+03 -0.32973592103E+03 -0.22032236388E+04  0.22374879302E+04  0.46999998093E+01 0.  1.
       -5    1    3    3    0  502 -0.20835058785E+03  0.32973592103E+03  0.26214636706E+03  0.46997718332E+03  0.46999998093E+01 0. -1.
</event>
<event>
 5   0  0.1729375E-04  0.1885929E+04  0.7818609E-02  0.8661892E-01
        3   -1    0    0  501    0  0.00000000000E+00  0.00000000000E+00  0.18375999993E+04  0.18376000020E+04  0.10100000352E+00 0. -1.
       -3   -1    0    0    0  501  0.00000000000E+00  0.00000000000E+00 -0.48388210666E+03  0.48388211720E+03  0.10100000352E+00 0.  1.
    10030    2    1    2    0    0  0.00000000000E+00  0.00000000000E+00  0.13537178926E+04  0.23214821192E+04  0.18859287095E+04 0.  0.
        2    1    3    3  502    0  0.77601186826E+03 -0.29477766774E+03  0.12623316604E+03  0.83965654008E+03  0.25500000920E-02 0.  1.
       -2    1    3    3    0  502 -0.77601186826E+03  0.29477766774E+03  0.12274847266E+04  0.14818255792E+04  0.25500000920E-02 0. -1.
</event>
<event>
 5   0  0.4839293E-04  0.1768049E+04  0.7818609E-02  0.8723478E-01
       -2   -1    0    0    0  501  0.00000000000E+00  0.00000000000E+00  0.14011659495E+04  0.14011659495E+04  0.25500000920E-02 0.  1.
        2   -1    0    0  501    0  0.00000000000E+00  0.00000000000E+00 -0.55774925864E+03  0.55774925865E+03  0.25500000920E-02 0. -1.
    10030    2    1    2    0    0  0.00000000000E+00  0.00000000000E+00  0.84341669086E+03  0.19589152082E+04  0.17680489468E+04 0.  0.
        5    1    3    3  502    0  0.68421415398E+03  0.51467365736E+03  0.66555669684E+03  0.10844472273E+04  0.46999998093E+01 0.  1.
       -5    1    3    3    0  502 -0.68421415398E+03 -0.51467365736E+03  0.17785999402E+03  0.87446798086E+03  0.46999998093E+01 0. -1.
</event>
<event>
 5   0  0.4761944E-04  0.1896371E+04  0.7818609E-02  0.8656665E-01
       -2   -1    0    0    0  501  0.00000000000E+00  0.00000000000E+00  0.13278254021E+04  0.13278254021E+04  0.25500000920E-02 0.  1.
        2   -1    0    0  501    0  0.00000000000E+00  0.00000000000E+00 -0.67708898014E+03  0.67708898015E+03  0.25500000920E-02 0. -1.
    10030    2    1    2    0    0  0.00000000000E+00  0.00000000000E+00  0.65073642199E+03  0.20049143823E+04  0.18963712161E+04 0.  0.
        4    1    3    3  502    0  0.46146258305E+03 -0.74264695204E+02  0.11975674364E+04  0.12855474858E+04  0.12699999809E+01 0.  1.
       -4    1    3    3    0  502 -0.46146258305E+03  0.74264695204E+02 -0.54683101445E+03  0.71936689649E+03  0.12699999809E+01 0. -1.
</event>
<event>
 5   0  0.4973411E-04  0.1932803E+04  0.7818609E-02  0.8638698E-01
       -2   -1    0    0    0  501  0.00000000000E+00  0.00000000000E+00  0.81783233761E+03  0.81783233761E+03  0.25500000920E-02 0.  1.
        2   -1    0    0  501    0  0.00000000000E+00  0.00000000000E+00 -0.11419599901E+04  0.11419599901E+04  0.25500000920E-02 0. -1.
    10030    2    1    2    0    0  0.00000000000E+00  0.00000000000E+00 -0.32412765246E+03  0.19597923277E+04  0.19328029472E+04 0.  0.
        1    1    3    3  502    0  0.19132401775E+03 -0.22320424201E+03 -0.10955202922E+04  0.11342793853E+04  0.50400001928E-02 0. -1.
       -1    1    3    3    0  502 -0.19132401775E+03  0.22320424201E+03  0.77139263969E+03  0.82551294237E+03  0.50400001928E-02 0.  1.
</event>
<event>
 5   0  0.4973411E-04  0.1838304E+04  0.7818609E-02  0.8686191E-01
       -2   -1    0    0    0  501  0.00000000000E+00  0.00000000000E+00  0.58740369882E+03  0.58740369882E+03  0.25500000920E-02 0. -1.
        2   -1    0    0  501    0  0.00000000000E+00  0.00000000000E+00 -0.14382616284E+04  0.14382616284E+04  0.25500000920E-02 0.  1.
    10030    2    1    2    0    0  0.00000000000E+00  0.00000000000E+00 -0.85085792953E+03  0.20256653272E+04  0.18383037838E+04 0.  0.
        1    1    3    3  502    0  0.23419400207E+03  0.66483304317E+03 -0.10754599241E+04  0.12858708544E+04  0.50400001928E-02 0.  1.
       -1    1    3    3    0  502 -0.23419400207E+03 -0.66483304317E+03  0.22460199458E+03  0.73979447273E+03  0.50400001928E-02 0. -1.
</event>
<event>
 5   0  0.2376359E-04  0.1876750E+04  0.7818609E-02  0.8666517E-01
       -1   -1    0    0    0  501  0.00000000000E+00  0.00000000000E+00  0.15225557750E+04  0.15225557751E+04  0.50400001928E-02 0.  1.
        1   -1    0    0  501    0  0.00000000000E+00  0.00000000000E+00 -0.57833498911E+03  0.57833498913E+03  0.50400001928E-02 0. -1.
    10030    2    1    2    0    0  0.00000000000E+00  0.00000000000E+00  0.94422078594E+03  0.21008907642E+04  0.18767496131E+04 0.  0.
        2    1    3    3  502    0 -0.43879509358E+03 -0.36701467799E+03 -0.36057313143E+03  0.67620550953E+03  0.25500000920E-02 0. -1.
       -2    1    3    3    0  502  0.43879509358E+03  0.36701467799E+03  0.13047939174E+04  0.14246852547E+04  0.25500000920E-02 0.  1.
</event>
<event>
 5   0  0.4973411E-04  0.1639967E+04  0.7818609E-02  0.8796364E-01
        2   -1    0    0  501    0  0.00000000000E+00  0.00000000000E+00  0.97673735701E+03  0.97673735701E+03  0.25500000920E-02 0. -1.
       -2   -1    0    0    0  501  0.00000000000E+00  0.00000000000E+00 -0.68838651902E+03  0.68838651903E+03  0.25500000920E-02 0.  1.
    10030    2    1    2    0    0  0.00000000000E+00  0.00000000000E+00  0.28835083799E+03  0.16651238760E+04  0.16399668645E+04 0.  0.
        1    1    3    3  502    0  0.94547862683E+02  0.75053816091E+03  0.46545631913E+03  0.88819840935E+03  0.50400001928E-02 0. -1.
       -1    1    3    3    0  502 -0.94547862683E+02 -0.75053816091E+03 -0.17710548114E+03  0.77692546669E+03  0.50400001928E-02 0.  1.
</event>
<event>
 5   0  0.2355414E-04  0.1822359E+04  0.7818609E-02  0.8694499E-01
        1   -1    0    0  501    0  0.00000000000E+00  0.00000000000E+00  0.12109119759E+04  0.12109119759E+04  0.50400001928E-02 0. -1.
       -1   -1    0    0    0  501  0.00000000000E+00  0.00000000000E+00 -0.68563869284E+03  0.68563869286E+03  0.50400001928E-02 0.  1.
    10030    2    1    2    0    0  0.00000000000E+00  0.00000000000E+00  0.52527328303E+03  0.18965506687E+04  0.18223590253E+04 0.  0.
        5    1    3    3  502    0 -0.80008127549E+03 -0.30965956783E+03  0.58206385149E+03  0.10367446709E+04  0.46999998093E+01 0.  1.
       -5    1    3    3    0  502  0.80008127549E+03  0.30965956783E+03 -0.56790568458E+02  0.85980599789E+03  0.46999998093E+01 0. -1.
</event>
<event>
 5   0  0.2317458E-04  0.1884405E+04  0.7818609E-02  0.8662658E-01
       -1   -1    0    0    0  501  0.00000000000E+00  0.00000000000E+00  0.62810880369E+03  0.62810880371E+03  0.50400001928E-02 0.  1.
        1   -1    0    0  501    0  0.00000000000E+00  0.00000000000E+00 -0.14133622858E+04  0.14133622858E+04  0.50400001928E-02 0. -1.
    10030    2    1    2    0    0  0.00000000000E+00  0.00000000000E+00 -0.78525348214E+03  0.20414710895E+04  0.18844047278E+04 0.  0.
        3    1    3    3  502    0 -0.34042985550E+03  0.14765976837E+03  0.54561333632E+03  0.65984075100E+03  0.10100000352E+00 0.  1.
       -3    1    3    3    0  502  0.34042985550E+03 -0.14765976837E+03 -0.13308668185E+04  0.13816303385E+04  0.10100000352E+00 0. -1.
</event>
<event>
 5   0  0.4761944E-04  0.1901261E+04  0.7818609E-02  0.8654229E-01
       -2   -1    0    0    0  501  0.00000000000E+00  0.00000000000E+00  0.11576425157E+04  0.11576425157E+04  0.25500000920E-02 0. -1.
        2   -1    0    0  501    0  0.00000000000E+00  0.00000000000E+00 -0.78063658567E+03  0.78063658567E+03  0.25500000920E-02 0.  1.
    10030    2    1    2    0    0  0.00000000000E+00  0.00000000000E+00  0.37700593004E+03  0.19382791014E+04  0.19012607406E+04 0.  0.
        4    1    3    3  502    0  0.50600597404E+02  0.37193544187E+03  0.10788924075E+04  0.11423251872E+04  0.12699999809E+01 0. -1.
       -4    1    3    3    0  502 -0.50600597404E+02 -0.37193544187E+03 -0.70188647748E+03  0.79595391420E+03  0.12699999809E+01 0.  1.
</event>
<event>
 5   0  0.2261755E-04  0.2099233E+04  0.7818609E-02  0.8561581E-01
       -1   -1    0    0    0  501  0.00000000000E+00  0.00000000000E+00  0.95499622338E+03  0.95499622340E+03  0.50400001928E-02 0. -1.
        1   -1    0    0  501    0  0.00000000000E+00  0.00000000000E+00 -0.11536114097E+04  0.11536114097E+04  0.50400001928E-02 0.  1.
    10030    2    1    2    0    0  0.00000000000E+00  0.00000000000E+00 -0.19861518631E+03  0.21086076331E+04  0.20992327546E+04 0.  0.
        1    1    3    3  502    0  0.43791505014E+03  0.49048781337E+02 -0.10561999439E+04  0.11444359727E+04  0.50400001928E-02 0.  1.
       -1    1    3    3    0  502 -0.43791505014E+03 -0.49048781337E+02  0.85758475763E+03  0.96417166036E+03  0.50400001928E-02 0. -1.
</event>
<event>
 5   0  0.4802635E-04  0.1893314E+04  0.7818609E-02  0.8658192E-01
       -2   -1    0    0    0  501  0.00000000000E+00  0.00000000000E+00  0.42889021563E+03  0.42889021564E+03  0.25500000920E-02 0. -1.
        2   -1    0    0  501    0  0.00000000000E+00  0.00000000000E+00 -0.20894840450E+04  0.20894840451E+04  0.25500000920E-02 0.  1.
    10030    2    1    2    0    0  0.00000000000E+00  0.00000000000E+00 -0.16605938294E+04  0.25183742607E+04  0.18933137750E+04 0.  0.
        3    1    3    3  502    0  0.29047028699E+03  0.81177216250E+03 -0.31032878988E+03  0.91632472381E+03  0.10100000352E+00 0. -1.
       -3    1    3    3    0  502 -0.29047028699E+03 -0.81177216250E+03 -0.13502650395E+04  0.16020495369E+04  0.10100000352E+00 0.  1.
</event>
<event>
 5   0  0.4802635E-04  0.1883917E+04  0.7818609E-02  0.8662903E-01
        2   -1    0    0  501    0  0.00000000000E+00  0.00000000000E+00  0.12789964114E+04  0.12789964114E+04  0.25500000920E-02 0. -1.
       -2   -1    0    0    0  501  0.00000000000E+00  0.00000000000E+00 -0.69373627495E+03  0.69373627496E+03  0.25500000920E-02 0.  1.
    10030    2    1    2    0    0  0.00000000000E+00  0.00000000000E+00  0.58526013643E+03  0.19727326863E+04  0.18839174145E+04 0.  0.
        3    1    3    3  502    0 -0.54749549927E+03 -0.22032692171E+03  0.10614012679E+04  0.12144414089E+04  0.10100000352E+00 0. -1.
       -3    1    3    3    0  502  0.54749549927E+03  0.22032692171E+03 -0.47614113143E+03  0.75829127740E+03  0.10100000352E+00 0.  1.
</event>
<event>
 5   0  0.4802635E-04  0.1828990E+04  0.7818609E-02  0.8691033E-01
       -2   -1    0    0    0  501  0.00000000000E+00  0.00000000000E+00  0.51178593429E+03  0.51178593430E+03  0.25500000920E-02 0. -1.
        2   -1    0    0  501    0  0.00000000000E+00  0.00000000000E+00 -0.16340833630E+04  0.16340833630E+04  0.25500000920E-02 0.  1.
    10030    2    1    2    0    0  0.00000000000E+00  0.00000000000E+00 -0.11222974287E+04  0.21458692973E+04  0.18289897546E+04 0.  0.
        3    1    3    3  502    0 -0.69855299982E+03 -0.27880432717E+03  0.49160673861E+02  0.75374062412E+03  0.10100000352E+00 0. -1.
       -3    1    3    3    0  502  0.69855299982E+03  0.27880432717E+03 -0.11714581026E+04  0.13921286732E+04  0.10100000352E+00 0.  1.
</event>
<event>
 5   0  0.2376359E-04  0.1226819E+04  0.7818609E-02  0.9089701E-01
       -1   -1    0    0    0  501  0.00000000000E+00  0.00000000000E+00  0.28346953704E+03  0.28346953708E+03  0.50400001928E-02 0.  1.
        1   -1    0    0  501    0  0.00000000000E+00  0.00000000000E+00 -0.13273773112E+04  0.13273773112E+04  0.50400001928E-02 0. -1.
    10030    2    1    2    0    0  0.00000000000E+00  0.00000000000E+00 -0.10439077741E+04  0.16108468482E+04  0.12268187020E+04 0.  0.
        2    1    3    3  502    0 -0.21149664126E+03  0.30448864576E+03  0.11972160864E+03  0.38958622697E+03  0.25500000920E-02 0.  1.
       -2    1    3    3    0  502  0.21149664126E+03 -0.30448864576E+03 -0.11636293828E+04  0.12212606213E+04  0.25500000920E-02 0. -1.
</event>
<event>
 5   0  0.4839293E-04  0.1872321E+04  0.7818609E-02  0.8668758E-01
        2   -1    0    0  501    0  0.00000000000E+00  0.00000000000E+00  0.97387383279E+03  0.97387383279E+03  0.25500000920E-02 0. -1.
       -2   -1    0    0    0  501  0.00000000000E+00  0.00000000000E+00 -0.89990726838E+03  0.89990726838E+03  0.25500000920E-02 0.  1.
    10030    2    1    2    0    0  0.00000000000E+00  0.00000000000E+00  0.73966564412E+02  0.18737811012E+04  0.18723206356E+04 0.  0.
        5    1    3    3  502    0  0.15190514914E+02 -0.63021783261E+03  0.72959882740E+03  0.96423120009E+03  0.46999998093E+01 0. -1.
       -5    1    3    3    0  502 -0.15190514914E+02  0.63021783261E+03 -0.65563226299E+03  0.90954990108E+03  0.46999998093E+01 0.  1.
</event>
<event>
 5   0  0.4839293E-04  0.1638596E+04  0.7818609E-02  0.8797182E-01
       -2   -1    0    0    0  501  0.00000000000E+00  0.00000000000E+00  0.28406156975E+03  0.28406156976E+03  0.25500000920E-02 0.  1.
        2   -1    0    0  501    0  0.00000000000E+00  0.00000000000E+00 -0.23630409044E+04  0.23630409044E+04  0.25500000920E-02 0. -1.
    10030    2    1    2    0    0  0.00000000000E+00  0.00000000000E+00 -0.20789793346E+04  0.26471024741E+04  0.16385958729E+04 0.  0.
        5    1    3    3  502    0 -0.60536217218E+03 -0.55183405213E+03 -0.10646639616E+04  0.13433226052E+04  0.46999998093E+01 0.  1.
       -5    1    3    3    0  502  0.60536217218E+03  0.55183405213E+03 -0.10143153730E+04  0.13037798689E+04  0.46999998093E+01 0. -1.
</event>
<event>
 5   0  0.4761944E-04  0.1866436E+04  0.7818609E-02  0.8671746E-01
       -2   -1    0    0    0  501  0.00000000000E+00  0.00000000000E+00  0.97932282343E+03  0.97932282344E+03  0.25500000920E-02 0.  1.
        2   -1    0    0  501    0  0.00000000000E+00  0.00000000000E+00 -0.88928328075E+03  0.88928328075E+03  0.25500000920E-02 0. -1.
    10030    2    1    2    0    0  0.00000000000E+00  0.00000000000E+00  0.90039542686E+02  0.18686061042E+04  0.18664355476E+04 0.  0.
        4    1    3    3  502    0  0.66285887604E+03  0.52174749265E+03  0.44459726541E+03  0.95355685564E+03  0.12699999809E+01 0.  1.
       -4    1    3    3    0  502 -0.66285887604E+03 -0.52174749265E+03 -0.35455772272E+03  0.91504924855E+03  0.12699999809E+01 0. -1.
</event>
<event>
 5   0  0.4761944E-04  0.1946164E+04  0.7818609E-02  0.8632213E-01
       -2   -1    0    0    0  501  0.00000000000E+00  0.00000000000E+00  0.94770303414E+03  0.94770303414E+03  0.25500000920E-02 0.  1.
        2   -1    0    0  501    0  0.00000000000E+00  0.00000000000E+00 -0.99914055462E+03  0.99914055463E+03  0.25500000920E-02 0. -1.
    10030    2    1    2    0    0  0.00000000000E+00  0.00000000000E+00 -0.51437520487E+02  0.19468435888E+04  0.19461639552E+04 0.  0.
        4    1    3    3  502    0 -0.93982584382E+03 -0.16417696607E+03 -0.21725423626E+03  0.97848234985E+03  0.12699999809E+01 0. -1.
       -4    1    3    3    0  502  0.93982584382E+03  0.16417696607E+03  0.16581671577E+03  0.96836123892E+03  0.12699999809E+01 0.  1.
</event>
<event>
 5   0  0.2510069E-04  0.2287360E+04  0.7818609E-02  0.8482921E-01
       -1   -1    0    0    0  501  0.00000000000E+00  0.00000000000E+00  0.12511931994E+04  0.12511931995E+04  0.50400001928E-02 0.  1.
        1   -1    0    0  501    0  0.00000000000E+00  0.00000000000E+00 -0.10454055326E+04  0.10454055326E+04  0.50400001928E-02 0. -1.
    10030    2    1    2    0    0  0.00000000000E+00  0.00000000000E+00  0.20578766688E+03  0.22965987320E+04  0.22873603066E+04 0.  0.
        4    1    3    3  502    0 -0.10846305564E+04 -0.21896069260E+03  0.39325982077E+03  0.11743177288E+04  0.12699999809E+01 0.  1.
       -4    1    3    3    0  502  0.10846305564E+04  0.21896069260E+03 -0.18747215389E+03  0.11222810032E+04  0.12699999809E+01 0. -1.
</event>
<event>
 5   0  0.4802635E-04  0.1905032E+04  0.7818609E-02  0.8652356E-01
        2   -1    0    0  501    0  0.00000000000E+00  0.00000000000E+00  0.12743736630E+04  0.12743736630E+04  0.25500000920E-02 0. -1.
       -2   -1    0    0    0  501  0.00000000000E+00  0.00000000000E+00 -0.71194729542E+03  0.71194729543E+03  0.25500000920E-02 0.  1.
    10030    2    1    2    0    0  0.00000000000E+00  0.00000000000E+00  0.56242636753E+03  0.19863209584E+04  0.19050321601E+04 0.  0.
        3    1    3    3  502    0 -0.26110060602E+03 -0.77185240414E+03  0.79557559581E+03  0.11388020895E+04  0.10100000352E+00 0. -1.
       -3    1    3    3    0  502  0.26110060602E+03  0.77185240414E+03 -0.23314922827E+03  0.84751886887E+03  0.10100000352E+00 0.  1.
</event>
<event>
 5   0  0.2510069E-04  0.1977946E+04  0.7818609E-02  0.8617002E-01
        1   -1    0    0  501    0  0.00000000000E+00  0.00000000000E+00  0.12721027809E+04  0.12721027809E+04  0.50400001928E-02 0.  1.
       -1   -1    0    0    0  501  0.00000000000E+00  0.00000000000E+00 -0.76885899204E+03  0.76885899206E+03  0.50400001928E-02 0. -1.
    10030    2    1    2    0    0  0.00000000000E+00  0.00000000000E+00  0.50324378885E+03  0.20409617730E+04  0.19779460679E+04 0.  0.
        4    1    3    3  502    0  0.51454661193E+03 -0.47868038572E+03  0.96961566007E+03  0.11975179617E+04  0.12699999809E+01 0.  1.
       -4    1    3    3    0  502 -0.51454661193E+03  0.47868038572E+03 -0.46637187122E+03  0.84344381122E+03  0.12699999809E+01 0. -1.
</event>
<event>
 5   0  0.4973411E-04  0.1881191E+04  0.7818609E-02  0.8664276E-01
       -2   -1    0    0    0  501  0.00000000000E+00  0.00000000000E+00  0.52758657677E+03  0.52758657677E+03  0.25500000920E-02 0.  1.
        2   -1    0    0  501    0  0.00000000000E+00  0.00000000000E+00 -0.16769181233E+04  0.16769181233E+04  0.25500000920E-02 0. -1.
    10030    2    1    2    0    0  0.00000000000E+00  0.00000000000E+00 -0.11493315466E+04  0.22045047001E+04  0.18811905722E+04 0.  0.
        1    1    3    3  502    0  0.56669164456E+02 -0.22749141464E+03 -0.16421301039E+04  0.16587811839E+04  0.50400001928E-02 0. -1.
       -1    1    3    3    0  502 -0.56669164456E+02  0.22749141464E+03  0.49279855736E+03  0.54572351617E+03  0.50400001928E-02 0.  1.
</event>
<event>
 5   0  0.4829134E-04  0.1973574E+04  0.7818609E-02  0.8619076E-01
        2   -1    0    0  501    0  0.00000000000E+00  0.00000000000E+00  0.80388874056E+03  0.80388874057E+03  0.25500000920E-02 0. -1.
       -2   -1    0    0    0  501  0.00000000000E+00  0.00000000000E+00 -0.12112975114E+04  0.12112975114E+04  0.25500000920E-02 0.  1.
    10030    2    1    2    0    0  0.00000000000E+00  0.00000000000E+00 -0.40740877086E+03  0.20151862520E+04  0.19735738455E+04 0.  0.
        2    1    3    3  502    0  0.42603366688E+03  0.86311133295E+03 -0.42573474344E+03  0.10524808455E+04  0.25500000920E-02 0.  1.
       -2    1    3    3    0  502 -0.42603366688E+03 -0.86311133295E+03  0.18325972585E+02  0.96270540648E+03  0.25500000920E-02 0. -1.
</event>
<event>
 5   0  0.2261755E-04  0.1147865E+04  0.7818609E-02  0.9159755E-01
        1   -1    0    0  501    0  0.00000000000E+00  0.00000000000E+00  0.56844141654E+03  0.56844141656E+03  0.50400001928E-02 0. -1.
       -1   -1    0    0    0  501  0.00000000000E+00  0.00000000000E+00 -0.57947698303E+03  0.57947698305E+03  0.50400001928E-02 0.  1.
    10030    2    1    2    0    0  0.00000000000E+00  0.00000000000E+00 -0.11035566489E+02  0.11479183996E+04  0.11478653529E+04 0.  0.
        1    1    3    3  502    0 -0.35730911706E+03 -0.20539642821E+03  0.39392678792E+03  0.57011912099E+03  0.50400001928E-02 0. -1.
       -1    1    3    3    0  502  0.35730911706E+03  0.20539642821E+03 -0.40496235441E+03  0.57779927861E+03  0.50400001928E-02 0.  1.
</event>
<event>
 5   0  0.2376359E-04  0.1109957E+04  0.7818609E-02  0.9195541E-01
       -1   -1    0    0    0  501  0.00000000000E+00  0.00000000000E+00  0.11446243336E+04  0.11446243336E+04  0.50400001928E-02 0. -1.
        1   -1    0    0  501    0  0.00000000000E+00  0.00000000000E+00 -0.26908481897E+03  0.26908481902E+03  0.50400001928E-02 0.  1.
    10030    2    1    2    0    0  0.00000000000E+00  0.00000000000E+00  0.87553951458E+03  0.14137091526E+04  0.11099568129E+04 0.  0.
        2    1    3    3  502    0 -0.46817703848E+03  0.83884346029E+02  0.80198950690E+03  0.93242345104E+03  0.25500000920E-02 0. -1.
       -2    1    3    3    0  502  0.46817703848E+03 -0.83884346029E+02  0.73550007684E+02  0.48128570154E+03  0.25500000920E-02 0.  1.
</event>
<event>
 5   0  0.4761944E-04  0.1900808E+04  0.7818609E-02  0.8654454E-01
        2   -1    0    0  501    0  0.00000000000E+00  0.00000000000E+00  0.13624378780E+04  0.13624378780E+04  0.25500000920E-02 0.  1.
       -2   -1    0    0    0  501  0.00000000000E+00  0.00000000000E+00 -0.66297933057E+03  0.66297933057E+03  0.25500000920E-02 0. -1.
    10030    2    1    2    0    0  0.00000000000E+00  0.00000000000E+00  0.69945854743E+03  0.20254172086E+04  0.19008084094E+04 0.  0.
        4    1    3    3  502    0  0.47001730534E+03 -0.62694945894E+03  0.92284040582E+03  0.12106270767E+04  0.12699999809E+01 0.  1.
       -4    1    3    3    0  502 -0.47001730534E+03  0.62694945894E+03 -0.22338185839E+03  0.81479013184E+03  0.12699999809E+01 0. -1.
</event>
<event>
 5   0  0.4761944E-04  0.1905375E+04  0.7818609E-02  0.8652185E-01
       -2   -1    0    0    0  501  0.00000000000E+00  0.00000000000E+00  0.46116771109E+03  0.46116771110E+03  0.25500000920E-02 0.  1.
        2   -1    0    0  501    0  0.00000000000E+00  0.00000000000E+00 -0.19680777402E+04  0.19680777402E+04  0.25500000920E-02 0. -1.
    10030    2    1    2    0    0  0.00000000000E+00  0.00000000000E+00 -0.15069100291E+04  0.24292454513E+04  0.19053754556E+04 0.  0.
        4    1    3    3  502    0 -0.41156791069E+03 -0.50959323938E+03  0.12850611640E+03  0.66752441872E+03  0.12699999809E+01 0.  1.
       -4    1    3    3    0  502  0.41156791069E+03  0.50959323938E+03 -0.16354161455E+04  0.17617210326E+04  0.12699999809E+01 0. -1.
</event>
<event>
 5   0  0.2510069E-04  0.1867244E+04  0.7818609E-02  0.8671335E-01
        1   -1    0    0  501    0  0.00000000000E+00  0.00000000000E+00  0.83865945876E+03  0.83865945878E+03  0.50400001928E-02 0. -1.
       -1   -1    0    0    0  501  0.00000000000E+00  0.00000000000E+00 -0.10393370162E+04  0.10393370162E+04  0.50400001928E-02 0.  1.
    10030    2    1    2    0    0  0.00000000000E+00  0.00000000000E+00 -0.20067755747E+03  0.18779964750E+04  0.18672437650E+04 0.  0.
        4    1    3    3  502    0 -0.32947955300E+03  0.54733471839E+02  0.77651643035E+03  0.84529989252E+03  0.12699999809E+01 0. -1.
       -4    1    3    3    0  502  0.32947955300E+03 -0.54733471839E+02 -0.97719398782E+03  0.10326965825E+04  0.12699999809E+01 0.  1.
</event>
<event>
 5   0  0.2376359E-04  0.1940107E+04  0.7818609E-02  0.8635146E-01
        1   -1    0    0  501    0  0.00000000000E+00  0.00000000000E+00  0.12923922917E+04  0.12923922917E+04  0.50400001928E-02 0.  1.
       -1   -1    0    0    0  501  0.00000000000E+00  0.00000000000E+00 -0.72811024057E+03  0.72811024059E+03  0.50400001928E-02 0. -1.
    10030    2    1    2    0    0  0.00000000000E+00  0.00000000000E+00  0.56428205115E+03  0.20205025323E+04  0.19401072779E+04 0.  0.
        2    1    3    3  502    0  0.58280704918E+03  0.21069152911E+03  0.10593564337E+04  0.12273104867E+04  0.25500000920E-02 0.  1.
       -2    1    3    3    0  502 -0.58280704918E+03 -0.21069152911E+03 -0.49507438257E+03  0.79319204566E+03  0.25500000920E-02 0. -1.
</event>
<event>
 5   0  0.4839293E-04  0.1896036E+04  0.7818609E-02  0.8656832E-01
        2   -1    0    0  501    0  0.00000000000E+00  0.00000000000E+00  0.13244236771E+04  0.13244236771E+04  0.25500000920E-02 0. -1.
       -2   -1    0    0    0  501  0.00000000000E+00  0.00000000000E+00 -0.67858792638E+03  0.67858792639E+03  0.25500000920E-02 0.  1.
    10030    2    1    2    0    0  0.00000000000E+00  0.00000000000E+00  0.64583575074E+03  0.20030116035E+04  0.18960357768E+04 0.  0.
        5    1    3    3  502    0 -0.12893633200E+02  0.90500395082E+03  0.25019520577E+02  0.90545373332E+03  0.46999998093E+01 0.  1.
       -5    1    3    3    0  502  0.12893633200E+02 -0.90500395082E+03  0.62081623016E+03  0.10975578702E+04  0.46999998093E+01 0. -1.
</event>
<event>
 5   0  0.1729375E-04  0.1773181E+04  0.7818609E-02  0.8720693E-01
       -4   -1    0    0    0  501  0.00000000000E+00  0.00000000000E+00  0.50921398472E+03  0.50921556843E+03  0.12699999809E+01 0.  1.
        4   -1    0    0  501    0  0.00000000000E+00  0.00000000000E+00 -0.15436349846E+04  0.15436355070E+04  0.12699999809E+01 0. -1.
    10030    2    1    2    0    0  0.00000000000E+00  0.00000000000E+00 -0.10344209998E+04  0.20528510754E+04  0.17731809645E+04 0.  0.
        4    1    3    3  502    0  0.37676757721E+03 -0.63037252757E+03  0.57838129671E+02  0.73666151854E+03  0.12699999809E+01 0.  1.
       -4    1    3    3    0  502 -0.37676757721E+03  0.63037252757E+03 -0.10922591295E+04  0.13161895569E+04  0.12699999809E+01 0. -1.
</event>
<event>
 5   0  0.2355414E-04  0.2178636E+04  0.7818609E-02  0.8527373E-01
        1   -1    0    0  501    0  0.00000000000E+00  0.00000000000E+00  0.24633126158E+04  0.24633126158E+04  0.50400001928E-02 0.  1.
       -1   -1    0    0    0  501  0.00000000000E+00  0.00000000000E+00 -0.48171454211E+03  0.48171454213E+03  0.50400001928E-02 0. -1.
    10030    2    1    2    0    0  0.00000000000E+00  0.00000000000E+00  0.19815980737E+04  0.29450271580E+04  0.21786358198E+04 0.  0.
        5    1    3    3  502    0  0.89809298429E+02 -0.39363111062E+03 -0.37682150288E+03  0.55229312540E+03  0.46999998093E+01 0. -1.
       -5    1    3    3    0  502 -0.89809298429E+02  0.39363111062E+03  0.23584195766E+04  0.23927340326E+04  0.46999998093E+01 0.  1.
</event>
<event>
 5   0  0.4829134E-04  0.1920646E+04  0.7818609E-02  0.8644647E-01
       -2   -1    0    0    0  501  0.00000000000E+00  0.00000000000E+00  0.62975202681E+03  0.62975202681E+03  0.25500000920E-02 0. -1.
        2   -1    0    0  501    0  0.00000000000E+00  0.00000000000E+00 -0.14644181018E+04  0.14644181018E+04  0.25500000920E-02 0.  1.
    10030    2    1    2    0    0  0.00000000000E+00  0.00000000000E+00 -0.83466607497E+03  0.20941701286E+04  0.19206460035E+04 0.  0.
        2    1    3    3  502    0  0.14902790006E+03 -0.87292260676E+03 -0.82240393629E+03  0.12085327579E+04  0.25500000920E-02 0. -1.
       -2    1    3    3    0  502 -0.14902790006E+03  0.87292260676E+03 -0.12262138676E+02  0.88563737073E+03  0.25500000920E-02 0.  1.
</event>
<event>
 5   0  0.2510069E-04  0.1855415E+04  0.7818609E-02  0.8677373E-01
       -1   -1    0    0    0  501  0.00000000000E+00  0.00000000000E+00  0.67997583617E+03  0.67997583618E+03  0.50400001928E-02 0.  1.
        1   -1    0    0  501    0  0.00000000000E+00  0.00000000000E+00 -0.12656941496E+04  0.12656941496E+04  0.50400001928E-02 0. -1.
    10030    2    1    2    0    0  0.00000000000E+00  0.00000000000E+00 -0.58571831342E+03  0.19456699858E+04  0.18554152503E+04 0.  0.
        4    1    3    3  502    0  0.90966476899E+03  0.16317099188E+03 -0.20815195761E+03  0.94733500669E+03  0.12699999809E+01 0.  1.
       -4    1    3    3    0  502 -0.90966476899E+03 -0.16317099188E+03 -0.37756635582E+03  0.99833497910E+03  0.12699999809E+01 0. -1.
</event>
<event>
 5   0  0.4802635E-04  0.1947969E+04  0.7818609E-02  0.8631341E-01
       -2   -1    0    0    0  501  0.00000000000E+00  0.00000000000E+00  0.60671624309E+03  0.60671624309E+03  0.25500000920E-02 0. -1.
        2   -1    0    0  501    0  0.00000000000E+00  0.00000000000E+00 -0.15635743205E+04  0.15635743205E+04  0.25500000920E-02 0.  1.
    10030    2    1    2    0    0  0.00000000000E+00  0.00000000000E+00 -0.95685807736E+03  0.21702905635E+04  0.19479691348E+04 0.  0.
        3    1    3    3  502    0 -0.11136105052E+03 -0.11240786596E+03 -0.15491589031E+04  0.15572187159E+04  0.10100000352E+00 0.  1.
       -3    1    3    3    0  502  0.11136105052E+03  0.11240786596E+03  0.59230082578E+03  0.61307184760E+03  0.10100000352E+00 0. -1.
</event>
<event>
 5   0  0.1729375E-04  0.1903649E+04  0.7818609E-02  0.8653042E-01
       -4   -1    0    0    0  501  0.00000000000E+00  0.00000000000E+00  0.14468086501E+04  0.14468092075E+04  0.12699999809E+01 0. -1.
        4   -1    0    0  501    0  0.00000000000E+00  0.00000000000E+00 -0.62618366609E+03  0.62618495397E+03  0.12699999809E+01 0.  1.
    10030    2    1    2    0    0  0.00000000000E+00  0.00000000000E+00  0.82062498402E+03  0.20729941615E+04  0.19036489774E+04 0.  0.
        3    1    3    3  502    0 -0.73598031142E+03  0.35846247980E+03  0.93911072659E+03  0.12458295771E+04  0.10100000352E+00 0. -1.
       -3    1    3    3    0  502  0.73598031142E+03 -0.35846247980E+03 -0.11848574257E+03  0.82716458436E+03  0.10100000352E+00 0.  1.
</event>
<event>
 5   0  0.4829134E-04  0.1908142E+04  0.7818609E-02  0.8650814E-01
       -2   -1    0    0    0  501  0.00000000000E+00  0.00000000000E+00  0.69288729021E+03  0.69288729022E+03  0.25500000920E-02 0.  1.
        2   -1    0    0  501    0  0.00000000000E+00  0.00000000000E+00 -0.13137075086E+04  0.13137075086E+04  0.25500000920E-02 0. -1.
    10030    2    1    2    0    0  0.00000000000E+00  0.00000000000E+00 -0.62082021840E+03  0.20065947988E+04  0.19081417513E+04 0.  0.
        2    1    3    3  502    0  0.62999826433E+03 -0.70126017925E+02  0.43942728358E+03  0.77130526318E+03  0.25500000920E-02 0.  1.
       -2    1    3    3    0  502 -0.62999826433E+03  0.70126017925E+02 -0.10602475020E+04  0.12352895357E+04  0.25500000920E-02 0. -1.
</event>
<event>
 5   0  0.2317458E-04  0.9812705E+03  0.7818609E-02  0.9329329E-01
       -1   -1    0    0    0  501  0.00000000000E+00  0.00000000000E+00  0.42484059259E+03  0.42484059262E+03  0.50400001928E-02 0.  1.
        1   -1    0    0  501    0  0.00000000000E+00  0.00000000000E+00 -0.56661948191E+03  0.56661948194E+03  0.50400001928E-02 0. -1.
    10030    2    1    2    0    0  0.00000000000E+00  0.00000000000E+00 -0.14177888932E+03  0.99146007455E+03  0.98127051621E+03 0.  0.
        3    1    3    3  502    0  0.14552630238E+03  0.33867033962E+03 -0.39805336318E+03  0.54251451018E+03  0.10100000352E+00 0. -1.
       -3    1    3    3    0  502 -0.14552630238E+03 -0.33867033962E+03  0.25627447385E+03  0.44894556437E+03  0.10100000352E+00 0.  1.
</event>
<event>
 5   0  0.4829134E-04  0.1883593E+04  0.7818609E-02  0.8663067E-01
        2   -1    0    0  501    0  0.00000000000E+00  0.00000000000E+00  0.20873176812E+04  0.20873176812E+04  0.25500000920E-02 0.  1.
       -2   -1    0    0    0  501  0.00000000000E+00  0.00000000000E+00 -0.42493789519E+03  0.42493789519E+03  0.25500000920E-02 0. -1.
    10030    2    1    2    0    0  0.00000000000E+00  0.00000000000E+00  0.16623797860E+04  0.25122555764E+04  0.18835927182E+04 0.  0.
        2    1    3    3  502    0 -0.34522884689E+03 -0.80011044701E+03  0.13076618813E+04  0.15714131474E+04  0.25500000920E-02 0.  1.
       -2    1    3    3    0  502  0.34522884689E+03  0.80011044701E+03  0.35471790468E+03  0.94084242892E+03  0.25500000920E-02 0. -1.
</event>
<event>
 5   0  0.2355414E-04  0.2397394E+04  0.7818609E-02  0.8440480E-01
       -1   -1    0    0    0  501  0.00000000000E+00  0.00000000000E+00  0.67646259535E+03  0.67646259536E+03  0.50400001928E-02 0. -1.
        1   -1    0    0  501    0  0.00000000000E+00  0.00000000000E+00 -0.21240999263E+04  0.21240999263E+04  0.50400001928E-02 0.  1.
    10030    2    1    2    0    0  0.00000000000E+00  0.00000000000E+00 -0.14476373310E+04  0.28005625217E+04  0.23973937090E+04 0.  0.
        5    1    3    3  502    0  0.97998424994E+03 -0.76238656598E+02  0.77609211838E+02  0.98601558946E+03  0.46999998093E+01 0. -1.
       -5    1    3    3    0  502 -0.97998424994E+03  0.76238656598E+02 -0.15252465428E+04  0.18145469322E+04  0.46999998093E+01 0.  1.
</event>
<event>
 5   0  0.2510069E-04  0.1975837E+04  0.7818609E-02  0.8618002E-01
       -1   -1    0    0    0  501  0.00000000000E+00  0.00000000000E+00  0.11255247280E+04  0.11255247281E+04  0.50400001928E-02 0.  1.
        1   -1    0    0  501    0  0.00000000000E+00  0.00000000000E+00 -0.86713577616E+03  0.86713577618E+03  0.50400001928E-02 0. -1.
    10030    2    1    2    0    0  0.00000000000E+00  0.00000000000E+00  0.25838895189E+03  0.19926605042E+04  0.19758367935E+04 0.  0.
        4    1    3    3  502    0  0.84450276719E+03 -0.88230079352E+02 -0.38009215564E+03  0.93029088482E+03  0.12699999809E+01 0.  1.
       -4    1    3    3    0  502 -0.84450276719E+03  0.88230079352E+02  0.63848110752E+03  0.10623696194E+04  0.12699999809E+01 0. -1.
</event>
<event>
 5   0  0.4802635E-04  0.1933735E+04  0.7818609E-02  0.8638244E-01
       -2   -1    0    0    0  501  0.00000000000E+00  0.00000000000E+00  0.95561194758E+03  0.95561194759E+03  0.25500000920E-02 0.  1.
        2   -1    0    0  501    0  0.00000000000E+00  0.00000000000E+00 -0.97825576559E+03  0.97825576559E+03  0.25500000920E-02 0. -1.
    10030    2    1    2    0    0  0.00000000000E+00  0.00000000000E+00 -0.22643818006E+02  0.19338677132E+04  0.19337351395E+04 0.  0.
        3    1    3    3  502    0  0.53565125027E+03  0.78324757169E+03  0.17425445894E+03  0.96476092745E+03  0.10100000352E+00 0.  1.
       -3    1    3    3    0  502 -0.53565125027E+03 -0.78324757169E+03 -0.19689827695E+03  0.96910678573E+03  0.10100000352E+00 0. -1.
</event>
<event>
 5   0  0.2317458E-04  0.1902364E+04  0.7818609E-02  0.8653681E-01
        1   -1    0    0  501    0  0.00000000000E+00  0.00000000000E+00  0.63612080927E+03  0.63612080929E+03  0.50400001928E-02 0.  1.
       -1   -1    0    0    0  501  0.00000000000E+00  0.00000000000E+00 -0.14222876454E+04  0.14222876454E+04  0.50400001928E-02 0. -1.
    10030    2    1    2    0    0  0.00000000000E+00  0.00000000000E+00 -0.78616683610E+03  0.20584084547E+04  0.19023635489E+04 0.  0.
        3    1    3    3  502    0  0.66167821492E+03  0.45116180862E+03  0.16222065128E+03  0.81711724223E+03  0.10100000352E+00 0.  1.
       -3    1    3    3    0  502 -0.66167821492E+03 -0.45116180862E+03 -0.94838748738E+03  0.12412912124E+04  0.10100000352E+00 0. -1.
</event>
<event>
 5   0  0.2376359E-04  0.1916950E+04  0.7818609E-02  0.8646465E-01
        1   -1    0    0  501    0  0.00000000000E+00  0.00000000000E+00  0.14349457958E+04  0.14349457959E+04  0.50400001928E-02 0.  1.
       -1   -1    0    0    0  501  0.00000000000E+00  0.00000000000E+00 -0.64021533969E+03  0.64021533971E+03  0.50400001928E-02 0. -1.
    10030    2    1    2    0    0  0.00000000000E+00  0.00000000000E+00  0.79473045616E+03  0.20751611356E+04  0.19169499839E+04 0.  0.
        2    1    3    3  502    0  0.29192569944E+03 -0.91224319439E+03  0.43588347806E+03  0.10523320133E+04  0.25500000920E-02 0. -1.
       -2    1    3    3    0  502 -0.29192569944E+03  0.91224319439E+03  0.35884697810E+03  0.10228291223E+04  0.25500000920E-02 0.  1.
</event>
<event>
 5   0  0.2376359E-04  0.1878857E+04  0.7818609E-02  0.8665453E-01
       -1   -1    0    0    0  501  0.00000000000E+00  0.00000000000E+00  0.10791322367E+04  0.10791322368E+04  0.50400001928E-02 0.  1.
        1   -1    0    0  501    0  0.00000000000E+00  0.00000000000E+00 -0.81781043780E+03  0.81781043782E+03  0.50400001928E-02 0. -1.
    10030    2    1    2    0    0  0.00000000000E+00  0.00000000000E+00  0.26132179894E+03  0.18969426746E+04  0.18788566811E+04 0.  0.
        2    1    3    3  502    0  0.22214473426E+02 -0.26182118278E+03  0.10412752114E+04  0.10739170734E+04  0.25500000920E-02 0.  1.
       -2    1    3    3    0  502 -0.22214473426E+02  0.26182118278E+03 -0.77995341248E+03  0.82302560119E+03  0.25500000920E-02 0. -1.
</event>
<event>
 5   0  0.4761944E-04  0.2009573E+04  0.7818609E-02  0.8602158E-01
       -2   -1    0    0    0  501  0.00000000000E+00  0.00000000000E+00  0.66383823699E+03  0.66383823700E+03  0.25500000920E-02 0. -1.
        2   -1    0    0  501    0  0.00000000000E+00  0.00000000000E+00 -0.15208462825E+04  0.15208462825E+04  0.25500000920E-02 0.  1.
    10030    2    1    2    0    0  0.00000000000E+00  0.00000000000E+00 -0.85700804547E+03  0.21846845195E+04  0.20095730043E+04 0.  0.
        4    1    3    3  502    0  0.44329209935E+03  0.43902540610E+03 -0.12847546933E+04  0.14282322736E+04  0.12699999809E+01 0.  1.
       -4    1    3    3    0  502 -0.44329209935E+03 -0.43902540610E+03  0.42774664786E+03  0.75645224582E+03  0.12699999809E+01 0. -1.
</event>
<event>
 5   0  0.2261755E-04  0.1944935E+04  0.7818609E-02  0.8632807E-01
        1   -1    0    0  501    0  0.00000000000E+00  0.00000000000E+00  0.18700731069E+04  0.18700731070E+04  0.50400001928E-02 0.  1.
       -1   -1    0    0    0  501  0.00000000000E+00  0.00000000000E+00 -0.50569868848E+03  0.50569868850E+03  0.50400001928E-02 0. -1.
    10030    2    1    2    0    0  0.00000000000E+00  0.00000000000E+00  0.13643744185E+04  0.23757717955E+04  0.19449354926E+04 0.  0.
        1    1    3    3  502    0 -0.23252113486E+03  0.70872801779E+02 -0.46798927096E+03  0.52735470980E+03  0.50400001928E-02 0. -1.
       -1    1    3    3    0  502  0.23252113486E+03 -0.70872801779E+02  0.18323636894E+04  0.18484170857E+04  0.50400001928E-02 0.  1.
</event>
<event>
 5   0  0.2261755E-04  0.1817336E+04  0.7818609E-02  0.8697134E-01
        1   -1    0    0  501    0  0.00000000000E+00  0.00000000000E+00  0.12028238159E+04  0.12028238160E+04  0.50400001928E-02 0.  1.
       -1   -1    0    0    0  501  0.00000000000E+00  0.00000000000E+00 -0.68644950802E+03  0.68644950804E+03  0.50400001928E-02 0. -1.
    10030    2    1    2    0    0  0.00000000000E+00  0.00000000000E+00  0.51637430792E+03  0.18892733240E+04  0.18173363109E+04 0.  0.
        1    1    3    3  502    0 -0.21972929228E+03  0.76760610037E+03  0.70915294681E+03  0.10678941845E+04  0.50400001928E-02 0. -1.
       -1    1    3    3    0  502  0.21972929228E+03 -0.76760610037E+03 -0.19277863889E+03  0.82137913953E+03  0.50400001928E-02 0.  1.
</event>
<event>
 5   0  0.4839293E-04  0.1900173E+04  0.7818609E-02  0.8654770E-01
        2   -1    0    0  501    0  0.00000000000E+00  0.00000000000E+00  0.86609152676E+03  0.86609152677E+03  0.25500000920E-02 0.  1.
       -2   -1    0    0    0  501  0.00000000000E+00  0.00000000000E+00 -0.10422271418E+04  0.10422271418E+04  0.25500000920E-02 0. -1.
    10030    2    1    2    0    0  0.00000000000E+00  0.00000000000E+00 -0.17613561505E+03  0.19083186686E+04  0.19001727253E+04 0.  0.
        5    1    3    3  502    0  0.19113943927E+03  0.80390312422E+03  0.38282122223E+03  0.91069681923E+03  0.46999998093E+01 0. -1.
       -5    1    3    3    0  502 -0.19113943927E+03 -0.80390312422E+03 -0.55895683728E+03  0.99762184935E+03  0.46999998093E+01 0.  1.
</event>
<event>
 5   0  0.4973411E-04  0.1650464E+04  0.7818609E-02  0.8790132E-01
       -2   -1    0    0    0  501  0.00000000000E+00  0.00000000000E+00  0.12809327373E+04  0.12809327373E+04  0.25500000920E-02 0. -1.
        2   -1    0    0  501    0  0.00000000000E+00  0.00000000000E+00 -0.53164995825E+03  0.53164995826E+03  0.25500000920E-02 0.  1.
    10030    2    1    2    0    0  0.00000000000E+00  0.00000000000E+00  0.74928277903E+03  0.18125826955E+04  0.16504639788E+04 0.  0.
        1    1    3    3  502    0  0.67712587641E+03 -0.58268431713E+02  0.88871584458E+03  0.11187986928E+04  0.50400001928E-02 0. -1.
       -1    1    3    3    0  502 -0.67712587641E+03  0.58268431713E+02 -0.13943306555E+03  0.69378400272E+03  0.50400001928E-02 0.  1.
</event>
<event>
 5   0  0.4973411E-04  0.1612776E+04  0.7818609E-02  0.8812737E-01
        2   -1    0    0  501    0  0.00000000000E+00  0.00000000000E+00  0.23304397592E+04  0.23304397592E+04  0.25500000920E-02 0.  1.
       -2   -1    0    0    0  501  0.00000000000E+00  0.00000000000E+00 -0.27902971918E+03  0.27902971919E+03  0.25500000920E-02 0. -1.
    10030    2    1    2    0    0  0.00000000000E+00  0.00000000000E+00  0.20514100401E+04  0.26094694784E+04  0.16127764279E+04 0.  0.
        1    1    3    3  502    0 -0.18041388737E+03  0.71457554198E+03  0.15551999322E+04  0.17209922153E+04  0.50400001928E-02 0.  1.
       -1    1    3    3    0  502  0.18041388737E+03 -0.71457554198E+03  0.49621010788E+03  0.88847726316E+03  0.50400001928E-02 0. -1.
</event>
<event>
 5   0  0.2317458E-04  0.1889852E+04  0.7818609E-02  0.8659924E-01
        1   -1    0    0  501    0  0.00000000000E+00  0.00000000000E+00  0.17597665191E+04  0.17597665191E+04  0.50400001928E-02 0.  1.
       -1   -1    0    0    0  501  0.00000000000E+00  0.00000000000E+00 -0.50738834191E+03  0.50738834194E+03  0.50400001928E-02 0. -1.
    10030    2    1    2    0    0  0.00000000000E+00  0.00000000000E+00  0.12523781772E+04  0.22671548610E+04  0.18898518633E+04 0.  0.
        3    1    3    3  502    0 -0.14691696338E+03 -0.69029477061E+03 -0.12758020712E+03  0.71719466250E+03  0.10100000352E+00 0. -1.
       -3    1    3    3    0  502  0.14691696338E+03  0.69029477061E+03  0.13799583843E+04  0.15499601985E+04  0.10100000352E+00 0.  1.
</event>
<event>
 5   0  0.4839293E-04  0.2371728E+04  0.7818609E-02  0.8450165E-01
       -2   -1    0    0    0  501  0.00000000000E+00  0.00000000000E+00  0.11644921381E+04  0.11644921381E+04  0.25500000920E-02 0. -1.
        2   -1    0    0  501    0  0.00000000000E+00  0.00000000000E+00 -0.12076280424E+04  0.12076280424E+04  0.25500000920E-02 0.  1.
    10030    2    1    2    0    0  0.00000000000E+00  0.00000000000E+00 -0.43135904317E+02  0.23721201804E+04  0.23717279448E+04 0.  0.
        5    1    3    3  502    0 -0.12455767912E+03  0.83277363574E+03  0.81356997653E+03  0.11708734947E+04  0.46999998093E+01 0. -1.
       -5    1    3    3    0  502  0.12455767912E+03 -0.83277363574E+03 -0.85670588084E+03  0.12012466858E+04  0.46999998093E+01 0.  1.
</event>
<event>
 5   0  0.4829134E-04  0.2322721E+04  0.7818609E-02  0.8469016E-01
       -2   -1    0    0    0  501  0.00000000000E+00  0.00000000000E+00  0.57471913945E+03  0.57471913946E+03  0.25500000920E-02 0. -1.
        2   -1    0    0  501    0  0.00000000000E+00  0.00000000000E+00 -0.23468118952E+04  0.23468118952E+04  0.25500000920E-02 0.  1.
    10030    2    1    2    0    0  0.00000000000E+00  0.00000000000E+00 -0.17720927557E+04  0.29215310347E+04  0.23227205711E+04 0.  0.
        2    1    3    3  502    0 -0.39014998264E+03  0.92769367140E+03 -0.16150585867E+04  0.19029573814E+04  0.25500000920E-02 0.  1.
       -2    1    3    3    0  502  0.39014998264E+03 -0.92769367140E+03 -0.15703416908E+03  0.10185736533E+04  0.25500000920E-02 0. -1.
</event>
<event>
 5   0  0.2355414E-04  0.1945185E+04  0.7818609E-02  0.8632686E-01
        1   -1    0    0  501    0  0.00000000000E+00  0.00000000000E+00  0.67158414853E+03  0.67158414855E+03  0.50400001928E-02 0.  1.
       -1   -1    0    0    0  501  0.00000000000E+00  0.00000000000E+00 -0.14085140997E+04  0.14085140997E+04  0.50400001928E-02 0. -1.
    10030    2    1    2    0    0  0.00000000000E+00  0.00000000000E+00 -0.73692995116E+03  0.20800982483E+04  0.19451845592E+04 0.  0.
        5    1    3    3  502    0 -0.54103090073E+03  0.10948931421E+03  0.48783044360E+03  0.73668377013E+03  0.46999998093E+01 0.  1.
       -5    1    3    3    0  502  0.54103090073E+03 -0.10948931421E+03 -0.12247603948E+04  0.13434144781E+04  0.46999998093E+01 0. -1.
</event>
<event>
 5   0  0.4973411E-04  0.2041344E+04  0.7818609E-02  0.8587531E-01
       -2   -1    0    0    0  501  0.00000000000E+00  0.00000000000E+00  0.58998322059E+03  0.58998322060E+03  0.25500000920E-02 0. -1.
        2   -1    0    0  501    0  0.00000000000E+00  0.00000000000E+00 -0.17657651218E+04  0.17657651218E+04  0.25500000920E-02 0.  1.
    10030    2    1    2    0    0  0.00000000000E+00  0.00000000000E+00 -0.11757819012E+04  0.23557483424E+04  0.20413444524E+04 0.  0.
        1    1    3    3  502    0 -0.63965136812E+03 -0.76628899044E+03 -0.34194941448E+03  0.10551218374E+04  0.50400001928E-02 0. -1.
       -1    1    3    3    0  502  0.63965136812E+03  0.76628899044E+03 -0.83383248670E+03  0.13006265050E+04  0.50400001928E-02 0.  1.
</event>
<event>
 5   0  0.4761944E-04  0.2036071E+04  0.7818609E-02  0.8589940E-01
        2   -1    0    0  501    0  0.00000000000E+00  0.00000000000E+00  0.99867126469E+03  0.99867126469E+03  0.25500000920E-02 0. -1.
       -2   -1    0    0    0  501  0.00000000000E+00  0.00000000000E+00 -0.10377753438E+04  0.10377753438E+04  0.25500000920E-02 0.  1.
    10030    2    1    2    0    0  0.00000000000E+00  0.00000000000E+00 -0.39104079143E+02  0.20364466085E+04  0.20360711334E+04 0.  0.
        4    1    3    3  502    0  0.59946683698E+03 -0.64996324017E+03 -0.52420638110E+03  0.10279137343E+04  0.12699999809E+01 0.  1.
       -4    1    3    3    0  502 -0.59946683698E+03  0.64996324017E+03  0.48510230195E+03  0.10085328743E+04  0.12699999809E+01 0. -1.
</event>
<event>
 5   0  0.4973411E-04  0.1970358E+04  0.7818609E-02  0.8620606E-01
       -2   -1    0    0    0  501  0.00000000000E+00  0.00000000000E+00  0.13316768486E+04  0.13316768486E+04  0.25500000920E-02 0. -1.
        2   -1    0    0  501    0  0.00000000000E+00  0.00000000000E+00 -0.72883846682E+03  0.72883846682E+03  0.25500000920E-02 0.  1.
    10030    2    1    2    0    0  0.00000000000E+00  0.00000000000E+00  0.60283838182E+03  0.20605153155E+04  0.19703576454E+04 0.  0.
        1    1    3    3  502    0 -0.44462111654E+03  0.87652343713E+03  0.37231534239E+03  0.10509995182E+04  0.50400001928E-02 0. -1.
       -1    1    3    3    0  502  0.44462111654E+03 -0.87652343713E+03  0.23052303942E+03  0.10095157972E+04  0.50400001928E-02 0.  1.
</event>
<event>
 5   0  0.4829134E-04  0.1910203E+04  0.7818609E-02  0.8649794E-01
        2   -1    0    0  501    0  0.00000000000E+00  0.00000000000E+00  0.71830632053E+03  0.71830632054E+03  0.25500000920E-02 0.  1.
       -2   -1    0    0    0  501  0.00000000000E+00  0.00000000000E+00 -0.12699581991E+04  0.12699581991E+04  0.25500000920E-02 0. -1.
    10030    2    1    2    0    0  0.00000000000E+00  0.00000000000E+00 -0.55165187854E+03  0.19882645196E+04  0.19102031318E+04 0.  0.
        2    1    3    3  502    0  0.95098125094E+03  0.66214813178E+02 -0.33713335920E+03  0.10111422467E+04  0.25500000920E-02 0.  1.
       -2    1    3    3    0  502 -0.95098125094E+03 -0.66214813178E+02 -0.21451851934E+03  0.97712227293E+03  0.25500000920E-02 0. -1.
</event>
<event>
 5   0  0.2376359E-04  0.1901114E+04  0.7818609E-02  0.8654302E-01
        1   -1    0    0  501    0  0.00000000000E+00  0.00000000000E+00  0.85800081006E+03  0.85800081007E+03  0.50400001928E-02 0. -1.
       -1   -1    0    0    0  501  0.00000000000E+00  0.00000000000E+00 -0.10530979766E+04  0.10530979766E+04  0.50400001928E-02 0.  1.
    10030    2    1    2    0    0  0.00000000000E+00  0.00000000000E+00 -0.19509716654E+03  0.19110987867E+04  0.19011143227E+04 0.  0.
        2    1    3    3  502    0  0.35516332249E+03  0.80776386948E+03  0.25776987373E+03  0.91927621653E+03  0.25500000920E-02 0.  1.
       -2    1    3    3    0  502 -0.35516332249E+03 -0.80776386948E+03 -0.45286704027E+03  0.99182257014E+03  0.25500000920E-02 0. -1.
</event>
<event>
 5   0  0.2376359E-04  0.1802669E+04  0.7818609E-02  0.8704881E-01
        1   -1    0    0  501    0  0.00000000000E+00  0.00000000000E+00  0.13326707738E+04  0.13326707738E+04  0.50400001928E-02 0.  1.
       -1   -1    0    0    0  501  0.00000000000E+00  0.00000000000E+00 -0.60960578100E+03  0.60960578102E+03  0.50400001928E-02 0. -1.
    10030    2    1    2    0    0  0.00000000000E+00  0.00000000000E+00  0.72306499282E+03  0.19422765549E+04  0.18026689190E+04 0.  0.
        2    1    3    3  502    0  0.69419753971E+03 -0.54487790981E+03  0.55903626221E+03  0.10446643974E+04  0.25500000920E-02 0.  1.
       -2    1    3    3    0  502 -0.69419753971E+03  0.54487790981E+03  0.16402873061E+03  0.89761215745E+03  0.25500000920E-02 0. -1.
</event>
<event>
 5   0  0.4973411E-04  0.1576336E+04  0.7818609E-02  0.8835219E-01
       -2   -1    0    0    0  501  0.00000000000E+00  0.00000000000E+00  0.12443972772E+04  0.12443972772E+04  0.25500000920E-02 0.  1.
        2   -1    0    0  501    0  0.00000000000E+00  0.00000000000E+00 -0.49920448363E+03  0.49920448364E+03  0.25500000920E-02 0. -1.
    10030    2    1    2    0    0  0.00000000000E+00  0.00000000000E+00  0.74519279353E+03  0.17436017608E+04  0.15763358782E+04 0.  0.
        1    1    3    3  502    0  0.12054340464E+03 -0.38027250604E+02  0.12331133867E+04  0.12395746886E+04  0.50400001928E-02 0.  1.
       -1    1    3    3    0  502 -0.12054340464E+03  0.38027250604E+02 -0.48792059319E+03  0.50402707216E+03  0.50400001928E-02 0. -1.
</event>
<event>
 5   0  0.2261755E-04  0.2161691E+04  0.7818609E-02  0.8534544E-01
       -1   -1    0    0    0  501  0.00000000000E+00  0.00000000000E+00  0.15082584461E+04  0.15082584461E+04  0.50400001928E-02 0.  1.
        1   -1    0    0  501    0  0.00000000000E+00  0.00000000000E+00 -0.77455357971E+03  0.77455357973E+03  0.50400001928E-02 0. -1.
    10030    2    1    2    0    0  0.00000000000E+00  0.00000000000E+00  0.73370486638E+03  0.22828120258E+04  0.21616909849E+04 0.  0.
        1    1    3    3  502    0 -0.96874823951E+03  0.21506885278E+02  0.87252606789E+03  0.13039315307E+04  0.50400001928E-02 0.  1.
       -1    1    3    3    0  502  0.96874823951E+03 -0.21506885278E+02 -0.13882120150E+03  0.97888049510E+03  0.50400001928E-02 0. -1.
</event>
<event>
 5   0  0.2355414E-04  0.1709661E+04  0.7818609E-02  0.8755873E-01
        1   -1    0    0  501    0  0.00000000000E+00  0.00000000000E+00  0.13795102724E+04  0.13795102724E+04  0.50400001928E-02 0.  1.
       -1   -1    0    0    0  501  0.00000000000E+00  0.00000000000E+00 -0.52970649538E+03  0.52970649541E+03  0.50400001928E-02 0. -1.
    10030    2    1    2    0    0  0.00000000000E+00  0.00000000000E+00  0.84980377702E+03  0.19092167678E+04  0.17096614305E+04 0.  0.
        5    1    3    3  502    0  0.28737320342E+03 -0.13197078312E+03 -0.46197083487E+03  0.55985604213E+03  0.46999998093E+01 0. -1.
       -5    1    3    3    0  502 -0.28737320342E+03  0.13197078312E+03  0.13117746119E+04  0.13493607257E+04  0.46999998093E+01 0.  1.
</event>
<event>
 5   0  0.4802635E-04  0.1946951E+04  0.7818609E-02  0.8631832E-01
        2   -1    0    0  501    0  0.00000000000E+00  0.00000000000E+00  0.28726523589E+03  0.28726523590E+03  0.25500000920E-02 0. -1.
       -2   -1    0    0    0  501  0.00000000000E+00  0.00000000000E+00 -0.32988836737E+04  0.32988836737E+04  0.25500000920E-02 0.  1.
    10030    2    1    2    0    0  0.00000000000E+00  0.00000000000E+00 -0.30116184378E+04  0.35861489096E+04  0.19469510489E+04 0.  0.
        3    1    3    3  502    0 -0.84212270942E+03 -0.44776839740E+03 -0.18648080385E+04  0.20945587187E+04  0.10100000352E+00 0.  1.
       -3    1    3    3    0  502  0.84212270942E+03  0.44776839740E+03 -0.11468103993E+04  0.14915901909E+04  0.10100000352E+00 0. -1.
</event>
<event>
 5   0  0.2510069E-04  0.1948239E+04  0.7818609E-02  0.8631211E-01
       -1   -1    0    0    0  501  0.00000000000E+00  0.00000000000E+00  0.57723605025E+03  0.57723605027E+03  0.50400001928E-02 0.  1.
        1   -1    0    0  501    0  0.00000000000E+00  0.00000000000E+00 -0.16438830006E+04  0.16438830006E+04  0.50400001928E-02 0. -1.
    10030    2    1    2    0    0  0.00000000000E+00  0.00000000000E+00 -0.10666469504E+04  0.22211190509E+04  0.19482387229E+04 0.  0.
        4    1    3    3  502    0 -0.12032099452E+03  0.59501438159E+03  0.33521437948E+03  0.69346200266E+03  0.12699999809E+01 0.  1.
       -4    1    3    3    0  502  0.12032099452E+03 -0.59501438159E+03 -0.14018613299E+04  0.15276570483E+04  0.12699999809E+01 0. -1.
</event>
<event>
 5   0  0.4829134E-04  0.1913563E+04  0.7818609E-02  0.8648135E-01
       -2   -1    0    0    0  501  0.00000000000E+00  0.00000000000E+00  0.60623690508E+03  0.60623690509E+03  0.25500000920E-02 0.  1.
        2   -1    0    0  501    0  0.00000000000E+00  0.00000000000E+00 -0.15100211377E+04  0.15100211377E+04  0.25500000920E-02 0. -1.
    10030    2    1    2    0    0  0.00000000000E+00  0.00000000000E+00 -0.90378423261E+03  0.21162580428E+04  0.19135626889E+04 0.  0.
        2    1    3    3  502    0  0.80543047929E+03 -0.27913203305E+03 -0.93242615118E+03  0.12633493089E+04  0.25500000920E-02 0. -1.
       -2    1    3    3    0  502 -0.80543047929E+03  0.27913203305E+03  0.28641918569E+02  0.85290873389E+03  0.25500000920E-02 0.  1.
</event>
<event>
 5   0  0.2261755E-04  0.1907560E+04  0.7818609E-02  0.8651103E-01
        1   -1    0    0  501    0  0.00000000000E+00  0.00000000000E+00  0.10219079749E+04  0.10219079749E+04  0.50400001928E-02 0. -1.
       -1   -1    0    0    0  501  0.00000000000E+00  0.00000000000E+00 -0.89019367850E+03  0.89019367852E+03  0.50400001928E-02 0.  1.
    10030    2    1    2    0    0  0.00000000000E+00  0.00000000000E+00  0.13171429638E+03  0.19121016534E+04  0.19075597178E+04 0.  0.
        1    1    3    3  502    0 -0.60428871738E+03  0.11686749530E+02 -0.67373064173E+03  0.90510464129E+03  0.50400001928E-02 0. -1.
       -1    1    3    3    0  502  0.60428871738E+03 -0.11686749530E+02  0.80544493810E+03  0.10069970121E+04  0.50400001928E-02 0.  1.
</event>
<event>
 5   0  0.2261755E-04  0.1894280E+04  0.7818609E-02  0.8657709E-01
       -1   -1    0    0    0  501  0.00000000000E+00  0.00000000000E+00  0.81152283453E+03  0.81152283455E+03  0.50400001928E-02 0. -1.
        1   -1    0    0  501    0  0.00000000000E+00  0.00000000000E+00 -0.11054202059E+04  0.11054202059E+04  0.50400001928E-02 0.  1.
    10030    2    1    2    0    0  0.00000000000E+00  0.00000000000E+00 -0.29389737135E+03  0.19169430404E+04  0.18942795347E+04 0.  0.
        1    1    3    3  502    0 -0.14951768054E+03 -0.28709368762E+03 -0.10477078992E+04  0.10965720060E+04  0.50400001928E-02 0.  1.
       -1    1    3    3    0  502  0.14951768054E+03  0.28709368762E+03  0.75381052784E+03  0.82037103446E+03  0.50400001928E-02 0. -1.
</event>
<event>
 5   0  0.4839293E-04  0.1942184E+04  0.7818609E-02  0.8634139E-01
        2   -1    0    0  501    0  0.00000000000E+00  0.00000000000E+00  0.14667185914E+04  0.14667185914E+04  0.25500000920E-02 0.  1.
       -2   -1    0    0    0  501  0.00000000000E+00  0.00000000000E+00 -0.64294513327E+03  0.64294513328E+03  0.25500000920E-02 0. -1.
    10030    2    1    2    0    0  0.00000000000E+00  0.00000000000E+00  0.82377345811E+03  0.21096637247E+04  0.19421839050E+04 0.  0.
        5    1    3    3  502    0  0.90371052034E+03 -0.35299125969E+03  0.36707444526E+03  0.10373337324E+04  0.46999998093E+01 0. -1.
       -5    1    3    3    0  502 -0.90371052034E+03  0.35299125969E+03  0.45669901285E+03  0.10723299923E+04  0.46999998093E+01 0.  1.
</event>
<event>
 5   0  0.2317458E-04  0.1948058E+04  0.7818609E-02  0.8631298E-01
       -1   -1    0    0    0  501  0.00000000000E+00  0.00000000000E+00  0.11920981992E+04  0.11920981992E+04  0.50400001928E-02 0. -1.
        1   -1    0    0  501    0  0.00000000000E+00  0.00000000000E+00 -0.79585064959E+03  0.79585064961E+03  0.50400001928E-02 0.  1.
    10030    2    1    2    0    0  0.00000000000E+00  0.00000000000E+00  0.39624754963E+03  0.19879488488E+04  0.19480576236E+04 0.  0.
        3    1    3    3  502    0 -0.76855314373E+03  0.55281012491E+03 -0.35605988395E+02  0.94738628107E+03  0.10100000352E+00 0.  1.
       -3    1    3    3    0  502  0.76855314373E+03 -0.55281012491E+03  0.43185353802E+03  0.10405625678E+04  0.10100000352E+00 0. -1.
</event>
<event>
 5   0  0.2317458E-04  0.1961086E+04  0.7818609E-02  0.8625033E-01
       -1   -1    0    0    0  501  0.00000000000E+00  0.00000000000E+00  0.67812860330E+03  0.67812860332E+03  0.50400001928E-02 0.  1.
        1   -1    0    0  501    0  0.00000000000E+00  0.00000000000E+00 -0.14178204228E+04  0.14178204229E+04  0.50400001928E-02 0. -1.
    10030    2    1    2    0    0  0.00000000000E+00  0.00000000000E+00 -0.73969181954E+03  0.20959490262E+04  0.19610860084E+04 0.  0.
        3    1    3    3  502    0 -0.50987450440E+03 -0.33069795642E+02  0.52460563555E+03  0.73230915921E+03  0.10100000352E+00 0.  1.
       -3    1    3    3    0  502  0.50987450440E+03  0.33069795642E+02 -0.12642974551E+04  0.13636398670E+04  0.10100000352E+00 0. -1.
</event>
<event>
 5   0  0.4829134E-04  0.1773690E+04  0.7818609E-02  0.8720417E-01
       -2   -1    0    0    0  501  0.00000000000E+00  0.00000000000E+00  0.11748521326E+04  0.11748521326E+04  0.25500000920E-02 0. -1.
        2   -1    0    0  501    0  0.00000000000E+00  0.00000000000E+00 -0.66944122126E+03  0.66944122127E+03  0.25500000920E-02 0.  1.
    10030    2    1    2    0    0  0.00000000000E+00  0.00000000000E+00  0.50541091132E+03  0.18442933539E+04  0.17736904425E+04 0.  0.
        2    1    3    3  502    0  0.72113947884E+03 -0.41026523505E+03  0.57843980135E+03  0.10114110514E+04  0.25500000920E-02 0. -1.
       -2    1    3    3    0  502 -0.72113947884E+03  0.41026523505E+03 -0.73028890026E+02  0.83288230249E+03  0.25500000920E-02 0.  1.
</event>
<event>
 5   0  0.4761944E-04  0.1891475E+04  0.7818609E-02  0.8659111E-01
        2   -1    0    0  501    0  0.00000000000E+00  0.00000000000E+00  0.68139597368E+03  0.68139597368E+03  0.25500000920E-02 0.  1.
       -2   -1    0    0    0  501  0.00000000000E+00  0.00000000000E+00 -0.13126282507E+04  0.13126282507E+04  0.25500000920E-02 0. -1.
    10030    2    1    2    0    0  0.00000000000E+00  0.00000000000E+00 -0.63123227702E+03  0.19940242244E+04  0.18914751967E+04 0.  0.
        4    1    3    3  502    0 -0.13181738742E+03  0.43617440570E+03 -0.11892773276E+04  0.12735800370E+04  0.12699999809E+01 0. -1.
       -4    1    3    3    0  502  0.13181738742E+03 -0.43617440570E+03  0.55804505055E+03  0.72044418740E+03  0.12699999809E+01 0.  1.
</event>
<event>
 5   0  0.2317458E-04  0.1909312E+04  0.7818609E-02  0.8650235E-01
        1   -1    0    0  501    0  0.00000000000E+00  0.00000000000E+00  0.18201714859E+04  0.18201714859E+04  0.50400001928E-02 0. -1.
       -1   -1    0    0    0  501  0.00000000000E+00  0.00000000000E+00 -0.50070453013E+03  0.50070453015E+03  0.50400001928E-02 0.  1.
    10030    2    1    2    0    0  0.00000000000E+00  0.00000000000E+00  0.13194669558E+04  0.23208760161E+04  0.19093120317E+04 0.  0.
        3    1    3    3  502    0 -0.49970374891E+03 -0.73724406482E+03  0.10775303193E+04  0.13979643225E+04  0.10100000352E+00 0. -1.
       -3    1    3    3    0  502  0.49970374891E+03  0.73724406482E+03  0.24193663644E+03  0.92291169352E+03  0.10100000352E+00 0.  1.
</event>
<event>
 5   0  0.4829134E-04  0.1898832E+04  0.7818609E-02  0.8655438E-01
       -2   -1    0    0    0  501  0.00000000000E+00  0.00000000000E+00  0.10734265767E+04  0.10734265767E+04  0.25500000920E-02 0.  1.
        2   -1    0    0  501    0  0.00000000000E+00  0.00000000000E+00 -0.83973222087E+03  0.83973222088E+03  0.25500000920E-02 0. -1.
    10030    2    1    2    0    0  0.00000000000E+00  0.00000000000E+00  0.23369435582E+03  0.19131587976E+04  0.18988321497E+04 0.  0.
        2    1    3    3  502    0  0.88939922411E+03  0.14602529869E+02  0.45123474984E+03  0.99742519178E+03  0.25500000920E-02 0.  1.
       -2    1    3    3    0  502 -0.88939922411E+03 -0.14602529869E+02 -0.21754039402E+03  0.91573360579E+03  0.25500000920E-02 0. -1.
</event>
<event>
 5   0  0.4761944E-04  0.1786009E+04  0.7818609E-02  0.8713775E-01
       -2   -1    0    0    0  501  0.00000000000E+00  0.00000000000E+00  0.38113850796E+03  0.38113850797E+03  0.25500000920E-02 0. -1.
        2   -1    0    0  501    0  0.00000000000E+00  0.00000000000E+00 -0.20923023435E+04  0.20923023435E+04  0.25500000920E-02 0.  1.
    10030    2    1    2    0    0  0.00000000000E+00  0.00000000000E+00 -0.17111638356E+04  0.24734408515E+04  0.17860089512E+04 0.  0.
        4    1    3    3  502    0  0.59816492768E+03  0.65884627759E+03 -0.75217087683E+03  0.11651791017E+04  0.12699999809E+01 0.  1.
       -4    1    3    3    0  502 -0.59816492768E+03 -0.65884627759E+03 -0.95899295875E+03  0.13082617498E+04  0.12699999809E+01 0. -1.
</event>
<event>
 5   0  0.4802635E-04  0.1899087E+04  0.7818609E-02  0.8655311E-01
        2   -1    0    0  501    0  0.00000000000E+00  0.00000000000E+00  0.12394220144E+04  0.12394220144E+04  0.25500000920E-02 0.  1.
       -2   -1    0    0    0  501  0.00000000000E+00  0.00000000000E+00 -0.72746244489E+03  0.72746244490E+03  0.25500000920E-02 0. -1.
    10030    2    1    2    0    0  0.00000000000E+00  0.00000000000E+00  0.51195956950E+03  0.19668844593E+04  0.18990871163E+04 0.  0.
        3    1    3    3  502    0  0.40952315358E+03  0.70533464691E+03  0.75957581299E+03  0.11145230385E+04  0.10100000352E+00 0.  1.
       -3    1    3    3    0  502 -0.40952315358E+03 -0.70533464691E+03 -0.24761624349E+03  0.85236142081E+03  0.10100000352E+00 0. -1.
</event>
<event>
 5   0  0.2355414E-04  0.1958464E+04  0.7818609E-02  0.8626290E-01
        1   -1    0    0  501    0  0.00000000000E+00  0.00000000000E+00  0.62738802934E+03  0.62738802936E+03  0.50400001928E-02 0.  1.
       -1   -1    0    0    0  501  0.00000000000E+00  0.00000000000E+00 -0.15283926657E+04  0.15283926657E+04  0.50400001928E-02 0. -1.
    10030    2    1    2    0    0  0.00000000000E+00  0.00000000000E+00 -0.90100463639E+03  0.21557806951E+04  0.19584639518E+04 0.  0.
        5    1    3    3  502    0 -0.63126891388E+03 -0.25162969855E+03 -0.12265552044E+04  0.14022402455E+04  0.46999998093E+01 0. -1.
       -5    1    3    3    0  502  0.63126891388E+03  0.25162969855E+03  0.32555056797E+03  0.75354044957E+03  0.46999998093E+01 0.  1.
</event>
<event>
 5   0  0.4829134E-04  0.1995565E+04  0.7818609E-02  0.8608697E-01
        2   -1    0    0  501    0  0.00000000000E+00  0.00000000000E+00  0.57274074681E+03  0.57274074681E+03  0.25500000920E-02 0. -1.
       -2   -1    0    0    0  501  0.00000000000E+00  0.00000000000E+00 -0.17382557605E+04  0.17382557605E+04  0.25500000920E-02 0.  1.
    10030    2    1    2    0    0  0.00000000000E+00  0.00000000000E+00 -0.11655150136E+04  0.23109965073E+04  0.19955649851E+04 0.  0.
        2    1    3    3  502    0  0.21441264539E+03 -0.54998208355E+03 -0.15143473840E+04  0.16253310660E+04  0.25500000920E-02 0.  1.
       -2    1    3    3    0  502 -0.21441264539E+03  0.54998208355E+03  0.34883237035E+03  0.68566544126E+03  0.25500000920E-02 0. -1.
</event>
<event>
 5   0  0.1729375E-04  0.1948935E+04  0.7818609E-02  0.8630875E-01
        3   -1    0    0  501    0  0.00000000000E+00  0.00000000000E+00  0.97945545982E+03  0.97945546502E+03  0.10100000352E+00 0.  1.
       -3   -1    0    0    0  501  0.00000000000E+00  0.00000000000E+00 -0.96950465729E+03  0.96950466255E+03  0.10100000352E+00 0. -1.
    10030    2    1    2    0    0  0.00000000000E+00  0.00000000000E+00  0.99508025302E+01  0.19489601276E+04  0.19489347245E+04 0.  0.
        4    1    3    3  502    0  0.51589289773E+03  0.82099803842E+03  0.10193937017E+03  0.97497513256E+03  0.12699999809E+01 0.  1.
       -4    1    3    3    0  502 -0.51589289773E+03 -0.82099803842E+03 -0.91988567639E+02  0.97398499501E+03  0.12699999809E+01 0. -1.
</event>
<event>
 5   0  0.2510069E-04  0.1840291E+04  0.7818609E-02  0.8685162E-01
        1   -1    0    0  501    0  0.00000000000E+00  0.00000000000E+00  0.85007496158E+03  0.85007496159E+03  0.50400001928E-02 0. -1.
       -1   -1    0    0    0  501  0.00000000000E+00  0.00000000000E+00 -0.99599137490E+03  0.99599137491E+03  0.50400001928E-02 0.  1.
    10030    2    1    2    0    0  0.00000000000E+00  0.00000000000E+00 -0.14591641333E+03  0.18460663365E+04  0.18402905529E+04 0.  0.
        4    1    3    3  502    0  0.74907087962E+03  0.36781426962E+03 -0.46182313815E+03  0.95376975390E+03  0.12699999809E+01 0.  1.
       -4    1    3    3    0  502 -0.74907087962E+03 -0.36781426962E+03  0.31590672483E+03  0.89229658260E+03  0.12699999809E+01 0. -1.
</event>
<event>
 5   0  0.4829134E-04  0.1864872E+04  0.7818609E-02  0.8672542E-01
        2   -1    0    0  501    0  0.00000000000E+00  0.00000000000E+00  0.13039588981E+04  0.13039588981E+04  0.25500000920E-02 0. -1.
       -2   -1    0    0    0  501  0.00000000000E+00  0.00000000000E+00 -0.66676739256E+03  0.66676739257E+03  0.25500000920E-02 0.  1.
    10030    2    1    2    0    0  0.00000000000E+00  0.00000000000E+00  0.63719150555E+03  0.19707262907E+04  0.18648724080E+04 0.  0.
        2    1    3    3  502    0  0.25804039840E+03 -0.19421443037E+03 -0.60577395622E+03  0.68648829430E+03  0.25500000920E-02 0.  1.
       -2    1    3    3    0  502 -0.25804039840E+03  0.19421443037E+03  0.12429654618E+04  0.12842379964E+04  0.25500000920E-02 0. -1.
</event>
<event>
 5   0  0.2355414E-04  0.9452201E+03  0.7818609E-02  0.9370755E-01
       -1   -1    0    0    0  501  0.00000000000E+00  0.00000000000E+00  0.22571292178E+03  0.22571292184E+03  0.50400001928E-02 0. -1.
        1   -1    0    0  501    0  0.00000000000E+00  0.00000000000E+00 -0.98957679855E+03  0.98957679856E+03  0.50400001928E-02 0.  1.
    10030    2    1    2    0    0  0.00000000000E+00  0.00000000000E+00 -0.76386387677E+03  0.12152897204E+04  0.94522012372E+03 0.  0.
        5    1    3    3  502    0  0.14430238270E+02  0.14184945281E+03  0.19736891804E+03  0.24352839433E+03  0.46999998093E+01 0. -1.
       -5    1    3    3    0  502 -0.14430238270E+02 -0.14184945281E+03 -0.96123279480E+03  0.97176132607E+03  0.46999998093E+01 0.  1.
</event>
<event>
 5   0  0.2355414E-04  0.2047917E+04  0.7818609E-02  0.8584540E-01
       -1   -1    0    0    0  501  0.00000000000E+00  0.00000000000E+00  0.47120672336E+03  0.47120672338E+03  0.50400001928E-02 0.  1.
        1   -1    0    0  501    0  0.00000000000E+00  0.00000000000E+00 -0.22251189738E+04  0.22251189738E+04  0.50400001928E-02 0. -1.
    10030    2    1    2    0    0  0.00000000000E+00  0.00000000000E+00 -0.17539122504E+04  0.26963256972E+04  0.20479170108E+04 0.  0.
        5    1    3    3  502    0  0.71652434884E+03  0.43120615025E+03 -0.16549017726E+04  0.18542027541E+04  0.46999998093E+01 0. -1.
       -5    1    3    3    0  502 -0.71652434884E+03 -0.43120615025E+03 -0.99010477847E+02  0.84212294305E+03  0.46999998093E+01 0.  1.
</event>
<event>
 5   0  0.2317458E-04  0.1882092E+04  0.7818609E-02  0.8663822E-01
        1   -1    0    0  501    0  0.00000000000E+00  0.00000000000E+00  0.11824094178E+04  0.11824094179E+04  0.50400001928E-02 0. -1.
       -1   -1    0    0    0  501  0.00000000000E+00  0.00000000000E+00 -0.74895211001E+03  0.74895211002E+03  0.50400001928E-02 0.  1.
    10030    2    1    2    0    0  0.00000000000E+00  0.00000000000E+00  0.43345730784E+03  0.19313615279E+04  0.18820924828E+04 0.  0.
        3    1    3    3  502    0  0.95398695148E+02  0.13753512542E+03  0.11670109638E+04  0.11789535281E+04  0.10100000352E+00 0. -1.
       -3    1    3    3    0  502 -0.95398695148E+02 -0.13753512542E+03 -0.73355365592E+03  0.75240799974E+03  0.10100000352E+00 0.  1.
</event>
<event>
 5   0  0.2376359E-04  0.1678647E+04  0.7818609E-02  0.8773637E-01
       -1   -1    0    0    0  501  0.00000000000E+00  0.00000000000E+00  0.50736704288E+03  0.50736704290E+03  0.50400001928E-02 0. -1.
        1   -1    0    0  501    0  0.00000000000E+00  0.00000000000E+00 -0.13884695158E+04  0.13884695158E+04  0.50400001928E-02 0.  1.
    10030    2    1    2    0    0  0.00000000000E+00  0.00000000000E+00 -0.88110247295E+03  0.18958365587E+04  0.16786466840E+04 0.  0.
        2    1    3    3  502    0  0.71146804733E+03  0.23710899725E+03 -0.14882539460E+02  0.75008596103E+03  0.25500000920E-02 0. -1.
       -2    1    3    3    0  502 -0.71146804733E+03 -0.23710899725E+03 -0.86621993349E+03  0.11457505977E+04  0.25500000920E-02 0.  1.
</event>
<event>
 5   0  0.4839293E-04  0.1922887E+04  0.7818609E-02  0.8643547E-01
       -2   -1    0    0    0  501  0.00000000000E+00  0.00000000000E+00  0.50367560944E+03  0.50367560945E+03  0.25500000920E-02 0. -1.
        2   -1    0    0  501    0  0.00000000000E+00  0.00000000000E+00 -0.18352562698E+04  0.18352562698E+04  0.25500000920E-02 0.  1.
    10030    2    1    2    0    0  0.00000000000E+00  0.00000000000E+00 -0.13315806604E+04  0.23389318793E+04  0.19228872252E+04 0.  0.
        5    1    3    3  502    0 -0.30312075761E+03 -0.39523325001E+03  0.33448758000E+03  0.59999628897E+03  0.46999998093E+01 0. -1.
       -5    1    3    3    0  502  0.30312075761E+03  0.39523325001E+03 -0.16660682404E+04  0.17389355903E+04  0.46999998093E+01 0.  1.
</event>
<event>
 5   0  0.2510069E-04  0.1912224E+04  0.7818609E-02  0.8648795E-01
        1   -1    0    0  501    0  0.00000000000E+00  0.00000000000E+00  0.13684391391E+04  0.13684391391E+04  0.50400001928E-02 0. -1.
       -1   -1    0    0    0  501  0.00000000000E+00  0.00000000000E+00 -0.66802420489E+03  0.66802420491E+03  0.50400001928E-02 0.  1.
    10030    2    1    2    0    0  0.00000000000E+00  0.00000000000E+00  0.70041493419E+03  0.20364633440E+04  0.19122243256E+04 0.  0.
        4    1    3    3  502    0  0.53880666310E+03 -0.43134848414E+03  0.10548406610E+04  0.12605810438E+04  0.12699999809E+01 0. -1.
       -4    1    3    3    0  502 -0.53880666310E+03  0.43134848414E+03 -0.35442572685E+03  0.77588230018E+03  0.12699999809E+01 0.  1.
</event>
<event>
 5   0  0.2355414E-04  0.1755277E+04  0.7818609E-02  0.8730451E-01
        1   -1    0    0  501    0  0.00000000000E+00  0.00000000000E+00  0.11920599433E+04  0.11920599433E+04  0.50400001928E-02 0. -1.
       -1   -1    0    0    0  501  0.00000000000E+00  0.00000000000E+00 -0.64614959569E+03  0.64614959571E+03  0.50400001928E-02 0.  1.
    10030    2    1    2    0    0  0.00000000000E+00  0.00000000000E+00  0.54591034760E+03  0.18382095390E+04  0.17552766738E+04 0.  0.
        5    1    3    3  502    0  0.46657605181E+02  0.52392970781E+03  0.10086776021E+04  0.11375991675E+04  0.46999998093E+01 0. -1.
       -5    1    3    3    0  502 -0.46657605181E+02 -0.52392970781E+03 -0.46276725451E+03  0.70061037153E+03  0.46999998093E+01 0.  1.
</event>
<event>
 5   0  0.4829134E-04  0.1919194E+04  0.7818609E-02  0.8645361E-01
        2   -1    0    0  501    0  0.00000000000E+00  0.00000000000E+00  0.13791061356E+04  0.13791061356E+04  0.25500000920E-02 0. -1.
       -2   -1    0    0    0  501  0.00000000000E+00  0.00000000000E+00 -0.66769813203E+03  0.66769813204E+03  0.25500000920E-02 0.  1.
    10030    2    1    2    0    0  0.00000000000E+00  0.00000000000E+00  0.71140800352E+03  0.20468042676E+04  0.19191941961E+04 0.  0.
        2    1    3    3  502    0 -0.75726153231E+03  0.14837218870E+03 -0.25263311414E+03  0.81196232983E+03  0.25500000920E-02 0.  1.
       -2    1    3    3    0  502  0.75726153231E+03 -0.14837218870E+03  0.96404111766E+03  0.12348419378E+04  0.25500000920E-02 0. -1.
</event>
<event>
 5   0  0.2376359E-04  0.1930370E+04  0.7818609E-02  0.8639885E-01
       -1   -1    0    0    0  501  0.00000000000E+00  0.00000000000E+00  0.39346100847E+03  0.39346100850E+03  0.50400001928E-02 0. -1.
        1   -1    0    0  501    0  0.00000000000E+00  0.00000000000E+00 -0.23676600586E+04  0.23676600586E+04  0.50400001928E-02 0.  1.
    10030    2    1    2    0    0  0.00000000000E+00  0.00000000000E+00 -0.19741990501E+04  0.27611210671E+04  0.19303698241E+04 0.  0.
        2    1    3    3  502    0 -0.25865446626E+03  0.78989768865E+03 -0.16889108002E+04  0.18823549566E+04  0.25500000920E-02 0.  1.
       -2    1    3    3    0  502  0.25865446626E+03 -0.78989768865E+03 -0.28528824988E+03  0.87876611051E+03  0.25500000920E-02 0. -1.
</event>
<event>
 5   0  0.4839293E-04  0.1743334E+04  0.7818609E-02  0.8737028E-01
       -2   -1    0    0    0  501  0.00000000000E+00  0.00000000000E+00  0.71435754873E+03  0.71435754874E+03  0.25500000920E-02 0. -1.
        2   -1    0    0  501    0  0.00000000000E+00  0.00000000000E+00 -0.10636183091E+04  0.10636183091E+04  0.25500000920E-02 0.  1.
    10030    2    1    2    0    0  0.00000000000E+00  0.00000000000E+00 -0.34926076036E+03  0.17779758578E+04  0.17433344694E+04 0.  0.
        5    1    3    3  502    0 -0.54539894810E+02 -0.22996445196E+03 -0.10303034276E+04  0.10570740240E+04  0.46999998093E+01 0.  1.
       -5    1    3    3    0  502  0.54539894810E+02  0.22996445196E+03  0.68104266729E+03  0.72090183379E+03  0.46999998093E+01 0. -1.
</event>
<event>
 5   0  0.2261755E-04  0.1900197E+04  0.7818609E-02  0.8654758E-01
       -1   -1    0    0    0  501  0.00000000000E+00  0.00000000000E+00  0.44492682707E+03  0.44492682710E+03  0.50400001928E-02 0.  1.
        1   -1    0    0  501    0  0.00000000000E+00  0.00000000000E+00 -0.20288442099E+04  0.20288442099E+04  0.50400001928E-02 0. -1.
    10030    2    1    2    0    0  0.00000000000E+00  0.00000000000E+00 -0.15839173828E+04  0.24737710370E+04  0.19001970603E+04 0.  0.
        1    1    3    3  502    0  0.41886265534E+03 -0.12158370866E+01 -0.19021547529E+04  0.19477269076E+04  0.50400001928E-02 0. -1.
       -1    1    3    3    0  502 -0.41886265534E+03  0.12158370866E+01  0.31823737014E+03  0.52604412940E+03  0.50400001928E-02 0.  1.
</event>
<event>
 5   0  0.4802635E-04  0.1885336E+04  0.7818609E-02  0.8662190E-01
        2   -1    0    0  501    0  0.00000000000E+00  0.00000000000E+00  0.12238812288E+04  0.12238812288E+04  0.25500000920E-02 0.  1.
       -2   -1    0    0    0  501  0.00000000000E+00  0.00000000000E+00 -0.72606940854E+03  0.72606940854E+03  0.25500000920E-02 0. -1.
    10030    2    1    2    0    0  0.00000000000E+00  0.00000000000E+00  0.49781182025E+03  0.19499506373E+04  0.18853357472E+04 0.  0.
        3    1    3    3  502    0  0.23519756493E+03 -0.12329860270E+03  0.11843949724E+04  0.12138006017E+04  0.10100000352E+00 0.  1.
       -3    1    3    3    0  502 -0.23519756493E+03  0.12329860270E+03 -0.68658315211E+03  0.73615003562E+03  0.10100000352E+00 0. -1.
</event>
<event>
 5   0  0.4839293E-04  0.1914516E+04  0.7818609E-02  0.8647665E-01
       -2   -1    0    0    0  501  0.00000000000E+00  0.00000000000E+00  0.73868410980E+03  0.73868410981E+03  0.25500000920E-02 0.  1.
        2   -1    0    0  501    0  0.00000000000E+00  0.00000000000E+00 -0.12405065250E+04  0.12405065250E+04  0.25500000920E-02 0. -1.
    10030    2    1    2    0    0  0.00000000000E+00  0.00000000000E+00 -0.50182241519E+03  0.19791906348E+04  0.19145155608E+04 0.  0.
        5    1    3    3  502    0 -0.53924469884E+03  0.69667148476E+03 -0.63797140738E+03  0.10877341631E+04  0.46999998093E+01 0. -1.
       -5    1    3    3    0  502  0.53924469884E+03 -0.69667148476E+03  0.13614899219E+03  0.89145647172E+03  0.46999998093E+01 0.  1.
</event>
<event>
 5   0  0.2261755E-04  0.1925164E+04  0.7818609E-02  0.8642431E-01
        1   -1    0    0  501    0  0.00000000000E+00  0.00000000000E+00  0.11662900297E+04  0.11662900297E+04  0.50400001928E-02 0.  1.
       -1   -1    0    0    0  501  0.00000000000E+00  0.00000000000E+00 -0.79445457163E+03  0.79445457165E+03  0.50400001928E-02 0. -1.
    10030    2    1    2    0    0  0.00000000000E+00  0.00000000000E+00  0.37183545803E+03  0.19607446013E+04  0.19251643524E+04 0.  0.
        1    1    3    3  502    0  0.13906098498E+03 -0.38270697075E+03  0.10742543852E+04  0.11488363970E+04  0.50400001928E-02 0.  1.
       -1    1    3    3    0  502 -0.13906098498E+03  0.38270697075E+03 -0.70241892714E+03  0.81190820431E+03  0.50400001928E-02 0. -1.
</event>
<event>
 5   0  0.4829134E-04  0.1814426E+04  0.7818609E-02  0.8698665E-01
       -2   -1    0    0    0  501  0.00000000000E+00  0.00000000000E+00  0.11315746019E+04  0.11315746019E+04  0.25500000920E-02 0. -1.
        2   -1    0    0  501    0  0.00000000000E+00  0.00000000000E+00 -0.72733650298E+03  0.72733650299E+03  0.25500000920E-02 0.  1.
    10030    2    1    2    0    0  0.00000000000E+00  0.00000000000E+00  0.40423809895E+03  0.18589111049E+04  0.18144260953E+04 0.  0.
        2    1    3    3  502    0  0.53820265325E+03  0.37583698426E+03  0.84366655981E+03  0.10689662291E+04  0.25500000920E-02 0. -1.
       -2    1    3    3    0  502 -0.53820265325E+03 -0.37583698426E+03 -0.43942846085E+03  0.78994487587E+03  0.25500000920E-02 0.  1.
</event>
<event>
 5   0  0.4839293E-04  0.1502819E+04  0.7818609E-02  0.8882581E-01
       -2   -1    0    0    0  501  0.00000000000E+00  0.00000000000E+00  0.41918245812E+03  0.41918245812E+03  0.25500000920E-02 0. -1.
        2   -1    0    0  501    0  0.00000000000E+00  0.00000000000E+00 -0.13469454308E+04  0.13469454308E+04  0.25500000920E-02 0.  1.
    10030    2    1    2    0    0  0.00000000000E+00  0.00000000000E+00 -0.92776297263E+03  0.17661278889E+04  0.15028185474E+04 0.  0.
        5    1    3    3  502    0 -0.15661450611E+03  0.43923428163E+03  0.22853479979E+03  0.51933139939E+03  0.46999998093E+01 0. -1.
       -5    1    3    3    0  502  0.15661450611E+03 -0.43923428163E+03 -0.11562977724E+04  0.12467964895E+04  0.46999998093E+01 0.  1.
</event>
<event>
 5   0  0.2376359E-04  0.1928587E+04  0.7818609E-02  0.8640756E-01
       -1   -1    0    0    0  501  0.00000000000E+00  0.00000000000E+00  0.54346403772E+03  0.54346403775E+03  0.50400001928E-02 0.  1.
        1   -1    0    0  501    0  0.00000000000E+00  0.00000000000E+00 -0.17109909956E+04  0.17109909956E+04  0.50400001928E-02 0. -1.
    10030    2    1    2    0    0  0.00000000000E+00  0.00000000000E+00 -0.11675269579E+04  0.22544550334E+04  0.19285871253E+04 0.  0.
        2    1    3    3  502    0  0.43827997566E+03 -0.37169085690E+03 -0.14889537520E+04  0.15960033539E+04  0.25500000920E-02 0. -1.
       -2    1    3    3    0  502 -0.43827997566E+03  0.37169085690E+03  0.32142679411E+03  0.65845167943E+03  0.25500000920E-02 0.  1.
</event>
<event>
 5   0  0.4839293E-04  0.1902520E+04  0.7818609E-02  0.8653603E-01
       -2   -1    0    0    0  501  0.00000000000E+00  0.00000000000E+00  0.74526365750E+03  0.74526365750E+03  0.25500000920E-02 0.  1.
        2   -1    0    0  501    0  0.00000000000E+00  0.00000000000E+00 -0.12141952913E+04  0.12141952913E+04  0.25500000920E-02 0. -1.
    10030    2    1    2    0    0  0.00000000000E+00  0.00000000000E+00 -0.46893163380E+03  0.19594589488E+04  0.19025200380E+04 0.  0.
        5    1    3    3  502    0  0.86971974863E+03 -0.10998259060E+02  0.16221048759E+03  0.88479813242E+03  0.46999998093E+01 0.  1.
       -5    1    3    3    0  502 -0.86971974863E+03  0.10998259060E+02 -0.63114212139E+03  0.10746608164E+04  0.46999998093E+01 0. -1.
</event>
<event>
 5   0  0.2510069E-04  0.1901186E+04  0.7818609E-02  0.8654266E-01
       -1   -1    0    0    0  501  0.00000000000E+00  0.00000000000E+00  0.45823358565E+03  0.45823358568E+03  0.50400001928E-02 0. -1.
        1   -1    0    0  501    0  0.00000000000E+00  0.00000000000E+00 -0.19719795098E+04  0.19719795098E+04  0.50400001928E-02 0.  1.
    10030    2    1    2    0    0  0.00000000000E+00  0.00000000000E+00 -0.15137459241E+04  0.24302130954E+04  0.19011861998E+04 0.  0.
        4    1    3    3  502    0  0.50844288033E+03  0.14614680059E+03  0.25267249927E+03  0.58627472628E+03  0.12699999809E+01 0. -1.
       -4    1    3    3    0  502 -0.50844288033E+03 -0.14614680059E+03 -0.17664184234E+04  0.18439383692E+04  0.12699999809E+01 0.  1.
</event>
<event>
 5   0  0.2355414E-04  0.1936637E+04  0.7818609E-02  0.8636832E-01
       -1   -1    0    0    0  501  0.00000000000E+00  0.00000000000E+00  0.10865115808E+04  0.10865115808E+04  0.50400001928E-02 0.  1.
        1   -1    0    0  501    0  0.00000000000E+00  0.00000000000E+00 -0.86298261520E+03  0.86298261522E+03  0.50400001928E-02 0. -1.
    10030    2    1    2    0    0  0.00000000000E+00  0.00000000000E+00  0.22352896560E+03  0.19494941960E+04  0.19366368844E+04 0.  0.
        5    1    3    3  502    0 -0.14966508722E+03 -0.19868721160E+03  0.10537883443E+04  0.10827595352E+04  0.46999998093E+01 0.  1.
       -5    1    3    3    0  502  0.14966508722E+03  0.19868721160E+03 -0.83025937872E+03  0.86673466086E+03  0.46999998093E+01 0. -1.
</event>
<event>
 5   0  0.2355414E-04  0.1766374E+04  0.7818609E-02  0.8724389E-01
        1   -1    0    0  501    0  0.00000000000E+00  0.00000000000E+00  0.72818242885E+03  0.72818242887E+03  0.50400001928E-02 0. -1.
       -1   -1    0    0    0  501  0.00000000000E+00  0.00000000000E+00 -0.10711865555E+04  0.10711865555E+04  0.50400001928E-02 0.  1.
    10030    2    1    2    0    0  0.00000000000E+00  0.00000000000E+00 -0.34300412665E+03  0.17993689844E+04  0.17663739443E+04 0.  0.
        5    1    3    3  502    0  0.18703455736E+03 -0.56095036719E+03  0.49676250073E+03  0.77229677730E+03  0.46999998093E+01 0. -1.
       -5    1    3    3    0  502 -0.18703455736E+03  0.56095036719E+03 -0.83976662738E+03  0.10270722071E+04  0.46999998093E+01 0.  1.
</event>
<event>
 5   0  0.1729375E-04  0.1923243E+04  0.7818609E-02  0.8643373E-01
       -3   -1    0    0    0  501  0.00000000000E+00  0.00000000000E+00  0.64035476494E+03  0.64035477290E+03  0.10100000352E+00 0. -1.
        3   -1    0    0  501    0  0.00000000000E+00  0.00000000000E+00 -0.14440676897E+04  0.14440676932E+04  0.10100000352E+00 0.  1.
    10030    2    1    2    0    0  0.00000000000E+00  0.00000000000E+00 -0.80371292473E+03  0.20844224661E+04  0.19232427179E+04 0.  0.
        1    1    3    3  502    0  0.87907727293E+03 -0.30021879981E+03 -0.13241024491E+03  0.93831799115E+03  0.50400001928E-02 0. -1.
       -1    1    3    3    0  502 -0.87907727293E+03  0.30021879981E+03 -0.67130267983E+03  0.11461044750E+04  0.50400001928E-02 0.  1.
</event>
<event>
 5   0  0.4802635E-04  0.1916256E+04  0.7818609E-02  0.8646807E-01
       -2   -1    0    0    0  501  0.00000000000E+00  0.00000000000E+00  0.62493945457E+03  0.62493945457E+03  0.25500000920E-02 0.  1.
        2   -1    0    0  501    0  0.00000000000E+00  0.00000000000E+00 -0.14689574473E+04  0.14689574473E+04  0.25500000920E-02 0. -1.
    10030    2    1    2    0    0  0.00000000000E+00  0.00000000000E+00 -0.84401799277E+03  0.20938969019E+04  0.19162562104E+04 0.  0.
        3    1    3    3  502    0 -0.67666024052E+02 -0.50220705914E+03 -0.13105435611E+04  0.14051032193E+04  0.10100000352E+00 0. -1.
       -3    1    3    3    0  502  0.67666024052E+02  0.50220705914E+03  0.46652556837E+03  0.68879368261E+03  0.10100000352E+00 0.  1.
</event>
<event>
 5   0  0.2355414E-04  0.1910908E+04  0.7818609E-02  0.8649446E-01
       -1   -1    0    0    0  501  0.00000000000E+00  0.00000000000E+00  0.76603926563E+03  0.76603926564E+03  0.50400001928E-02 0.  1.
        1   -1    0    0  501    0  0.00000000000E+00  0.00000000000E+00 -0.11917040355E+04  0.11917040355E+04  0.50400001928E-02 0. -1.
    10030    2    1    2    0    0  0.00000000000E+00  0.00000000000E+00 -0.42566476983E+03  0.19577433011E+04  0.19109077259E+04 0.  0.
        5    1    3    3  502    0  0.23830976870E+03 -0.84251812306E+02  0.73115193518E+03  0.77362468681E+03  0.46999998093E+01 0.  1.
       -5    1    3    3    0  502 -0.23830976870E+03  0.84251812306E+02 -0.11568167050E+04  0.11841186143E+04  0.46999998093E+01 0. -1.
</event>
<event>
 5   0  0.2355414E-04  0.1763336E+04  0.7818609E-02  0.8726044E-01
       -1   -1    0    0    0  501  0.00000000000E+00  0.00000000000E+00  0.13826662845E+04  0.13826662845E+04  0.50400001928E-02 0.  1.
        1   -1    0    0  501    0  0.00000000000E+00  0.00000000000E+00 -0.56220233960E+03  0.56220233963E+03  0.50400001928E-02 0. -1.
    10030    2    1    2    0    0  0.00000000000E+00  0.00000000000E+00  0.82046394491E+03  0.19448686242E+04  0.17633357254E+04 0.  0.
        5    1    3    3  502    0  0.93999490382E+02  0.46765324616E+03 -0.40757346848E+03  0.62743420774E+03  0.46999998093E+01 0. -1.
       -5    1    3    3    0  502 -0.93999490382E+02 -0.46765324616E+03  0.12280374134E+04  0.13174344164E+04  0.46999998093E+01 0.  1.
</event>
<event>
 5   0  0.4802635E-04  0.1947030E+04  0.7818609E-02  0.8631794E-01
       -2   -1    0    0    0  501  0.00000000000E+00  0.00000000000E+00  0.61808959108E+03  0.61808959109E+03  0.25500000920E-02 0. -1.
        2   -1    0    0  501    0  0.00000000000E+00  0.00000000000E+00 -0.15333240013E+04  0.15333240013E+04  0.25500000920E-02 0.  1.
    10030    2    1    2    0    0  0.00000000000E+00  0.00000000000E+00 -0.91523441026E+03  0.21514135924E+04  0.19470301538E+04 0.  0.
        3    1    3    3  502    0  0.15658605170E+03  0.93743318687E+03 -0.69053160721E+03  0.11747910802E+04  0.10100000352E+00 0. -1.
       -3    1    3    3    0  502 -0.15658605170E+03 -0.93743318687E+03 -0.22470280306E+03  0.97662251220E+03  0.10100000352E+00 0.  1.
</event>
<event>
 5   0  0.4973411E-04  0.1862270E+04  0.7818609E-02  0.8673868E-01
        2   -1    0    0  501    0  0.00000000000E+00  0.00000000000E+00  0.96831570878E+03  0.96831570879E+03  0.25500000920E-02 0.  1.
       -2   -1    0    0    0  501  0.00000000000E+00  0.00000000000E+00 -0.89538205582E+03  0.89538205582E+03  0.25500000920E-02 0. -1.
    10030    2    1    2    0    0  0.00000000000E+00  0.00000000000E+00  0.72933652961E+02  0.18636977646E+04  0.18622701308E+04 0.  0.
        1    1    3    3  502    0  0.33245124755E+03 -0.76995762900E+03  0.44131857835E+03  0.94769228660E+03  0.50400001928E-02 0.  1.
       -1    1    3    3    0  502 -0.33245124755E+03  0.76995762900E+03 -0.36838492539E+03  0.91600547801E+03  0.50400001928E-02 0. -1.
</event>
<event>
 5   0  0.4761944E-04  0.1728831E+04  0.7818609E-02  0.8745090E-01
        2   -1    0    0  501    0  0.00000000000E+00  0.00000000000E+00  0.10785513457E+04  0.10785513457E+04  0.25500000920E-02 0.  1.
       -2   -1    0    0    0  501  0.00000000000E+00  0.00000000000E+00 -0.69279385256E+03  0.69279385257E+03  0.25500000920E-02 0. -1.
    10030    2    1    2    0    0  0.00000000000E+00  0.00000000000E+00  0.38575749317E+03  0.17713451983E+04  0.17288305203E+04 0.  0.
        4    1    3    3  502    0 -0.52513132901E+03  0.63592319609E+03 -0.72430939508E+02  0.82789436399E+03  0.12699999809E+01 0. -1.
       -4    1    3    3    0  502  0.52513132901E+03 -0.63592319609E+03  0.45818843268E+03  0.94345083431E+03  0.12699999809E+01 0.  1.
</event>
<event>
 5   0  0.2376359E-04  0.1956605E+04  0.7818609E-02  0.8627183E-01
        1   -1    0    0  501    0  0.00000000000E+00  0.00000000000E+00  0.91693293593E+03  0.91693293595E+03  0.50400001928E-02 0. -1.
       -1   -1    0    0    0  501  0.00000000000E+00  0.00000000000E+00 -0.10437790780E+04  0.10437790781E+04  0.50400001928E-02 0.  1.
    10030    2    1    2    0    0  0.00000000000E+00  0.00000000000E+00 -0.12684614211E+03  0.19607120140E+04  0.19566046249E+04 0.  0.
        2    1    3    3  502    0  0.92453356915E+03  0.18734498324E+03  0.19637963980E+03  0.96354835175E+03  0.25500000920E-02 0. -1.
       -2    1    3    3    0  502 -0.92453356915E+03 -0.18734498324E+03 -0.32322578191E+03  0.99716366226E+03  0.25500000920E-02 0.  1.
</event>
<event>
 5   0  0.4839293E-04  0.1147846E+04  0.7818609E-02  0.9159773E-01
       -2   -1    0    0    0  501  0.00000000000E+00  0.00000000000E+00  0.39914020927E+03  0.39914020927E+03  0.25500000920E-02 0. -1.
        2   -1    0    0  501    0  0.00000000000E+00  0.00000000000E+00 -0.82524267486E+03  0.82524267486E+03  0.25500000920E-02 0.  1.
    10030    2    1    2    0    0  0.00000000000E+00  0.00000000000E+00 -0.42610246560E+03  0.12243828841E+04  0.11478458676E+04 0.  0.
        5    1    3    3  502    0 -0.37234701500E+03  0.43179081036E+03 -0.14326858169E+03  0.58790609793E+03  0.46999998093E+01 0.  1.
       -5    1    3    3    0  502  0.37234701500E+03 -0.43179081036E+03 -0.28283388391E+03  0.63647678620E+03  0.46999998093E+01 0. -1.
</event>
<event>
 5   0  0.2510069E-04  0.1912207E+04  0.7818609E-02  0.8648804E-01
       -1   -1    0    0    0  501  0.00000000000E+00  0.00000000000E+00  0.91370103498E+03  0.91370103500E+03  0.50400001928E-02 0. -1.
        1   -1    0    0  501    0  0.00000000000E+00  0.00000000000E+00 -0.10004737609E+04  0.10004737609E+04  0.50400001928E-02 0.  1.
    10030    2    1    2    0    0  0.00000000000E+00  0.00000000000E+00 -0.86772725916E+02  0.19141747959E+04  0.19122070085E+04 0.  0.
        4    1    3    3  502    0 -0.34633422323E+03  0.87252190800E+03  0.13815743750E+03  0.94885771565E+03  0.12699999809E+01 0.  1.
       -4    1    3    3    0  502  0.34633422323E+03 -0.87252190800E+03 -0.22493016341E+03  0.96531708025E+03  0.12699999809E+01 0. -1.
</event>
<event>
 5   0  0.4973411E-04  0.1897367E+04  0.7818609E-02  0.8656168E-01
       -2   -1    0    0    0  501  0.00000000000E+00  0.00000000000E+00  0.68231996412E+03  0.68231996412E+03  0.25500000920E-02 0.  1.
        2   -1    0    0  501    0  0.00000000000E+00  0.00000000000E+00 -0.13190293854E+04  0.13190293854E+04  0.25500000920E-02 0. -1.
    10030    2    1    2    0    0  0.00000000000E+00  0.00000000000E+00 -0.63670942128E+03  0.20013493495E+04  0.18973666835E+04 0.  0.
        1    1    3    3  502    0 -0.64068934106E+03  0.15214896471E+03 -0.10386921364E+04  0.12298428735E+04  0.50400001928E-02 0. -1.
       -1    1    3    3    0  502  0.64068934106E+03 -0.15214896471E+03  0.40198271516E+03  0.77150647601E+03  0.50400001928E-02 0.  1.
</event>
<event>
 5   0  0.1729375E-04  0.1954523E+04  0.7818609E-02  0.8628183E-01
       -4   -1    0    0    0  501  0.00000000000E+00  0.00000000000E+00  0.11912130433E+04  0.11912137203E+04  0.12699999809E+01 0.  1.
        4   -1    0    0  501    0  0.00000000000E+00  0.00000000000E+00 -0.80173599675E+03  0.80173700263E+03  0.12699999809E+01 0. -1.
    10030    2    1    2    0    0  0.00000000000E+00  0.00000000000E+00  0.38947704655E+03  0.19929507229E+04  0.19545230145E+04 0.  0.
        2    1    3    3  502    0 -0.79631591106E+03  0.26520439116E+03 -0.31569078995E+03  0.89672352159E+03  0.25500000920E-02 0. -1.
       -2    1    3    3    0  502  0.79631591106E+03 -0.26520439116E+03  0.70516783650E+03  0.10962272013E+04  0.25500000920E-02 0.  1.
</event>
<event>
 5   0  0.4829134E-04  0.1876746E+04  0.7818609E-02  0.8666519E-01
       -2   -1    0    0    0  501  0.00000000000E+00  0.00000000000E+00  0.53970034140E+03  0.53970034141E+03  0.25500000920E-02 0.  1.
        2   -1    0    0  501    0  0.00000000000E+00  0.00000000000E+00 -0.16315428663E+04  0.16315428663E+04  0.25500000920E-02 0. -1.
    10030    2    1    2    0    0  0.00000000000E+00  0.00000000000E+00 -0.10918425249E+04  0.21712432078E+04  0.18767463782E+04 0.  0.
        2    1    3    3  502    0  0.32419525251E+03 -0.31118029509E+03  0.40712182423E+03  0.60636945633E+03  0.25500000920E-02 0.  1.
       -2    1    3    3    0  502 -0.32419525251E+03  0.31118029509E+03 -0.14989643492E+04  0.15648737514E+04  0.25500000920E-02 0. -1.
</event>
<event>
 5   0  0.2261755E-04  0.1803383E+04  0.7818609E-02  0.8704502E-01
        1   -1    0    0  501    0  0.00000000000E+00  0.00000000000E+00  0.67003990279E+03  0.67003990281E+03  0.50400001928E-02 0. -1.
       -1   -1    0    0    0  501  0.00000000000E+00  0.00000000000E+00 -0.12134316946E+04  0.12134316946E+04  0.50400001928E-02 0.  1.
    10030    2    1    2    0    0  0.00000000000E+00  0.00000000000E+00 -0.54339179181E+03  0.18834715974E+04  0.18033831037E+04 0.  0.
        1    1    3    3  502    0 -0.24906549000E+03 -0.63519955310E+03 -0.88739809659E+03  0.11193692297E+04  0.50400001928E-02 0.  1.
       -1    1    3    3    0  502  0.24906549000E+03  0.63519955310E+03  0.34400630478E+03  0.76410236770E+03  0.50400001928E-02 0. -1.
</event>
<event>
 5   0  0.2510069E-04  0.1917867E+04  0.7818609E-02  0.8646013E-01
        1   -1    0    0  501    0  0.00000000000E+00  0.00000000000E+00  0.17396023354E+04  0.17396023354E+04  0.50400001928E-02 0. -1.
       -1   -1    0    0    0  501  0.00000000000E+00  0.00000000000E+00 -0.52859995172E+03  0.52859995175E+03  0.50400001928E-02 0.  1.
    10030    2    1    2    0    0  0.00000000000E+00  0.00000000000E+00  0.12110023837E+04  0.22682022872E+04  0.19178672640E+04 0.  0.
        4    1    3    3  502    0 -0.88925691557E+03  0.16722859626E+03  0.22999895365E+03  0.93361897843E+03  0.12699999809E+01 0.  1.
       -4    1    3    3    0  502  0.88925691557E+03 -0.16722859626E+03  0.98100343002E+03  0.13345833087E+04  0.12699999809E+01 0. -1.
</event>
<event>
 5   0  0.4829134E-04  0.1884749E+04  0.7818609E-02  0.8662485E-01
        2   -1    0    0  501    0  0.00000000000E+00  0.00000000000E+00  0.17406935391E+04  0.17406935391E+04  0.25500000920E-02 0.  1.
       -2   -1    0    0    0  501  0.00000000000E+00  0.00000000000E+00 -0.51018150386E+03  0.51018150387E+03  0.25500000920E-02 0. -1.
    10030    2    1    2    0    0  0.00000000000E+00  0.00000000000E+00  0.12305120353E+04  0.22508750430E+04  0.18847489462E+04 0.  0.
        2    1    3    3  502    0  0.81783481027E+03 -0.44982411750E+03  0.46012143447E+03  0.10406282949E+04  0.25500000920E-02 0. -1.
       -2    1    3    3    0  502 -0.81783481027E+03  0.44982411750E+03  0.77039060079E+03  0.12102467481E+04  0.25500000920E-02 0.  1.
</event>
<event>
 5   0  0.4839293E-04  0.1886917E+04  0.7818609E-02  0.8661396E-01
        2   -1    0    0  501    0  0.00000000000E+00  0.00000000000E+00  0.11354350621E+04  0.11354350621E+04  0.25500000920E-02 0. -1.
       -2   -1    0    0    0  501  0.00000000000E+00  0.00000000000E+00 -0.78394065240E+03  0.78394065241E+03  0.25500000920E-02 0.  1.
    10030    2    1    2    0    0  0.00000000000E+00  0.00000000000E+00  0.35149440974E+03  0.19193757145E+04  0.18869167479E+04 0.  0.
        5    1    3    3  502    0  0.18232796934E+03  0.87829792814E+03  0.47307814112E+03  0.10141379377E+04  0.46999998093E+01 0. -1.
       -5    1    3    3    0  502 -0.18232796934E+03 -0.87829792814E+03 -0.12158373138E+03  0.90523777690E+03  0.46999998093E+01 0.  1.
</event>
<event>
 5   0  0.2261755E-04  0.1830501E+04  0.7818609E-02  0.8690245E-01
        1   -1    0    0  501    0  0.00000000000E+00  0.00000000000E+00  0.68943069333E+03  0.68943069335E+03  0.50400001928E-02 0. -1.
       -1   -1    0    0    0  501  0.00000000000E+00  0.00000000000E+00 -0.12150368419E+04  0.12150368419E+04  0.50400001928E-02 0.  1.
    10030    2    1    2    0    0  0.00000000000E+00  0.00000000000E+00 -0.52560614854E+03  0.19044675352E+04  0.18305012345E+04 0.  0.
        1    1    3    3  502    0  0.54339775439E+03  0.71229621164E+03 -0.45754749277E+03  0.10059804773E+04  0.50400001928E-02 0.  1.
       -1    1    3    3    0  502 -0.54339775439E+03 -0.71229621164E+03 -0.68058655765E+02  0.89848705791E+03  0.50400001928E-02 0. -1.
</event>
<event>
 5   0  0.2376359E-04  0.1867515E+04  0.7818609E-02  0.8671197E-01
       -1   -1    0    0    0  501  0.00000000000E+00  0.00000000000E+00  0.82564383079E+03  0.82564383081E+03  0.50400001928E-02 0.  1.
        1   -1    0    0  501    0  0.00000000000E+00  0.00000000000E+00 -0.10560280940E+04  0.10560280940E+04  0.50400001928E-02 0. -1.
    10030    2    1    2    0    0  0.00000000000E+00  0.00000000000E+00 -0.23038426319E+03  0.18816719248E+04  0.18675150130E+04 0.  0.
        2    1    3    3  502    0  0.20890444821E+03  0.88033637264E+03 -0.34774445176E+03  0.96930872337E+03  0.25500000920E-02 0. -1.
       -2    1    3    3    0  502 -0.20890444821E+03 -0.88033637264E+03  0.11736018857E+03  0.91236320144E+03  0.25500000920E-02 0.  1.
</event>
<event>
 5   0  0.4761944E-04  0.1814320E+04  0.7818609E-02  0.8698721E-01
        2   -1    0    0  501    0  0.00000000000E+00  0.00000000000E+00  0.71734253359E+03  0.71734253360E+03  0.25500000920E-02 0.  1.
       -2   -1    0    0    0  501  0.00000000000E+00  0.00000000000E+00 -0.11472053181E+04  0.11472053181E+04  0.25500000920E-02 0. -1.
    10030    2    1    2    0    0  0.00000000000E+00  0.00000000000E+00 -0.42986278449E+03  0.18645478517E+04  0.18143198940E+04 0.  0.
        4    1    3    3  502    0  0.90248540884E+03 -0.30100846523E+02 -0.30423698430E+03  0.95286291230E+03  0.12699999809E+01 0. -1.
       -4    1    3    3    0  502 -0.90248540884E+03  0.30100846523E+02 -0.12562580019E+03  0.91168493938E+03  0.12699999809E+01 0.  1.
</event>
<event>
 5   0  0.1729375E-04  0.1954138E+04  0.7818609E-02  0.8628368E-01
        3   -1    0    0  501    0  0.00000000000E+00  0.00000000000E+00  0.68376514912E+03  0.68376515658E+03  0.10100000352E+00 0. -1.
       -3   -1    0    0    0  501  0.00000000000E+00  0.00000000000E+00 -0.13961861233E+04  0.13961861269E+04  0.10100000352E+00 0.  1.
    10030    2    1    2    0    0  0.00000000000E+00  0.00000000000E+00 -0.71242097417E+03  0.20799512835E+04  0.19541375840E+04 0.  0.
        2    1    3    3  502    0  0.28903747650E+02 -0.70673049224E+03 -0.10736711182E+04  0.12857188982E+04  0.25500000920E-02 0.  1.
       -2    1    3    3    0  502 -0.28903747650E+02  0.70673049224E+03  0.36125014399E+03  0.79423238529E+03  0.25500000920E-02 0. -1.
</event>
<event>
 5   0  0.4761944E-04  0.1734185E+04  0.7818609E-02  0.8742104E-01
        2   -1    0    0  501    0  0.00000000000E+00  0.00000000000E+00  0.11510286912E+04  0.11510286912E+04  0.25500000920E-02 0. -1.
       -2   -1    0    0    0  501  0.00000000000E+00  0.00000000000E+00 -0.65319799453E+03  0.65319799453E+03  0.25500000920E-02 0.  1.
    10030    2    1    2    0    0  0.00000000000E+00  0.00000000000E+00  0.49783069663E+03  0.18042266857E+04  0.17341852643E+04 0.  0.
        4    1    3    3  502    0 -0.20419456404E+03 -0.43243038368E+02  0.11245015500E+04  0.11437091979E+04  0.12699999809E+01 0. -1.
       -4    1    3    3    0  502  0.20419456404E+03  0.43243038368E+02 -0.62667085339E+03  0.66051748784E+03  0.12699999809E+01 0.  1.
</event>
<event>
 5   0  0.4761944E-04  0.1877988E+04  0.7818609E-02  0.8665891E-01
        2   -1    0    0  501    0  0.00000000000E+00  0.00000000000E+00  0.13310001606E+04  0.13310001606E+04  0.25500000920E-02 0. -1.
       -2   -1    0    0    0  501  0.00000000000E+00  0.00000000000E+00 -0.66244162371E+03  0.66244162371E+03  0.25500000920E-02 0.  1.
    10030    2    1    2    0    0  0.00000000000E+00  0.00000000000E+00  0.66855853690E+03  0.19934417843E+04  0.18779881869E+04 0.  0.
        4    1    3    3  502    0 -0.37983361637E+03 -0.53939925078E+03 -0.37499343469E+03  0.75884571346E+03  0.12699999809E+01 0.  1.
       -4    1    3    3    0  502  0.37983361637E+03  0.53939925078E+03  0.10435519716E+04  0.12345960709E+04  0.12699999809E+01 0. -1.
</event>
<event>
 5   0  0.4839293E-04  0.1842442E+04  0.7818609E-02  0.8684050E-01
        2   -1    0    0  501    0  0.00000000000E+00  0.00000000000E+00  0.10099985788E+04  0.10099985788E+04  0.25500000920E-02 0. -1.
       -2   -1    0    0    0  501  0.00000000000E+00  0.00000000000E+00 -0.84024641455E+03  0.84024641456E+03  0.25500000920E-02 0.  1.
    10030    2    1    2    0    0  0.00000000000E+00  0.00000000000E+00  0.16975216425E+03  0.18502449934E+04  0.18424415155E+04 0.  0.
        5    1    3    3  502    0  0.71201422401E+03 -0.46779021305E+03 -0.26708465272E+03  0.89283158565E+03  0.46999998093E+01 0.  1.
       -5    1    3    3    0  502 -0.71201422401E+03  0.46779021305E+03  0.43683681697E+03  0.95741340771E+03  0.46999998093E+01 0. -1.
</event>
<event>
 5   0  0.2376359E-04  0.2214310E+04  0.7818609E-02  0.8512495E-01
       -1   -1    0    0    0  501  0.00000000000E+00  0.00000000000E+00  0.98374948189E+03  0.98374948190E+03  0.50400001928E-02 0.  1.
        1   -1    0    0  501    0  0.00000000000E+00  0.00000000000E+00 -0.12460411592E+04  0.12460411592E+04  0.50400001928E-02 0. -1.
    10030    2    1    2    0    0  0.00000000000E+00  0.00000000000E+00 -0.26229167729E+03  0.22297906411E+04  0.22143101362E+04 0.  0.
        2    1    3    3  502    0 -0.10792951693E+03  0.69596639486E+03  0.72909476007E+03  0.10137046772E+04  0.25500000920E-02 0.  1.
       -2    1    3    3    0  502  0.10792951693E+03 -0.69596639486E+03 -0.99138643736E+03  0.12160859639E+04  0.25500000920E-02 0. -1.
</event>
<event>
 5   0  0.2261755E-04  0.1123375E+04  0.7818609E-02  0.9182704E-01
       -1   -1    0    0    0  501  0.00000000000E+00  0.00000000000E+00  0.44320195903E+03  0.44320195906E+03  0.50400001928E-02 0. -1.
        1   -1    0    0  501    0  0.00000000000E+00  0.00000000000E+00 -0.71184854559E+03  0.71184854561E+03  0.50400001928E-02 0.  1.
    10030    2    1    2    0    0  0.00000000000E+00  0.00000000000E+00 -0.26864658656E+03  0.11550505047E+04  0.11233746836E+04 0.  0.
        1    1    3    3  502    0  0.53524396379E+03  0.14725558983E+03 -0.22230692671E+03  0.59798886211E+03  0.50400001928E-02 0.  1.
       -1    1    3    3    0  502 -0.53524396379E+03 -0.14725558983E+03 -0.46339659854E+02  0.55706164256E+03  0.50400001928E-02 0. -1.
</event>
<event>
 5   0  0.2355414E-04  0.1658187E+04  0.7818609E-02  0.8785578E-01
        1   -1    0    0  501    0  0.00000000000E+00  0.00000000000E+00  0.18637103424E+04  0.18637103424E+04  0.50400001928E-02 0. -1.
       -1   -1    0    0    0  501  0.00000000000E+00  0.00000000000E+00 -0.36883209454E+03  0.36883209457E+03  0.50400001928E-02 0.  1.
    10030    2    1    2    0    0  0.00000000000E+00  0.00000000000E+00  0.14948782479E+04  0.22325424370E+04  0.16581871900E+04 0.  0.
        5    1    3    3  502    0 -0.53897951621E+03  0.28283784189E+03 -0.10461329875E+02  0.60879199495E+03  0.46999998093E+01 0.  1.
       -5    1    3    3    0  502  0.53897951621E+03 -0.28283784189E+03  0.15053395778E+04  0.16237504420E+04  0.46999998093E+01 0. -1.
</event>
<event>
 5   0  0.4973411E-04  0.1912696E+04  0.7818609E-02  0.8648562E-01
        2   -1    0    0  501    0  0.00000000000E+00  0.00000000000E+00  0.14809782037E+04  0.14809782037E+04  0.25500000920E-02 0. -1.
       -2   -1    0    0    0  501  0.00000000000E+00  0.00000000000E+00 -0.61756610851E+03  0.61756610852E+03  0.25500000920E-02 0.  1.
    10030    2    1    2    0    0  0.00000000000E+00  0.00000000000E+00  0.86341209518E+03  0.20985443122E+04  0.19126964694E+04 0.  0.
        1    1    3    3  502    0  0.77797781809E+03 -0.12058322574E+02  0.10418000937E+04  0.13002854779E+04  0.50400001928E-02 0. -1.
       -1    1    3    3    0  502 -0.77797781809E+03  0.12058322574E+02 -0.17838799854E+03  0.79825883436E+03  0.50400001928E-02 0.  1.
</event>
<event>
 5   0  0.4839293E-04  0.1899667E+04  0.7818609E-02  0.8655022E-01
        2   -1    0    0  501    0  0.00000000000E+00  0.00000000000E+00  0.10735870611E+04  0.10735870611E+04  0.25500000920E-02 0.  1.
       -2   -1    0    0    0  501  0.00000000000E+00  0.00000000000E+00 -0.84034473855E+03  0.84034473855E+03  0.25500000920E-02 0. -1.
    10030    2    1    2    0    0  0.00000000000E+00  0.00000000000E+00  0.23324232259E+03  0.19139317997E+04  0.18996665373E+04 0.  0.
        5    1    3    3  502    0  0.28228136466E+03  0.59548126135E+03  0.80577556164E+03  0.10409500695E+04  0.46999998093E+01 0.  1.
       -5    1    3    3    0  502 -0.28228136466E+03 -0.59548126135E+03 -0.57253323905E+03  0.87298173020E+03  0.46999998093E+01 0. -1.
</event>
<event>
 5   0  0.4761944E-04  0.1885348E+04  0.7818609E-02  0.8662184E-01
        2   -1    0    0  501    0  0.00000000000E+00  0.00000000000E+00  0.19343539115E+04  0.19343539115E+04  0.25500000920E-02 0.  1.
       -2   -1    0    0    0  501  0.00000000000E+00  0.00000000000E+00 -0.45939594995E+03  0.45939594996E+03  0.25500000920E-02 0. -1.
    10030    2    1    2    0    0  0.00000000000E+00  0.00000000000E+00  0.14749579615E+04  0.23937498614E+04  0.18853480874E+04 0.  0.
        4    1    3    3  502    0  0.89642795995E+03 -0.24759351007E+03  0.93313470964E+03  0.13174322119E+04  0.12699999809E+01 0. -1.
       -4    1    3    3    0  502 -0.89642795995E+03  0.24759351007E+03  0.54182325189E+03  0.10763176496E+04  0.12699999809E+01 0.  1.
</event>
<event>
 5   0  0.2355414E-04  0.1893228E+04  0.7818609E-02  0.8658234E-01
        1   -1    0    0  501    0  0.00000000000E+00  0.00000000000E+00  0.16605563907E+04  0.16605563907E+04  0.50400001928E-02 0. -1.
       -1   -1    0    0    0  501  0.00000000000E+00  0.00000000000E+00 -0.53962530441E+03  0.53962530443E+03  0.50400001928E-02 0.  1.
    10030    2    1    2    0    0  0.00000000000E+00  0.00000000000E+00  0.11209310863E+04  0.22001816951E+04  0.18932281932E+04 0.  0.
        5    1    3    3  502    0  0.68890545801E+03 -0.13436750252E+03  0.12985895753E+04  0.14761444140E+04  0.46999998093E+01 0. -1.
       -5    1    3    3    0  502 -0.68890545801E+03  0.13436750252E+03 -0.17765848901E+03  0.72403728117E+03  0.46999998093E+01 0.  1.
</event>
<event>
 5   0  0.2317458E-04  0.2007884E+04  0.7818609E-02  0.8602943E-01
       -1   -1    0    0    0  501  0.00000000000E+00  0.00000000000E+00  0.82030470619E+03  0.82030470620E+03  0.50400001928E-02 0.  1.
        1   -1    0    0  501    0  0.00000000000E+00  0.00000000000E+00 -0.12286895115E+04  0.12286895116E+04  0.50400001928E-02 0. -1.
    10030    2    1    2    0    0  0.00000000000E+00  0.00000000000E+00 -0.40838480536E+03  0.20489942178E+04  0.20078842484E+04 0.  0.
        3    1    3    3  502    0  0.83583939113E+03  0.26443498888E+03  0.29505467891E+03  0.92499222962E+03  0.10100000352E+00 0.  1.
       -3    1    3    3    0  502 -0.83583939113E+03 -0.26443498888E+03 -0.70343948427E+03  0.11240019881E+04  0.10100000352E+00 0. -1.
</event>
<event>
 5   0  0.2376359E-04  0.1905754E+04  0.7818609E-02  0.8651998E-01
       -1   -1    0    0    0  501  0.00000000000E+00  0.00000000000E+00  0.12463934777E+04  0.12463934777E+04  0.50400001928E-02 0.  1.
        1   -1    0    0  501    0  0.00000000000E+00  0.00000000000E+00 -0.72848129769E+03  0.72848129770E+03  0.50400001928E-02 0. -1.
    10030    2    1    2    0    0  0.00000000000E+00  0.00000000000E+00  0.51791218003E+03  0.19748747754E+04  0.19057537492E+04 0.  0.
        2    1    3    3  502    0 -0.76968331674E+03 -0.55892937321E+03  0.31720777240E+03  0.10027139289E+04  0.25500000920E-02 0. -1.
       -2    1    3    3    0  502  0.76968331674E+03  0.55892937321E+03  0.20070440764E+03  0.97216084655E+03  0.25500000920E-02 0.  1.
</event>
<event>
 5   0  0.2376359E-04  0.1920199E+04  0.7818609E-02  0.8644867E-01
        1   -1    0    0  501    0  0.00000000000E+00  0.00000000000E+00  0.21700710806E+04  0.21700710806E+04  0.50400001928E-02 0. -1.
       -1   -1    0    0    0  501  0.00000000000E+00  0.00000000000E+00 -0.42477448009E+03  0.42477448012E+03  0.50400001928E-02 0.  1.
    10030    2    1    2    0    0  0.00000000000E+00  0.00000000000E+00  0.17452966005E+04  0.25948455608E+04  0.19201987554E+04 0.  0.
        2    1    3    3  502    0  0.21039428577E+03  0.42283323444E+03 -0.25694533642E+03  0.53765658700E+03  0.25500000920E-02 0.  1.
       -2    1    3    3    0  502 -0.21039428577E+03 -0.42283323444E+03  0.20022419370E+04  0.20571889738E+04  0.25500000920E-02 0. -1.
</event>
<event>
 5   0  0.2355414E-04  0.1769544E+04  0.7818609E-02  0.8722666E-01
       -1   -1    0    0    0  501  0.00000000000E+00  0.00000000000E+00  0.88307793093E+03  0.88307793095E+03  0.50400001928E-02 0. -1.
        1   -1    0    0  501    0  0.00000000000E+00  0.00000000000E+00 -0.88646909179E+03  0.88646909180E+03  0.50400001928E-02 0.  1.
    10030    2    1    2    0    0  0.00000000000E+00  0.00000000000E+00 -0.33911608549E+01  0.17695470227E+04  0.17695437733E+04 0.  0.
        5    1    3    3  502    0  0.87033129149E+03 -0.15894072837E+03 -0.94730846584E+01  0.88478841619E+03  0.46999998093E+01 0.  1.
       -5    1    3    3    0  502 -0.87033129149E+03  0.15894072837E+03  0.60819238035E+01  0.88475860656E+03  0.46999998093E+01 0. -1.
</event>
<event>
 5   0  0.4973411E-04  0.1943900E+04  0.7818609E-02  0.8633308E-01
        2   -1    0    0  501    0  0.00000000000E+00  0.00000000000E+00  0.20501004832E+04  0.20501004832E+04  0.25500000920E-02 0.  1.
       -2   -1    0    0    0  501  0.00000000000E+00  0.00000000000E+00 -0.46080042755E+03  0.46080042755E+03  0.25500000920E-02 0. -1.
    10030    2    1    2    0    0  0.00000000000E+00  0.00000000000E+00  0.15893000557E+04  0.25109009108E+04  0.19439003876E+04 0.  0.
        1    1    3    3  502    0  0.23984736102E+02  0.96486462545E+03  0.64653873951E+03  0.11617019216E+04  0.50400001928E-02 0. -1.
       -1    1    3    3    0  502 -0.23984736102E+02 -0.96486462545E+03  0.94276131615E+03  0.13491989891E+04  0.50400001928E-02 0.  1.
</event>
<event>
 5   0  0.2510069E-04  0.1926849E+04  0.7818609E-02  0.8641606E-01
       -1   -1    0    0    0  501  0.00000000000E+00  0.00000000000E+00  0.49702324527E+03  0.49702324529E+03  0.50400001928E-02 0. -1.
        1   -1    0    0  501    0  0.00000000000E+00  0.00000000000E+00 -0.18674921567E+04  0.18674921567E+04  0.50400001928E-02 0.  1.
    10030    2    1    2    0    0  0.00000000000E+00  0.00000000000E+00 -0.13704689114E+04  0.23645154020E+04  0.19268492544E+04 0.  0.
        4    1    3    3  502    0 -0.49168372034E+03 -0.47577632913E+03  0.14711573574E+03  0.69982901398E+03  0.12699999809E+01 0. -1.
       -4    1    3    3    0  502  0.49168372034E+03  0.47577632913E+03 -0.15175846471E+04  0.16646863880E+04  0.12699999809E+01 0.  1.
</event>
<event>
 5   0  0.2261755E-04  0.1869740E+04  0.7818609E-02  0.8670067E-01
       -1   -1    0    0    0  501  0.00000000000E+00  0.00000000000E+00  0.17663012837E+04  0.17663012838E+04  0.50400001928E-02 0. -1.
        1   -1    0    0  501    0  0.00000000000E+00  0.00000000000E+00 -0.49480923978E+03  0.49480923981E+03  0.50400001928E-02 0.  1.
    10030    2    1    2    0    0  0.00000000000E+00  0.00000000000E+00  0.12714920440E+04  0.22611105236E+04  0.18697402980E+04 0.  0.
        1    1    3    3  502    0 -0.72285826552E+03  0.29751879891E+03  0.15635072114E+02  0.78184778777E+03  0.50400001928E-02 0.  1.
       -1    1    3    3    0  502  0.72285826552E+03 -0.29751879891E+03  0.12558569719E+04  0.14792627358E+04  0.50400001928E-02 0. -1.
</event>
<event>
 5   0  0.4761944E-04  0.1987203E+04  0.7818609E-02  0.8612627E-01
        2   -1    0    0  501    0  0.00000000000E+00  0.00000000000E+00  0.28142457000E+04  0.28142457000E+04  0.25500000920E-02 0.  1.
       -2   -1    0    0    0  501  0.00000000000E+00  0.00000000000E+00 -0.35080240708E+03  0.35080240709E+03  0.25500000920E-02 0. -1.
    10030    2    1    2    0    0  0.00000000000E+00  0.00000000000E+00  0.24634432930E+04  0.31650481071E+04  0.19872032263E+04 0.  0.
        4    1    3    3  502    0  0.70628985111E+03 -0.56335145449E+03  0.18904056975E+04  0.20951958211E+04  0.12699999809E+01 0.  1.
       -4    1    3    3    0  502 -0.70628985111E+03  0.56335145449E+03  0.57303759551E+03  0.10698522860E+04  0.12699999809E+01 0. -1.
</event>
<event>
 5   0  0.2355414E-04  0.1718126E+04  0.7818609E-02  0.8751094E-01
       -1   -1    0    0    0  501  0.00000000000E+00  0.00000000000E+00  0.37536308938E+03  0.37536308941E+03  0.50400001928E-02 0. -1.
        1   -1    0    0  501    0  0.00000000000E+00  0.00000000000E+00 -0.19660668989E+04  0.19660668989E+04  0.50400001928E-02 0.  1.
    10030    2    1    2    0    0  0.00000000000E+00  0.00000000000E+00 -0.15907038095E+04  0.23414299883E+04  0.17181256591E+04 0.  0.
        5    1    3    3  502    0  0.67881865290E+02 -0.65830363734E+03 -0.15417721773E+04  0.16778126127E+04  0.46999998093E+01 0.  1.
       -5    1    3    3    0  502 -0.67881865290E+02  0.65830363734E+03 -0.48931632184E+02  0.66361737560E+03  0.46999998093E+01 0. -1.
</event>
<event>
 5   0  0.2355414E-04  0.1879169E+04  0.7818609E-02  0.8665295E-01
       -1   -1    0    0    0  501  0.00000000000E+00  0.00000000000E+00  0.85645910894E+03  0.85645910896E+03  0.50400001928E-02 0.  1.
        1   -1    0    0  501    0  0.00000000000E+00  0.00000000000E+00 -0.10307778756E+04  0.10307778756E+04  0.50400001928E-02 0. -1.
    10030    2    1    2    0    0  0.00000000000E+00  0.00000000000E+00 -0.17431876664E+03  0.18872369845E+04  0.18791690726E+04 0.  0.
        5    1    3    3  502    0  0.60760106112E+03  0.19933279456E+03  0.60418873969E+03  0.87976061268E+03  0.46999998093E+01 0.  1.
       -5    1    3    3    0  502 -0.60760106112E+03 -0.19933279456E+03 -0.77850750633E+03  0.10074763719E+04  0.46999998093E+01 0. -1.
</event>
<event>
 5   0  0.2376359E-04  0.1916319E+04  0.7818609E-02  0.8646776E-01
        1   -1    0    0  501    0  0.00000000000E+00  0.00000000000E+00  0.12562548693E+04  0.12562548693E+04  0.50400001928E-02 0. -1.
       -1   -1    0    0    0  501  0.00000000000E+00  0.00000000000E+00 -0.73079902393E+03  0.73079902395E+03  0.50400001928E-02 0.  1.
    10030    2    1    2    0    0  0.00000000000E+00  0.00000000000E+00  0.52545584534E+03  0.19870538932E+04  0.19163192138E+04 0.  0.
        2    1    3    3  502    0  0.51299002096E+02 -0.58097532679E+03 -0.52553366151E+03  0.78507932551E+03  0.25500000920E-02 0.  1.
       -2    1    3    3    0  502 -0.51299002096E+02  0.58097532679E+03  0.10509895068E+04  0.12019745677E+04  0.25500000920E-02 0. -1.
</event>
<event>
 5   0  0.4973411E-04  0.1831917E+04  0.7818609E-02  0.8689508E-01
        2   -1    0    0  501    0  0.00000000000E+00  0.00000000000E+00  0.13426785734E+04  0.13426785734E+04  0.25500000920E-02 0. -1.
       -2   -1    0    0    0  501  0.00000000000E+00  0.00000000000E+00 -0.62485559195E+03  0.62485559196E+03  0.25500000920E-02 0.  1.
    10030    2    1    2    0    0  0.00000000000E+00  0.00000000000E+00  0.71782298147E+03  0.19675341654E+04  0.18319172632E+04 0.  0.
        1    1    3    3  502    0  0.25376615042E+03 -0.66655342273E+03  0.97616533666E+03  0.12089621537E+04  0.50400001928E-02 0. -1.
       -1    1    3    3    0  502 -0.25376615042E+03  0.66655342273E+03 -0.25834235520E+03  0.75857201172E+03  0.50400001928E-02 0.  1.
</event>
<event>
 5   0  0.2510069E-04  0.1909869E+04  0.7818609E-02  0.8649959E-01
        1   -1    0    0  501    0  0.00000000000E+00  0.00000000000E+00  0.91883032900E+03  0.91883032901E+03  0.50400001928E-02 0.  1.
       -1   -1    0    0    0  501  0.00000000000E+00  0.00000000000E+00 -0.99245746223E+03  0.99245746224E+03  0.50400001928E-02 0. -1.
    10030    2    1    2    0    0  0.00000000000E+00  0.00000000000E+00 -0.73627133230E+02  0.19112877913E+04  0.19098691228E+04 0.  0.
        4    1    3    3  502    0 -0.53327470053E+03 -0.60759044872E+03 -0.54547287959E+03  0.97523860406E+03  0.12699999809E+01 0. -1.
       -4    1    3    3    0  502  0.53327470053E+03  0.60759044872E+03  0.47184574636E+03  0.93604918719E+03  0.12699999809E+01 0.  1.
</event>
<event>
 5   0  0.4973411E-04  0.1893794E+04  0.7818609E-02  0.8657952E-01
       -2   -1    0    0    0  501  0.00000000000E+00  0.00000000000E+00  0.10559173531E+04  0.10559173531E+04  0.25500000920E-02 0.  1.
        2   -1    0    0  501    0  0.00000000000E+00  0.00000000000E+00 -0.84913232473E+03  0.84913232473E+03  0.25500000920E-02 0. -1.
    10030    2    1    2    0    0  0.00000000000E+00  0.00000000000E+00  0.20678502838E+03  0.19050496778E+04  0.18937936073E+04 0.  0.
        1    1    3    3  502    0 -0.49370059097E+03 -0.41242684753E+03  0.80234413314E+03  0.10283930601E+04  0.50400001928E-02 0.  1.
       -1    1    3    3    0  502  0.49370059097E+03  0.41242684753E+03 -0.59555910476E+03  0.87665661772E+03  0.50400001928E-02 0. -1.
</event>
<event>
 5   0  0.4802635E-04  0.1449348E+04  0.7818609E-02  0.8918853E-01
       -2   -1    0    0    0  501  0.00000000000E+00  0.00000000000E+00  0.50458389370E+03  0.50458389371E+03  0.25500000920E-02 0.  1.
        2   -1    0    0  501    0  0.00000000000E+00  0.00000000000E+00 -0.10407628413E+04  0.10407628413E+04  0.25500000920E-02 0. -1.
    10030    2    1    2    0    0  0.00000000000E+00  0.00000000000E+00 -0.53617894763E+03  0.15453467350E+04  0.14493476697E+04 0.  0.
        3    1    3    3  502    0 -0.90581253345E+02  0.38559532955E+03 -0.91513175731E+03  0.99717343781E+03  0.10100000352E+00 0. -1.
       -3    1    3    3    0  502  0.90581253345E+02 -0.38559532955E+03  0.37895280969E+03  0.54817329723E+03  0.10100000352E+00 0.  1.
</event>
<event>
 5   0  0.4802635E-04  0.1916376E+04  0.7818609E-02  0.8646747E-01
       -2   -1    0    0    0  501  0.00000000000E+00  0.00000000000E+00  0.84623209905E+03  0.84623209906E+03  0.25500000920E-02 0.  1.
        2   -1    0    0  501    0  0.00000000000E+00  0.00000000000E+00 -0.10849560566E+04  0.10849560566E+04  0.25500000920E-02 0. -1.
    10030    2    1    2    0    0  0.00000000000E+00  0.00000000000E+00 -0.23872395758E+03  0.19311881557E+04  0.19163764152E+04 0.  0.
        3    1    3    3  502    0  0.63858333169E+03 -0.55520002874E+03 -0.57237948855E+03  0.10215938687E+04  0.10100000352E+00 0. -1.
       -3    1    3    3    0  502 -0.63858333169E+03  0.55520002874E+03  0.33365553096E+03  0.90959428701E+03  0.10100000352E+00 0.  1.
</event>
<event>
 5   0  0.2261755E-04  0.1960082E+04  0.7818609E-02  0.8625514E-01
        1   -1    0    0  501    0  0.00000000000E+00  0.00000000000E+00  0.81833557530E+03  0.81833557532E+03  0.50400001928E-02 0.  1.
       -1   -1    0    0    0  501  0.00000000000E+00  0.00000000000E+00 -0.11736996745E+04  0.11736996746E+04  0.50400001928E-02 0. -1.
    10030    2    1    2    0    0  0.00000000000E+00  0.00000000000E+00 -0.35536409924E+03  0.19920352499E+04  0.19600818334E+04 0.  0.
        1    1    3    3  502    0  0.39175883213E+03 -0.63995725451E+03  0.46303973535E+03  0.88171767969E+03  0.50400001928E-02 0.  1.
       -1    1    3    3    0  502 -0.39175883213E+03  0.63995725451E+03 -0.81840383458E+03  0.11103175702E+04  0.50400001928E-02 0. -1.
</event>
<event>
 5   0  0.2355414E-04  0.1799420E+04  0.7818609E-02  0.8706608E-01
        1   -1    0    0  501    0  0.00000000000E+00  0.00000000000E+00  0.86636393185E+03  0.86636393186E+03  0.50400001928E-02 0.  1.
       -1   -1    0    0    0  501  0.00000000000E+00  0.00000000000E+00 -0.93433941729E+03  0.93433941730E+03  0.50400001928E-02 0. -1.
    10030    2    1    2    0    0  0.00000000000E+00  0.00000000000E+00 -0.67975485438E+02  0.18007033492E+04  0.17994198746E+04 0.  0.
        5    1    3    3  502    0 -0.19390486706E+03  0.85033519821E+03 -0.25502270786E+03  0.90869561367E+03  0.46999998093E+01 0. -1.
       -5    1    3    3    0  502  0.19390486706E+03 -0.85033519821E+03  0.18704722242E+03  0.89200773550E+03  0.46999998093E+01 0.  1.
</event>
<event>
 5   0  0.4802635E-04  0.1893956E+04  0.7818609E-02  0.8657871E-01
        2   -1    0    0  501    0  0.00000000000E+00  0.00000000000E+00  0.75654830095E+03  0.75654830096E+03  0.25500000920E-02 0. -1.
       -2   -1    0    0    0  501  0.00000000000E+00  0.00000000000E+00 -0.11853399302E+04  0.11853399302E+04  0.25500000920E-02 0.  1.
    10030    2    1    2    0    0  0.00000000000E+00  0.00000000000E+00 -0.42879162924E+03  0.19418882312E+04  0.18939555541E+04 0.  0.
        3    1    3    3  502    0 -0.61369844384E+03  0.45898442583E+03 -0.78477914320E+03  0.10968914244E+04  0.10100000352E+00 0.  1.
       -3    1    3    3    0  502  0.61369844384E+03 -0.45898442583E+03  0.35598751395E+03  0.84499680675E+03  0.10100000352E+00 0. -1.
</event>
<event>
 5   0  0.2355414E-04  0.1831222E+04  0.7818609E-02  0.8689870E-01
       -1   -1    0    0    0  501  0.00000000000E+00  0.00000000000E+00  0.69464919527E+03  0.69464919529E+03  0.50400001928E-02 0. -1.
        1   -1    0    0  501    0  0.00000000000E+00  0.00000000000E+00 -0.12068591669E+04  0.12068591669E+04  0.50400001928E-02 0.  1.
    10030    2    1    2    0    0  0.00000000000E+00  0.00000000000E+00 -0.51220997161E+03  0.19015083622E+04  0.18312222684E+04 0.  0.
        5    1    3    3  502    0 -0.25244177913E+03 -0.21768373465E+03 -0.11416011444E+04  0.11892805906E+04  0.46999998093E+01 0.  1.
       -5    1    3    3    0  502  0.25244177913E+03  0.21768373465E+03  0.62939117283E+03  0.71222777158E+03  0.46999998093E+01 0. -1.
</event>
<event>
 5   0  0.4829134E-04  0.1872112E+04  0.7818609E-02  0.8668864E-01
       -2   -1    0    0    0  501  0.00000000000E+00  0.00000000000E+00  0.59580466809E+03  0.59580466810E+03  0.25500000920E-02 0. -1.
        2   -1    0    0  501    0  0.00000000000E+00  0.00000000000E+00 -0.14706175416E+04  0.14706175416E+04  0.25500000920E-02 0.  1.
    10030    2    1    2    0    0  0.00000000000E+00  0.00000000000E+00 -0.87481287354E+03  0.20664222097E+04  0.18721119585E+04 0.  0.
        2    1    3    3  502    0  0.21630877738E+03  0.47416870989E+03 -0.12956537633E+04  0.13965472161E+04  0.25500000920E-02 0.  1.
       -2    1    3    3    0  502 -0.21630877738E+03 -0.47416870989E+03  0.42084088971E+03  0.66987499361E+03  0.25500000920E-02 0. -1.
</event>
<event>
 5   0  0.2317458E-04  0.1898331E+04  0.7818609E-02  0.8655688E-01
        1   -1    0    0  501    0  0.00000000000E+00  0.00000000000E+00  0.99722836517E+03  0.99722836518E+03  0.50400001928E-02 0. -1.
       -1   -1    0    0    0  501  0.00000000000E+00  0.00000000000E+00 -0.90341873539E+03  0.90341873541E+03  0.50400001928E-02 0.  1.
    10030    2    1    2    0    0  0.00000000000E+00  0.00000000000E+00  0.93809629771E+02  0.19006471006E+04  0.18983306230E+04 0.  0.
        3    1    3    3  502    0  0.51449210789E+03 -0.74941953846E+03 -0.22652733147E+03  0.93682784748E+03  0.10100000352E+00 0.  1.
       -3    1    3    3    0  502 -0.51449210789E+03  0.74941953846E+03  0.32033696124E+03  0.96381925310E+03  0.10100000352E+00 0. -1.
</event>
<event>
 5   0  0.2261755E-04  0.1884075E+04  0.7818609E-02  0.8662824E-01
       -1   -1    0    0    0  501  0.00000000000E+00  0.00000000000E+00  0.56043412509E+03  0.56043412512E+03  0.50400001928E-02 0.  1.
        1   -1    0    0  501    0  0.00000000000E+00  0.00000000000E+00 -0.15834774084E+04  0.15834774084E+04  0.50400001928E-02 0. -1.
    10030    2    1    2    0    0  0.00000000000E+00  0.00000000000E+00 -0.10230432833E+04  0.21439115336E+04  0.18840751323E+04 0.  0.
        1    1    3    3  502    0  0.56354024901E+03  0.41109883618E+03  0.20892570689E+03  0.72816881036E+03  0.50400001928E-02 0.  1.
       -1    1    3    3    0  502 -0.56354024901E+03 -0.41109883618E+03 -0.12319689902E+04  0.14157427232E+04  0.50400001928E-02 0. -1.
</event>
<event>
 5   0  0.2510069E-04  0.1712786E+04  0.7818609E-02  0.8754105E-01
        1   -1    0    0  501    0  0.00000000000E+00  0.00000000000E+00  0.12412115145E+04  0.12412115145E+04  0.50400001928E-02 0.  1.
       -1   -1    0    0    0  501  0.00000000000E+00  0.00000000000E+00 -0.59088151014E+03  0.59088151016E+03  0.50400001928E-02 0. -1.
    10030    2    1    2    0    0  0.00000000000E+00  0.00000000000E+00  0.65033000437E+03  0.18320930247E+04  0.17127859576E+04 0.  0.
        4    1    3    3  502    0  0.53038491492E+03  0.26363987558E+03  0.98679172700E+03  0.11509012414E+04  0.12699999809E+01 0.  1.
       -4    1    3    3    0  502 -0.53038491492E+03 -0.26363987558E+03 -0.33646172264E+03  0.68119178332E+03  0.12699999809E+01 0. -1.
</event>
<event>
 5   0  0.4761944E-04  0.1958170E+04  0.7818609E-02  0.8626431E-01
        2   -1    0    0  501    0  0.00000000000E+00  0.00000000000E+00  0.12086300276E+04  0.12086300276E+04  0.25500000920E-02 0.  1.
       -2   -1    0    0    0  501  0.00000000000E+00  0.00000000000E+00 -0.79313587678E+03  0.79313587678E+03  0.25500000920E-02 0. -1.
    10030    2    1    2    0    0  0.00000000000E+00  0.00000000000E+00  0.41549415083E+03  0.20017659044E+04  0.19581704080E+04 0.  0.
        4    1    3    3  502    0  0.65571848402E+03 -0.51532702785E+02  0.94914099391E+03  0.11547694960E+04  0.12699999809E+01 0.  1.
       -4    1    3    3    0  502 -0.65571848402E+03  0.51532702785E+02 -0.53364684309E+03  0.84699640836E+03  0.12699999809E+01 0. -1.
</event>
<event>
 5   0  0.2317458E-04  0.1955755E+04  0.7818609E-02  0.8627591E-01
        1   -1    0    0  501    0  0.00000000000E+00  0.00000000000E+00  0.19074017379E+04  0.19074017379E+04  0.50400001928E-02 0. -1.
       -1   -1    0    0    0  501  0.00000000000E+00  0.00000000000E+00 -0.50133331361E+03  0.50133331363E+03  0.50400001928E-02 0.  1.
    10030    2    1    2    0    0  0.00000000000E+00  0.00000000000E+00  0.14060684243E+04  0.24087350516E+04  0.19557546203E+04 0.  0.
        3    1    3    3  502    0  0.58251094459E+03  0.51598987063E+03 -0.26305467985E+02  0.77862477164E+03  0.10100000352E+00 0.  1.
       -3    1    3    3    0  502 -0.58251094459E+03 -0.51598987063E+03  0.14323738923E+04  0.16301102799E+04  0.10100000352E+00 0. -1.
</event>
<event>
 5   0  0.2355414E-04  0.1903316E+04  0.7818609E-02  0.8653208E-01
       -1   -1    0    0    0  501  0.00000000000E+00  0.00000000000E+00  0.62361092991E+03  0.62361092993E+03  0.50400001928E-02 0. -1.
        1   -1    0    0  501    0  0.00000000000E+00  0.00000000000E+00 -0.14522718034E+04  0.14522718034E+04  0.50400001928E-02 0.  1.
    10030    2    1    2    0    0  0.00000000000E+00  0.00000000000E+00 -0.82866087347E+03  0.20758827333E+04  0.19033156016E+04 0.  0.
        5    1    3    3  502    0 -0.28272843998E+03 -0.76107401499E+03 -0.95579060145E+03  0.12540840446E+04  0.46999998093E+01 0. -1.
       -5    1    3    3    0  502  0.28272843998E+03  0.76107401499E+03  0.12712972798E+03  0.82179868873E+03  0.46999998093E+01 0.  1.
</event>
<event>
 5   0  0.2510069E-04  0.1877258E+04  0.7818609E-02  0.8666260E-01
        1   -1    0    0  501    0  0.00000000000E+00  0.00000000000E+00  0.10862903308E+04  0.10862903308E+04  0.50400001928E-02 0. -1.
       -1   -1    0    0    0  501  0.00000000000E+00  0.00000000000E+00 -0.81103989476E+03  0.81103989477E+03  0.50400001928E-02 0.  1.
    10030    2    1    2    0    0  0.00000000000E+00  0.00000000000E+00  0.27525043604E+03  0.18973302256E+04  0.18772584218E+04 0.  0.
        4    1    3    3  502    0  0.29580705178E+03  0.31412568753E+03  0.98011235172E+03  0.10708868261E+04  0.12699999809E+01 0. -1.
       -4    1    3    3    0  502 -0.29580705178E+03 -0.31412568753E+03 -0.70486191568E+03  0.82644339947E+03  0.12699999809E+01 0.  1.
</event>
<event>
 5   0  0.4829134E-04  0.1577432E+04  0.7818609E-02  0.8834534E-01
       -2   -1    0    0    0  501  0.00000000000E+00  0.00000000000E+00  0.39677213469E+03  0.39677213470E+03  0.25500000920E-02 0.  1.
        2   -1    0    0  501    0  0.00000000000E+00  0.00000000000E+00 -0.15678339143E+04  0.15678339143E+04  0.25500000920E-02 0. -1.
    10030    2    1    2    0    0  0.00000000000E+00  0.00000000000E+00 -0.11710617796E+04  0.19646060490E+04  0.15774318483E+04 0.  0.
        2    1    3    3  502    0 -0.33071927314E+03 -0.66101067048E+03 -0.92833965671E+03  0.11866443706E+04  0.25500000920E-02 0. -1.
       -2    1    3    3    0  502  0.33071927314E+03  0.66101067048E+03 -0.24272212293E+03  0.77796167841E+03  0.25500000920E-02 0.  1.
</event>
<event>
 5   0  0.4761944E-04  0.1843329E+04  0.7818609E-02  0.8683591E-01
       -2   -1    0    0    0  501  0.00000000000E+00  0.00000000000E+00  0.48458733330E+03  0.48458733330E+03  0.25500000920E-02 0. -1.
        2   -1    0    0  501    0  0.00000000000E+00  0.00000000000E+00 -0.17529661515E+04  0.17529661515E+04  0.25500000920E-02 0.  1.
    10030    2    1    2    0    0  0.00000000000E+00  0.00000000000E+00 -0.12683788182E+04  0.22375534848E+04  0.18433287202E+04 0.  0.
        4    1    3    3  502    0  0.33710661176E+03  0.77883398564E+03 -0.19780455094E+03  0.87140776801E+03  0.12699999809E+01 0. -1.
       -4    1    3    3    0  502 -0.33710661176E+03 -0.77883398564E+03 -0.10705742672E+04  0.13661457168E+04  0.12699999809E+01 0.  1.
</event>
<event>
 5   0  0.4761944E-04  0.1316324E+04  0.7818609E-02  0.9016719E-01
       -2   -1    0    0    0  501  0.00000000000E+00  0.00000000000E+00  0.50764795576E+03  0.50764795576E+03  0.25500000920E-02 0. -1.
        2   -1    0    0  501    0  0.00000000000E+00  0.00000000000E+00 -0.85330236312E+03  0.85330236312E+03  0.25500000920E-02 0.  1.
    10030    2    1    2    0    0  0.00000000000E+00  0.00000000000E+00 -0.34565440736E+03  0.13609503189E+04  0.13163239727E+04 0.  0.
        4    1    3    3  502    0 -0.52874605946E+03  0.33587077650E+03  0.35995492387E+02  0.62743833345E+03  0.12699999809E+01 0. -1.
       -4    1    3    3    0  502  0.52874605946E+03 -0.33587077650E+03 -0.38164989975E+03  0.73351198544E+03  0.12699999809E+01 0.  1.
</event>
<event>
 5   0  0.2510069E-04  0.1888915E+04  0.7818609E-02  0.8660394E-01
        1   -1    0    0  501    0  0.00000000000E+00  0.00000000000E+00  0.16397649255E+04  0.16397649255E+04  0.50400001928E-02 0.  1.
       -1   -1    0    0    0  501  0.00000000000E+00  0.00000000000E+00 -0.54398062358E+03  0.54398062360E+03  0.50400001928E-02 0. -1.
    10030    2    1    2    0    0  0.00000000000E+00  0.00000000000E+00  0.10957843019E+04  0.21837455491E+04  0.18889153996E+04 0.  0.
        4    1    3    3  502    0  0.72519324070E+02 -0.32589399450E+03 -0.47348255996E+03  0.57935593162E+03  0.12699999809E+01 0. -1.
       -4    1    3    3    0  502 -0.72519324070E+02  0.32589399450E+03  0.15692668618E+04  0.16043896174E+04  0.12699999809E+01 0.  1.
</event>
<event>
 5   0  0.4829134E-04  0.1857560E+04  0.7818609E-02  0.8676275E-01
       -2   -1    0    0    0  501  0.00000000000E+00  0.00000000000E+00  0.59466517051E+03  0.59466517052E+03  0.25500000920E-02 0. -1.
        2   -1    0    0  501    0  0.00000000000E+00  0.00000000000E+00 -0.14506182852E+04  0.14506182852E+04  0.25500000920E-02 0.  1.
    10030    2    1    2    0    0  0.00000000000E+00  0.00000000000E+00 -0.85595311465E+03  0.20452834557E+04  0.18575598724E+04 0.  0.
        2    1    3    3  502    0 -0.86712292997E+03 -0.28325647717E+03 -0.23569818730E+03  0.94217304305E+03  0.25500000920E-02 0. -1.
       -2    1    3    3    0  502  0.86712292997E+03  0.28325647717E+03 -0.62025492736E+03  0.11031104126E+04  0.25500000920E-02 0.  1.
</event>
<event>
 5   0  0.4761944E-04  0.1881479E+04  0.7818609E-02  0.8664131E-01
       -2   -1    0    0    0  501  0.00000000000E+00  0.00000000000E+00  0.83590873833E+03  0.83590873833E+03  0.25500000920E-02 0.  1.
        2   -1    0    0  501    0  0.00000000000E+00  0.00000000000E+00 -0.10587166148E+04  0.10587166148E+04  0.25500000920E-02 0. -1.
    10030    2    1    2    0    0  0.00000000000E+00  0.00000000000E+00 -0.22280787649E+03  0.18946253531E+04  0.18814786416E+04 0.  0.
        4    1    3    3  502    0 -0.52002095231E+03 -0.44641744706E+03 -0.76032786975E+03  0.10236261086E+04  0.12699999809E+01 0. -1.
       -4    1    3    3    0  502  0.52002095231E+03  0.44641744706E+03  0.53751999325E+03  0.87099924451E+03  0.12699999809E+01 0.  1.
</event>
<event>
 5   0  0.4839293E-04  0.1897739E+04  0.7818609E-02  0.8655983E-01
        2   -1    0    0  501    0  0.00000000000E+00  0.00000000000E+00  0.14900263666E+04  0.14900263666E+04  0.25500000920E-02 0. -1.
       -2   -1    0    0    0  501  0.00000000000E+00  0.00000000000E+00 -0.60425305328E+03  0.60425305328E+03  0.25500000920E-02 0.  1.
    10030    2    1    2    0    0  0.00000000000E+00  0.00000000000E+00  0.88577331333E+03  0.20942794199E+04  0.18977386348E+04 0.  0.
        5    1    3    3  502    0  0.37507678142E+03 -0.55915576152E+03  0.11807036470E+04  0.13591986425E+04  0.46999998093E+01 0. -1.
       -5    1    3    3    0  502 -0.37507678142E+03  0.55915576152E+03 -0.29493033370E+03  0.73508077742E+03  0.46999998093E+01 0.  1.
</event>
<event>
 5   0  0.2376359E-04  0.1812000E+04  0.7818609E-02  0.8699944E-01
        1   -1    0    0  501    0  0.00000000000E+00  0.00000000000E+00  0.99448908762E+03  0.99448908763E+03  0.50400001928E-02 0.  1.
       -1   -1    0    0    0  501  0.00000000000E+00  0.00000000000E+00 -0.82538486087E+03  0.82538486089E+03  0.50400001928E-02 0. -1.
    10030    2    1    2    0    0  0.00000000000E+00  0.00000000000E+00  0.16910422675E+03  0.18198739485E+04  0.18120002619E+04 0.  0.
        2    1    3    3  502    0  0.51071912567E+03 -0.40286523518E+03 -0.54882422949E+03  0.85108310870E+03  0.25500000920E-02 0. -1.
       -2    1    3    3    0  502 -0.51071912567E+03  0.40286523518E+03  0.71792845623E+03  0.96879083982E+03  0.25500000920E-02 0.  1.
</event>
<event>
 5   0  0.4839293E-04  0.2030818E+04  0.7818609E-02  0.8592346E-01
        2   -1    0    0  501    0  0.00000000000E+00  0.00000000000E+00  0.12096902465E+04  0.12096902465E+04  0.25500000920E-02 0. -1.
       -2   -1    0    0    0  501  0.00000000000E+00  0.00000000000E+00 -0.85233026949E+03  0.85233026950E+03  0.25500000920E-02 0.  1.
    10030    2    1    2    0    0  0.00000000000E+00  0.00000000000E+00  0.35735997699E+03  0.20620205160E+04  0.20308181738E+04 0.  0.
        5    1    3    3  502    0 -0.96664287417E+03 -0.18741116944E+03 -0.73147032348E+02  0.98736719155E+03  0.46999998093E+01 0.  1.
       -5    1    3    3    0  502  0.96664287417E+03  0.18741116944E+03  0.43050700934E+03  0.10746533244E+04  0.46999998093E+01 0. -1.
</event>
<event>
 5   0  0.2355414E-04  0.1868375E+04  0.7818609E-02  0.8670760E-01
       -1   -1    0    0    0  501  0.00000000000E+00  0.00000000000E+00  0.74718363158E+03  0.74718363160E+03  0.50400001928E-02 0. -1.
        1   -1    0    0  501    0  0.00000000000E+00  0.00000000000E+00 -0.11679943422E+04  0.11679943422E+04  0.50400001928E-02 0.  1.
    10030    2    1    2    0    0  0.00000000000E+00  0.00000000000E+00 -0.42081071061E+03  0.19151779738E+04  0.18683749670E+04 0.  0.
        5    1    3    3  502    0 -0.93168522619E+03 -0.68075270064E+02 -0.21403831496E+03  0.95838723560E+03  0.46999998093E+01 0.  1.
       -5    1    3    3    0  502  0.93168522619E+03  0.68075270064E+02 -0.20677239565E+03  0.95679073819E+03  0.46999998093E+01 0. -1.
</event>
<event>
 5   0  0.2376359E-04  0.1894906E+04  0.7818609E-02  0.8657396E-01
        1   -1    0    0  501    0  0.00000000000E+00  0.00000000000E+00  0.58426717924E+03  0.58426717927E+03  0.50400001928E-02 0. -1.
       -1   -1    0    0    0  501  0.00000000000E+00  0.00000000000E+00 -0.15363989652E+04  0.15363989652E+04  0.50400001928E-02 0.  1.
    10030    2    1    2    0    0  0.00000000000E+00  0.00000000000E+00 -0.95213178599E+03  0.21206661445E+04  0.18949063192E+04 0.  0.
        2    1    3    3  502    0 -0.42031839090E+03  0.41999646570E+03 -0.13019603233E+04  0.14311412454E+04  0.25500000920E-02 0.  1.
       -2    1    3    3    0  502  0.42031839090E+03 -0.41999646570E+03  0.34982853731E+03  0.68952489908E+03  0.25500000920E-02 0. -1.
</event>
<event>
 5   0  0.4973411E-04  0.1909295E+04  0.7818609E-02  0.8650244E-01
       -2   -1    0    0    0  501  0.00000000000E+00  0.00000000000E+00  0.50319908131E+03  0.50319908132E+03  0.25500000920E-02 0. -1.
        2   -1    0    0  501    0  0.00000000000E+00  0.00000000000E+00 -0.18111149554E+04  0.18111149554E+04  0.25500000920E-02 0.  1.
    10030    2    1    2    0    0  0.00000000000E+00  0.00000000000E+00 -0.13079158741E+04  0.23143140367E+04  0.19092945103E+04 0.  0.
        1    1    3    3  502    0  0.32343596873E+03  0.52230161297E+03  0.23176162596E+03  0.65659976551E+03  0.50400001928E-02 0. -1.
       -1    1    3    3    0  502 -0.32343596873E+03 -0.52230161297E+03 -0.15396775001E+04  0.16577142712E+04  0.50400001928E-02 0.  1.
</event>
<event>
 5   0  0.2510069E-04  0.1962210E+04  0.7818609E-02  0.8624495E-01
       -1   -1    0    0    0  501  0.00000000000E+00  0.00000000000E+00  0.17885728626E+04  0.17885728626E+04  0.50400001928E-02 0.  1.
        1   -1    0    0  501    0  0.00000000000E+00  0.00000000000E+00 -0.53817595291E+03  0.53817595293E+03  0.50400001928E-02 0. -1.
    10030    2    1    2    0    0  0.00000000000E+00  0.00000000000E+00  0.12503969097E+04  0.23267488156E+04  0.19622098815E+04 0.  0.
        4    1    3    3  502    0  0.41016570554E+03 -0.65044808882E+03  0.13476942539E+04  0.15516443011E+04  0.12699999809E+01 0.  1.
       -4    1    3    3    0  502 -0.41016570554E+03  0.65044808882E+03 -0.97297344178E+02  0.77510451446E+03  0.12699999809E+01 0. -1.
</event>
<event>
 5   0  0.4802635E-04  0.1285405E+04  0.7818609E-02  0.9041220E-01
       -2   -1    0    0    0  501  0.00000000000E+00  0.00000000000E+00  0.24492257529E+03  0.24492257530E+03  0.25500000920E-02 0.  1.
        2   -1    0    0  501    0  0.00000000000E+00  0.00000000000E+00 -0.16865175626E+04  0.16865175626E+04  0.25500000920E-02 0. -1.
    10030    2    1    2    0    0  0.00000000000E+00  0.00000000000E+00 -0.14415949873E+04  0.19314401379E+04  0.12854045662E+04 0.  0.
        3    1    3    3  502    0 -0.56915437678E+03 -0.15418683924E+03 -0.11049325196E+04  0.12524321016E+04  0.10100000352E+00 0. -1.
       -3    1    3    3    0  502  0.56915437678E+03  0.15418683924E+03 -0.33666246769E+03  0.67900803630E+03  0.10100000352E+00 0.  1.
</event>
<event>
 5   0  0.2355414E-04  0.1846056E+04  0.7818609E-02  0.8682184E-01
       -1   -1    0    0    0  501  0.00000000000E+00  0.00000000000E+00  0.32857128302E+04  0.32857128302E+04  0.50400001928E-02 0.  1.
        1   -1    0    0  501    0  0.00000000000E+00  0.00000000000E+00 -0.25929856229E+03  0.25929856233E+03  0.50400001928E-02 0. -1.
    10030    2    1    2    0    0  0.00000000000E+00  0.00000000000E+00  0.30264142679E+04  0.35450113926E+04  0.18460559180E+04 0.  0.
        5    1    3    3  502    0  0.63372924632E+03 -0.40444569133E+03  0.25415530405E+04  0.26504156321E+04  0.46999998093E+01 0.  1.
       -5    1    3    3    0  502 -0.63372924632E+03  0.40444569133E+03  0.48486122743E+03  0.89459576052E+03  0.46999998093E+01 0. -1.
</event>
<event>
 5   0  0.2317458E-04  0.1462898E+04  0.7818609E-02  0.8909507E-01
        1   -1    0    0  501    0  0.00000000000E+00  0.00000000000E+00  0.16682915941E+04  0.16682915941E+04  0.50400001928E-02 0.  1.
       -1   -1    0    0    0  501  0.00000000000E+00  0.00000000000E+00 -0.32069796019E+03  0.32069796023E+03  0.50400001928E-02 0. -1.
    10030    2    1    2    0    0  0.00000000000E+00  0.00000000000E+00  0.13475936339E+04  0.19889895543E+04  0.14628980980E+04 0.  0.
        3    1    3    3  502    0  0.67541249694E+03  0.52758122208E+02  0.29884588812E+03  0.74045549193E+03  0.10100000352E+00 0.  1.
       -3    1    3    3    0  502 -0.67541249694E+03 -0.52758122208E+02  0.10487477458E+04  0.12485340624E+04  0.10100000352E+00 0. -1.
</event>
<event>
 5   0  0.1729375E-04  0.1839976E+04  0.7818609E-02  0.8685325E-01
       -3   -1    0    0    0  501  0.00000000000E+00  0.00000000000E+00  0.55902642537E+03  0.55902643449E+03  0.10100000352E+00 0. -1.
        3   -1    0    0  501    0  0.00000000000E+00  0.00000000000E+00 -0.15140206578E+04  0.15140206612E+04  0.10100000352E+00 0.  1.
    10030    2    1    2    0    0  0.00000000000E+00  0.00000000000E+00 -0.95499423246E+03  0.20730470957E+04  0.18399756186E+04 0.  0.
        1    1    3    3  502    0 -0.46372950934E+03  0.61317906989E+03 -0.10468216218E+04  0.12987952639E+04  0.50400001928E-02 0.  1.
       -1    1    3    3    0  502  0.46372950934E+03 -0.61317906989E+03  0.91827389346E+02  0.77425183180E+03  0.50400001928E-02 0. -1.
</event>
<event>
 5   0  0.4829134E-04  0.1859725E+04  0.7818609E-02  0.8675168E-01
       -2   -1    0    0    0  501  0.00000000000E+00  0.00000000000E+00  0.11507399993E+04  0.11507399993E+04  0.25500000920E-02 0. -1.
        2   -1    0    0  501    0  0.00000000000E+00  0.00000000000E+00 -0.75138090757E+03  0.75138090757E+03  0.25500000920E-02 0.  1.
    10030    2    1    2    0    0  0.00000000000E+00  0.00000000000E+00  0.39935909174E+03  0.19021209069E+04  0.18597247808E+04 0.  0.
        2    1    3    3  502    0  0.56860236062E+03 -0.43265923256E+03 -0.40898470737E+03  0.82326857519E+03  0.25500000920E-02 0.  1.
       -2    1    3    3    0  502 -0.56860236062E+03  0.43265923256E+03  0.80834379912E+03  0.10788523317E+04  0.25500000920E-02 0. -1.
</event>
<event>
 5   0  0.4839293E-04  0.1909606E+04  0.7818609E-02  0.8650089E-01
       -2   -1    0    0    0  501  0.00000000000E+00  0.00000000000E+00  0.18783890816E+04  0.18783890816E+04  0.25500000920E-02 0.  1.
        2   -1    0    0  501    0  0.00000000000E+00  0.00000000000E+00 -0.48533557594E+03  0.48533557595E+03  0.25500000920E-02 0. -1.
    10030    2    1    2    0    0  0.00000000000E+00  0.00000000000E+00  0.13930535057E+04  0.23637246576E+04  0.19096062911E+04 0.  0.
        5    1    3    3  502    0  0.21909873265E+03 -0.45339482144E+03  0.17006439891E+04  0.17736355844E+04  0.46999998093E+01 0.  1.
       -5    1    3    3    0  502 -0.21909873265E+03  0.45339482144E+03 -0.30759048341E+03  0.59008907314E+03  0.46999998093E+01 0. -1.
</event>
<event>
 5   0  0.2510069E-04  0.1816418E+04  0.7818609E-02  0.8697617E-01
       -1   -1    0    0    0  501  0.00000000000E+00  0.00000000000E+00  0.59350985671E+03  0.59350985673E+03  0.50400001928E-02 0. -1.
        1   -1    0    0  501    0  0.00000000000E+00  0.00000000000E+00 -0.13897717768E+04  0.13897717768E+04  0.50400001928E-02 0.  1.
    10030    2    1    2    0    0  0.00000000000E+00  0.00000000000E+00 -0.79626192007E+03  0.19832816335E+04  0.18164176261E+04 0.  0.
        4    1    3    3  502    0 -0.58996926262E+03  0.67389933719E+03 -0.56241060500E+03  0.10575969691E+04  0.12699999809E+01 0. -1.
       -4    1    3    3    0  502  0.58996926262E+03 -0.67389933719E+03 -0.23385131508E+03  0.92568466443E+03  0.12699999809E+01 0.  1.
</event>
<event>
 5   0  0.4761944E-04  0.1906668E+04  0.7818609E-02  0.8651544E-01
       -2   -1    0    0    0  501  0.00000000000E+00  0.00000000000E+00  0.79698808032E+03  0.79698808032E+03  0.25500000920E-02 0. -1.
        2   -1    0    0  501    0  0.00000000000E+00  0.00000000000E+00 -0.11403508160E+04  0.11403508160E+04  0.25500000920E-02 0.  1.
    10030    2    1    2    0    0  0.00000000000E+00  0.00000000000E+00 -0.34336273565E+03  0.19373388963E+04  0.19066683065E+04 0.  0.
        4    1    3    3  502    0 -0.44776207312E+03  0.58040530852E+03  0.44761714700E+03  0.85890856292E+03  0.12699999809E+01 0. -1.
       -4    1    3    3    0  502  0.44776207312E+03 -0.58040530852E+03 -0.79097988265E+03  0.10784303334E+04  0.12699999809E+01 0.  1.
</event>
<event>
 5   0  0.2355414E-04  0.2112457E+04  0.7818609E-02  0.8555776E-01
        1   -1    0    0  501    0  0.00000000000E+00  0.00000000000E+00  0.15289853242E+04  0.15289853243E+04  0.50400001928E-02 0. -1.
       -1   -1    0    0    0  501  0.00000000000E+00  0.00000000000E+00 -0.72964666333E+03  0.72964666335E+03  0.50400001928E-02 0.  1.
    10030    2    1    2    0    0  0.00000000000E+00  0.00000000000E+00  0.79933866091E+03  0.22586319876E+04  0.21124573749E+04 0.  0.
        5    1    3    3  502    0  0.42506395627E+03 -0.55368569363E+03  0.12472054944E+04  0.14292623446E+04  0.46999998093E+01 0. -1.
       -5    1    3    3    0  502 -0.42506395627E+03  0.55368569363E+03 -0.44786683351E+03  0.82936964304E+03  0.46999998093E+01 0.  1.
</event>
<event>
 5   0  0.4829134E-04  0.2008632E+04  0.7818609E-02  0.8602596E-01
        2   -1    0    0  501    0  0.00000000000E+00  0.00000000000E+00  0.16137279576E+04  0.16137279576E+04  0.25500000920E-02 0.  1.
       -2   -1    0    0    0  501  0.00000000000E+00  0.00000000000E+00 -0.62504369447E+03  0.62504369447E+03  0.25500000920E-02 0. -1.
    10030    2    1    2    0    0  0.00000000000E+00  0.00000000000E+00  0.98868426314E+03  0.22387716521E+04  0.20086318573E+04 0.  0.
        2    1    3    3  502    0 -0.88265177843E+03  0.25427530493E+03  0.94697556714E+03  0.13192773846E+04  0.25500000920E-02 0.  1.
       -2    1    3    3    0  502  0.88265177843E+03 -0.25427530493E+03  0.41708696000E+02  0.91949426751E+03  0.25500000920E-02 0. -1.
</event>
<event>
 5   0  0.4802635E-04  0.1982692E+04  0.7818609E-02  0.8614755E-01
        2   -1    0    0  501    0  0.00000000000E+00  0.00000000000E+00  0.99802632763E+03  0.99802632764E+03  0.25500000920E-02 0.  1.
       -2   -1    0    0    0  501  0.00000000000E+00  0.00000000000E+00 -0.98471088036E+03  0.98471088036E+03  0.25500000920E-02 0. -1.
    10030    2    1    2    0    0  0.00000000000E+00  0.00000000000E+00  0.13315447274E+02  0.19827372080E+04  0.19826924963E+04 0.  0.
        3    1    3    3  502    0 -0.78666486490E+03  0.52896140949E+03 -0.28339293640E+03  0.98942071385E+03  0.10100000352E+00 0. -1.
       -3    1    3    3    0  502  0.78666486490E+03 -0.52896140949E+03  0.29670838367E+03  0.99331649415E+03  0.10100000352E+00 0.  1.
</event>
<event>
 5   0  0.2376359E-04  0.1116237E+04  0.7818609E-02  0.9189509E-01
       -1   -1    0    0    0  501  0.00000000000E+00  0.00000000000E+00  0.47377012661E+03  0.47377012664E+03  0.50400001928E-02 0. -1.
        1   -1    0    0  501    0  0.00000000000E+00  0.00000000000E+00 -0.65748374469E+03  0.65748374471E+03  0.50400001928E-02 0.  1.
    10030    2    1    2    0    0  0.00000000000E+00  0.00000000000E+00 -0.18371361808E+03  0.11312538714E+04  0.11162368154E+04 0.  0.
        2    1    3    3  502    0 -0.55622782357E+03 -0.43820496826E+02 -0.78015495593E+02  0.56337913097E+03  0.25500000920E-02 0.  1.
       -2    1    3    3    0  502  0.55622782357E+03  0.43820496826E+02 -0.10569812248E+03  0.56787474038E+03  0.25500000920E-02 0. -1.
</event>
<event>
 5   0  0.2355414E-04  0.1710200E+04  0.7818609E-02  0.8755568E-01
       -1   -1    0    0    0  501  0.00000000000E+00  0.00000000000E+00  0.96997936742E+03  0.96997936744E+03  0.50400001928E-02 0.  1.
        1   -1    0    0  501    0  0.00000000000E+00  0.00000000000E+00 -0.75382673620E+03  0.75382673622E+03  0.50400001928E-02 0. -1.
    10030    2    1    2    0    0  0.00000000000E+00  0.00000000000E+00  0.21615263122E+03  0.17238061037E+04  0.17102004336E+04 0.  0.
        5    1    3    3  502    0 -0.68224001201E+03 -0.46219376772E+03  0.33814596872E+03  0.89075209742E+03  0.46999998093E+01 0. -1.
       -5    1    3    3    0  502  0.68224001201E+03  0.46219376772E+03 -0.12199333749E+03  0.83305400623E+03  0.46999998093E+01 0.  1.
</event>
<event>
 5   0  0.4802635E-04  0.1958409E+04  0.7818609E-02  0.8626316E-01
        2   -1    0    0  501    0  0.00000000000E+00  0.00000000000E+00  0.19896714874E+04  0.19896714874E+04  0.25500000920E-02 0. -1.
       -2   -1    0    0    0  501  0.00000000000E+00  0.00000000000E+00 -0.48190948077E+03  0.48190948078E+03  0.25500000920E-02 0.  1.
    10030    2    1    2    0    0  0.00000000000E+00  0.00000000000E+00  0.15077620066E+04  0.24715809682E+04  0.19584091027E+04 0.  0.
        3    1    3    3  502    0 -0.17736885283E+03 -0.94069011647E+03  0.49375497704E+03  0.10771033343E+04  0.10100000352E+00 0.  1.
       -3    1    3    3    0  502  0.17736885283E+03  0.94069011647E+03  0.10140070296E+04  0.13944776339E+04  0.10100000352E+00 0. -1.
</event>
<event>
 5   0  0.4802635E-04  0.1642959E+04  0.7818609E-02  0.8794583E-01
       -2   -1    0    0    0  501  0.00000000000E+00  0.00000000000E+00  0.62065972078E+03  0.62065972079E+03  0.25500000920E-02 0.  1.
        2   -1    0    0  501    0  0.00000000000E+00  0.00000000000E+00 -0.10872763597E+04  0.10872763597E+04  0.25500000920E-02 0. -1.
    10030    2    1    2    0    0  0.00000000000E+00  0.00000000000E+00 -0.46661663894E+03  0.17079360805E+04  0.16429590888E+04 0.  0.
        3    1    3    3  502    0  0.75795341243E+03 -0.31673378157E+03 -0.23733015656E+03  0.85506682617E+03  0.10100000352E+00 0. -1.
       -3    1    3    3    0  502 -0.75795341243E+03  0.31673378157E+03 -0.22928648238E+03  0.85286925434E+03  0.10100000352E+00 0.  1.
</event>
<event>
 5   0  0.4829134E-04  0.1869086E+04  0.7818609E-02  0.8670399E-01
        2   -1    0    0  501    0  0.00000000000E+00  0.00000000000E+00  0.17681563882E+04  0.17681563882E+04  0.25500000920E-02 0. -1.
       -2   -1    0    0    0  501  0.00000000000E+00  0.00000000000E+00 -0.49394430179E+03  0.49394430180E+03  0.25500000920E-02 0.  1.
    10030    2    1    2    0    0  0.00000000000E+00  0.00000000000E+00  0.12742120864E+04  0.22621006900E+04  0.18690861646E+04 0.  0.
        2    1    3    3  502    0  0.61176313223E+03  0.50346943605E+03  0.37276456334E+02  0.79317409009E+03  0.25500000920E-02 0.  1.
       -2    1    3    3    0  502 -0.61176313223E+03 -0.50346943605E+03  0.12369356301E+04  0.14689265999E+04  0.25500000920E-02 0. -1.
</event>
<event>
 5   0  0.2261755E-04  0.1784240E+04  0.7818609E-02  0.8714726E-01
       -1   -1    0    0    0  501  0.00000000000E+00  0.00000000000E+00  0.52357850936E+03  0.52357850938E+03  0.50400001928E-02 0.  1.
        1   -1    0    0  501    0  0.00000000000E+00  0.00000000000E+00 -0.15200739464E+04  0.15200739465E+04  0.50400001928E-02 0. -1.
    10030    2    1    2    0    0  0.00000000000E+00  0.00000000000E+00 -0.99649543709E+03  0.20436524558E+04  0.17842399514E+04 0.  0.
        1    1    3    3  502    0 -0.57344264434E+03  0.27347345889E+03 -0.12156081046E+04  0.13716148377E+04  0.50400001928E-02 0. -1.
       -1    1    3    3    0  502  0.57344264434E+03 -0.27347345889E+03  0.21911266752E+03  0.67203761811E+03  0.50400001928E-02 0.  1.
</event>
<event>
 5   0  0.4761944E-04  0.1594221E+04  0.7818609E-02  0.8824106E-01
        2   -1    0    0  501    0  0.00000000000E+00  0.00000000000E+00  0.11023369577E+04  0.11023369577E+04  0.25500000920E-02 0. -1.
       -2   -1    0    0    0  501  0.00000000000E+00  0.00000000000E+00 -0.57639834214E+03  0.57639834214E+03  0.25500000920E-02 0.  1.
    10030    2    1    2    0    0  0.00000000000E+00  0.00000000000E+00  0.52593861551E+03  0.16787352998E+04  0.15942210573E+04 0.  0.
        4    1    3    3  502    0  0.54784289370E+03 -0.56119568039E+03  0.41304176108E+03  0.88638453120E+03  0.12699999809E+01 0. -1.
       -4    1    3    3    0  502 -0.54784289370E+03  0.56119568039E+03  0.11289685444E+03  0.79235076860E+03  0.12699999809E+01 0.  1.
</event>
<event>
 5   0  0.4802635E-04  0.1762541E+04  0.7818609E-02  0.8726477E-01
       -2   -1    0    0    0  501  0.00000000000E+00  0.00000000000E+00  0.42692920098E+03  0.42692920098E+03  0.25500000920E-02 0.  1.
        2   -1    0    0  501    0  0.00000000000E+00  0.00000000000E+00 -0.18191251450E+04  0.18191251450E+04  0.25500000920E-02 0. -1.
    10030    2    1    2    0    0  0.00000000000E+00  0.00000000000E+00 -0.13921959441E+04  0.22460543460E+04  0.17625409438E+04 0.  0.
        3    1    3    3  502    0  0.22814122134E+03 -0.12221052248E+03  0.37740762719E+03  0.45762468896E+03  0.10100000352E+00 0.  1.
       -3    1    3    3    0  502 -0.22814122134E+03  0.12221052248E+03 -0.17696035713E+04  0.17884296571E+04  0.10100000352E+00 0. -1.
</event>
<event>
 5   0  0.2376359E-04  0.1906594E+04  0.7818609E-02  0.8651581E-01
        1   -1    0    0  501    0  0.00000000000E+00  0.00000000000E+00  0.13224713529E+04  0.13224713529E+04  0.50400001928E-02 0. -1.
       -1   -1    0    0    0  501  0.00000000000E+00  0.00000000000E+00 -0.68717935372E+03  0.68717935374E+03  0.50400001928E-02 0.  1.
    10030    2    1    2    0    0  0.00000000000E+00  0.00000000000E+00  0.63529199913E+03  0.20096507066E+04  0.19065938315E+04 0.  0.
        2    1    3    3  502    0  0.18417088107E+03 -0.85530694632E+03 -0.81374098496E+02  0.87868687812E+03  0.25500000920E-02 0.  1.
       -2    1    3    3    0  502 -0.18417088107E+03  0.85530694632E+03  0.71666609763E+03  0.11309638285E+04  0.25500000920E-02 0. -1.
</event>
<event>
 5   0  0.2261755E-04  0.1895620E+04  0.7818609E-02  0.8657040E-01
       -1   -1    0    0    0  501  0.00000000000E+00  0.00000000000E+00  0.48339170709E+03  0.48339170712E+03  0.50400001928E-02 0. -1.
        1   -1    0    0  501    0  0.00000000000E+00  0.00000000000E+00 -0.18584184513E+04  0.18584184513E+04  0.50400001928E-02 0.  1.
    10030    2    1    2    0    0  0.00000000000E+00  0.00000000000E+00 -0.13750267442E+04  0.23418101584E+04  0.18956202866E+04 0.  0.
        1    1    3    3  502    0 -0.90906535339E+03  0.26820698276E+03 -0.68375299833E+03  0.11686971229E+04  0.50400001928E-02 0.  1.
       -1    1    3    3    0  502  0.90906535339E+03 -0.26820698276E+03 -0.69127374586E+03  0.11731130355E+04  0.50400001928E-02 0. -1.
</event>
<event>
 5   0  0.4973411E-04  0.1910515E+04  0.7818609E-02  0.8649640E-01
        2   -1    0    0  501    0  0.00000000000E+00  0.00000000000E+00  0.13641666158E+04  0.13641666158E+04  0.25500000920E-02 0.  1.
       -2   -1    0    0    0  501  0.00000000000E+00  0.00000000000E+00 -0.66891923654E+03  0.66891923655E+03  0.25500000920E-02 0. -1.
    10030    2    1    2    0    0  0.00000000000E+00  0.00000000000E+00  0.69524737930E+03  0.20330858524E+04  0.19105154186E+04 0.  0.
        1    1    3    3  502    0  0.10615500221E+03 -0.91932894970E+03  0.95612638830E+02  0.93036357355E+03  0.50400001928E-02 0. -1.
       -1    1    3    3    0  502 -0.10615500221E+03  0.91932894970E+03  0.59963474047E+03  0.11027222788E+04  0.50400001928E-02 0.  1.
</event>
<event>
 5   0  0.2355414E-04  0.9373517E+03  0.7818609E-02  0.9380058E-01
        1   -1    0    0  501    0  0.00000000000E+00  0.00000000000E+00  0.15083137332E+04  0.15083137332E+04  0.50400001928E-02 0.  1.
       -1   -1    0    0    0  501  0.00000000000E+00  0.00000000000E+00 -0.14563088974E+03  0.14563088982E+03  0.50400001928E-02 0. -1.
    10030    2    1    2    0    0  0.00000000000E+00  0.00000000000E+00  0.13626828435E+04  0.16539446231E+04  0.93735173986E+03 0.  0.
        5    1    3    3  502    0  0.12151667852E+03  0.40001834403E+03  0.10550378745E+04  0.11348603373E+04  0.46999998093E+01 0.  1.
       -5    1    3    3    0  502 -0.12151667852E+03 -0.40001834403E+03  0.30764496902E+03  0.51908428572E+03  0.46999998093E+01 0. -1.
</event>
<event>
 5   0  0.2261755E-04  0.1970288E+04  0.7818609E-02  0.8620639E-01
        1   -1    0    0  501    0  0.00000000000E+00  0.00000000000E+00  0.86739813379E+03  0.86739813381E+03  0.50400001928E-02 0. -1.
       -1   -1    0    0    0  501  0.00000000000E+00  0.00000000000E+00 -0.11188731014E+04  0.11188731014E+04  0.50400001928E-02 0.  1.
    10030    2    1    2    0    0  0.00000000000E+00  0.00000000000E+00 -0.25147496758E+03  0.19862712352E+04  0.19702877354E+04 0.  0.
        1    1    3    3  502    0 -0.62879211721E+03  0.35811693738E+03 -0.79965218160E+03  0.10784576390E+04  0.50400001928E-02 0.  1.
       -1    1    3    3    0  502  0.62879211721E+03 -0.35811693738E+03  0.54817721401E+03  0.90781359622E+03  0.50400001928E-02 0. -1.
</event>
<event>
 5   0  0.4802635E-04  0.1842982E+04  0.7818609E-02  0.8683770E-01
       -2   -1    0    0    0  501  0.00000000000E+00  0.00000000000E+00  0.52485514166E+03  0.52485514166E+03  0.25500000920E-02 0.  1.
        2   -1    0    0  501    0  0.00000000000E+00  0.00000000000E+00 -0.16178669195E+04  0.16178669195E+04  0.25500000920E-02 0. -1.
    10030    2    1    2    0    0  0.00000000000E+00  0.00000000000E+00 -0.10930117778E+04  0.21427220611E+04  0.18429821173E+04 0.  0.
        3    1    3    3  502    0 -0.74172308125E+03  0.47963878389E+03 -0.85177162177E+03  0.12270783993E+04  0.10100000352E+00 0. -1.
       -3    1    3    3    0  502  0.74172308125E+03 -0.47963878389E+03 -0.24124015602E+03  0.91564366178E+03  0.10100000352E+00 0.  1.
</event>
<event>
 5   0  0.2261755E-04  0.1875399E+04  0.7818609E-02  0.8667200E-01
        1   -1    0    0  501    0  0.00000000000E+00  0.00000000000E+00  0.11716164345E+04  0.11716164345E+04  0.50400001928E-02 0. -1.
       -1   -1    0    0    0  501  0.00000000000E+00  0.00000000000E+00 -0.75048442442E+03  0.75048442444E+03  0.50400001928E-02 0.  1.
    10030    2    1    2    0    0  0.00000000000E+00  0.00000000000E+00  0.42113201008E+03  0.19221008589E+04  0.18753985022E+04 0.  0.
        1    1    3    3  502    0  0.27014263445E+03  0.59366140161E+03 -0.47990883816E+03  0.80976749483E+03  0.50400001928E-02 0.  1.
       -1    1    3    3    0  502 -0.27014263445E+03 -0.59366140161E+03  0.90104084824E+03  0.11123333641E+04  0.50400001928E-02 0. -1.
</event>
<event>
 5   0  0.2261755E-04  0.1932897E+04  0.7818609E-02  0.8638653E-01
       -1   -1    0    0    0  501  0.00000000000E+00  0.00000000000E+00  0.60939611696E+03  0.60939611698E+03  0.50400001928E-02 0.  1.
        1   -1    0    0  501    0  0.00000000000E+00  0.00000000000E+00 -0.15327020066E+04  0.15327020066E+04  0.50400001928E-02 0. -1.
    10030    2    1    2    0    0  0.00000000000E+00  0.00000000000E+00 -0.92330588966E+03  0.21420981236E+04  0.19328969464E+04 0.  0.
        1    1    3    3  502    0  0.47780333307E+03 -0.29635012613E+03  0.40949294753E+03  0.69556013144E+03  0.50400001928E-02 0.  1.
       -1    1    3    3    0  502 -0.47780333307E+03  0.29635012613E+03 -0.13327988372E+04  0.14465379922E+04  0.50400001928E-02 0. -1.
</event>
<event>
 5   0  0.2376359E-04  0.2007309E+04  0.7818609E-02  0.8603211E-01
       -1   -1    0    0    0  501  0.00000000000E+00  0.00000000000E+00  0.87825918763E+03  0.87825918764E+03  0.50400001928E-02 0.  1.
        1   -1    0    0  501    0  0.00000000000E+00  0.00000000000E+00 -0.11469528913E+04  0.11469528913E+04  0.50400001928E-02 0. -1.
    10030    2    1    2    0    0  0.00000000000E+00  0.00000000000E+00 -0.26869370369E+03  0.20252120790E+04  0.20073085608E+04 0.  0.
        2    1    3    3  502    0  0.55960138926E+03 -0.77257657896E+03 -0.44904817895E+03  0.10543588347E+04  0.25500000920E-02 0. -1.
       -2    1    3    3    0  502 -0.55960138926E+03  0.77257657896E+03  0.18035447526E+03  0.97085324430E+03  0.25500000920E-02 0.  1.
</event>
<event>
 5   0  0.4973411E-04  0.1904092E+04  0.7818609E-02  0.8652822E-01
       -2   -1    0    0    0  501  0.00000000000E+00  0.00000000000E+00  0.53027784841E+03  0.53027784842E+03  0.25500000920E-02 0. -1.
        2   -1    0    0  501    0  0.00000000000E+00  0.00000000000E+00 -0.17092763856E+04  0.17092763856E+04  0.25500000920E-02 0.  1.
    10030    2    1    2    0    0  0.00000000000E+00  0.00000000000E+00 -0.11789985372E+04  0.22395542340E+04  0.19040918088E+04 0.  0.
        1    1    3    3  502    0  0.48246936349E+02  0.30058015602E+03 -0.16504859088E+04  0.16783265273E+04  0.50400001928E-02 0.  1.
       -1    1    3    3    0  502 -0.48246936349E+02 -0.30058015602E+03  0.47148737167E+03  0.56122770667E+03  0.50400001928E-02 0. -1.
</event>
<event>
 5   0  0.1729375E-04  0.1949279E+04  0.7818609E-02  0.8630708E-01
       -3   -1    0    0    0  501  0.00000000000E+00  0.00000000000E+00  0.76500715830E+03  0.76500716497E+03  0.10100000352E+00 0. -1.
        3   -1    0    0  501    0  0.00000000000E+00  0.00000000000E+00 -0.12417172382E+04  0.12417172423E+04  0.10100000352E+00 0.  1.
    10030    2    1    2    0    0  0.00000000000E+00  0.00000000000E+00 -0.47671007989E+03  0.20067244073E+04  0.19492794429E+04 0.  0.
        1    1    3    3  502    0 -0.91255337715E+02 -0.31520572908E+03  0.70642707751E+03  0.77892323381E+03  0.50400001928E-02 0. -1.
       -1    1    3    3    0  502  0.91255337715E+02  0.31520572908E+03 -0.11831371574E+04  0.12278011735E+04  0.50400001928E-02 0.  1.
</event>
<event>
 5   0  0.4802635E-04  0.1830291E+04  0.7818609E-02  0.8690355E-01
        2   -1    0    0  501    0  0.00000000000E+00  0.00000000000E+00  0.18814883138E+04  0.18814883138E+04  0.25500000920E-02 0. -1.
       -2   -1    0    0    0  501  0.00000000000E+00  0.00000000000E+00 -0.44512151153E+03  0.44512151154E+03  0.25500000920E-02 0.  1.
    10030    2    1    2    0    0  0.00000000000E+00  0.00000000000E+00  0.14363668023E+04  0.23266098254E+04  0.18302906023E+04 0.  0.
        3    1    3    3  502    0  0.83472832426E+03  0.33966278337E+03  0.51579686713E+03  0.10383586086E+04  0.10100000352E+00 0. -1.
       -3    1    3    3    0  502 -0.83472832426E+03 -0.33966278337E+03  0.92056993516E+03  0.12882512168E+04  0.10100000352E+00 0.  1.
</event>
<event>
 5   0  0.4829134E-04  0.1904463E+04  0.7818609E-02  0.8652638E-01
        2   -1    0    0  501    0  0.00000000000E+00  0.00000000000E+00  0.14355562014E+04  0.14355562014E+04  0.25500000920E-02 0.  1.
       -2   -1    0    0    0  501  0.00000000000E+00  0.00000000000E+00 -0.63163325443E+03  0.63163325443E+03  0.25500000920E-02 0. -1.
    10030    2    1    2    0    0  0.00000000000E+00  0.00000000000E+00  0.80392294697E+03  0.20671894558E+04  0.19044632161E+04 0.  0.
        2    1    3    3  502    0  0.28071671095E+02  0.52033751691E+03  0.12670587580E+04  0.13700281189E+04  0.25500000920E-02 0.  1.
       -2    1    3    3    0  502 -0.28071671095E+02 -0.52033751691E+03 -0.46313581107E+03  0.69716133694E+03  0.25500000920E-02 0. -1.
</event>
<event>
 5   0  0.4973411E-04  0.1889798E+04  0.7818609E-02  0.8659951E-01
       -2   -1    0    0    0  501  0.00000000000E+00  0.00000000000E+00  0.90531428869E+03  0.90531428870E+03  0.25500000920E-02 0. -1.
        2   -1    0    0  501    0  0.00000000000E+00  0.00000000000E+00 -0.98621409961E+03  0.98621409961E+03  0.25500000920E-02 0.  1.
    10030    2    1    2    0    0  0.00000000000E+00  0.00000000000E+00 -0.80899810915E+02  0.18915283883E+04  0.18897975723E+04 0.  0.
        1    1    3    3  502    0 -0.16266141039E+03  0.92924265968E+03 -0.94193226302E+02  0.94806277160E+03  0.50400001928E-02 0.  1.
       -1    1    3    3    0  502  0.16266141039E+03 -0.92924265968E+03  0.13293415387E+02  0.94346561671E+03  0.50400001928E-02 0. -1.
</event>
<event>
 5   0  0.4802635E-04  0.1924962E+04  0.7818609E-02  0.8642530E-01
       -2   -1    0    0    0  501  0.00000000000E+00  0.00000000000E+00  0.72372792955E+03  0.72372792956E+03  0.25500000920E-02 0. -1.
        2   -1    0    0  501    0  0.00000000000E+00  0.00000000000E+00 -0.12799965740E+04  0.12799965740E+04  0.25500000920E-02 0.  1.
    10030    2    1    2    0    0  0.00000000000E+00  0.00000000000E+00 -0.55626864445E+03  0.20037245036E+04  0.19249615792E+04 0.  0.
        3    1    3    3  502    0 -0.75942816348E+03 -0.49207714724E+03  0.63150167436E+02  0.90711576338E+03  0.10100000352E+00 0. -1.
       -3    1    3    3    0  502  0.75942816348E+03  0.49207714724E+03 -0.61941881189E+03  0.10966087402E+04  0.10100000352E+00 0.  1.
</event>
<event>
 5   0  0.2261755E-04  0.1866088E+04  0.7818609E-02  0.8671923E-01
        1   -1    0    0  501    0  0.00000000000E+00  0.00000000000E+00  0.35870076200E+03  0.35870076203E+03  0.50400001928E-02 0. -1.
       -1   -1    0    0    0  501  0.00000000000E+00  0.00000000000E+00 -0.24270118803E+04  0.24270118803E+04  0.50400001928E-02 0.  1.
    10030    2    1    2    0    0  0.00000000000E+00  0.00000000000E+00 -0.20683111183E+04  0.27857126424E+04  0.18660878982E+04 0.  0.
        1    1    3    3  502    0  0.14027567857E+03 -0.86296512713E+03 -0.54770840170E+03  0.10316833671E+04  0.50400001928E-02 0. -1.
       -1    1    3    3    0  502 -0.14027567857E+03  0.86296512713E+03 -0.15206027166E+04  0.17540292753E+04  0.50400001928E-02 0.  1.
</event>
<event>
 5   0  0.1729375E-04  0.1726352E+04  0.7818609E-02  0.8746476E-01
        3   -1    0    0  501    0  0.00000000000E+00  0.00000000000E+00  0.20650424720E+04  0.20650424745E+04  0.10100000352E+00 0.  1.
       -3   -1    0    0    0  501  0.00000000000E+00  0.00000000000E+00 -0.36080257705E+03  0.36080259118E+03  0.10100000352E+00 0. -1.
    10030    2    1    2    0    0  0.00000000000E+00  0.00000000000E+00  0.17042398950E+04  0.24258450657E+04  0.17263518364E+04 0.  0.
        4    1    3    3  502    0  0.30448673728E+01 -0.67827553368E+03  0.16022892507E+04  0.17399423630E+04  0.12699999809E+01 0.  1.
       -4    1    3    3    0  502 -0.30448673728E+01  0.67827553368E+03  0.10195064432E+03  0.68590270270E+03  0.12699999809E+01 0. -1.
</event>
<event>
 5   0  0.4761944E-04  0.1895067E+04  0.7818609E-02  0.8657316E-01
       -2   -1    0    0    0  501  0.00000000000E+00  0.00000000000E+00  0.46997192566E+03  0.46997192567E+03  0.25500000920E-02 0. -1.
        2   -1    0    0  501    0  0.00000000000E+00  0.00000000000E+00 -0.19103697407E+04  0.19103697407E+04  0.25500000920E-02 0.  1.
    10030    2    1    2    0    0  0.00000000000E+00  0.00000000000E+00 -0.14403978151E+04  0.23803416664E+04  0.18950674350E+04 0.  0.
        4    1    3    3  502    0 -0.86029104713E+03 -0.20333474079E+03 -0.11486886486E+04  0.14494595292E+04  0.12699999809E+01 0.  1.
       -4    1    3    3    0  502  0.86029104713E+03  0.20333474079E+03 -0.29170916647E+03  0.93088213716E+03  0.12699999809E+01 0. -1.
</event>
<event>
 5   0  0.4829134E-04  0.1926671E+04  0.7818609E-02  0.8641693E-01
        2   -1    0    0  501    0  0.00000000000E+00  0.00000000000E+00  0.86400395415E+03  0.86400395416E+03  0.25500000920E-02 0. -1.
       -2   -1    0    0    0  501  0.00000000000E+00  0.00000000000E+00 -0.10740869610E+04  0.10740869610E+04  0.25500000920E-02 0.  1.
    10030    2    1    2    0    0  0.00000000000E+00  0.00000000000E+00 -0.21008300681E+03  0.19380909151E+04  0.19266710995E+04 0.  0.
        2    1    3    3  502    0  0.17546597128E+03 -0.41109940624E+03  0.75337718091E+03  0.87599555113E+03  0.25500000920E-02 0. -1.
       -2    1    3    3    0  502 -0.17546597128E+03  0.41109940624E+03 -0.96346018771E+03  0.10620953640E+04  0.25500000920E-02 0.  1.
</event>
<event>
 5   0  0.2376359E-04  0.1911538E+04  0.7818609E-02  0.8649134E-01
        1   -1    0    0  501    0  0.00000000000E+00  0.00000000000E+00  0.11796865677E+04  0.11796865677E+04  0.50400001928E-02 0. -1.
       -1   -1    0    0    0  501  0.00000000000E+00  0.00000000000E+00 -0.77435363637E+03  0.77435363639E+03  0.50400001928E-02 0.  1.
    10030    2    1    2    0    0  0.00000000000E+00  0.00000000000E+00  0.40533293135E+03  0.19540402041E+04  0.19115382115E+04 0.  0.
        2    1    3    3  502    0  0.46633472627E+03 -0.80882988227E+03  0.41171460487E+03  0.10203836392E+04  0.25500000920E-02 0.  1.
       -2    1    3    3    0  502 -0.46633472627E+03  0.80882988227E+03 -0.63816735168E+01  0.93365656488E+03  0.25500000920E-02 0. -1.
</event>
<event>
 5   0  0.2376359E-04  0.1883975E+04  0.7818609E-02  0.8662875E-01
        1   -1    0    0  501    0  0.00000000000E+00  0.00000000000E+00  0.11727518624E+04  0.11727518624E+04  0.50400001928E-02 0. -1.
       -1   -1    0    0    0  501  0.00000000000E+00  0.00000000000E+00 -0.75663068093E+03  0.75663068095E+03  0.50400001928E-02 0.  1.
    10030    2    1    2    0    0  0.00000000000E+00  0.00000000000E+00  0.41612118150E+03  0.19293825434E+04  0.18839745649E+04 0.  0.
        2    1    3    3  502    0  0.13440447532E+03 -0.61904763909E+03  0.92204090812E+03  0.11186795693E+04  0.25500000920E-02 0. -1.
       -2    1    3    3    0  502 -0.13440447532E+03  0.61904763909E+03 -0.50591972663E+03  0.81070297412E+03  0.25500000920E-02 0.  1.
</event>
<event>
 5   0  0.4973411E-04  0.1894640E+04  0.7818609E-02  0.8657529E-01
       -2   -1    0    0    0  501  0.00000000000E+00  0.00000000000E+00  0.61646126051E+03  0.61646126052E+03  0.25500000920E-02 0. -1.
        2   -1    0    0  501    0  0.00000000000E+00  0.00000000000E+00 -0.14557529391E+04  0.14557529391E+04  0.25500000920E-02 0.  1.
    10030    2    1    2    0    0  0.00000000000E+00  0.00000000000E+00 -0.83929167861E+03  0.20722141996E+04  0.18946401155E+04 0.  0.
        1    1    3    3  502    0 -0.77727556217E+03 -0.35471946917E+03  0.27889429887E+02  0.85484561277E+03  0.50400001928E-02 0. -1.
       -1    1    3    3    0  502  0.77727556217E+03  0.35471946917E+03 -0.86718110850E+03  0.12173685869E+04  0.50400001928E-02 0.  1.
</event>
<event>
 5   0  0.2261755E-04  0.1371309E+04  0.7818609E-02  0.8974852E-01
        1   -1    0    0  501    0  0.00000000000E+00  0.00000000000E+00  0.74486278644E+03  0.74486278645E+03  0.50400001928E-02 0. -1.
       -1   -1    0    0    0  501  0.00000000000E+00  0.00000000000E+00 -0.63115303511E+03  0.63115303513E+03  0.50400001928E-02 0.  1.
    10030    2    1    2    0    0  0.00000000000E+00  0.00000000000E+00  0.11370975132E+03  0.13760158216E+04  0.13713094595E+04 0.  0.
        1    1    3    3  502    0  0.45324238395E+03  0.24438728844E+03 -0.39743350212E+03  0.65046690461E+03  0.50400001928E-02 0.  1.
       -1    1    3    3    0  502 -0.45324238395E+03 -0.24438728844E+03  0.51114325345E+03  0.72554891698E+03  0.50400001928E-02 0. -1.
</event>
<event>
 5   0  0.2355414E-04  0.1683846E+04  0.7818609E-02  0.8770632E-01
        1   -1    0    0  501    0  0.00000000000E+00  0.00000000000E+00  0.13671991449E+04  0.13671991449E+04  0.50400001928E-02 0.  1.
       -1   -1    0    0    0  501  0.00000000000E+00  0.00000000000E+00 -0.51845702245E+03  0.51845702247E+03  0.50400001928E-02 0. -1.
    10030    2    1    2    0    0  0.00000000000E+00  0.00000000000E+00  0.84874212241E+03  0.18856561673E+04  0.16838455960E+04 0.  0.
        5    1    3    3  502    0  0.16556334935E+03 -0.20006086331E+03 -0.47247252514E+03  0.53915484667E+03  0.46999998093E+01 0. -1.
       -5    1    3    3    0  502 -0.16556334935E+03  0.20006086331E+03  0.13212146475E+04  0.13465013207E+04  0.46999998093E+01 0.  1.
</event>
<event>
 5   0  0.2261755E-04  0.1898222E+04  0.7818609E-02  0.8655742E-01
       -1   -1    0    0    0  501  0.00000000000E+00  0.00000000000E+00  0.50189470727E+03  0.50189470729E+03  0.50400001928E-02 0.  1.
        1   -1    0    0  501    0  0.00000000000E+00  0.00000000000E+00 -0.17948214735E+04  0.17948214735E+04  0.50400001928E-02 0. -1.
    10030    2    1    2    0    0  0.00000000000E+00  0.00000000000E+00 -0.12929267662E+04  0.22967161808E+04  0.18982216921E+04 0.  0.
        1    1    3    3  502    0 -0.65519896786E+03 -0.15902964564E+03 -0.14547071254E+04  0.16033555240E+04  0.50400001928E-02 0. -1.
       -1    1    3    3    0  502  0.65519896786E+03  0.15902964564E+03  0.16178035921E+03  0.69336065675E+03  0.50400001928E-02 0.  1.
</event>
<event>
 5   0  0.2317458E-04  0.1889708E+04  0.7818609E-02  0.8659996E-01
        1   -1    0    0  501    0  0.00000000000E+00  0.00000000000E+00  0.83123892457E+03  0.83123892459E+03  0.50400001928E-02 0.  1.
       -1   -1    0    0    0  501  0.00000000000E+00  0.00000000000E+00 -0.10739983945E+04  0.10739983945E+04  0.50400001928E-02 0. -1.
    10030    2    1    2    0    0  0.00000000000E+00  0.00000000000E+00 -0.24275946993E+03  0.19052373191E+04  0.18897082002E+04 0.  0.
        3    1    3    3  502    0  0.38113636424E+03  0.20635042407E+03 -0.96786473878E+03  0.10604751711E+04  0.10100000352E+00 0. -1.
       -3    1    3    3    0  502 -0.38113636424E+03 -0.20635042407E+03  0.72510526884E+03  0.84476214804E+03  0.10100000352E+00 0.  1.
</event>
<event>
 5   0  0.4802635E-04  0.1898793E+04  0.7818609E-02  0.8655457E-01
       -2   -1    0    0    0  501  0.00000000000E+00  0.00000000000E+00  0.43037169309E+03  0.43037169309E+03  0.25500000920E-02 0.  1.
        2   -1    0    0  501    0  0.00000000000E+00  0.00000000000E+00 -0.20943611526E+04  0.20943611526E+04  0.25500000920E-02 0. -1.
    10030    2    1    2    0    0  0.00000000000E+00  0.00000000000E+00 -0.16639894595E+04  0.25247328457E+04  0.18987930432E+04 0.  0.
        3    1    3    3  502    0  0.73883004919E+03  0.43661979446E+03 -0.29213814961E+03  0.90656019941E+03  0.10100000352E+00 0.  1.
       -3    1    3    3    0  502 -0.73883004919E+03 -0.43661979446E+03 -0.13718513099E+04  0.16181726463E+04  0.10100000352E+00 0. -1.
</event>
<event>
 5   0  0.4973411E-04  0.1906179E+04  0.7818609E-02  0.8651787E-01
       -2   -1    0    0    0  501  0.00000000000E+00  0.00000000000E+00  0.53259150059E+03  0.53259150060E+03  0.25500000920E-02 0.  1.
        2   -1    0    0  501    0  0.00000000000E+00  0.00000000000E+00 -0.17055842694E+04  0.17055842694E+04  0.25500000920E-02 0. -1.
    10030    2    1    2    0    0  0.00000000000E+00  0.00000000000E+00 -0.11729927688E+04  0.22381757700E+04  0.19061790949E+04 0.  0.
        1    1    3    3  502    0 -0.87009810061E+03 -0.20004235700E+03 -0.97820446571E+03  0.13243759383E+04  0.50400001928E-02 0. -1.
       -1    1    3    3    0  502  0.87009810061E+03  0.20004235700E+03 -0.19478830308E+03  0.91379983165E+03  0.50400001928E-02 0.  1.
</event>
<event>
 5   0  0.1729375E-04  0.1317638E+04  0.7818609E-02  0.9015694E-01
       -3   -1    0    0    0  501  0.00000000000E+00  0.00000000000E+00  0.13420724151E+04  0.13420724189E+04  0.10100000352E+00 0.  1.
        3   -1    0    0  501    0  0.00000000000E+00  0.00000000000E+00 -0.32341186706E+03  0.32341188283E+03  0.10100000352E+00 0. -1.
    10030    2    1    2    0    0  0.00000000000E+00  0.00000000000E+00  0.10186605480E+04  0.16654843017E+04  0.13176375249E+04 0.  0.
        3    1    3    3  502    0 -0.66307092358E+02  0.62943128148E+03  0.74054693648E+03  0.97416125150E+03  0.10100000352E+00 0. -1.
       -3    1    3    3    0  502  0.66307092358E+02 -0.62943128148E+03  0.27811361153E+03  0.69132305019E+03  0.10100000352E+00 0.  1.
</event>
<event>
 5   0  0.4761944E-04  0.1881521E+04  0.7818609E-02  0.8664110E-01
        2   -1    0    0  501    0  0.00000000000E+00  0.00000000000E+00  0.87283209873E+03  0.87283209873E+03  0.25500000920E-02 0.  1.
       -2   -1    0    0    0  501  0.00000000000E+00  0.00000000000E+00 -0.10139752394E+04  0.10139752394E+04  0.25500000920E-02 0. -1.
    10030    2    1    2    0    0  0.00000000000E+00  0.00000000000E+00 -0.14114314064E+03  0.18868073381E+04  0.18815208064E+04 0.  0.
        4    1    3    3  502    0  0.88269271179E+03  0.32425254864E+03 -0.97894861387E+02  0.94544759534E+03  0.12699999809E+01 0.  1.
       -4    1    3    3    0  502 -0.88269271179E+03 -0.32425254864E+03 -0.43248279249E+02  0.94135974277E+03  0.12699999809E+01 0. -1.
</event>
<event>
 5   0  0.2376359E-04  0.1903421E+04  0.7818609E-02  0.8653156E-01
        1   -1    0    0  501    0  0.00000000000E+00  0.00000000000E+00  0.70193533334E+03  0.70193533336E+03  0.50400001928E-02 0.  1.
       -1   -1    0    0    0  501  0.00000000000E+00  0.00000000000E+00 -0.12903644935E+04  0.12903644935E+04  0.50400001928E-02 0. -1.
    10030    2    1    2    0    0  0.00000000000E+00  0.00000000000E+00 -0.58842916014E+03  0.19922998268E+04  0.19034205325E+04 0.  0.
        2    1    3    3  502    0 -0.63091265174E+03  0.68852630499E+03 -0.48617157373E+03  0.10528447397E+04  0.25500000920E-02 0. -1.
       -2    1    3    3    0  502  0.63091265174E+03 -0.68852630499E+03 -0.10225758641E+03  0.93945508715E+03  0.25500000920E-02 0.  1.
</event>
<event>
 5   0  0.4839293E-04  0.9978017E+03  0.7818609E-02  0.9310959E-01
       -2   -1    0    0    0  501  0.00000000000E+00  0.00000000000E+00  0.25628248275E+03  0.25628248277E+03  0.25500000920E-02 0. -1.
        2   -1    0    0  501    0  0.00000000000E+00  0.00000000000E+00 -0.97120193332E+03  0.97120193333E+03  0.25500000920E-02 0.  1.
    10030    2    1    2    0    0  0.00000000000E+00  0.00000000000E+00 -0.71491945057E+03  0.12274844161E+04  0.99780166914E+03 0.  0.
        5    1    3    3  502    0 -0.30646799578E+03  0.24799771019E+03 -0.73353239055E+03  0.83277689370E+03  0.46999998093E+01 0.  1.
       -5    1    3    3    0  502  0.30646799578E+03 -0.24799771019E+03  0.18612939984E+02  0.39470752239E+03  0.46999998093E+01 0. -1.
</event>
<event>
 5   0  0.4839293E-04  0.1901543E+04  0.7818609E-02  0.8654089E-01
       -2   -1    0    0    0  501  0.00000000000E+00  0.00000000000E+00  0.50296716580E+03  0.50296716581E+03  0.25500000920E-02 0.  1.
        2   -1    0    0  501    0  0.00000000000E+00  0.00000000000E+00 -0.17972670156E+04  0.17972670156E+04  0.25500000920E-02 0. -1.
    10030    2    1    2    0    0  0.00000000000E+00  0.00000000000E+00 -0.12942998498E+04  0.23002341814E+04  0.19015428442E+04 0.  0.
        5    1    3    3  502    0 -0.41200256341E+03  0.62704112086E+02 -0.16808786016E+04  0.17317773763E+04  0.46999998093E+01 0. -1.
       -5    1    3    3    0  502  0.41200256341E+03 -0.62704112086E+02  0.38657875177E+03  0.56845680508E+03  0.46999998093E+01 0.  1.
</event>
<event>
 5   0  0.4802635E-04  0.1882697E+04  0.7818609E-02  0.8663517E-01
        2   -1    0    0  501    0  0.00000000000E+00  0.00000000000E+00  0.12458267437E+04  0.12458267437E+04  0.25500000920E-02 0.  1.
       -2   -1    0    0    0  501  0.00000000000E+00  0.00000000000E+00 -0.71128446034E+03  0.71128446035E+03  0.25500000920E-02 0. -1.
    10030    2    1    2    0    0  0.00000000000E+00  0.00000000000E+00  0.53454228332E+03  0.19571112040E+04  0.18826972174E+04 0.  0.
        3    1    3    3  502    0 -0.60981287564E+03  0.96411866829E+02  0.10059707997E+04  0.11803153186E+04  0.10100000352E+00 0.  1.
       -3    1    3    3    0  502  0.60981287564E+03 -0.96411866829E+02 -0.47142851634E+03  0.77679588541E+03  0.10100000352E+00 0. -1.
</event>
<event>
 5   0  0.4839293E-04  0.1933719E+04  0.7818609E-02  0.8638252E-01
        2   -1    0    0  501    0  0.00000000000E+00  0.00000000000E+00  0.12894273062E+04  0.12894273062E+04  0.25500000920E-02 0. -1.
       -2   -1    0    0    0  501  0.00000000000E+00  0.00000000000E+00 -0.72498633012E+03  0.72498633012E+03  0.25500000920E-02 0.  1.
    10030    2    1    2    0    0  0.00000000000E+00  0.00000000000E+00  0.56444097607E+03  0.20144136363E+04  0.19337188737E+04 0.  0.
        5    1    3    3  502    0  0.17605770778E+03  0.60538654505E+03  0.10458208391E+04  0.12211684990E+04  0.46999998093E+01 0. -1.
       -5    1    3    3    0  502 -0.17605770778E+03 -0.60538654505E+03 -0.48137986303E+03  0.79324513734E+03  0.46999998093E+01 0.  1.
</event>
<event>
 5   0  0.4829134E-04  0.1419857E+04  0.7818609E-02  0.8939569E-01
       -2   -1    0    0    0  501  0.00000000000E+00  0.00000000000E+00  0.10394793933E+04  0.10394793933E+04  0.25500000920E-02 0. -1.
        2   -1    0    0  501    0  0.00000000000E+00  0.00000000000E+00 -0.48485671536E+03  0.48485671537E+03  0.25500000920E-02 0.  1.
    10030    2    1    2    0    0  0.00000000000E+00  0.00000000000E+00  0.55462267789E+03  0.15243361086E+04  0.14198571256E+04 0.  0.
        2    1    3    3  502    0  0.43011428216E+02  0.41554514703E+03  0.89354379077E+03  0.98638139591E+03  0.25500000920E-02 0. -1.
       -2    1    3    3    0  502 -0.43011428216E+02 -0.41554514703E+03 -0.33892111287E+03  0.53795471272E+03  0.25500000920E-02 0.  1.
</event>
<event>
 5   0  0.4839293E-04  0.1834733E+04  0.7818609E-02  0.8688044E-01
       -2   -1    0    0    0  501  0.00000000000E+00  0.00000000000E+00  0.11322850845E+04  0.11322850845E+04  0.25500000920E-02 0.  1.
        2   -1    0    0  501    0  0.00000000000E+00  0.00000000000E+00 -0.74324118371E+03  0.74324118371E+03  0.25500000920E-02 0. -1.
    10030    2    1    2    0    0  0.00000000000E+00  0.00000000000E+00  0.38904390076E+03  0.18755262682E+04  0.18347325761E+04 0.  0.
        5    1    3    3  502    0  0.82923291614E+03 -0.15511263513E+03 -0.17383946094E+03  0.86135324169E+03  0.46999998093E+01 0. -1.
       -5    1    3    3    0  502 -0.82923291614E+03  0.15511263513E+03  0.56288336170E+03  0.10141730265E+04  0.46999998093E+01 0.  1.
</event>
<event>
 5   0  0.4829134E-04  0.1945469E+04  0.7818609E-02  0.8632549E-01
       -2   -1    0    0    0  501  0.00000000000E+00  0.00000000000E+00  0.10193182833E+04  0.10193182833E+04  0.25500000920E-02 0.  1.
        2   -1    0    0  501    0  0.00000000000E+00  0.00000000000E+00 -0.92827935430E+03  0.92827935430E+03  0.25500000920E-02 0. -1.
    10030    2    1    2    0    0  0.00000000000E+00  0.00000000000E+00  0.91038928995E+02  0.19475976376E+04  0.19454687022E+04 0.  0.
        2    1    3    3  502    0 -0.16316900591E+03 -0.87231158768E+03  0.44427744015E+03  0.99243844863E+03  0.25500000920E-02 0.  1.
       -2    1    3    3    0  502  0.16316900591E+03  0.87231158768E+03 -0.35323851116E+03  0.95515918896E+03  0.25500000920E-02 0. -1.
</event>
<event>
 5   0  0.4761944E-04  0.1887088E+04  0.7818609E-02  0.8661310E-01
       -2   -1    0    0    0  501  0.00000000000E+00  0.00000000000E+00  0.76358887947E+03  0.76358887947E+03  0.25500000920E-02 0.  1.
        2   -1    0    0  501    0  0.00000000000E+00  0.00000000000E+00 -0.11659097136E+04  0.11659097136E+04  0.25500000920E-02 0. -1.
    10030    2    1    2    0    0  0.00000000000E+00  0.00000000000E+00 -0.40232083413E+03  0.19294985931E+04  0.18870884365E+04 0.  0.
        4    1    3    3  502    0 -0.27954335636E+02 -0.36266597324E+02 -0.11647721162E+04  0.11656725125E+04  0.12699999809E+01 0. -1.
       -4    1    3    3    0  502  0.27954335636E+02  0.36266597324E+02  0.76245128203E+03  0.76382608055E+03  0.12699999809E+01 0.  1.
</event>
<event>
 5   0  0.4973411E-04  0.1867585E+04  0.7818609E-02  0.8671162E-01
       -2   -1    0    0    0  501  0.00000000000E+00  0.00000000000E+00  0.70549969183E+03  0.70549969183E+03  0.25500000920E-02 0.  1.
        2   -1    0    0  501    0  0.00000000000E+00  0.00000000000E+00 -0.12359589129E+04  0.12359589129E+04  0.25500000920E-02 0. -1.
    10030    2    1    2    0    0  0.00000000000E+00  0.00000000000E+00 -0.53045922103E+03  0.19414586047E+04  0.18675852132E+04 0.  0.
        1    1    3    3  502    0 -0.57276472124E+01  0.93340284172E+03 -0.29263449645E+03  0.97821706150E+03  0.50400001928E-02 0.  1.
       -1    1    3    3    0  502  0.57276472124E+01 -0.93340284172E+03 -0.23782472459E+03  0.96324154319E+03  0.50400001928E-02 0. -1.
</event>
<event>
 5   0  0.2261755E-04  0.1898692E+04  0.7818609E-02  0.8655507E-01
       -1   -1    0    0    0  501  0.00000000000E+00  0.00000000000E+00  0.91473771225E+03  0.91473771226E+03  0.50400001928E-02 0. -1.
        1   -1    0    0  501    0  0.00000000000E+00  0.00000000000E+00 -0.98526416997E+03  0.98526416998E+03  0.50400001928E-02 0.  1.
    10030    2    1    2    0    0  0.00000000000E+00  0.00000000000E+00 -0.70526457721E+02  0.19000018822E+04  0.18986924899E+04 0.  0.
        1    1    3    3  502    0  0.13312782144E+03  0.74490589816E+03 -0.60893903327E+03  0.97129530022E+03  0.50400001928E-02 0.  1.
       -1    1    3    3    0  502 -0.13312782144E+03 -0.74490589816E+03  0.53841257555E+03  0.92870658202E+03  0.50400001928E-02 0. -1.
</event>
<event>
 5   0  0.2355414E-04  0.1913451E+04  0.7818609E-02  0.8648190E-01
       -1   -1    0    0    0  501  0.00000000000E+00  0.00000000000E+00  0.19980826838E+04  0.19980826838E+04  0.50400001928E-02 0.  1.
        1   -1    0    0  501    0  0.00000000000E+00  0.00000000000E+00 -0.45810083501E+03  0.45810083504E+03  0.50400001928E-02 0. -1.
    10030    2    1    2    0    0  0.00000000000E+00  0.00000000000E+00  0.15399818488E+04  0.24561835188E+04  0.19134506483E+04 0.  0.
        5    1    3    3  502    0 -0.76125329301E+03  0.27065778730E+03  0.11227176124E+03  0.81571395251E+03  0.46999998093E+01 0. -1.
       -5    1    3    3    0  502  0.76125329301E+03 -0.27065778730E+03  0.14277100875E+04  0.16404695663E+04  0.46999998093E+01 0.  1.
</event>
<event>
 5   0  0.2376359E-04  0.1500984E+04  0.7818609E-02  0.8883799E-01
       -1   -1    0    0    0  501  0.00000000000E+00  0.00000000000E+00  0.45296184262E+03  0.45296184265E+03  0.50400001928E-02 0.  1.
        1   -1    0    0  501    0  0.00000000000E+00  0.00000000000E+00 -0.12434554665E+04  0.12434554665E+04  0.50400001928E-02 0. -1.
    10030    2    1    2    0    0  0.00000000000E+00  0.00000000000E+00 -0.79049362383E+03  0.16964173091E+04  0.15009835167E+04 0.  0.
        2    1    3    3  502    0 -0.73363168355E+03 -0.51091664881E+02 -0.56444581347E+03  0.92705171468E+03  0.25500000920E-02 0.  1.
       -2    1    3    3    0  502  0.73363168355E+03  0.51091664881E+02 -0.22604781036E+03  0.76936559444E+03  0.25500000920E-02 0. -1.
</event>
<event>
 5   0  0.2355414E-04  0.1935070E+04  0.7818609E-02  0.8637594E-01
       -1   -1    0    0    0  501  0.00000000000E+00  0.00000000000E+00  0.13324869596E+04  0.13324869596E+04  0.50400001928E-02 0. -1.
        1   -1    0    0  501    0  0.00000000000E+00  0.00000000000E+00 -0.70253920049E+03  0.70253920051E+03  0.50400001928E-02 0.  1.
    10030    2    1    2    0    0  0.00000000000E+00  0.00000000000E+00  0.62994775910E+03  0.20350261601E+04  0.19350703587E+04 0.  0.
        5    1    3    3  502    0  0.21620872862E+03  0.29985065272E+03 -0.62532884738E+03  0.72643987062E+03  0.46999998093E+01 0.  1.
       -5    1    3    3    0  502 -0.21620872862E+03 -0.29985065272E+03  0.12552766065E+04  0.13085862895E+04  0.46999998093E+01 0. -1.
</event>
<event>
 5   0  0.4802635E-04  0.1850071E+04  0.7818609E-02  0.8680116E-01
        2   -1    0    0  501    0  0.00000000000E+00  0.00000000000E+00  0.29217385815E+04  0.29217385815E+04  0.25500000920E-02 0.  1.
       -2   -1    0    0    0  501  0.00000000000E+00  0.00000000000E+00 -0.29287037225E+03  0.29287037226E+03  0.25500000920E-02 0. -1.
    10030    2    1    2    0    0  0.00000000000E+00  0.00000000000E+00  0.26288682092E+04  0.32146089537E+04  0.18500709889E+04 0.  0.
        3    1    3    3  502    0  0.27366541643E+03 -0.11263204416E+03  0.28372661560E+04  0.28526580566E+04  0.10100000352E+00 0.  1.
       -3    1    3    3    0  502 -0.27366541643E+03  0.11263204416E+03 -0.20839794679E+03  0.36195089715E+03  0.10100000352E+00 0. -1.
</event>
<event>
 5   0  0.4761944E-04  0.1898693E+04  0.7818609E-02  0.8655507E-01
       -2   -1    0    0    0  501  0.00000000000E+00  0.00000000000E+00  0.85634829245E+03  0.85634829246E+03  0.25500000920E-02 0.  1.
        2   -1    0    0  501    0  0.00000000000E+00  0.00000000000E+00 -0.10524446241E+04  0.10524446241E+04  0.25500000920E-02 0. -1.
    10030    2    1    2    0    0  0.00000000000E+00  0.00000000000E+00 -0.19609633166E+03  0.19087929166E+04  0.18986934000E+04 0.  0.
        4    1    3    3  502    0 -0.55709447346E+03 -0.39223989638E+03 -0.76266312196E+03  0.10226744541E+04  0.12699999809E+01 0. -1.
       -4    1    3    3    0  502  0.55709447346E+03  0.39223989638E+03  0.56656679030E+03  0.88611846242E+03  0.12699999809E+01 0.  1.
</event>
<event>
 5   0  0.2510069E-04  0.1924810E+04  0.7818609E-02  0.8642604E-01
       -1   -1    0    0    0  501  0.00000000000E+00  0.00000000000E+00  0.11921099177E+04  0.11921099177E+04  0.50400001928E-02 0.  1.
        1   -1    0    0  501    0  0.00000000000E+00  0.00000000000E+00 -0.77696150612E+03  0.77696150613E+03  0.50400001928E-02 0. -1.
    10030    2    1    2    0    0  0.00000000000E+00  0.00000000000E+00  0.41514841160E+03  0.19690714239E+04  0.19248101383E+04 0.  0.
        4    1    3    3  502    0 -0.17724672508E+03  0.89014242498E+03  0.53501570515E+03  0.10535717137E+04  0.12699999809E+01 0.  1.
       -4    1    3    3    0  502  0.17724672508E+03 -0.89014242498E+03 -0.11986729355E+03  0.91549971014E+03  0.12699999809E+01 0. -1.
</event>
<event>
 5   0  0.2376359E-04  0.1972011E+04  0.7818609E-02  0.8619819E-01
       -1   -1    0    0    0  501  0.00000000000E+00  0.00000000000E+00  0.98793496148E+03  0.98793496149E+03  0.50400001928E-02 0. -1.
        1   -1    0    0  501    0  0.00000000000E+00  0.00000000000E+00 -0.98408023228E+03  0.98408023229E+03  0.50400001928E-02 0.  1.
    10030    2    1    2    0    0  0.00000000000E+00  0.00000000000E+00  0.38547291964E+01  0.19720151938E+04  0.19720114263E+04 0.  0.
        2    1    3    3  502    0  0.29371854931E+03  0.18784937962E+03 -0.92038090330E+03  0.98420474638E+03  0.25500000920E-02 0.  1.
       -2    1    3    3    0  502 -0.29371854931E+03 -0.18784937962E+03  0.92423563249E+03  0.98781044741E+03  0.25500000920E-02 0. -1.
</event>
<event>
 5   0  0.2376359E-04  0.1941921E+04  0.7818609E-02  0.8634267E-01
       -1   -1    0    0    0  501  0.00000000000E+00  0.00000000000E+00  0.70758222931E+03  0.70758222933E+03  0.50400001928E-02 0. -1.
        1   -1    0    0  501    0  0.00000000000E+00  0.00000000000E+00 -0.13323736653E+04  0.13323736653E+04  0.50400001928E-02 0.  1.
    10030    2    1    2    0    0  0.00000000000E+00  0.00000000000E+00 -0.62479143601E+03  0.20399558947E+04  0.19419206250E+04 0.  0.
        2    1    3    3  502    0 -0.37334983510E+03  0.73255510995E+03  0.23014308423E+03  0.85381082665E+03  0.25500000920E-02 0. -1.
       -2    1    3    3    0  502  0.37334983510E+03 -0.73255510995E+03 -0.85493452024E+03  0.11861450680E+04  0.25500000920E-02 0.  1.
</event>
<event>
 5   0  0.4829134E-04  0.1827783E+04  0.7818609E-02  0.8691663E-01
        2   -1    0    0  501    0  0.00000000000E+00  0.00000000000E+00  0.13322601567E+04  0.13322601567E+04  0.25500000920E-02 0. -1.
       -2   -1    0    0    0  501  0.00000000000E+00  0.00000000000E+00 -0.62690307228E+03  0.62690307229E+03  0.25500000920E-02 0.  1.
    10030    2    1    2    0    0  0.00000000000E+00  0.00000000000E+00  0.70535708446E+03  0.19591632290E+04  0.18277833409E+04 0.  0.
        2    1    3    3  502    0 -0.18602338457E+03  0.57464579729E+03 -0.38245840380E+03  0.71491042977E+03  0.25500000920E-02 0.  1.
       -2    1    3    3    0  502  0.18602338457E+03 -0.57464579729E+03  0.10878154883E+04  0.12442527993E+04  0.25500000920E-02 0. -1.
</event>
<event>
 5   0  0.2261755E-04  0.1917669E+04  0.7818609E-02  0.8646111E-01
        1   -1    0    0  501    0  0.00000000000E+00  0.00000000000E+00  0.14510127188E+04  0.14510127189E+04  0.50400001928E-02 0. -1.
       -1   -1    0    0    0  501  0.00000000000E+00  0.00000000000E+00 -0.63360133300E+03  0.63360133302E+03  0.50400001928E-02 0.  1.
    10030    2    1    2    0    0  0.00000000000E+00  0.00000000000E+00  0.81741138584E+03  0.20846140519E+04  0.19176689943E+04 0.  0.
        1    1    3    3  502    0 -0.80124484347E+03 -0.10624978059E+03  0.96944264054E+03  0.12621811868E+04  0.50400001928E-02 0. -1.
       -1    1    3    3    0  502  0.80124484347E+03  0.10624978059E+03 -0.15203125470E+03  0.82243286504E+03  0.50400001928E-02 0.  1.
</event>
<event>
 5   0  0.2510069E-04  0.1855908E+04  0.7818609E-02  0.8677120E-01
        1   -1    0    0  501    0  0.00000000000E+00  0.00000000000E+00  0.19100061894E+04  0.19100061894E+04  0.50400001928E-02 0. -1.
       -1   -1    0    0    0  501  0.00000000000E+00  0.00000000000E+00 -0.45083569048E+03  0.45083569051E+03  0.50400001928E-02 0.  1.
    10030    2    1    2    0    0  0.00000000000E+00  0.00000000000E+00  0.14591704989E+04  0.23608418799E+04  0.18559083590E+04 0.  0.
        4    1    3    3  502    0  0.16093264105E+03  0.84284406659E+03  0.28017974353E+03  0.90265593507E+03  0.12699999809E+01 0.  1.
       -4    1    3    3    0  502 -0.16093264105E+03 -0.84284406659E+03  0.11789907554E+04  0.14581859448E+04  0.12699999809E+01 0. -1.
</event>
<event>
 5   0  0.2317458E-04  0.2019663E+04  0.7818609E-02  0.8597482E-01
       -1   -1    0    0    0  501  0.00000000000E+00  0.00000000000E+00  0.47823571008E+03  0.47823571011E+03  0.50400001928E-02 0. -1.
        1   -1    0    0  501    0  0.00000000000E+00  0.00000000000E+00 -0.21323364187E+04  0.21323364187E+04  0.50400001928E-02 0.  1.
    10030    2    1    2    0    0  0.00000000000E+00  0.00000000000E+00 -0.16541007086E+04  0.26105721288E+04  0.20196627653E+04 0.  0.
        3    1    3    3  502    0 -0.25687256067E+03  0.24722742617E+03  0.39418266238E+03  0.53149308011E+03  0.10100000352E+00 0. -1.
       -3    1    3    3    0  502  0.25687256067E+03 -0.24722742617E+03 -0.20482833710E+04  0.20790790487E+04  0.10100000352E+00 0.  1.
</event>
<event>
 5   0  0.2510069E-04  0.1877511E+04  0.7818609E-02  0.8666132E-01
       -1   -1    0    0    0  501  0.00000000000E+00  0.00000000000E+00  0.18863924692E+04  0.18863924692E+04  0.50400001928E-02 0.  1.
        1   -1    0    0  501    0  0.00000000000E+00  0.00000000000E+00 -0.46716796651E+03  0.46716796654E+03  0.50400001928E-02 0. -1.
    10030    2    1    2    0    0  0.00000000000E+00  0.00000000000E+00  0.14192245026E+04  0.23535604357E+04  0.18775112611E+04 0.  0.
        4    1    3    3  502    0  0.38617745660E+03  0.22562894758E+03 -0.32502045525E+03  0.55288458036E+03  0.12699999809E+01 0. -1.
       -4    1    3    3    0  502 -0.38617745660E+03 -0.22562894758E+03  0.17442449579E+04  0.18006758553E+04  0.12699999809E+01 0.  1.
</event>
<event>
 5   0  0.4761944E-04  0.1909516E+04  0.7818609E-02  0.8650134E-01
        2   -1    0    0  501    0  0.00000000000E+00  0.00000000000E+00  0.13782233930E+04  0.13782233930E+04  0.25500000920E-02 0.  1.
       -2   -1    0    0    0  501  0.00000000000E+00  0.00000000000E+00 -0.66140403237E+03  0.66140403238E+03  0.25500000920E-02 0. -1.
    10030    2    1    2    0    0  0.00000000000E+00  0.00000000000E+00  0.71681936062E+03  0.20396274254E+04  0.19095156555E+04 0.  0.
        4    1    3    3  502    0  0.39657220298E+03 -0.76995053642E+03  0.78762009901E+03  0.11706580944E+04  0.12699999809E+01 0.  1.
       -4    1    3    3    0  502 -0.39657220298E+03  0.76995053642E+03 -0.70800738389E+02  0.86896933097E+03  0.12699999809E+01 0. -1.
</event>
<event>
 5   0  0.4829134E-04  0.1935921E+04  0.7818609E-02  0.8637180E-01
        2   -1    0    0  501    0  0.00000000000E+00  0.00000000000E+00  0.67530698454E+03  0.67530698454E+03  0.25500000920E-02 0.  1.
       -2   -1    0    0    0  501  0.00000000000E+00  0.00000000000E+00 -0.13874395181E+04  0.13874395181E+04  0.25500000920E-02 0. -1.
    10030    2    1    2    0    0  0.00000000000E+00  0.00000000000E+00 -0.71213253358E+03  0.20627465027E+04  0.19359210699E+04 0.  0.
        2    1    3    3  502    0  0.24141335752E+03 -0.42563613167E+03  0.53381210687E+03  0.72415598542E+03  0.25500000920E-02 0.  1.
       -2    1    3    3    0  502 -0.24141335752E+03  0.42563613167E+03 -0.12459446405E+04  0.13385905172E+04  0.25500000920E-02 0. -1.
</event>
<event>
 5   0  0.4839293E-04  0.1711880E+04  0.7818609E-02  0.8754618E-01
        2   -1    0    0  501    0  0.00000000000E+00  0.00000000000E+00  0.56709702915E+03  0.56709702916E+03  0.25500000920E-02 0. -1.
       -2   -1    0    0    0  501  0.00000000000E+00  0.00000000000E+00 -0.12919003778E+04  0.12919003778E+04  0.25500000920E-02 0.  1.
    10030    2    1    2    0    0  0.00000000000E+00  0.00000000000E+00 -0.72480334860E+03  0.18589974069E+04  0.17118795123E+04 0.  0.
        5    1    3    3  502    0 -0.24470636072E+03 -0.52786754900E+03  0.31931006941E+03  0.66370653356E+03  0.46999998093E+01 0. -1.
       -5    1    3    3    0  502  0.24470636072E+03  0.52786754900E+03 -0.10441134180E+04  0.11952908734E+04  0.46999998093E+01 0.  1.
</event>
<event>
 5   0  0.4802635E-04  0.1940998E+04  0.7818609E-02  0.8634714E-01
       -2   -1    0    0    0  501  0.00000000000E+00  0.00000000000E+00  0.49006565841E+03  0.49006565841E+03  0.25500000920E-02 0. -1.
        2   -1    0    0  501    0  0.00000000000E+00  0.00000000000E+00 -0.19219231140E+04  0.19219231140E+04  0.25500000920E-02 0.  1.
    10030    2    1    2    0    0  0.00000000000E+00  0.00000000000E+00 -0.14318574556E+04  0.24119887724E+04  0.19409982136E+04 0.  0.
        3    1    3    3  502    0  0.23127638661E+03 -0.17574594403E+03 -0.18666376058E+04  0.18891033232E+04  0.10100000352E+00 0.  1.
       -3    1    3    3    0  502 -0.23127638661E+03  0.17574594403E+03  0.43478015022E+03  0.52288544928E+03  0.10100000352E+00 0. -1.
</event>
<event>
 5   0  0.4973411E-04  0.1794879E+04  0.7818609E-02  0.8709028E-01
       -2   -1    0    0    0  501  0.00000000000E+00  0.00000000000E+00  0.93769248429E+03  0.93769248430E+03  0.25500000920E-02 0.  1.
        2   -1    0    0  501    0  0.00000000000E+00  0.00000000000E+00 -0.85891441287E+03  0.85891441287E+03  0.25500000920E-02 0. -1.
    10030    2    1    2    0    0  0.00000000000E+00  0.00000000000E+00  0.78778071422E+02  0.17966068972E+04  0.17948789258E+04 0.  0.
        1    1    3    3  502    0  0.29719054256E+03 -0.31473460385E+03  0.82628676244E+03  0.93280753816E+03  0.50400001928E-02 0.  1.
       -1    1    3    3    0  502 -0.29719054256E+03  0.31473460385E+03 -0.74750869102E+03  0.86379935901E+03  0.50400001928E-02 0. -1.
</event>
<event>
 5   0  0.2317458E-04  0.1005044E+04  0.7818609E-02  0.9303030E-01
        1   -1    0    0  501    0  0.00000000000E+00  0.00000000000E+00  0.92652601309E+03  0.92652601311E+03  0.50400001928E-02 0.  1.
       -1   -1    0    0    0  501  0.00000000000E+00  0.00000000000E+00 -0.27255384723E+03  0.27255384728E+03  0.50400001928E-02 0. -1.
    10030    2    1    2    0    0  0.00000000000E+00  0.00000000000E+00  0.65397216586E+03  0.11990798604E+04  0.10050437393E+04 0.  0.
        3    1    3    3  502    0 -0.44295732517E+02  0.54512474588E+02  0.92064041382E+03  0.92331603666E+03  0.10100000352E+00 0.  1.
       -3    1    3    3    0  502  0.44295732517E+02 -0.54512474588E+02 -0.26666824795E+03  0.27576382372E+03  0.10100000352E+00 0. -1.
</event>
<event>
 5   0  0.2317458E-04  0.1818859E+04  0.7818609E-02  0.8696335E-01
       -1   -1    0    0    0  501  0.00000000000E+00  0.00000000000E+00  0.42346831104E+03  0.42346831107E+03  0.50400001928E-02 0.  1.
        1   -1    0    0  501    0  0.00000000000E+00  0.00000000000E+00 -0.19530661824E+04  0.19530661825E+04  0.50400001928E-02 0. -1.
    10030    2    1    2    0    0  0.00000000000E+00  0.00000000000E+00 -0.15295978714E+04  0.23765344935E+04  0.18188585846E+04 0.  0.
        3    1    3    3  502    0  0.16915772069E+02 -0.81598514219E+03 -0.12889810782E+04  0.15256441674E+04  0.10100000352E+00 0. -1.
       -3    1    3    3    0  502 -0.16915772069E+02  0.81598514219E+03 -0.24061679325E+03  0.85089032608E+03  0.10100000352E+00 0.  1.
</event>
<event>
 5   0  0.4839293E-04  0.1929907E+04  0.7818609E-02  0.8640111E-01
       -2   -1    0    0    0  501  0.00000000000E+00  0.00000000000E+00  0.72567615291E+03  0.72567615292E+03  0.25500000920E-02 0.  1.
        2   -1    0    0  501    0  0.00000000000E+00  0.00000000000E+00 -0.12831276340E+04  0.12831276340E+04  0.25500000920E-02 0. -1.
    10030    2    1    2    0    0  0.00000000000E+00  0.00000000000E+00 -0.55745148107E+03  0.20088037869E+04  0.19299068632E+04 0.  0.
        5    1    3    3  502    0 -0.12869899699E+02 -0.51705511049E+03  0.56919414217E+03  0.76910056760E+03  0.46999998093E+01 0.  1.
       -5    1    3    3    0  502  0.12869899699E+02  0.51705511049E+03 -0.11266456232E+04  0.12397032193E+04  0.46999998093E+01 0. -1.
</event>
<event>
 5   0  0.2510069E-04  0.1849674E+04  0.7818609E-02  0.8680320E-01
       -1   -1    0    0    0  501  0.00000000000E+00  0.00000000000E+00  0.79492212025E+03  0.79492212026E+03  0.50400001928E-02 0.  1.
        1   -1    0    0  501    0  0.00000000000E+00  0.00000000000E+00 -0.10759840107E+04  0.10759840107E+04  0.50400001928E-02 0. -1.
    10030    2    1    2    0    0  0.00000000000E+00  0.00000000000E+00 -0.28106189049E+03  0.18709061310E+04  0.18496740158E+04 0.  0.
        4    1    3    3  502    0 -0.43157707492E+03  0.81687944144E+03 -0.18309828275E+03  0.94184785793E+03  0.12699999809E+01 0.  1.
       -4    1    3    3    0  502  0.43157707492E+03 -0.81687944144E+03 -0.97963607733E+02  0.92905827308E+03  0.12699999809E+01 0. -1.
</event>
<event>
 5   0  0.4973411E-04  0.1886523E+04  0.7818609E-02  0.8661594E-01
        2   -1    0    0  501    0  0.00000000000E+00  0.00000000000E+00  0.20305163396E+04  0.20305163396E+04  0.25500000920E-02 0. -1.
       -2   -1    0    0    0  501  0.00000000000E+00  0.00000000000E+00 -0.43818502910E+03  0.43818502910E+03  0.25500000920E-02 0.  1.
    10030    2    1    2    0    0  0.00000000000E+00  0.00000000000E+00  0.15923313105E+04  0.24687013687E+04  0.18865225802E+04 0.  0.
        1    1    3    3  502    0  0.77463849096E+02  0.30515879351E+03 -0.36739830906E+03  0.48384300625E+03  0.50400001928E-02 0.  1.
       -1    1    3    3    0  502 -0.77463849096E+02 -0.30515879351E+03  0.19597296196E+04  0.19848583624E+04  0.50400001928E-02 0. -1.
</event>
<event>
 5   0  0.4802635E-04  0.1882540E+04  0.7818609E-02  0.8663596E-01
       -2   -1    0    0    0  501  0.00000000000E+00  0.00000000000E+00  0.39985991323E+03  0.39985991324E+03  0.25500000920E-02 0. -1.
        2   -1    0    0  501    0  0.00000000000E+00  0.00000000000E+00 -0.22157495739E+04  0.22157495739E+04  0.25500000920E-02 0.  1.
    10030    2    1    2    0    0  0.00000000000E+00  0.00000000000E+00 -0.18158896607E+04  0.26156094872E+04  0.18825402332E+04 0.  0.
        3    1    3    3  502    0 -0.73354312645E+03  0.12563584687E+03 -0.10723372900E+03  0.75191021220E+03  0.10100000352E+00 0. -1.
       -3    1    3    3    0  502  0.73354312645E+03 -0.12563584687E+03 -0.17086559317E+04  0.18636992750E+04  0.10100000352E+00 0.  1.
</event>
<event>
 5   0  0.2317458E-04  0.1879244E+04  0.7818609E-02  0.8665257E-01
       -1   -1    0    0    0  501  0.00000000000E+00  0.00000000000E+00  0.44796050466E+03  0.44796050469E+03  0.50400001928E-02 0. -1.
        1   -1    0    0  501    0  0.00000000000E+00  0.00000000000E+00 -0.19709096972E+04  0.19709096972E+04  0.50400001928E-02 0.  1.
    10030    2    1    2    0    0  0.00000000000E+00  0.00000000000E+00 -0.15229491925E+04  0.24188702019E+04  0.18792442126E+04 0.  0.
        3    1    3    3  502    0  0.18437693610E+03  0.13573429961E+03  0.41150805454E+03  0.47091139698E+03  0.10100000352E+00 0. -1.
       -3    1    3    3    0  502 -0.18437693610E+03 -0.13573429961E+03 -0.19344572471E+04  0.19479588049E+04  0.10100000352E+00 0.  1.
</event>
<event>
 5   0  0.4802635E-04  0.1978067E+04  0.7818609E-02  0.8616944E-01
        2   -1    0    0  501    0  0.00000000000E+00  0.00000000000E+00  0.18049956660E+04  0.18049956660E+04  0.25500000920E-02 0.  1.
       -2   -1    0    0    0  501  0.00000000000E+00  0.00000000000E+00 -0.54193315908E+03  0.54193315908E+03  0.25500000920E-02 0. -1.
    10030    2    1    2    0    0  0.00000000000E+00  0.00000000000E+00  0.12630625069E+04  0.23469288251E+04  0.19780667364E+04 0.  0.
        3    1    3    3  502    0  0.68916725618E+03  0.64183978400E+03  0.27307176455E+03  0.98054985294E+03  0.10100000352E+00 0. -1.
       -3    1    3    3    0  502 -0.68916725618E+03 -0.64183978400E+03  0.98999074237E+03  0.13663789721E+04  0.10100000352E+00 0.  1.
</event>
<event>
 5   0  0.4973411E-04  0.1900156E+04  0.7818609E-02  0.8654779E-01
       -2   -1    0    0    0  501  0.00000000000E+00  0.00000000000E+00  0.37895039512E+03  0.37895039512E+03  0.25500000920E-02 0.  1.
        2   -1    0    0  501    0  0.00000000000E+00  0.00000000000E+00 -0.23819686382E+04  0.23819686382E+04  0.25500000920E-02 0. -1.
    10030    2    1    2    0    0  0.00000000000E+00  0.00000000000E+00 -0.20030182431E+04  0.27609190333E+04  0.19001557374E+04 0.  0.
        1    1    3    3  502    0 -0.63189525674E+03 -0.14869725938E+03 -0.20094795680E+04  0.21117316650E+04  0.50400001928E-02 0. -1.
       -1    1    3    3    0  502  0.63189525674E+03  0.14869725938E+03  0.64613249906E+01  0.64918736832E+03  0.50400001928E-02 0.  1.
</event>
<event>
 5   0  0.2376359E-04  0.1906397E+04  0.7818609E-02  0.8651679E-01
       -1   -1    0    0    0  501  0.00000000000E+00  0.00000000000E+00  0.12622089362E+04  0.12622089362E+04  0.50400001928E-02 0. -1.
        1   -1    0    0  501    0  0.00000000000E+00  0.00000000000E+00 -0.71983943490E+03  0.71983943492E+03  0.50400001928E-02 0.  1.
    10030    2    1    2    0    0  0.00000000000E+00  0.00000000000E+00  0.54236950132E+03  0.19820483712E+04  0.19063974060E+04 0.  0.
        2    1    3    3  502    0 -0.12807675987E+03  0.87849470187E+03  0.63198785293E+03  0.10897546714E+04  0.25500000920E-02 0. -1.
       -2    1    3    3    0  502  0.12807675987E+03 -0.87849470187E+03 -0.89618351601E+02  0.89229369973E+03  0.25500000920E-02 0.  1.
</event>
<event>
 5   0  0.4761944E-04  0.1377866E+04  0.7818609E-02  0.8969998E-01
       -2   -1    0    0    0  501  0.00000000000E+00  0.00000000000E+00  0.55220597851E+03  0.55220597852E+03  0.25500000920E-02 0. -1.
        2   -1    0    0  501    0  0.00000000000E+00  0.00000000000E+00 -0.85951367844E+03  0.85951367844E+03  0.25500000920E-02 0.  1.
    10030    2    1    2    0    0  0.00000000000E+00  0.00000000000E+00 -0.30730769992E+03  0.14117196570E+04  0.13778658742E+04 0.  0.
        4    1    3    3  502    0 -0.45973135304E+02  0.50206317856E+03  0.32739883575E+03  0.60114272430E+03  0.12699999809E+01 0. -1.
       -4    1    3    3    0  502  0.45973135304E+02 -0.50206317856E+03 -0.63470653567E+03  0.81057693266E+03  0.12699999809E+01 0.  1.
</event>
<event>
 5   0  0.4829134E-04  0.1915562E+04  0.7818609E-02  0.8647149E-01
        2   -1    0    0  501    0  0.00000000000E+00  0.00000000000E+00  0.21293572924E+04  0.21293572924E+04  0.25500000920E-02 0.  1.
       -2   -1    0    0    0  501  0.00000000000E+00  0.00000000000E+00 -0.43080800394E+03  0.43080800395E+03  0.25500000920E-02 0. -1.
    10030    2    1    2    0    0  0.00000000000E+00  0.00000000000E+00  0.16985492885E+04  0.25601652963E+04  0.19155617086E+04 0.  0.
        2    1    3    3  502    0 -0.18804507977E+03 -0.72664547243E+03  0.54114097741E+02  0.75253101611E+03  0.25500000920E-02 0. -1.
       -2    1    3    3    0  502  0.18804507977E+03  0.72664547243E+03  0.16444351907E+04  0.18076342802E+04  0.25500000920E-02 0.  1.
</event>
<event>
 5   0  0.2317458E-04  0.1880618E+04  0.7818609E-02  0.8664564E-01
       -1   -1    0    0    0  501  0.00000000000E+00  0.00000000000E+00  0.75360175742E+03  0.75360175744E+03  0.50400001928E-02 0. -1.
        1   -1    0    0  501    0  0.00000000000E+00  0.00000000000E+00 -0.11732738938E+04  0.11732738938E+04  0.50400001928E-02 0.  1.
    10030    2    1    2    0    0  0.00000000000E+00  0.00000000000E+00 -0.41967213640E+03  0.19268756513E+04  0.18806182689E+04 0.  0.
        3    1    3    3  502    0  0.30699462734E+03 -0.66880381909E+03 -0.80958595272E+03  0.10940629208E+04  0.10100000352E+00 0.  1.
       -3    1    3    3    0  502 -0.30699462734E+03  0.66880381909E+03  0.38991381632E+03  0.83281273046E+03  0.10100000352E+00 0. -1.
</event>
<event>
 5   0  0.2510069E-04  0.1890297E+04  0.7818609E-02  0.8659701E-01
       -1   -1    0    0    0  501  0.00000000000E+00  0.00000000000E+00  0.38748892021E+03  0.38748892025E+03  0.50400001928E-02 0.  1.
        1   -1    0    0  501    0  0.00000000000E+00  0.00000000000E+00 -0.23053716856E+04  0.23053716856E+04  0.50400001928E-02 0. -1.
    10030    2    1    2    0    0  0.00000000000E+00  0.00000000000E+00 -0.19178827654E+04  0.26928606059E+04  0.18902973155E+04 0.  0.
        4    1    3    3  502    0  0.51120936507E+03  0.75381711261E+03 -0.59931403517E+03  0.10903000412E+04  0.12699999809E+01 0.  1.
       -4    1    3    3    0  502 -0.51120936507E+03 -0.75381711261E+03 -0.13185687303E+04  0.16025605647E+04  0.12699999809E+01 0. -1.
</event>
<event>
 5   0  0.2355414E-04  0.1872441E+04  0.7818609E-02  0.8668697E-01
        1   -1    0    0  501    0  0.00000000000E+00  0.00000000000E+00  0.96451767236E+03  0.96451767237E+03  0.50400001928E-02 0.  1.
       -1   -1    0    0    0  501  0.00000000000E+00  0.00000000000E+00 -0.90875394798E+03  0.90875394800E+03  0.50400001928E-02 0. -1.
    10030    2    1    2    0    0  0.00000000000E+00  0.00000000000E+00  0.55763724373E+02  0.18732716204E+04  0.18724414465E+04 0.  0.
        5    1    3    3  502    0  0.46082649287E+03  0.47514585572E+03 -0.63450118920E+03  0.91691792971E+03  0.46999998093E+01 0. -1.
       -5    1    3    3    0  502 -0.46082649287E+03 -0.47514585572E+03  0.69026491357E+03  0.95635369066E+03  0.46999998093E+01 0.  1.
</event>
<event>
 5   0  0.2510069E-04  0.1867850E+04  0.7818609E-02  0.8671027E-01
       -1   -1    0    0    0  501  0.00000000000E+00  0.00000000000E+00  0.47306830587E+03  0.47306830590E+03  0.50400001928E-02 0.  1.
        1   -1    0    0  501    0  0.00000000000E+00  0.00000000000E+00 -0.18437429103E+04  0.18437429103E+04  0.50400001928E-02 0. -1.
    10030    2    1    2    0    0  0.00000000000E+00  0.00000000000E+00 -0.13706746044E+04  0.23168112162E+04  0.18678504598E+04 0.  0.
        4    1    3    3  502    0  0.48472757501E+03  0.71676708108E+03 -0.11212304109E+04  0.14162892070E+04  0.12699999809E+01 0. -1.
       -4    1    3    3    0  502 -0.48472757501E+03 -0.71676708108E+03 -0.24944419347E+03  0.90052200920E+03  0.12699999809E+01 0.  1.
</event>
<event>
 5   0  0.2261755E-04  0.1925795E+04  0.7818609E-02  0.8642122E-01
       -1   -1    0    0    0  501  0.00000000000E+00  0.00000000000E+00  0.81239869768E+03  0.81239869769E+03  0.50400001928E-02 0. -1.
        1   -1    0    0  501    0  0.00000000000E+00  0.00000000000E+00 -0.11412761926E+04  0.11412761926E+04  0.50400001928E-02 0.  1.
    10030    2    1    2    0    0  0.00000000000E+00  0.00000000000E+00 -0.32887749491E+03  0.19536748903E+04  0.19257946854E+04 0.  0.
        1    1    3    3  502    0  0.71922146329E+03  0.14816083127E+03  0.46742679719E+03  0.87047053708E+03  0.50400001928E-02 0. -1.
       -1    1    3    3    0  502 -0.71922146329E+03 -0.14816083127E+03 -0.79630429210E+03  0.10832043532E+04  0.50400001928E-02 0.  1.
</event>
<event>
 5   0  0.4839293E-04  0.1937689E+04  0.7818609E-02  0.8636320E-01
        2   -1    0    0  501    0  0.00000000000E+00  0.00000000000E+00  0.18202775118E+04  0.18202775118E+04  0.25500000920E-02 0.  1.
       -2   -1    0    0    0  501  0.00000000000E+00  0.00000000000E+00 -0.51566826606E+03  0.51566826607E+03  0.25500000920E-02 0. -1.
    10030    2    1    2    0    0  0.00000000000E+00  0.00000000000E+00  0.13046092457E+04  0.23359457778E+04  0.19376886729E+04 0.  0.
        5    1    3    3  502    0  0.46025529860E+03 -0.84270121776E+02  0.16750199614E+04  0.17391521941E+04  0.46999998093E+01 0.  1.
       -5    1    3    3    0  502 -0.46025529860E+03  0.84270121776E+02 -0.37041071565E+03  0.59679358373E+03  0.46999998093E+01 0. -1.
</event>
<event>
 5   0  0.2510069E-04  0.1737611E+04  0.7818609E-02  0.8740199E-01
        1   -1    0    0  501    0  0.00000000000E+00  0.00000000000E+00  0.59680729300E+03  0.59680729302E+03  0.50400001928E-02 0.  1.
       -1   -1    0    0    0  501  0.00000000000E+00  0.00000000000E+00 -0.12647685321E+04  0.12647685321E+04  0.50400001928E-02 0. -1.
    10030    2    1    2    0    0  0.00000000000E+00  0.00000000000E+00 -0.66796123909E+03  0.18615758251E+04  0.17376111003E+04 0.  0.
        4    1    3    3  502    0 -0.25383761867E+02  0.69851540393E+03  0.21882914008E+03  0.73243150557E+03  0.12699999809E+01 0.  1.
       -4    1    3    3    0  502  0.25383761867E+02 -0.69851540393E+03 -0.88679037917E+03  0.11291443196E+04  0.12699999809E+01 0. -1.
</event>
<event>
 5   0  0.1729375E-04  0.1485269E+04  0.7818609E-02  0.8894309E-01
        4   -1    0    0  501    0  0.00000000000E+00  0.00000000000E+00  0.68914465575E+03  0.68914582597E+03  0.12699999809E+01 0. -1.
       -4   -1    0    0    0  501  0.00000000000E+00  0.00000000000E+00 -0.80027339737E+03  0.80027440509E+03  0.12699999809E+01 0.  1.
    10030    2    1    2    0    0  0.00000000000E+00  0.00000000000E+00 -0.11112874162E+03  0.14894202311E+04  0.14852686718E+04 0.  0.
        3    1    3    3  502    0 -0.41082504249E+03 -0.20301307316E+03 -0.64159002150E+03  0.78843470833E+03  0.10100000352E+00 0.  1.
       -3    1    3    3    0  502  0.41082504249E+03  0.20301307316E+03  0.53046127988E+03  0.70098552272E+03  0.10100000352E+00 0. -1.
</event>
<event>
 5   0  0.4802635E-04  0.1960146E+04  0.7818609E-02  0.8625484E-01
        2   -1    0    0  501    0  0.00000000000E+00  0.00000000000E+00  0.54253280269E+03  0.54253280269E+03  0.25500000920E-02 0. -1.
       -2   -1    0    0    0  501  0.00000000000E+00  0.00000000000E+00 -0.17704797318E+04  0.17704797318E+04  0.25500000920E-02 0.  1.
    10030    2    1    2    0    0  0.00000000000E+00  0.00000000000E+00 -0.12279469291E+04  0.23130125345E+04  0.19601462507E+04 0.  0.
        3    1    3    3  502    0 -0.25633447176E+03 -0.55223337422E+03 -0.15202677315E+04  0.16376455803E+04  0.10100000352E+00 0.  1.
       -3    1    3    3    0  502  0.25633447176E+03  0.55223337422E+03  0.29232080244E+03  0.67536695415E+03  0.10100000352E+00 0. -1.
</event>
<event>
 5   0  0.4802635E-04  0.1894484E+04  0.7818609E-02  0.8657607E-01
       -2   -1    0    0    0  501  0.00000000000E+00  0.00000000000E+00  0.77391409646E+03  0.77391409646E+03  0.25500000920E-02 0. -1.
        2   -1    0    0  501    0  0.00000000000E+00  0.00000000000E+00 -0.11593887234E+04  0.11593887234E+04  0.25500000920E-02 0.  1.
    10030    2    1    2    0    0  0.00000000000E+00  0.00000000000E+00 -0.38547462697E+03  0.19333028199E+04  0.18944838625E+04 0.  0.
        3    1    3    3  502    0 -0.21413132487E+03 -0.31277643770E+03 -0.10786182747E+04  0.11432841803E+04  0.10100000352E+00 0.  1.
       -3    1    3    3    0  502  0.21413132487E+03  0.31277643770E+03  0.69314364773E+03  0.79001863956E+03  0.10100000352E+00 0. -1.
</event>
<event>
 5   0  0.2355414E-04  0.2015208E+04  0.7818609E-02  0.8599543E-01
       -1   -1    0    0    0  501  0.00000000000E+00  0.00000000000E+00  0.55933763443E+03  0.55933763446E+03  0.50400001928E-02 0. -1.
        1   -1    0    0  501    0  0.00000000000E+00  0.00000000000E+00 -0.18151224669E+04  0.18151224669E+04  0.50400001928E-02 0.  1.
    10030    2    1    2    0    0  0.00000000000E+00  0.00000000000E+00 -0.12557848325E+04  0.23744601014E+04  0.20152084824E+04 0.  0.
        5    1    3    3  502    0  0.97807895022E+03  0.24145106903E+03 -0.60724189730E+03  0.11763085749E+04  0.46999998093E+01 0.  1.
       -5    1    3    3    0  502 -0.97807895022E+03 -0.24145106903E+03 -0.64854293521E+03  0.11981515265E+04  0.46999998093E+01 0. -1.
</event>
<event>
 5   0  0.4839293E-04  0.1899750E+04  0.7818609E-02  0.8654981E-01
        2   -1    0    0  501    0  0.00000000000E+00  0.00000000000E+00  0.45423011771E+03  0.45423011772E+03  0.25500000920E-02 0. -1.
       -2   -1    0    0    0  501  0.00000000000E+00  0.00000000000E+00 -0.19863558557E+04  0.19863558557E+04  0.25500000920E-02 0.  1.
    10030    2    1    2    0    0  0.00000000000E+00  0.00000000000E+00 -0.15321257380E+04  0.24405859734E+04  0.18997501459E+04 0.  0.
        5    1    3    3  502    0 -0.41869417922E+03 -0.56173491156E+03  0.57931603729E+02  0.70301428669E+03  0.46999998093E+01 0. -1.
       -5    1    3    3    0  502  0.41869417922E+03  0.56173491156E+03 -0.15900573417E+04  0.17375716867E+04  0.46999998093E+01 0.  1.
</event>
<event>
 5   0  0.4802635E-04  0.1826758E+04  0.7818609E-02  0.8692198E-01
        2   -1    0    0  501    0  0.00000000000E+00  0.00000000000E+00  0.10748053577E+04  0.10748053577E+04  0.25500000920E-02 0.  1.
       -2   -1    0    0    0  501  0.00000000000E+00  0.00000000000E+00 -0.77619764646E+03  0.77619764646E+03  0.25500000920E-02 0. -1.
    10030    2    1    2    0    0  0.00000000000E+00  0.00000000000E+00  0.29860771121E+03  0.18510030041E+04  0.18267582095E+04 0.  0.
        3    1    3    3  502    0 -0.40974463905E+03 -0.79149735170E+03  0.35171151148E+03  0.95815433230E+03  0.10100000352E+00 0. -1.
       -3    1    3    3    0  502  0.40974463905E+03  0.79149735170E+03 -0.53103800276E+02  0.89284867183E+03  0.10100000352E+00 0.  1.
</event>
<event>
 5   0  0.2317458E-04  0.1887474E+04  0.7818609E-02  0.8661116E-01
        1   -1    0    0  501    0  0.00000000000E+00  0.00000000000E+00  0.13474272188E+04  0.13474272188E+04  0.50400001928E-02 0.  1.
       -1   -1    0    0    0  501  0.00000000000E+00  0.00000000000E+00 -0.66099287108E+03  0.66099287110E+03  0.50400001928E-02 0. -1.
    10030    2    1    2    0    0  0.00000000000E+00  0.00000000000E+00  0.68643434772E+03  0.20084200899E+04  0.18874742763E+04 0.  0.
        3    1    3    3  502    0  0.37300282608E+03 -0.86377536651E+03  0.42141630133E+03  0.10309368076E+04  0.10100000352E+00 0. -1.
       -3    1    3    3    0  502 -0.37300282608E+03  0.86377536651E+03  0.26501804639E+03  0.97748328230E+03  0.10100000352E+00 0.  1.
</event>
<event>
 5   0  0.2317458E-04  0.1970368E+04  0.7818609E-02  0.8620601E-01
        1   -1    0    0  501    0  0.00000000000E+00  0.00000000000E+00  0.14921964368E+04  0.14921964368E+04  0.50400001928E-02 0.  1.
       -1   -1    0    0    0  501  0.00000000000E+00  0.00000000000E+00 -0.65044200372E+03  0.65044200374E+03  0.50400001928E-02 0. -1.
    10030    2    1    2    0    0  0.00000000000E+00  0.00000000000E+00  0.84175443304E+03  0.21426384405E+04  0.19703677223E+04 0.  0.
        3    1    3    3  502    0 -0.32671115117E+03 -0.45459688635E+00  0.14315719065E+04  0.14683795547E+04  0.10100000352E+00 0.  1.
       -3    1    3    3    0  502  0.32671115117E+03  0.45459688635E+00 -0.58981747344E+03  0.67425888584E+03  0.10100000352E+00 0. -1.
</event>
<event>
 5   0  0.2510069E-04  0.1903186E+04  0.7818609E-02  0.8653272E-01
        1   -1    0    0  501    0  0.00000000000E+00  0.00000000000E+00  0.13584672999E+04  0.13584672999E+04  0.50400001928E-02 0. -1.
       -1   -1    0    0    0  501  0.00000000000E+00  0.00000000000E+00 -0.66658169460E+03  0.66658169462E+03  0.50400001928E-02 0.  1.
    10030    2    1    2    0    0  0.00000000000E+00  0.00000000000E+00  0.69188560527E+03  0.20250489945E+04  0.19031862072E+04 0.  0.
        4    1    3    3  502    0 -0.89384212414E+03  0.32198511389E+03  0.28864628822E+03  0.99294836173E+03  0.12699999809E+01 0. -1.
       -4    1    3    3    0  502  0.89384212414E+03 -0.32198511389E+03  0.40323931706E+03  0.10321006328E+04  0.12699999809E+01 0.  1.
</event>
<event>
 5   0  0.4973411E-04  0.1877978E+04  0.7818609E-02  0.8665896E-01
        2   -1    0    0  501    0  0.00000000000E+00  0.00000000000E+00  0.90634268858E+03  0.90634268859E+03  0.25500000920E-02 0. -1.
       -2   -1    0    0    0  501  0.00000000000E+00  0.00000000000E+00 -0.97281142886E+03  0.97281142887E+03  0.25500000920E-02 0.  1.
    10030    2    1    2    0    0  0.00000000000E+00  0.00000000000E+00 -0.66468740278E+02  0.18791541175E+04  0.18779781957E+04 0.  0.
        1    1    3    3  502    0 -0.26409406404E+03 -0.76224521157E+03 -0.51409442051E+03  0.95658586152E+03  0.50400001928E-02 0.  1.
       -1    1    3    3    0  502  0.26409406404E+03  0.76224521157E+03  0.44762568023E+03  0.92256825593E+03  0.50400001928E-02 0. -1.
</event>
<event>
 5   0  0.1729375E-04  0.1867818E+04  0.7818609E-02  0.8671044E-01
       -4   -1    0    0    0  501  0.00000000000E+00  0.00000000000E+00  0.12132777272E+04  0.12132783919E+04  0.12699999809E+01 0. -1.
        4   -1    0    0  501    0  0.00000000000E+00  0.00000000000E+00 -0.71886579014E+03  0.71886691197E+03  0.12699999809E+01 0.  1.
    10030    2    1    2    0    0  0.00000000000E+00  0.00000000000E+00  0.49441193704E+03  0.19321453038E+04  0.18678175263E+04 0.  0.
        1    1    3    3  502    0 -0.88432470682E+03 -0.23806965532E+03  0.57933876728E+02  0.91764027918E+03  0.50400001928E-02 0. -1.
       -1    1    3    3    0  502  0.88432470682E+03  0.23806965532E+03  0.43647806031E+03  0.10145050246E+04  0.50400001928E-02 0.  1.
</event>
<event>
 5   0  0.4829134E-04  0.1904706E+04  0.7818609E-02  0.8652518E-01
        2   -1    0    0  501    0  0.00000000000E+00  0.00000000000E+00  0.74409691733E+03  0.74409691733E+03  0.25500000920E-02 0.  1.
       -2   -1    0    0    0  501  0.00000000000E+00  0.00000000000E+00 -0.12188949915E+04  0.12188949915E+04  0.25500000920E-02 0. -1.
    10030    2    1    2    0    0  0.00000000000E+00  0.00000000000E+00 -0.47479807413E+03  0.19629919088E+04  0.19047057575E+04 0.  0.
        2    1    3    3  502    0  0.33855785721E+03  0.52771040104E+03  0.50138910430E+03  0.80280179619E+03  0.25500000920E-02 0.  1.
       -2    1    3    3    0  502 -0.33855785721E+03 -0.52771040104E+03 -0.97618717843E+03  0.11601901126E+04  0.25500000920E-02 0. -1.
</event>
<event>
 5   0  0.4802635E-04  0.1828633E+04  0.7818609E-02  0.8691219E-01
        2   -1    0    0  501    0  0.00000000000E+00  0.00000000000E+00  0.12527371069E+04  0.12527371069E+04  0.25500000920E-02 0. -1.
       -2   -1    0    0    0  501  0.00000000000E+00  0.00000000000E+00 -0.66731837962E+03  0.66731837962E+03  0.25500000920E-02 0.  1.
    10030    2    1    2    0    0  0.00000000000E+00  0.00000000000E+00  0.58541872733E+03  0.19200554866E+04  0.18286328186E+04 0.  0.
        3    1    3    3  502    0 -0.71254619063E+03  0.52913689028E+03  0.62029089090E+02  0.88969407131E+03  0.10100000352E+00 0. -1.
       -3    1    3    3    0  502  0.71254619063E+03 -0.52913689028E+03  0.52338963824E+03  0.10303614153E+04  0.10100000352E+00 0.  1.
</event>
<event>
 5   0  0.2376359E-04  0.1948746E+04  0.7818609E-02  0.8630966E-01
        1   -1    0    0  501    0  0.00000000000E+00  0.00000000000E+00  0.18006455833E+04  0.18006455833E+04  0.50400001928E-02 0. -1.
       -1   -1    0    0    0  501  0.00000000000E+00  0.00000000000E+00 -0.52725684803E+03  0.52725684806E+03  0.50400001928E-02 0.  1.
    10030    2    1    2    0    0  0.00000000000E+00  0.00000000000E+00  0.12733887353E+04  0.23279024314E+04  0.19487459709E+04 0.  0.
        2    1    3    3  502    0  0.53651403192E+02 -0.91914391981E+03  0.25574501796E+03  0.95556764941E+03  0.25500000920E-02 0.  1.
       -2    1    3    3    0  502 -0.53651403192E+02  0.91914391981E+03  0.10176437173E+04  0.13723347820E+04  0.25500000920E-02 0. -1.
</event>
<event>
 5   0  0.2261755E-04  0.1923148E+04  0.7818609E-02  0.8643419E-01
       -1   -1    0    0    0  501  0.00000000000E+00  0.00000000000E+00  0.91308004471E+03  0.91308004472E+03  0.50400001928E-02 0. -1.
        1   -1    0    0  501    0  0.00000000000E+00  0.00000000000E+00 -0.10126431274E+04  0.10126431274E+04  0.50400001928E-02 0.  1.
    10030    2    1    2    0    0  0.00000000000E+00  0.00000000000E+00 -0.99563082682E+02  0.19257231721E+04  0.19231476616E+04 0.  0.
        1    1    3    3  502    0  0.49791428929E+02  0.70756145235E+03 -0.69988273111E+03  0.99647289606E+03  0.50400001928E-02 0.  1.
       -1    1    3    3    0  502 -0.49791428929E+02 -0.70756145235E+03  0.60031964843E+03  0.92925027606E+03  0.50400001928E-02 0. -1.
</event>
<event>
 5   0  0.4802635E-04  0.2124706E+04  0.7818609E-02  0.8550438E-01
       -2   -1    0    0    0  501  0.00000000000E+00  0.00000000000E+00  0.12808360991E+04  0.12808360991E+04  0.25500000920E-02 0.  1.
        2   -1    0    0  501    0  0.00000000000E+00  0.00000000000E+00 -0.88113860599E+03  0.88113860599E+03  0.25500000920E-02 0. -1.
    10030    2    1    2    0    0  0.00000000000E+00  0.00000000000E+00  0.39969749309E+03  0.21619747051E+04  0.21247062243E+04 0.  0.
        3    1    3    3  502    0  0.33831734882E+03  0.60436559707E+03 -0.61981013647E+03  0.92945199925E+03  0.10100000352E+00 0. -1.
       -3    1    3    3    0  502 -0.33831734882E+03 -0.60436559707E+03  0.10195076296E+04  0.12325227058E+04  0.10100000352E+00 0.  1.
</event>
<event>
 5   0  0.4839293E-04  0.1946193E+04  0.7818609E-02  0.8632199E-01
       -2   -1    0    0    0  501  0.00000000000E+00  0.00000000000E+00  0.89191131212E+03  0.89191131213E+03  0.25500000920E-02 0.  1.
        2   -1    0    0  501    0  0.00000000000E+00  0.00000000000E+00 -0.10616718984E+04  0.10616718984E+04  0.25500000920E-02 0. -1.
    10030    2    1    2    0    0  0.00000000000E+00  0.00000000000E+00 -0.16976058630E+03  0.19535832105E+04  0.19461933881E+04 0.  0.
        5    1    3    3  502    0  0.60267681808E+03  0.44665981492E+03  0.53728827725E+03  0.92272700198E+03  0.46999998093E+01 0.  1.
       -5    1    3    3    0  502 -0.60267681808E+03 -0.44665981492E+03 -0.70704886354E+03  0.10308562086E+04  0.46999998093E+01 0. -1.
</event>
<event>
 5   0  0.2317458E-04  0.1836815E+04  0.7818609E-02  0.8686963E-01
        1   -1    0    0  501    0  0.00000000000E+00  0.00000000000E+00  0.11765296894E+04  0.11765296894E+04  0.50400001928E-02 0.  1.
       -1   -1    0    0    0  501  0.00000000000E+00  0.00000000000E+00 -0.71691517014E+03  0.71691517015E+03  0.50400001928E-02 0. -1.
    10030    2    1    2    0    0  0.00000000000E+00  0.00000000000E+00  0.45961451924E+03  0.18934448595E+04  0.18368146150E+04 0.  0.
        3    1    3    3  502    0  0.93738738152E+02 -0.79522067114E+03 -0.23384785062E+03  0.83417485834E+03  0.10100000352E+00 0. -1.
       -3    1    3    3    0  502 -0.93738738152E+02  0.79522067114E+03  0.69346236986E+03  0.10592700012E+04  0.10100000352E+00 0.  1.
</event>
<event>
 5   0  0.2510069E-04  0.1901707E+04  0.7818609E-02  0.8654007E-01
        1   -1    0    0  501    0  0.00000000000E+00  0.00000000000E+00  0.14173421951E+04  0.14173421951E+04  0.50400001928E-02 0.  1.
       -1   -1    0    0    0  501  0.00000000000E+00  0.00000000000E+00 -0.63789996397E+03  0.63789996399E+03  0.50400001928E-02 0. -1.
    10030    2    1    2    0    0  0.00000000000E+00  0.00000000000E+00  0.77944223116E+03  0.20552421591E+04  0.19017071649E+04 0.  0.
        4    1    3    3  502    0 -0.21928059823E+03  0.92468799056E+03  0.42370954115E+03  0.10405110517E+04  0.12699999809E+01 0. -1.
       -4    1    3    3    0  502  0.21928059823E+03 -0.92468799056E+03  0.35573269002E+03  0.10147311074E+04  0.12699999809E+01 0.  1.
</event>
<event>
 5   0  0.2376359E-04  0.1901934E+04  0.7818609E-02  0.8653894E-01
       -1   -1    0    0    0  501  0.00000000000E+00  0.00000000000E+00  0.10885977993E+04  0.10885977993E+04  0.50400001928E-02 0. -1.
        1   -1    0    0  501    0  0.00000000000E+00  0.00000000000E+00 -0.83073647965E+03  0.83073647967E+03  0.50400001928E-02 0.  1.
    10030    2    1    2    0    0  0.00000000000E+00  0.00000000000E+00  0.25786131963E+03  0.19193342790E+04  0.19019336514E+04 0.  0.
        2    1    3    3  502    0  0.36416060699E+03 -0.56668178686E+03 -0.54847569208E+03  0.86865803401E+03  0.25500000920E-02 0.  1.
       -2    1    3    3    0  502 -0.36416060699E+03  0.56668178686E+03  0.80633701171E+03  0.10506762449E+04  0.25500000920E-02 0. -1.
</event>
<event>
 5   0  0.4761944E-04  0.1750473E+04  0.7818609E-02  0.8733090E-01
       -2   -1    0    0    0  501  0.00000000000E+00  0.00000000000E+00  0.54565190463E+03  0.54565190464E+03  0.25500000920E-02 0. -1.
        2   -1    0    0  501    0  0.00000000000E+00  0.00000000000E+00 -0.14038970148E+04  0.14038970148E+04  0.25500000920E-02 0.  1.
    10030    2    1    2    0    0  0.00000000000E+00  0.00000000000E+00 -0.85824511017E+03  0.19495489194E+04  0.17504731704E+04 0.  0.
        4    1    3    3  502    0 -0.63978070404E+03  0.73299680387E+02  0.23103217153E+03  0.68415617340E+03  0.12699999809E+01 0. -1.
       -4    1    3    3    0  502  0.63978070404E+03 -0.73299680387E+02 -0.10892772817E+04  0.12653927460E+04  0.12699999809E+01 0.  1.
</event>
<event>
 5   0  0.2355414E-04  0.1804538E+04  0.7818609E-02  0.8703890E-01
       -1   -1    0    0    0  501  0.00000000000E+00  0.00000000000E+00  0.56768927037E+03  0.56768927039E+03  0.50400001928E-02 0.  1.
        1   -1    0    0  501    0  0.00000000000E+00  0.00000000000E+00 -0.14340401877E+04  0.14340401877E+04  0.50400001928E-02 0. -1.
    10030    2    1    2    0    0  0.00000000000E+00  0.00000000000E+00 -0.86635091730E+03  0.20017294581E+04  0.18045378664E+04 0.  0.
        5    1    3    3  502    0  0.95877311653E+02 -0.29176550496E+03  0.50791091267E+03  0.59356141551E+03  0.46999998093E+01 0.  1.
       -5    1    3    3    0  502 -0.95877311653E+02  0.29176550496E+03 -0.13742618300E+04  0.14081680426E+04  0.46999998093E+01 0. -1.
</event>
<event>
 5   0  0.4839293E-04  0.1807063E+04  0.7818609E-02  0.8702553E-01
        2   -1    0    0  501    0  0.00000000000E+00  0.00000000000E+00  0.13274099531E+04  0.13274099531E+04  0.25500000920E-02 0.  1.
       -2   -1    0    0    0  501  0.00000000000E+00  0.00000000000E+00 -0.61500887056E+03  0.61500887057E+03  0.25500000920E-02 0. -1.
    10030    2    1    2    0    0  0.00000000000E+00  0.00000000000E+00  0.71240108258E+03  0.19424188237E+04  0.18070626952E+04 0.  0.
        5    1    3    3  502    0 -0.50889649885E+03 -0.52570882674E+03  0.92600243856E+03  0.11801898251E+04  0.46999998093E+01 0.  1.
       -5    1    3    3    0  502  0.50889649885E+03  0.52570882674E+03 -0.21360135598E+03  0.76222899861E+03  0.46999998093E+01 0. -1.
</event>
<event>
 5   0  0.2376359E-04  0.1890305E+04  0.7818609E-02  0.8659698E-01
       -1   -1    0    0    0  501  0.00000000000E+00  0.00000000000E+00  0.21370092689E+04  0.21370092689E+04  0.50400001928E-02 0. -1.
        1   -1    0    0  501    0  0.00000000000E+00  0.00000000000E+00 -0.41802007818E+03  0.41802007821E+03  0.50400001928E-02 0.  1.
    10030    2    1    2    0    0  0.00000000000E+00  0.00000000000E+00  0.17189891907E+04  0.25550293471E+04  0.18903045064E+04 0.  0.
        2    1    3    3  502    0  0.58332476042E+03 -0.74307854571E+03  0.89957460652E+03  0.13044799630E+04  0.25500000920E-02 0. -1.
       -2    1    3    3    0  502 -0.58332476042E+03  0.74307854571E+03  0.81941458416E+03  0.12505493841E+04  0.25500000920E-02 0.  1.
</event>
<event>
 5   0  0.4973411E-04  0.1889238E+04  0.7818609E-02  0.8660232E-01
        2   -1    0    0  501    0  0.00000000000E+00  0.00000000000E+00  0.83771473947E+03  0.83771473947E+03  0.25500000920E-02 0. -1.
       -2   -1    0    0    0  501  0.00000000000E+00  0.00000000000E+00 -0.10651655102E+04  0.10651655102E+04  0.25500000920E-02 0.  1.
    10030    2    1    2    0    0  0.00000000000E+00  0.00000000000E+00 -0.22745077072E+03  0.19028802497E+04  0.18892377806E+04 0.  0.
        1    1    3    3  502    0  0.84340518537E+03 -0.31679280038E+03  0.17225246418E+03  0.91725726845E+03  0.50400001928E-02 0. -1.
       -1    1    3    3    0  502 -0.84340518537E+03  0.31679280038E+03 -0.39970323490E+03  0.98562298122E+03  0.50400001928E-02 0.  1.
</event>
<event>
 5   0  0.2355414E-04  0.1900968E+04  0.7818609E-02  0.8654375E-01
        1   -1    0    0  501    0  0.00000000000E+00  0.00000000000E+00  0.23911738158E+04  0.23911738158E+04  0.50400001928E-02 0.  1.
       -1   -1    0    0    0  501  0.00000000000E+00  0.00000000000E+00 -0.37781426539E+03  0.37781426543E+03  0.50400001928E-02 0. -1.
    10030    2    1    2    0    0  0.00000000000E+00  0.00000000000E+00  0.20133595504E+04  0.27689880813E+04  0.19009677311E+04 0.  0.
        5    1    3    3  502    0  0.10669256393E+03  0.54416801682E+03 -0.11774742208E+03  0.56691152672E+03  0.46999998093E+01 0. -1.
       -5    1    3    3    0  502 -0.10669256393E+03 -0.54416801682E+03  0.21311069725E+04  0.22020765545E+04  0.46999998093E+01 0.  1.
</event>
<event>
 5   0  0.2376359E-04  0.1881813E+04  0.7818609E-02  0.8663962E-01
       -1   -1    0    0    0  501  0.00000000000E+00  0.00000000000E+00  0.88851897413E+03  0.88851897414E+03  0.50400001928E-02 0. -1.
        1   -1    0    0  501    0  0.00000000000E+00  0.00000000000E+00 -0.99638331191E+03  0.99638331193E+03  0.50400001928E-02 0.  1.
    10030    2    1    2    0    0  0.00000000000E+00  0.00000000000E+00 -0.10786433779E+03  0.18849022861E+04  0.18818134638E+04 0.  0.
        2    1    3    3  502    0  0.43169984505E+03 -0.49177351914E+03 -0.73113327069E+03  0.98120426511E+03  0.25500000920E-02 0.  1.
       -2    1    3    3    0  502 -0.43169984505E+03  0.49177351914E+03  0.62326893290E+03  0.90369802096E+03  0.25500000920E-02 0. -1.
</event>
<event>
 5   0  0.4829134E-04  0.1962638E+04  0.7818609E-02  0.8624290E-01
       -2   -1    0    0    0  501  0.00000000000E+00  0.00000000000E+00  0.48528361788E+03  0.48528361789E+03  0.25500000920E-02 0.  1.
        2   -1    0    0  501    0  0.00000000000E+00  0.00000000000E+00 -0.19843806314E+04  0.19843806314E+04  0.25500000920E-02 0. -1.
    10030    2    1    2    0    0  0.00000000000E+00  0.00000000000E+00 -0.14990970135E+04  0.24696642493E+04  0.19626384405E+04 0.  0.
        2    1    3    3  502    0  0.64409029704E+02 -0.97896549649E+03 -0.77669614791E+03  0.12513108617E+04  0.25500000920E-02 0.  1.
       -2    1    3    3    0  502 -0.64409029704E+02  0.97896549649E+03 -0.72240086563E+03  0.12183533876E+04  0.25500000920E-02 0. -1.
</event>
<event>
 5   0  0.4829134E-04  0.1462002E+04  0.7818609E-02  0.8910122E-01
       -2   -1    0    0    0  501  0.00000000000E+00  0.00000000000E+00  0.56548650845E+03  0.56548650846E+03  0.25500000920E-02 0. -1.
        2   -1    0    0  501    0  0.00000000000E+00  0.00000000000E+00 -0.94496065289E+03  0.94496065289E+03  0.25500000920E-02 0.  1.
    10030    2    1    2    0    0  0.00000000000E+00  0.00000000000E+00 -0.37947414444E+03  0.15104471613E+04  0.14620020523E+04 0.  0.
        2    1    3    3  502    0  0.17825611035E+02  0.63159348621E+03  0.19005031670E+03  0.65980846245E+03  0.25500000920E-02 0. -1.
       -2    1    3    3    0  502 -0.17825611035E+02 -0.63159348621E+03 -0.56952446113E+03  0.85063869890E+03  0.25500000920E-02 0.  1.
</event>
<event>
 5   0  0.4761944E-04  0.1864038E+04  0.7818609E-02  0.8672967E-01
        2   -1    0    0  501    0  0.00000000000E+00  0.00000000000E+00  0.31022192692E+04  0.31022192692E+04  0.25500000920E-02 0.  1.
       -2   -1    0    0    0  501  0.00000000000E+00  0.00000000000E+00 -0.28001231110E+03  0.28001231111E+03  0.25500000920E-02 0. -1.
    10030    2    1    2    0    0  0.00000000000E+00  0.00000000000E+00  0.28222069581E+04  0.33822315803E+04  0.18640381832E+04 0.  0.
        4    1    3    3  502    0 -0.20948285746E+02 -0.52850373881E+03  0.28035239446E+04  0.28529814499E+04  0.12699999809E+01 0.  1.
       -4    1    3    3    0  502  0.20948285746E+02  0.52850373881E+03  0.18683013469E+02  0.52925013038E+03  0.12699999809E+01 0. -1.
</event>
<event>
 5   0  0.4829134E-04  0.1894002E+04  0.7818609E-02  0.8657848E-01
        2   -1    0    0  501    0  0.00000000000E+00  0.00000000000E+00  0.14575546703E+04  0.14575546703E+04  0.25500000920E-02 0. -1.
       -2   -1    0    0    0  501  0.00000000000E+00  0.00000000000E+00 -0.61528463178E+03  0.61528463179E+03  0.25500000920E-02 0.  1.
    10030    2    1    2    0    0  0.00000000000E+00  0.00000000000E+00  0.84227003852E+03  0.20728393021E+04  0.18940020999E+04 0.  0.
        2    1    3    3  502    0 -0.86595647255E+03 -0.35391841335E+02  0.83885173643E+03  0.12061531538E+04  0.25500000920E-02 0.  1.
       -2    1    3    3    0  502  0.86595647255E+03  0.35391841335E+02  0.34183020958E+01  0.86668614826E+03  0.25500000920E-02 0. -1.
</event>
<event>
 5   0  0.4829134E-04  0.9526193E+03  0.7818609E-02  0.9362094E-01
        2   -1    0    0  501    0  0.00000000000E+00  0.00000000000E+00  0.45287613689E+03  0.45287613690E+03  0.25500000920E-02 0. -1.
       -2   -1    0    0    0  501  0.00000000000E+00  0.00000000000E+00 -0.50095574215E+03  0.50095574216E+03  0.25500000920E-02 0.  1.
    10030    2    1    2    0    0  0.00000000000E+00  0.00000000000E+00 -0.48079605260E+02  0.95383187906E+03  0.95261933901E+03 0.  0.
        2    1    3    3  502    0 -0.40220682315E+03 -0.95449424769E+02 -0.26096300583E+03  0.48885847818E+03  0.25500000920E-02 0.  1.
       -2    1    3    3    0  502  0.40220682315E+03  0.95449424769E+02  0.21288340057E+03  0.46497340087E+03  0.25500000920E-02 0. -1.
</event>
<event>
 5   0  0.4802635E-04  0.1666727E+04  0.7818609E-02  0.8780572E-01
       -2   -1    0    0    0  501  0.00000000000E+00  0.00000000000E+00  0.57709062538E+03  0.57709062538E+03  0.25500000920E-02 0.  1.
        2   -1    0    0  501    0  0.00000000000E+00  0.00000000000E+00 -0.12034414843E+04  0.12034414843E+04  0.25500000920E-02 0. -1.
    10030    2    1    2    0    0  0.00000000000E+00  0.00000000000E+00 -0.62635085889E+03  0.17805321097E+04  0.16667270908E+04 0.  0.
        3    1    3    3  502    0 -0.76584059284E+03  0.29269479045E+03 -0.15360158243E+03  0.83413159053E+03  0.10100000352E+00 0.  1.
       -3    1    3    3    0  502  0.76584059284E+03 -0.29269479045E+03 -0.47274927646E+03  0.94640051912E+03  0.10100000352E+00 0. -1.
</event>
<event>
 5   0  0.2510069E-04  0.1893018E+04  0.7818609E-02  0.8658339E-01
        1   -1    0    0  501    0  0.00000000000E+00  0.00000000000E+00  0.10122845963E+04  0.10122845963E+04  0.50400001928E-02 0. -1.
       -1   -1    0    0    0  501  0.00000000000E+00  0.00000000000E+00 -0.88500765014E+03  0.88500765015E+03  0.50400001928E-02 0.  1.
    10030    2    1    2    0    0  0.00000000000E+00  0.00000000000E+00  0.12727694613E+03  0.18972922464E+04  0.18930183431E+04 0.  0.
        4    1    3    3  502    0 -0.24379337833E+03  0.22060455014E+03  0.95321005031E+03  0.10083216708E+04  0.12699999809E+01 0. -1.
       -4    1    3    3    0  502  0.24379337833E+03 -0.22060455014E+03 -0.82593310419E+03  0.88897057564E+03  0.12699999809E+01 0.  1.
</event>
<event>
 5   0  0.2261755E-04  0.1869983E+04  0.7818609E-02  0.8669944E-01
       -1   -1    0    0    0  501  0.00000000000E+00  0.00000000000E+00  0.63649788043E+03  0.63649788045E+03  0.50400001928E-02 0. -1.
        1   -1    0    0  501    0  0.00000000000E+00  0.00000000000E+00 -0.13734677427E+04  0.13734677427E+04  0.50400001928E-02 0.  1.
    10030    2    1    2    0    0  0.00000000000E+00  0.00000000000E+00 -0.73696986230E+03  0.20099656232E+04  0.18699832161E+04 0.  0.
        1    1    3    3  502    0  0.65997601918E+03  0.13545647802E+02  0.34324406765E+03  0.74402172043E+03  0.50400001928E-02 0. -1.
       -1    1    3    3    0  502 -0.65997601918E+03 -0.13545647802E+02 -0.10802139300E+04  0.12659439028E+04  0.50400001928E-02 0.  1.
</event>
<event>
 5   0  0.2317458E-04  0.1830337E+04  0.7818609E-02  0.8690331E-01
       -1   -1    0    0    0  501  0.00000000000E+00  0.00000000000E+00  0.35545044893E+03  0.35545044897E+03  0.50400001928E-02 0. -1.
        1   -1    0    0  501    0  0.00000000000E+00  0.00000000000E+00 -0.23562582855E+04  0.23562582855E+04  0.50400001928E-02 0.  1.
    10030    2    1    2    0    0  0.00000000000E+00  0.00000000000E+00 -0.20008078366E+04  0.27117087345E+04  0.18303366526E+04 0.  0.
        3    1    3    3  502    0 -0.48055677576E+03 -0.28120262798E+03 -0.20764550188E+04  0.21498081747E+04  0.10100000352E+00 0.  1.
       -3    1    3    3    0  502  0.48055677576E+03  0.28120262798E+03  0.75647182220E+02  0.56190055979E+03  0.10100000352E+00 0. -1.
</event>
<event>
 5   0  0.2376359E-04  0.1875538E+04  0.7818609E-02  0.8667130E-01
       -1   -1    0    0    0  501  0.00000000000E+00  0.00000000000E+00  0.71940393659E+03  0.71940393660E+03  0.50400001928E-02 0. -1.
        1   -1    0    0  501    0  0.00000000000E+00  0.00000000000E+00 -0.12224150991E+04  0.12224150991E+04  0.50400001928E-02 0.  1.
    10030    2    1    2    0    0  0.00000000000E+00  0.00000000000E+00 -0.50301116247E+03  0.19418190357E+04  0.18755375064E+04 0.  0.
        2    1    3    3  502    0  0.53823790593E+03  0.42919633412E+02  0.54231608183E+03  0.76527698968E+03  0.25500000920E-02 0. -1.
       -2    1    3    3    0  502 -0.53823790593E+03 -0.42919633412E+02 -0.10453272443E+04  0.11765420460E+04  0.25500000920E-02 0.  1.
</event>
<event>
 5   0  0.2317458E-04  0.1872147E+04  0.7818609E-02  0.8668846E-01
        1   -1    0    0  501    0  0.00000000000E+00  0.00000000000E+00  0.79511629636E+03  0.79511629637E+03  0.50400001928E-02 0. -1.
       -1   -1    0    0    0  501  0.00000000000E+00  0.00000000000E+00 -0.11020192193E+04  0.11020192193E+04  0.50400001928E-02 0.  1.
    10030    2    1    2    0    0  0.00000000000E+00  0.00000000000E+00 -0.30690292292E+03  0.18971355157E+04  0.18721468320E+04 0.  0.
        3    1    3    3  502    0  0.31868391255E+02 -0.85646912914E+03  0.22797460632E+03  0.88686379725E+03  0.10100000352E+00 0. -1.
       -3    1    3    3    0  502 -0.31868391255E+02  0.85646912914E+03 -0.53487752924E+03  0.10102717184E+04  0.10100000352E+00 0.  1.
</event>
<event>
 5   0  0.4761944E-04  0.1825676E+04  0.7818609E-02  0.8692763E-01
       -2   -1    0    0    0  501  0.00000000000E+00  0.00000000000E+00  0.37901479246E+03  0.37901479246E+03  0.25500000920E-02 0. -1.
        2   -1    0    0  501    0  0.00000000000E+00  0.00000000000E+00 -0.21985236974E+04  0.21985236974E+04  0.25500000920E-02 0.  1.
    10030    2    1    2    0    0  0.00000000000E+00  0.00000000000E+00 -0.18195089050E+04  0.25775384899E+04  0.18256757685E+04 0.  0.
        4    1    3    3  502    0  0.36048744388E+03  0.48972301975E+03  0.51420448146E+02  0.61026675205E+03  0.12699999809E+01 0. -1.
       -4    1    3    3    0  502 -0.36048744388E+03 -0.48972301975E+03 -0.18709293531E+04  0.19672717379E+04  0.12699999809E+01 0.  1.
</event>
<event>
 5   0  0.4761944E-04  0.1848522E+04  0.7818609E-02  0.8680913E-01
       -2   -1    0    0    0  501  0.00000000000E+00  0.00000000000E+00  0.37270957015E+03  0.37270957016E+03  0.25500000920E-02 0. -1.
        2   -1    0    0  501    0  0.00000000000E+00  0.00000000000E+00 -0.22920211263E+04  0.22920211263E+04  0.25500000920E-02 0.  1.
    10030    2    1    2    0    0  0.00000000000E+00  0.00000000000E+00 -0.19193115561E+04  0.26647306965E+04  0.18485217973E+04 0.  0.
        4    1    3    3  502    0  0.10515506688E+03 -0.26127889424E+02 -0.22828326932E+04  0.22854030219E+04  0.12699999809E+01 0.  1.
       -4    1    3    3    0  502 -0.10515506688E+03  0.26127889424E+02  0.36352113703E+03  0.37932767453E+03  0.12699999809E+01 0. -1.
</event>
<event>
 5   0  0.4829134E-04  0.1620300E+04  0.7818609E-02  0.8808173E-01
        2   -1    0    0  501    0  0.00000000000E+00  0.00000000000E+00  0.71723651324E+03  0.71723651324E+03  0.25500000920E-02 0. -1.
       -2   -1    0    0    0  501  0.00000000000E+00  0.00000000000E+00 -0.91509985349E+03  0.91509985349E+03  0.25500000920E-02 0.  1.
    10030    2    1    2    0    0  0.00000000000E+00  0.00000000000E+00 -0.19786334025E+03  0.16323363667E+04  0.16203000070E+04 0.  0.
        2    1    3    3  502    0  0.38523762086E+03 -0.23559375993E+03  0.57869454657E+03  0.73402985121E+03  0.25500000920E-02 0. -1.
       -2    1    3    3    0  502 -0.38523762086E+03  0.23559375993E+03 -0.77655788682E+03  0.89830651552E+03  0.25500000920E-02 0.  1.
</event>
<event>
 5   0  0.1729375E-04  0.1890090E+04  0.7818609E-02  0.8659805E-01
       -3   -1    0    0    0  501  0.00000000000E+00  0.00000000000E+00  0.18109990746E+04  0.18109990774E+04  0.10100000352E+00 0.  1.
        3   -1    0    0  501    0  0.00000000000E+00  0.00000000000E+00 -0.49315878979E+03  0.49315880013E+03  0.10100000352E+00 0. -1.
    10030    2    1    2    0    0  0.00000000000E+00  0.00000000000E+00  0.13178402848E+04  0.23041578776E+04  0.18900900794E+04 0.  0.
        4    1    3    3  502    0  0.47647178676E+03  0.14143344180E+03 -0.32095962174E+03  0.59164640937E+03  0.12699999809E+01 0. -1.
       -4    1    3    3    0  502 -0.47647178676E+03 -0.14143344180E+03  0.16387999066E+04  0.17125114682E+04  0.12699999809E+01 0.  1.
</event>
<event>
 5   0  0.2510069E-04  0.1902808E+04  0.7818609E-02  0.8653460E-01
       -1   -1    0    0    0  501  0.00000000000E+00  0.00000000000E+00  0.55495306049E+03  0.55495306051E+03  0.50400001928E-02 0. -1.
        1   -1    0    0  501    0  0.00000000000E+00  0.00000000000E+00 -0.16310746542E+04  0.16310746542E+04  0.50400001928E-02 0.  1.
    10030    2    1    2    0    0  0.00000000000E+00  0.00000000000E+00 -0.10761215937E+04  0.21860277147E+04  0.19028083154E+04 0.  0.
        4    1    3    3  502    0 -0.53154858142E+02  0.28498931380E+03 -0.15790949373E+04  0.16054864627E+04  0.12699999809E+01 0.  1.
       -4    1    3    3    0  502  0.53154858142E+02 -0.28498931380E+03  0.50297334366E+03  0.58054125198E+03  0.12699999809E+01 0. -1.
</event>
<event>
 5   0  0.2317458E-04  0.1898331E+04  0.7818609E-02  0.8655688E-01
       -1   -1    0    0    0  501  0.00000000000E+00  0.00000000000E+00  0.58476184695E+03  0.58476184697E+03  0.50400001928E-02 0.  1.
        1   -1    0    0  501    0  0.00000000000E+00  0.00000000000E+00 -0.15406526890E+04  0.15406526890E+04  0.50400001928E-02 0. -1.
    10030    2    1    2    0    0  0.00000000000E+00  0.00000000000E+00 -0.95589084207E+03  0.21254145360E+04  0.18983307530E+04 0.  0.
        3    1    3    3  502    0  0.14930206722E+03  0.31401527871E+03  0.51089026422E+03  0.61798509271E+03  0.10100000352E+00 0.  1.
       -3    1    3    3    0  502 -0.14930206722E+03 -0.31401527871E+03 -0.14667811063E+04  0.15074294433E+04  0.10100000352E+00 0. -1.
</event>
<event>
 5   0  0.2510069E-04  0.1938173E+04  0.7818609E-02  0.8636085E-01
        1   -1    0    0  501    0  0.00000000000E+00  0.00000000000E+00  0.24559279359E+04  0.24559279359E+04  0.50400001928E-02 0.  1.
       -1   -1    0    0    0  501  0.00000000000E+00  0.00000000000E+00 -0.38239270273E+03  0.38239270276E+03  0.50400001928E-02 0. -1.
    10030    2    1    2    0    0  0.00000000000E+00  0.00000000000E+00  0.20735352332E+04  0.28383206386E+04  0.19381732855E+04 0.  0.
        4    1    3    3  502    0 -0.32313614404E+02 -0.40408955247E+03  0.23257951466E+04  0.23608594225E+04  0.12699999809E+01 0.  1.
       -4    1    3    3    0  502  0.32313614404E+02  0.40408955247E+03 -0.25225991342E+03  0.47746121614E+03  0.12699999809E+01 0. -1.
</event>
<event>
 5   0  0.2510069E-04  0.1824952E+04  0.7818609E-02  0.8693142E-01
       -1   -1    0    0    0  501  0.00000000000E+00  0.00000000000E+00  0.64720640306E+03  0.64720640308E+03  0.50400001928E-02 0.  1.
        1   -1    0    0  501    0  0.00000000000E+00  0.00000000000E+00 -0.12864709270E+04  0.12864709270E+04  0.50400001928E-02 0. -1.
    10030    2    1    2    0    0  0.00000000000E+00  0.00000000000E+00 -0.63926452397E+03  0.19336773301E+04  0.18249517488E+04 0.  0.
        4    1    3    3  502    0  0.23529425802E+03 -0.15875191804E+03 -0.12385032672E+04  0.12706130470E+04  0.12699999809E+01 0. -1.
       -4    1    3    3    0  502 -0.23529425802E+03  0.15875191804E+03  0.59923874323E+03  0.66306428317E+03  0.12699999809E+01 0.  1.
</event>
<event>
 5   0  0.4973411E-04  0.1112559E+04  0.7818609E-02  0.9193037E-01
       -2   -1    0    0    0  501  0.00000000000E+00  0.00000000000E+00  0.47495462348E+03  0.47495462349E+03  0.25500000920E-02 0. -1.
        2   -1    0    0  501    0  0.00000000000E+00  0.00000000000E+00 -0.65152939509E+03  0.65152939510E+03  0.25500000920E-02 0.  1.
    10030    2    1    2    0    0  0.00000000000E+00  0.00000000000E+00 -0.17657477161E+03  0.11264840186E+04  0.11125590295E+04 0.  0.
        1    1    3    3  502    0 -0.13364844726E+03  0.48273505854E+03  0.15671611996E+03  0.52483805738E+03  0.50400001928E-02 0. -1.
       -1    1    3    3    0  502  0.13364844726E+03 -0.48273505854E+03 -0.33329089158E+03  0.60164596120E+03  0.50400001928E-02 0.  1.
</event>
<event>
 5   0  0.4829134E-04  0.1125004E+04  0.7818609E-02  0.9181158E-01
        2   -1    0    0  501    0  0.00000000000E+00  0.00000000000E+00  0.64193557636E+03  0.64193557637E+03  0.25500000920E-02 0. -1.
       -2   -1    0    0    0  501  0.00000000000E+00  0.00000000000E+00 -0.49289793725E+03  0.49289793725E+03  0.25500000920E-02 0.  1.
    10030    2    1    2    0    0  0.00000000000E+00  0.00000000000E+00  0.14903763911E+03  0.11348335136E+04  0.11250043937E+04 0.  0.
        2    1    3    3  502    0  0.40749028769E+03 -0.36822641900E+03 -0.48073607231E+02  0.55131669839E+03  0.25500000920E-02 0. -1.
       -2    1    3    3    0  502 -0.40749028769E+03  0.36822641900E+03  0.19711124634E+03  0.58351681523E+03  0.25500000920E-02 0.  1.
</event>
<event>
 5   0  0.4802635E-04  0.2015871E+04  0.7818609E-02  0.8599236E-01
       -2   -1    0    0    0  501  0.00000000000E+00  0.00000000000E+00  0.97101755885E+03  0.97101755886E+03  0.25500000920E-02 0.  1.
        2   -1    0    0  501    0  0.00000000000E+00  0.00000000000E+00 -0.10462568927E+04  0.10462568927E+04  0.25500000920E-02 0. -1.
    10030    2    1    2    0    0  0.00000000000E+00  0.00000000000E+00 -0.75239333819E+02  0.20172744515E+04  0.20158708430E+04 0.  0.
        3    1    3    3  502    0  0.11080350935E+03 -0.98547240880E+03 -0.21802419035E+03  0.10153658671E+04  0.10100000352E+00 0. -1.
       -3    1    3    3    0  502 -0.11080350935E+03  0.98547240880E+03  0.14278485653E+03  0.10019085845E+04  0.10100000352E+00 0.  1.
</event>
<event>
 5   0  0.4839293E-04  0.1674994E+04  0.7818609E-02  0.8775756E-01
       -2   -1    0    0    0  501  0.00000000000E+00  0.00000000000E+00  0.31531390944E+03  0.31531390945E+03  0.25500000920E-02 0. -1.
        2   -1    0    0  501    0  0.00000000000E+00  0.00000000000E+00 -0.22244530544E+04  0.22244530544E+04  0.25500000920E-02 0.  1.
    10030    2    1    2    0    0  0.00000000000E+00  0.00000000000E+00 -0.19091391449E+04  0.25397669638E+04  0.16749937182E+04 0.  0.
        5    1    3    3  502    0 -0.96996770204E+02  0.39820511098E+03 -0.20619797275E+04  0.21023220901E+04  0.46999998093E+01 0.  1.
       -5    1    3    3    0  502  0.96996770204E+02 -0.39820511098E+03  0.15284058261E+03  0.43744487370E+03  0.46999998093E+01 0. -1.
</event>
<event>
 5   0  0.2355414E-04  0.1832721E+04  0.7818609E-02  0.8689090E-01
       -1   -1    0    0    0  501  0.00000000000E+00  0.00000000000E+00  0.89188755585E+03  0.89188755586E+03  0.50400001928E-02 0. -1.
        1   -1    0    0  501    0  0.00000000000E+00  0.00000000000E+00 -0.94150516890E+03  0.94150516892E+03  0.50400001928E-02 0.  1.
    10030    2    1    2    0    0  0.00000000000E+00  0.00000000000E+00 -0.49617613052E+02  0.18333927248E+04  0.18327211942E+04 0.  0.
        5    1    3    3  502    0 -0.37126467775E+00 -0.29795625231E+03  0.84206314361E+03  0.89323596768E+03  0.46999998093E+01 0. -1.
       -5    1    3    3    0  502  0.37126467775E+00  0.29795625231E+03 -0.89168075666E+03  0.94015675710E+03  0.46999998093E+01 0.  1.
</event>
<event>
 5   0  0.2376359E-04  0.1833429E+04  0.7818609E-02  0.8688722E-01
        1   -1    0    0  501    0  0.00000000000E+00  0.00000000000E+00  0.20312443897E+04  0.20312443898E+04  0.50400001928E-02 0.  1.
       -1   -1    0    0    0  501  0.00000000000E+00  0.00000000000E+00 -0.41371940359E+03  0.41371940362E+03  0.50400001928E-02 0. -1.
    10030    2    1    2    0    0  0.00000000000E+00  0.00000000000E+00  0.16175249862E+04  0.24449637934E+04  0.18334287197E+04 0.  0.
        2    1    3    3  502    0  0.30144141159E+03  0.48428074418E+03  0.17657352143E+04  0.18555903672E+04  0.25500000920E-02 0.  1.
       -2    1    3    3    0  502 -0.30144141159E+03 -0.48428074418E+03 -0.14821022810E+03  0.58937342622E+03  0.25500000920E-02 0. -1.
</event>
<event>
 5   0  0.2355414E-04  0.1815532E+04  0.7818609E-02  0.8698083E-01
       -1   -1    0    0    0  501  0.00000000000E+00  0.00000000000E+00  0.99091596357E+03  0.99091596359E+03  0.50400001928E-02 0.  1.
        1   -1    0    0  501    0  0.00000000000E+00  0.00000000000E+00 -0.83159303935E+03  0.83159303936E+03  0.50400001928E-02 0. -1.
    10030    2    1    2    0    0  0.00000000000E+00  0.00000000000E+00  0.15932292423E+03  0.18225090029E+04  0.18155316774E+04 0.  0.
        5    1    3    3  502    0 -0.54887823327E+03  0.33472455273E+03 -0.56366720090E+03  0.85501499667E+03  0.46999998093E+01 0. -1.
       -5    1    3    3    0  502  0.54887823327E+03 -0.33472455273E+03  0.72299012513E+03  0.96749400628E+03  0.46999998093E+01 0.  1.
</event>
<event>
 5   0  0.4829134E-04  0.1905287E+04  0.7818609E-02  0.8652229E-01
        2   -1    0    0  501    0  0.00000000000E+00  0.00000000000E+00  0.10282302151E+04  0.10282302151E+04  0.25500000920E-02 0. -1.
       -2   -1    0    0    0  501  0.00000000000E+00  0.00000000000E+00 -0.88261311522E+03  0.88261311522E+03  0.25500000920E-02 0.  1.
    10030    2    1    2    0    0  0.00000000000E+00  0.00000000000E+00  0.14561709989E+03  0.19108433303E+04  0.19052868270E+04 0.  0.
        2    1    3    3  502    0  0.77095271535E+03 -0.47979367290E+03 -0.21605820162E+03  0.93340838027E+03  0.25500000920E-02 0. -1.
       -2    1    3    3    0  502 -0.77095271535E+03  0.47979367290E+03  0.36167530151E+03  0.97743495006E+03  0.25500000920E-02 0.  1.
</event>
<event>
 5   0  0.4973411E-04  0.1527309E+04  0.7818609E-02  0.8866493E-01
        2   -1    0    0  501    0  0.00000000000E+00  0.00000000000E+00  0.17297690840E+04  0.17297690840E+04  0.25500000920E-02 0. -1.
       -2   -1    0    0    0  501  0.00000000000E+00  0.00000000000E+00 -0.33713659474E+03  0.33713659475E+03  0.25500000920E-02 0.  1.
    10030    2    1    2    0    0  0.00000000000E+00  0.00000000000E+00  0.13926324893E+04  0.20669056788E+04  0.15273093448E+04 0.  0.
        1    1    3    3  502    0 -0.75391875290E+03  0.93903851246E+02  0.59186613854E+03  0.96307681170E+03  0.50400001928E-02 0.  1.
       -1    1    3    3    0  502  0.75391875290E+03 -0.93903851246E+02  0.80076635073E+03  0.11038288671E+04  0.50400001928E-02 0. -1.
</event>
<event>
 5   0  0.4973411E-04  0.1925179E+04  0.7818609E-02  0.8642424E-01
        2   -1    0    0  501    0  0.00000000000E+00  0.00000000000E+00  0.12516884817E+04  0.12516884817E+04  0.25500000920E-02 0.  1.
       -2   -1    0    0    0  501  0.00000000000E+00  0.00000000000E+00 -0.74026306075E+03  0.74026306075E+03  0.25500000920E-02 0. -1.
    10030    2    1    2    0    0  0.00000000000E+00  0.00000000000E+00  0.51142542098E+03  0.19919515425E+04  0.19251792089E+04 0.  0.
        1    1    3    3  502    0 -0.51358478204E+03  0.27483692987E+03  0.10486302472E+04  0.11995541096E+04  0.50400001928E-02 0.  1.
       -1    1    3    3    0  502  0.51358478204E+03 -0.27483692987E+03 -0.53720482624E+03  0.79239743293E+03  0.50400001928E-02 0. -1.
</event>
<event>
 5   0  0.4802635E-04  0.1942193E+04  0.7818609E-02  0.8634135E-01
       -2   -1    0    0    0  501  0.00000000000E+00  0.00000000000E+00  0.61518705224E+03  0.61518705225E+03  0.25500000920E-02 0. -1.
        2   -1    0    0  501    0  0.00000000000E+00  0.00000000000E+00 -0.15329133178E+04  0.15329133178E+04  0.25500000920E-02 0.  1.
    10030    2    1    2    0    0  0.00000000000E+00  0.00000000000E+00 -0.91772626559E+03  0.21481003701E+04  0.19421930134E+04 0.  0.
        3    1    3    3  502    0  0.37202618412E+03  0.18976180038E+03 -0.14285169717E+04  0.14883123903E+04  0.10100000352E+00 0.  1.
       -3    1    3    3    0  502 -0.37202618412E+03 -0.18976180038E+03  0.51079070612E+03  0.65978797975E+03  0.10100000352E+00 0. -1.
</event>
<event>
 5   0  0.2510069E-04  0.1156249E+04  0.7818609E-02  0.9152038E-01
        1   -1    0    0  501    0  0.00000000000E+00  0.00000000000E+00  0.38536825263E+03  0.38536825266E+03  0.50400001928E-02 0.  1.
       -1   -1    0    0    0  501  0.00000000000E+00  0.00000000000E+00 -0.86729478840E+03  0.86729478842E+03  0.50400001928E-02 0. -1.
    10030    2    1    2    0    0  0.00000000000E+00  0.00000000000E+00 -0.48192653578E+03  0.12526630411E+04  0.11562488956E+04 0.  0.
        4    1    3    3  502    0 -0.38394757323E+01 -0.99918722512E+02  0.37592717044E+03  0.38900044095E+03  0.12699999809E+01 0.  1.
       -4    1    3    3    0  502  0.38394757323E+01  0.99918722512E+02 -0.85785370622E+03  0.86366260013E+03  0.12699999809E+01 0. -1.
</event>
<event>
 5   0  0.4802635E-04  0.1874969E+04  0.7818609E-02  0.8667417E-01
        2   -1    0    0  501    0  0.00000000000E+00  0.00000000000E+00  0.16753868760E+04  0.16753868760E+04  0.25500000920E-02 0. -1.
       -2   -1    0    0    0  501  0.00000000000E+00  0.00000000000E+00 -0.52458185836E+03  0.52458185837E+03  0.25500000920E-02 0.  1.
    10030    2    1    2    0    0  0.00000000000E+00  0.00000000000E+00  0.11508050177E+04  0.21999687344E+04  0.18749693981E+04 0.  0.
        3    1    3    3  502    0  0.49261738240E+03  0.56618849362E+02  0.15089236764E+04  0.15883098724E+04  0.10100000352E+00 0. -1.
       -3    1    3    3    0  502 -0.49261738240E+03 -0.56618849362E+02 -0.35811865869E+03  0.61165886198E+03  0.10100000352E+00 0.  1.
</event>
<event>
 5   0  0.2376359E-04  0.1875977E+04  0.7818609E-02  0.8666907E-01
        1   -1    0    0  501    0  0.00000000000E+00  0.00000000000E+00  0.15092699662E+04  0.15092699663E+04  0.50400001928E-02 0.  1.
       -1   -1    0    0    0  501  0.00000000000E+00  0.00000000000E+00 -0.58294569326E+03  0.58294569328E+03  0.50400001928E-02 0. -1.
    10030    2    1    2    0    0  0.00000000000E+00  0.00000000000E+00  0.92632427299E+03  0.20922156595E+04  0.18759770007E+04 0.  0.
        2    1    3    3  502    0  0.26855085158E+03 -0.46774396643E+03 -0.39270533047E+03  0.66717423107E+03  0.25500000920E-02 0. -1.
       -2    1    3    3    0  502 -0.26855085158E+03  0.46774396643E+03  0.13190296035E+04  0.14250414285E+04  0.25500000920E-02 0.  1.
</event>
<event>
 5   0  0.1729375E-04  0.1843819E+04  0.7818609E-02  0.8683338E-01
        4   -1    0    0  501    0  0.00000000000E+00  0.00000000000E+00  0.48110312522E+03  0.48110480147E+03  0.12699999809E+01 0. -1.
       -4   -1    0    0    0  501  0.00000000000E+00  0.00000000000E+00 -0.17665951150E+04  0.17665955715E+04  0.12699999809E+01 0.  1.
    10030    2    1    2    0    0  0.00000000000E+00  0.00000000000E+00 -0.12854919898E+04  0.22477003730E+04  0.18438186762E+04 0.  0.
        4    1    3    3  502    0 -0.70505273496E+03 -0.24974335962E+03 -0.12997250056E+04  0.14995858788E+04  0.12699999809E+01 0.  1.
       -4    1    3    3    0  502  0.70505273496E+03  0.24974335962E+03  0.14233015839E+02  0.74811449417E+03  0.12699999809E+01 0. -1.
</event>
<event>
 5   0  0.4802635E-04  0.1941740E+04  0.7818609E-02  0.8634354E-01
        2   -1    0    0  501    0  0.00000000000E+00  0.00000000000E+00  0.65562908734E+03  0.65562908735E+03  0.25500000920E-02 0. -1.
       -2   -1    0    0    0  501  0.00000000000E+00  0.00000000000E+00 -0.14376861682E+04  0.14376861682E+04  0.25500000920E-02 0.  1.
    10030    2    1    2    0    0  0.00000000000E+00  0.00000000000E+00 -0.78205708087E+03  0.20933152556E+04  0.19417403229E+04 0.  0.
        3    1    3    3  502    0  0.81232573118E+02  0.18203949345E+03 -0.14153864181E+04  0.14293550401E+04  0.10100000352E+00 0.  1.
       -3    1    3    3    0  502 -0.81232573118E+02 -0.18203949345E+03  0.63332933720E+03  0.66396021542E+03  0.10100000352E+00 0. -1.
</event>
<event>
 5   0  0.2376359E-04  0.1866917E+04  0.7818609E-02  0.8671501E-01
        1   -1    0    0  501    0  0.00000000000E+00  0.00000000000E+00  0.97512315124E+03  0.97512315126E+03  0.50400001928E-02 0. -1.
       -1   -1    0    0    0  501  0.00000000000E+00  0.00000000000E+00 -0.89357396070E+03  0.89357396072E+03  0.50400001928E-02 0.  1.
    10030    2    1    2    0    0  0.00000000000E+00  0.00000000000E+00  0.81549190540E+02  0.18686971120E+04  0.18669168771E+04 0.  0.
        2    1    3    3  502    0 -0.21763378851E+03 -0.83802990149E+03 -0.30839335523E+03  0.91911100703E+03  0.25500000920E-02 0.  1.
       -2    1    3    3    0  502  0.21763378851E+03  0.83802990149E+03  0.38994254577E+03  0.94958610494E+03  0.25500000920E-02 0. -1.
</event>
<event>
 5   0  0.2376359E-04  0.1883732E+04  0.7818609E-02  0.8662997E-01
       -1   -1    0    0    0  501  0.00000000000E+00  0.00000000000E+00  0.99759609810E+03  0.99759609812E+03  0.50400001928E-02 0. -1.
        1   -1    0    0  501    0  0.00000000000E+00  0.00000000000E+00 -0.88924888041E+03  0.88924888043E+03  0.50400001928E-02 0.  1.
    10030    2    1    2    0    0  0.00000000000E+00  0.00000000000E+00  0.10834721769E+03  0.18868449785E+04  0.18837316299E+04 0.  0.
        2    1    3    3  502    0  0.70916374756E+03  0.46178865154E+03  0.46831703268E+03  0.96720360972E+03  0.25500000920E-02 0. -1.
       -2    1    3    3    0  502 -0.70916374756E+03 -0.46178865154E+03 -0.35996981499E+03  0.91964136883E+03  0.25500000920E-02 0.  1.
</event>
<event>
 5   0  0.2355414E-04  0.1881781E+04  0.7818609E-02  0.8663979E-01
       -1   -1    0    0    0  501  0.00000000000E+00  0.00000000000E+00  0.80186321543E+03  0.80186321545E+03  0.50400001928E-02 0.  1.
        1   -1    0    0  501    0  0.00000000000E+00  0.00000000000E+00 -0.11040222897E+04  0.11040222898E+04  0.50400001928E-02 0. -1.
    10030    2    1    2    0    0  0.00000000000E+00  0.00000000000E+00 -0.30215907432E+03  0.19058855052E+04  0.18817809258E+04 0.  0.
        5    1    3    3  502    0  0.25170618293E+03 -0.77153152095E+03 -0.63324053922E+03  0.10293845544E+04  0.46999998093E+01 0.  1.
       -5    1    3    3    0  502 -0.25170618293E+03  0.77153152095E+03  0.33108146490E+03  0.87650095080E+03  0.46999998093E+01 0. -1.
</event>
<event>
 5   0  0.4829134E-04  0.1882231E+04  0.7818609E-02  0.8663752E-01
        2   -1    0    0  501    0  0.00000000000E+00  0.00000000000E+00  0.61156093076E+03  0.61156093076E+03  0.25500000920E-02 0. -1.
       -2   -1    0    0    0  501  0.00000000000E+00  0.00000000000E+00 -0.14482580952E+04  0.14482580952E+04  0.25500000920E-02 0.  1.
    10030    2    1    2    0    0  0.00000000000E+00  0.00000000000E+00 -0.83669716446E+03  0.20598190260E+04  0.18822306646E+04 0.  0.
        2    1    3    3  502    0  0.62055758541E+03  0.69399511162E+03 -0.26759363732E+03  0.96867295126E+03  0.25500000920E-02 0. -1.
       -2    1    3    3    0  502 -0.62055758541E+03 -0.69399511162E+03 -0.56910352715E+03  0.10911460747E+04  0.25500000920E-02 0.  1.
</event>
<event>
 5   0  0.4829134E-04  0.1732810E+04  0.7818609E-02  0.8742870E-01
        2   -1    0    0  501    0  0.00000000000E+00  0.00000000000E+00  0.91794363540E+03  0.91794363541E+03  0.25500000920E-02 0. -1.
       -2   -1    0    0    0  501  0.00000000000E+00  0.00000000000E+00 -0.81776026235E+03  0.81776026235E+03  0.25500000920E-02 0.  1.
    10030    2    1    2    0    0  0.00000000000E+00  0.00000000000E+00  0.10018337305E+03  0.17357038978E+04  0.17328102356E+04 0.  0.
        2    1    3    3  502    0  0.29005753743E+03  0.59492830521E+03 -0.50993476136E+03  0.83552769206E+03  0.25500000920E-02 0. -1.
       -2    1    3    3    0  502 -0.29005753743E+03 -0.59492830521E+03  0.61011813441E+03  0.90017620570E+03  0.25500000920E-02 0.  1.
</event>
<event>
 5   0  0.2317458E-04  0.2040541E+04  0.7818609E-02  0.8587897E-01
        1   -1    0    0  501    0  0.00000000000E+00  0.00000000000E+00  0.69706881685E+03  0.69706881687E+03  0.50400001928E-02 0. -1.
       -1   -1    0    0    0  501  0.00000000000E+00  0.00000000000E+00 -0.14933274543E+04  0.14933274543E+04  0.50400001928E-02 0.  1.
    10030    2    1    2    0    0  0.00000000000E+00  0.00000000000E+00 -0.79625863746E+03  0.21903962712E+04  0.20405411064E+04 0.  0.
        3    1    3    3  502    0 -0.94698982513E+03  0.15366071565E+03 -0.25426981268E+02  0.95971239755E+03  0.10100000352E+00 0. -1.
       -3    1    3    3    0  502  0.94698982513E+03 -0.15366071565E+03 -0.77083165619E+03  0.12306838736E+04  0.10100000352E+00 0.  1.
</event>
<event>
 5   0  0.4761944E-04  0.1870484E+04  0.7818609E-02  0.8669689E-01
       -2   -1    0    0    0  501  0.00000000000E+00  0.00000000000E+00  0.47867395031E+03  0.47867395032E+03  0.25500000920E-02 0.  1.
        2   -1    0    0  501    0  0.00000000000E+00  0.00000000000E+00 -0.18272930212E+04  0.18272930212E+04  0.25500000920E-02 0. -1.
    10030    2    1    2    0    0  0.00000000000E+00  0.00000000000E+00 -0.13486190709E+04  0.23059669715E+04  0.18704839682E+04 0.  0.
        4    1    3    3  502    0  0.41947988050E+03 -0.69851186830E+03 -0.12403245648E+04  0.14840110644E+04  0.12699999809E+01 0. -1.
       -4    1    3    3    0  502 -0.41947988050E+03  0.69851186830E+03 -0.10829450609E+03  0.82195590712E+03  0.12699999809E+01 0.  1.
</event>
<event>
 5   0  0.2261755E-04  0.1894805E+04  0.7818609E-02  0.8657447E-01
        1   -1    0    0  501    0  0.00000000000E+00  0.00000000000E+00  0.10227910694E+04  0.10227910694E+04  0.50400001928E-02 0.  1.
       -1   -1    0    0    0  501  0.00000000000E+00  0.00000000000E+00 -0.87757057189E+03  0.87757057191E+03  0.50400001928E-02 0. -1.
    10030    2    1    2    0    0  0.00000000000E+00  0.00000000000E+00  0.14522049753E+03  0.19003616414E+04  0.18948048382E+04 0.  0.
        1    1    3    3  502    0 -0.61912603983E+03 -0.26743339671E+03 -0.59472343394E+03  0.89918498530E+03  0.50400001928E-02 0. -1.
       -1    1    3    3    0  502  0.61912603983E+03  0.26743339671E+03  0.73994393148E+03  0.10011766561E+04  0.50400001928E-02 0.  1.
</event>
<event>
 5   0  0.4829134E-04  0.1909625E+04  0.7818609E-02  0.8650080E-01
       -2   -1    0    0    0  501  0.00000000000E+00  0.00000000000E+00  0.10547967757E+04  0.10547967757E+04  0.25500000920E-02 0.  1.
        2   -1    0    0  501    0  0.00000000000E+00  0.00000000000E+00 -0.86430553043E+03  0.86430553043E+03  0.25500000920E-02 0. -1.
    10030    2    1    2    0    0  0.00000000000E+00  0.00000000000E+00  0.19049124523E+03  0.19191023061E+04  0.19096247659E+04 0.  0.
        2    1    3    3  502    0 -0.16727969050E+03  0.93294404804E+03  0.21114184960E+03  0.97105508200E+03  0.25500000920E-02 0.  1.
       -2    1    3    3    0  502  0.16727969050E+03 -0.93294404804E+03 -0.20650604373E+02  0.94804722408E+03  0.25500000920E-02 0. -1.
</event>
<event>
 5   0  0.2355414E-04  0.1913033E+04  0.7818609E-02  0.8648396E-01
       -1   -1    0    0    0  501  0.00000000000E+00  0.00000000000E+00  0.61292730336E+03  0.61292730338E+03  0.50400001928E-02 0. -1.
        1   -1    0    0  501    0  0.00000000000E+00  0.00000000000E+00 -0.14927120858E+04  0.14927120858E+04  0.50400001928E-02 0.  1.
    10030    2    1    2    0    0  0.00000000000E+00  0.00000000000E+00 -0.87978478242E+03  0.21056393892E+04  0.19130331868E+04 0.  0.
        5    1    3    3  502    0  0.43537877324E+03 -0.57537811305E+02  0.49538644382E+03  0.66203858999E+03  0.46999998093E+01 0. -1.
       -5    1    3    3    0  502 -0.43537877324E+03  0.57537811305E+02 -0.13751712262E+04  0.14436007992E+04  0.46999998093E+01 0.  1.
</event>
<event>
 5   0  0.4973411E-04  0.1921103E+04  0.7818609E-02  0.8644423E-01
       -2   -1    0    0    0  501  0.00000000000E+00  0.00000000000E+00  0.57777672003E+03  0.57777672003E+03  0.25500000920E-02 0.  1.
        2   -1    0    0  501    0  0.00000000000E+00  0.00000000000E+00 -0.15969129691E+04  0.15969129691E+04  0.25500000920E-02 0. -1.
    10030    2    1    2    0    0  0.00000000000E+00  0.00000000000E+00 -0.10191362491E+04  0.21746896891E+04  0.19211029514E+04 0.  0.
        1    1    3    3  502    0 -0.92981980231E+03 -0.50446843670E+02 -0.77636841492E+03  0.12123768657E+04  0.50400001928E-02 0. -1.
       -1    1    3    3    0  502  0.92981980231E+03  0.50446843670E+02 -0.24276783417E+03  0.96231282343E+03  0.50400001928E-02 0.  1.
</event>
<event>
 5   0  0.1729375E-04  0.1847451E+04  0.7818609E-02  0.8681465E-01
        4   -1    0    0  501    0  0.00000000000E+00  0.00000000000E+00  0.10215236275E+04  0.10215244170E+04  0.12699999809E+01 0. -1.
       -4   -1    0    0    0  501  0.00000000000E+00  0.00000000000E+00 -0.83528847314E+03  0.83528943862E+03  0.12699999809E+01 0.  1.
    10030    2    1    2    0    0  0.00000000000E+00  0.00000000000E+00  0.18623515437E+03  0.18568138556E+04  0.18474507197E+04 0.  0.
        4    1    3    3  502    0  0.50779139401E+03  0.19072177112E+03 -0.65836161595E+03  0.85303489030E+03  0.12699999809E+01 0.  1.
       -4    1    3    3    0  502 -0.50779139401E+03 -0.19072177112E+03  0.84459677032E+03  0.10037789653E+04  0.12699999809E+01 0. -1.
</event>
<event>
 5   0  0.2261755E-04  0.1912856E+04  0.7818609E-02  0.8648483E-01
       -1   -1    0    0    0  501  0.00000000000E+00  0.00000000000E+00  0.82941455724E+03  0.82941455725E+03  0.50400001928E-02 0. -1.
        1   -1    0    0  501    0  0.00000000000E+00  0.00000000000E+00 -0.11028918292E+04  0.11028918292E+04  0.50400001928E-02 0.  1.
    10030    2    1    2    0    0  0.00000000000E+00  0.00000000000E+00 -0.27347727192E+03  0.19323063864E+04  0.19128560199E+04 0.  0.
        1    1    3    3  502    0 -0.37179988896E+03 -0.40626295766E+03 -0.92665518015E+03  0.10779492433E+04  0.50400001928E-02 0.  1.
       -1    1    3    3    0  502  0.37179988896E+03  0.40626295766E+03  0.65317790822E+03  0.85435714313E+03  0.50400001928E-02 0. -1.
</event>
<event>
 5   0  0.2510069E-04  0.1607481E+04  0.7818609E-02  0.8815965E-01
        1   -1    0    0  501    0  0.00000000000E+00  0.00000000000E+00  0.17030247489E+04  0.17030247489E+04  0.50400001928E-02 0. -1.
       -1   -1    0    0    0  501  0.00000000000E+00  0.00000000000E+00 -0.37932452992E+03  0.37932452995E+03  0.50400001928E-02 0.  1.
    10030    2    1    2    0    0  0.00000000000E+00  0.00000000000E+00  0.13237002190E+04  0.20823492789E+04  0.16074813372E+04 0.  0.
        4    1    3    3  502    0  0.72021649297E+03  0.20634391629E+03  0.28482572159E+03  0.80150914724E+03  0.12699999809E+01 0.  1.
       -4    1    3    3    0  502 -0.72021649297E+03 -0.20634391629E+03  0.10388744974E+04  0.12808401316E+04  0.12699999809E+01 0. -1.
</event>
<event>
 5   0  0.2510069E-04  0.1146028E+04  0.7818609E-02  0.9161456E-01
        1   -1    0    0  501    0  0.00000000000E+00  0.00000000000E+00  0.89962618308E+03  0.89962618309E+03  0.50400001928E-02 0.  1.
       -1   -1    0    0    0  501  0.00000000000E+00  0.00000000000E+00 -0.36497938321E+03  0.36497938324E+03  0.50400001928E-02 0. -1.
    10030    2    1    2    0    0  0.00000000000E+00  0.00000000000E+00  0.53464679987E+03  0.12646055663E+04  0.11460279394E+04 0.  0.
        4    1    3    3  502    0  0.13635449770E+02 -0.46104039687E+03  0.64250138098E+03  0.79091959800E+03  0.12699999809E+01 0.  1.
       -4    1    3    3    0  502 -0.13635449770E+02  0.46104039687E+03 -0.10785458111E+03  0.47368596834E+03  0.12699999809E+01 0. -1.
</event>
<event>
 5   0  0.4829134E-04  0.1853468E+04  0.7818609E-02  0.8678371E-01
       -2   -1    0    0    0  501  0.00000000000E+00  0.00000000000E+00  0.10662032571E+04  0.10662032571E+04  0.25500000920E-02 0. -1.
        2   -1    0    0  501    0  0.00000000000E+00  0.00000000000E+00 -0.80550891835E+03  0.80550891835E+03  0.25500000920E-02 0.  1.
    10030    2    1    2    0    0  0.00000000000E+00  0.00000000000E+00  0.26069433872E+03  0.18717121754E+04  0.18534683513E+04 0.  0.
        2    1    3    3  502    0 -0.86215296298E+03  0.32596086131E+03  0.33076593302E+02  0.92230812407E+03  0.25500000920E-02 0. -1.
       -2    1    3    3    0  502  0.86215296298E+03 -0.32596086131E+03  0.22761774541E+03  0.94940405135E+03  0.25500000920E-02 0.  1.
</event>
<event>
 5   0  0.4829134E-04  0.1901066E+04  0.7818609E-02  0.8654326E-01
       -2   -1    0    0    0  501  0.00000000000E+00  0.00000000000E+00  0.52407721645E+03  0.52407721646E+03  0.25500000920E-02 0. -1.
        2   -1    0    0  501    0  0.00000000000E+00  0.00000000000E+00 -0.17240070114E+04  0.17240070114E+04  0.25500000920E-02 0.  1.
    10030    2    1    2    0    0  0.00000000000E+00  0.00000000000E+00 -0.11999297950E+04  0.22480842279E+04  0.19010658018E+04 0.  0.
        2    1    3    3  502    0 -0.33668068697E+01 -0.56937552756E+03 -0.15000261272E+04  0.16044557361E+04  0.25500000920E-02 0.  1.
       -2    1    3    3    0  502  0.33668068697E+01  0.56937552756E+03  0.30009633226E+03  0.64362849177E+03  0.25500000920E-02 0. -1.
</event>
<event>
 5   0  0.4761944E-04  0.1887902E+04  0.7818609E-02  0.8660902E-01
       -2   -1    0    0    0  501  0.00000000000E+00  0.00000000000E+00  0.47988150544E+03  0.47988150545E+03  0.25500000920E-02 0. -1.
        2   -1    0    0  501    0  0.00000000000E+00  0.00000000000E+00 -0.18567982583E+04  0.18567982583E+04  0.25500000920E-02 0.  1.
    10030    2    1    2    0    0  0.00000000000E+00  0.00000000000E+00 -0.13769167529E+04  0.23366797638E+04  0.18879016325E+04 0.  0.
        4    1    3    3  502    0  0.34808180654E+03 -0.87239263340E+03 -0.80464314247E+03  0.12368031575E+04  0.12699999809E+01 0. -1.
       -4    1    3    3    0  502 -0.34808180654E+03  0.87239263340E+03 -0.57227361040E+03  0.10998766062E+04  0.12699999809E+01 0.  1.
</event>
<event>
 5   0  0.4839293E-04  0.1863465E+04  0.7818609E-02  0.8673259E-01
        2   -1    0    0  501    0  0.00000000000E+00  0.00000000000E+00  0.69314953863E+03  0.69314953863E+03  0.25500000920E-02 0.  1.
       -2   -1    0    0    0  501  0.00000000000E+00  0.00000000000E+00 -0.12524357758E+04  0.12524357758E+04  0.25500000920E-02 0. -1.
    10030    2    1    2    0    0  0.00000000000E+00  0.00000000000E+00 -0.55928623714E+03  0.19455853144E+04  0.18634648160E+04 0.  0.
        5    1    3    3  502    0  0.73928253923E+03  0.56705245286E+03 -0.27546253311E+03  0.97159088831E+03  0.46999998093E+01 0.  1.
       -5    1    3    3    0  502 -0.73928253923E+03 -0.56705245286E+03 -0.28382370403E+03  0.97399442610E+03  0.46999998093E+01 0. -1.
</event>
<event>
 5   0  0.4829134E-04  0.1625382E+04  0.7818609E-02  0.8805105E-01
        2   -1    0    0  501    0  0.00000000000E+00  0.00000000000E+00  0.10234500371E+04  0.10234500371E+04  0.25500000920E-02 0.  1.
       -2   -1    0    0    0  501  0.00000000000E+00  0.00000000000E+00 -0.64533325266E+03  0.64533325266E+03  0.25500000920E-02 0. -1.
    10030    2    1    2    0    0  0.00000000000E+00  0.00000000000E+00  0.37811678447E+03  0.16687832898E+04  0.16253816061E+04 0.  0.
        2    1    3    3  502    0 -0.39420436785E+03  0.34286637090E+03 -0.45006855483E+03  0.68957678034E+03  0.25500000920E-02 0. -1.
       -2    1    3    3    0  502  0.39420436785E+03 -0.34286637090E+03  0.82818533930E+03  0.97920650946E+03  0.25500000920E-02 0.  1.
</event>
<event>
 5   0  0.4973411E-04  0.1883446E+04  0.7818609E-02  0.8663140E-01
        2   -1    0    0  501    0  0.00000000000E+00  0.00000000000E+00  0.29251476657E+04  0.29251476657E+04  0.25500000920E-02 0. -1.
       -2   -1    0    0    0  501  0.00000000000E+00  0.00000000000E+00 -0.30317861843E+03  0.30317861844E+03  0.25500000920E-02 0.  1.
    10030    2    1    2    0    0  0.00000000000E+00  0.00000000000E+00  0.26219690473E+04  0.32283262842E+04  0.18834460205E+04 0.  0.
        1    1    3    3  502    0 -0.26959911124E+03 -0.32842055798E+02 -0.23459326949E+03  0.35888199108E+03  0.50400001928E-02 0.  1.
       -1    1    3    3    0  502  0.26959911124E+03  0.32842055798E+02  0.28565623168E+04  0.28694442931E+04  0.50400001928E-02 0. -1.
</event>
<event>
 5   0  0.4761944E-04  0.1732776E+04  0.7818609E-02  0.8742889E-01
        2   -1    0    0  501    0  0.00000000000E+00  0.00000000000E+00  0.11313217959E+04  0.11313217960E+04  0.25500000920E-02 0. -1.
       -2   -1    0    0    0  501  0.00000000000E+00  0.00000000000E+00 -0.66349650687E+03  0.66349650687E+03  0.25500000920E-02 0.  1.
    10030    2    1    2    0    0  0.00000000000E+00  0.00000000000E+00  0.46782528908E+03  0.17948183028E+04  0.17327758768E+04 0.  0.
        4    1    3    3  502    0 -0.47471574172E+03 -0.10338060451E+03  0.97694235138E+03  0.10910822864E+04  0.12699999809E+01 0. -1.
       -4    1    3    3    0  502  0.47471574172E+03  0.10338060451E+03 -0.50911706230E+03  0.70373601645E+03  0.12699999809E+01 0.  1.
</event>
<event>
 5   0  0.4761944E-04  0.1873223E+04  0.7818609E-02  0.8668301E-01
        2   -1    0    0  501    0  0.00000000000E+00  0.00000000000E+00  0.83837457460E+03  0.83837457460E+03  0.25500000920E-02 0. -1.
       -2   -1    0    0    0  501  0.00000000000E+00  0.00000000000E+00 -0.10463591636E+04  0.10463591636E+04  0.25500000920E-02 0.  1.
    10030    2    1    2    0    0  0.00000000000E+00  0.00000000000E+00 -0.20798458905E+03  0.18847337382E+04  0.18732228044E+04 0.  0.
        4    1    3    3  502    0  0.54202450236E+03  0.85735326527E+02  0.65968315147E+03  0.85809357334E+03  0.12699999809E+01 0. -1.
       -4    1    3    3    0  502 -0.54202450236E+03 -0.85735326527E+02 -0.86766774052E+03  0.10266401649E+04  0.12699999809E+01 0.  1.
</event>
<event>
 5   0  0.4839293E-04  0.2031815E+04  0.7818609E-02  0.8591889E-01
       -2   -1    0    0    0  501  0.00000000000E+00  0.00000000000E+00  0.47651350118E+03  0.47651350119E+03  0.25500000920E-02 0. -1.
        2   -1    0    0  501    0  0.00000000000E+00  0.00000000000E+00 -0.21658741217E+04  0.21658741217E+04  0.25500000920E-02 0.  1.
    10030    2    1    2    0    0  0.00000000000E+00  0.00000000000E+00 -0.16893606205E+04  0.26423876229E+04  0.20318152090E+04 0.  0.
        5    1    3    3  502    0  0.79981434977E+03 -0.54772727351E+03 -0.12398672435E+04  0.15738491134E+04  0.46999998093E+01 0. -1.
       -5    1    3    3    0  502 -0.79981434977E+03  0.54772727351E+03 -0.44949337699E+03  0.10685385095E+04  0.46999998093E+01 0.  1.
</event>
<event>
 5   0  0.2510069E-04  0.1918220E+04  0.7818609E-02  0.8645840E-01
       -1   -1    0    0    0  501  0.00000000000E+00  0.00000000000E+00  0.50871486283E+03  0.50871486286E+03  0.50400001928E-02 0. -1.
        1   -1    0    0  501    0  0.00000000000E+00  0.00000000000E+00 -0.18082671875E+04  0.18082671875E+04  0.50400001928E-02 0.  1.
    10030    2    1    2    0    0  0.00000000000E+00  0.00000000000E+00 -0.12995523247E+04  0.23169820504E+04  0.19182204194E+04 0.  0.
        4    1    3    3  502    0 -0.63672756035E+03  0.66776615228E+03 -0.33351157019E+03  0.98110407225E+03  0.12699999809E+01 0. -1.
       -4    1    3    3    0  502  0.63672756035E+03 -0.66776615228E+03 -0.96604075451E+03  0.13358779782E+04  0.12699999809E+01 0.  1.
</event>
<event>
 5   0  0.4839293E-04  0.1838632E+04  0.7818609E-02  0.8686021E-01
       -2   -1    0    0    0  501  0.00000000000E+00  0.00000000000E+00  0.65043800296E+03  0.65043800296E+03  0.25500000920E-02 0.  1.
        2   -1    0    0  501    0  0.00000000000E+00  0.00000000000E+00 -0.12993423227E+04  0.12993423227E+04  0.25500000920E-02 0. -1.
    10030    2    1    2    0    0  0.00000000000E+00  0.00000000000E+00 -0.64890431973E+03  0.19497803256E+04  0.18386316929E+04 0.  0.
        5    1    3    3  502    0 -0.40029048693E+03 -0.43260008773E+03 -0.10726114226E+04  0.12238842526E+04  0.46999998093E+01 0. -1.
       -5    1    3    3    0  502  0.40029048693E+03  0.43260008773E+03  0.42370710289E+03  0.72589607305E+03  0.46999998093E+01 0.  1.
</event>
<event>
 5   0  0.4802635E-04  0.1949237E+04  0.7818609E-02  0.8630729E-01
       -2   -1    0    0    0  501  0.00000000000E+00  0.00000000000E+00  0.75052263965E+03  0.75052263966E+03  0.25500000920E-02 0.  1.
        2   -1    0    0  501    0  0.00000000000E+00  0.00000000000E+00 -0.12656268790E+04  0.12656268790E+04  0.25500000920E-02 0. -1.
    10030    2    1    2    0    0  0.00000000000E+00  0.00000000000E+00 -0.51510423933E+03  0.20161495186E+04  0.19492374161E+04 0.  0.
        3    1    3    3  502    0  0.82430471896E+03  0.46324052842E+03 -0.50190646930E+03  0.10705046338E+04  0.10100000352E+00 0.  1.
       -3    1    3    3    0  502 -0.82430471896E+03 -0.46324052842E+03 -0.13197770023E+02  0.94564488483E+03  0.10100000352E+00 0. -1.
</event>
<event>
 5   0  0.1729375E-04  0.1925176E+04  0.7818609E-02  0.8642425E-01
        4   -1    0    0  501    0  0.00000000000E+00  0.00000000000E+00  0.84080918640E+03  0.84081014554E+03  0.12699999809E+01 0.  1.
       -4   -1    0    0    0  501  0.00000000000E+00  0.00000000000E+00 -0.11020023867E+04  0.11020031185E+04  0.12699999809E+01 0. -1.
    10030    2    1    2    0    0  0.00000000000E+00  0.00000000000E+00 -0.26119320026E+03  0.19428132640E+04  0.19251757039E+04 0.  0.
        5    1    3    3  502    0 -0.41540478779E+03 -0.19593056225E+03  0.72308687173E+03  0.85663681745E+03  0.46999998093E+01 0.  1.
       -5    1    3    3    0  502  0.41540478779E+03  0.19593056225E+03 -0.98428007199E+03  0.10861764466E+04  0.46999998093E+01 0. -1.
</event>
<event>
 5   0  0.2261755E-04  0.1866023E+04  0.7818609E-02  0.8671956E-01
       -1   -1    0    0    0  501  0.00000000000E+00  0.00000000000E+00  0.91260476759E+03  0.91260476760E+03  0.50400001928E-02 0.  1.
        1   -1    0    0  501    0  0.00000000000E+00  0.00000000000E+00 -0.95387492781E+03  0.95387492783E+03  0.50400001928E-02 0. -1.
    10030    2    1    2    0    0  0.00000000000E+00  0.00000000000E+00 -0.41270160224E+02  0.18664796954E+04  0.18660233727E+04 0.  0.
        1    1    3    3  502    0  0.83231504318E+03  0.26090259883E+03  0.31064420559E+03  0.92591485552E+03  0.50400001928E-02 0.  1.
       -1    1    3    3    0  502 -0.83231504318E+03 -0.26090259883E+03 -0.35191436581E+03  0.94056483991E+03  0.50400001928E-02 0. -1.
</event>
<event>
 5   0  0.2355414E-04  0.1402485E+04  0.7818609E-02  0.8952021E-01
       -1   -1    0    0    0  501  0.00000000000E+00  0.00000000000E+00  0.41920585177E+03  0.41920585181E+03  0.50400001928E-02 0.  1.
        1   -1    0    0  501    0  0.00000000000E+00  0.00000000000E+00 -0.11730308183E+04  0.11730308183E+04  0.50400001928E-02 0. -1.
    10030    2    1    2    0    0  0.00000000000E+00  0.00000000000E+00 -0.75382496651E+03  0.15922366701E+04  0.14024854842E+04 0.  0.
        5    1    3    3  502    0 -0.55816960357E+03 -0.23847635863E+03 -0.77555351926E+03  0.98485005519E+03  0.46999998093E+01 0. -1.
       -5    1    3    3    0  502  0.55816960357E+03  0.23847635863E+03  0.21728552746E+02  0.60738661491E+03  0.46999998093E+01 0.  1.
</event>
<event>
 5   0  0.2355414E-04  0.1886570E+04  0.7818609E-02  0.8661570E-01
        1   -1    0    0  501    0  0.00000000000E+00  0.00000000000E+00  0.77528962408E+03  0.77528962410E+03  0.50400001928E-02 0. -1.
       -1   -1    0    0    0  501  0.00000000000E+00  0.00000000000E+00 -0.11476834372E+04  0.11476834372E+04  0.50400001928E-02 0.  1.
    10030    2    1    2    0    0  0.00000000000E+00  0.00000000000E+00 -0.37239381308E+03  0.19229730613E+04  0.18865704976E+04 0.  0.
        5    1    3    3  502    0 -0.18745783372E+01 -0.33971007933E+03 -0.10831530356E+04  0.11351867867E+04  0.46999998093E+01 0.  1.
       -5    1    3    3    0  502  0.18745783372E+01  0.33971007933E+03  0.71075922254E+03  0.78778627461E+03  0.46999998093E+01 0. -1.
</event>
<event>
 5   0  0.4973411E-04  0.1876406E+04  0.7818609E-02  0.8666690E-01
        2   -1    0    0  501    0  0.00000000000E+00  0.00000000000E+00  0.83555729234E+03  0.83555729235E+03  0.25500000920E-02 0. -1.
       -2   -1    0    0    0  501  0.00000000000E+00  0.00000000000E+00 -0.10534586869E+04  0.10534586869E+04  0.25500000920E-02 0.  1.
    10030    2    1    2    0    0  0.00000000000E+00  0.00000000000E+00 -0.21790139455E+03  0.18890159792E+04  0.18764062332E+04 0.  0.
        1    1    3    3  502    0  0.20248741967E+02 -0.46426165774E+03 -0.92945924100E+03  0.10391551275E+04  0.50400001928E-02 0.  1.
       -1    1    3    3    0  502 -0.20248741967E+02  0.46426165774E+03  0.71155784644E+03  0.84986085170E+03  0.50400001928E-02 0. -1.
</event>
<event>
 5   0  0.4973411E-04  0.1951965E+04  0.7818609E-02  0.8629414E-01
       -2   -1    0    0    0  501  0.00000000000E+00  0.00000000000E+00  0.97358275133E+03  0.97358275133E+03  0.25500000920E-02 0.  1.
        2   -1    0    0  501    0  0.00000000000E+00  0.00000000000E+00 -0.97838770101E+03  0.97838770101E+03  0.25500000920E-02 0. -1.
    10030    2    1    2    0    0  0.00000000000E+00  0.00000000000E+00 -0.48049496760E+01  0.19519704523E+04  0.19519645384E+04 0.  0.
        1    1    3    3  502    0  0.26470045678E+03  0.21947516702E+03 -0.91580860821E+03  0.97823365698E+03  0.50400001928E-02 0. -1.
       -1    1    3    3    0  502 -0.26470045678E+03 -0.21947516702E+03  0.91100365853E+03  0.97373679536E+03  0.50400001928E-02 0.  1.
</event>
<event>
 5   0  0.2261755E-04  0.1342895E+04  0.7818609E-02  0.8996224E-01
       -1   -1    0    0    0  501  0.00000000000E+00  0.00000000000E+00  0.21844459406E+03  0.21844459412E+03  0.50400001928E-02 0.  1.
        1   -1    0    0  501    0  0.00000000000E+00  0.00000000000E+00 -0.20638713980E+04  0.20638713980E+04  0.50400001928E-02 0. -1.
    10030    2    1    2    0    0  0.00000000000E+00  0.00000000000E+00 -0.18454268039E+04  0.22823159921E+04  0.13428947089E+04 0.  0.
        1    1    3    3  502    0 -0.22162086914E+03 -0.44255454215E+03 -0.16938505536E+04  0.17646812830E+04  0.50400001928E-02 0. -1.
       -1    1    3    3    0  502  0.22162086914E+03  0.44255454215E+03 -0.15157625028E+03  0.51763470913E+03  0.50400001928E-02 0.  1.
</event>
<event>
 5   0  0.4829134E-04  0.2110128E+04  0.7818609E-02  0.8556795E-01
       -2   -1    0    0    0  501  0.00000000000E+00  0.00000000000E+00  0.13288136838E+04  0.13288136838E+04  0.25500000920E-02 0.  1.
        2   -1    0    0  501    0  0.00000000000E+00  0.00000000000E+00 -0.83770971320E+03  0.83770971320E+03  0.25500000920E-02 0. -1.
    10030    2    1    2    0    0  0.00000000000E+00  0.00000000000E+00  0.49110397063E+03  0.21665233970E+04  0.21101280814E+04 0.  0.
        2    1    3    3  502    0 -0.44014312975E+02 -0.30346755035E+03 -0.79094830194E+03  0.84830951322E+03  0.25500000920E-02 0. -1.
       -2    1    3    3    0  502  0.44014312975E+02  0.30346755035E+03  0.12820522726E+04  0.13182138838E+04  0.25500000920E-02 0.  1.
</event>
<event>
 5   0  0.1729375E-04  0.1885960E+04  0.7818609E-02  0.8661877E-01
        3   -1    0    0  501    0  0.00000000000E+00  0.00000000000E+00  0.94250669931E+03  0.94250670472E+03  0.10100000352E+00 0.  1.
       -3   -1    0    0    0  501  0.00000000000E+00  0.00000000000E+00 -0.94345346857E+03  0.94345347398E+03  0.10100000352E+00 0. -1.
    10030    2    1    2    0    0  0.00000000000E+00  0.00000000000E+00 -0.94676926576E+00  0.18859601787E+04  0.18859599411E+04 0.  0.
        3    1    3    3  502    0  0.43975743316E+03  0.83233878118E+03  0.54633499626E+02  0.94295242519E+03  0.10100000352E+00 0.  1.
       -3    1    3    3    0  502 -0.43975743316E+03 -0.83233878118E+03 -0.55580268892E+02  0.94300775351E+03  0.10100000352E+00 0. -1.
</event>
<event>
 5   0  0.4839293E-04  0.1890240E+04  0.7818609E-02  0.8659730E-01
       -2   -1    0    0    0  501  0.00000000000E+00  0.00000000000E+00  0.47791941457E+03  0.47791941457E+03  0.25500000920E-02 0. -1.
        2   -1    0    0  501    0  0.00000000000E+00  0.00000000000E+00 -0.18690426194E+04  0.18690426194E+04  0.25500000920E-02 0.  1.
    10030    2    1    2    0    0  0.00000000000E+00  0.00000000000E+00 -0.13911232048E+04  0.23469620339E+04  0.18902399366E+04 0.  0.
        5    1    3    3  502    0  0.23805626944E+03 -0.16477717104E+03 -0.18126118378E+04  0.18355942003E+04  0.46999998093E+01 0.  1.
       -5    1    3    3    0  502 -0.23805626944E+03  0.16477717104E+03  0.42148863303E+03  0.51136783365E+03  0.46999998093E+01 0. -1.
</event>
<event>
 5   0  0.4839293E-04  0.1802261E+04  0.7818609E-02  0.8705098E-01
       -2   -1    0    0    0  501  0.00000000000E+00  0.00000000000E+00  0.10532099558E+04  0.10532099558E+04  0.25500000920E-02 0. -1.
        2   -1    0    0  501    0  0.00000000000E+00  0.00000000000E+00 -0.77101058228E+03  0.77101058228E+03  0.25500000920E-02 0.  1.
    10030    2    1    2    0    0  0.00000000000E+00  0.00000000000E+00  0.28219937355E+03  0.18242205381E+04  0.18022608261E+04 0.  0.
        5    1    3    3  502    0  0.22018617160E+03 -0.29861164143E+03  0.97230170129E+03  0.10406937834E+04  0.46999998093E+01 0. -1.
       -5    1    3    3    0  502 -0.22018617160E+03  0.29861164143E+03 -0.69010232773E+03  0.78352675468E+03  0.46999998093E+01 0.  1.
</event>
<event>
 5   0  0.2261755E-04  0.2326267E+04  0.7818609E-02  0.8467636E-01
       -1   -1    0    0    0  501  0.00000000000E+00  0.00000000000E+00  0.93809561178E+03  0.93809561180E+03  0.50400001928E-02 0.  1.
        1   -1    0    0  501    0  0.00000000000E+00  0.00000000000E+00 -0.14421549759E+04  0.14421549759E+04  0.50400001928E-02 0. -1.
    10030    2    1    2    0    0  0.00000000000E+00  0.00000000000E+00 -0.50405936409E+03  0.23802505877E+04  0.23262667555E+04 0.  0.
        1    1    3    3  502    0 -0.86428373628E+03  0.77205514510E+03 -0.15061487073E+03  0.11686489478E+04  0.50400001928E-02 0. -1.
       -1    1    3    3    0  502  0.86428373628E+03 -0.77205514510E+03 -0.35344449335E+03  0.12116016399E+04  0.50400001928E-02 0.  1.
</event>
<event>
 5   0  0.2510069E-04  0.1843959E+04  0.7818609E-02  0.8683266E-01
       -1   -1    0    0    0  501  0.00000000000E+00  0.00000000000E+00  0.66609801080E+03  0.66609801082E+03  0.50400001928E-02 0. -1.
        1   -1    0    0  501    0  0.00000000000E+00  0.00000000000E+00 -0.12761580390E+04  0.12761580391E+04  0.50400001928E-02 0.  1.
    10030    2    1    2    0    0  0.00000000000E+00  0.00000000000E+00 -0.61006002825E+03  0.19422560499E+04  0.18439591441E+04 0.  0.
        4    1    3    3  502    0  0.62862005237E+03 -0.67430874497E+03 -0.29053929613E+03  0.96657650979E+03  0.12699999809E+01 0.  1.
       -4    1    3    3    0  502 -0.62862005237E+03  0.67430874497E+03 -0.31952073212E+03  0.97567954008E+03  0.12699999809E+01 0. -1.
</event>
<event>
 5   0  0.4802635E-04  0.1873098E+04  0.7818609E-02  0.8668364E-01
        2   -1    0    0  501    0  0.00000000000E+00  0.00000000000E+00  0.18703494061E+04  0.18703494061E+04  0.25500000920E-02 0. -1.
       -2   -1    0    0    0  501  0.00000000000E+00  0.00000000000E+00 -0.46896281521E+03  0.46896281522E+03  0.25500000920E-02 0.  1.
    10030    2    1    2    0    0  0.00000000000E+00  0.00000000000E+00  0.14013865909E+04  0.23393122213E+04  0.18730983134E+04 0.  0.
        3    1    3    3  502    0 -0.74825685694E+03 -0.40991907885E+03  0.21828426324E+03  0.88066452463E+03  0.10100000352E+00 0.  1.
       -3    1    3    3    0  502  0.74825685694E+03  0.40991907885E+03  0.11831023277E+04  0.14586476967E+04  0.10100000352E+00 0. -1.
</event>
<event>
 5   0  0.4973411E-04  0.1841605E+04  0.7818609E-02  0.8684482E-01
        2   -1    0    0  501    0  0.00000000000E+00  0.00000000000E+00  0.10213800006E+04  0.10213800006E+04  0.25500000920E-02 0. -1.
       -2   -1    0    0    0  501  0.00000000000E+00  0.00000000000E+00 -0.83012953345E+03  0.83012953345E+03  0.25500000920E-02 0.  1.
    10030    2    1    2    0    0  0.00000000000E+00  0.00000000000E+00  0.19125046715E+03  0.18515095340E+04  0.18416054989E+04 0.  0.
        1    1    3    3  502    0  0.35256638560E+03  0.52382310890E+03 -0.57819102772E+03  0.85615335673E+03  0.50400001928E-02 0.  1.
       -1    1    3    3    0  502 -0.35256638560E+03 -0.52382310890E+03  0.76944149487E+03  0.99535617732E+03  0.50400001928E-02 0. -1.
</event>
<event>
 5   0  0.4839293E-04  0.1920842E+04  0.7818609E-02  0.8644551E-01
        2   -1    0    0  501    0  0.00000000000E+00  0.00000000000E+00  0.17562038311E+04  0.17562038311E+04  0.25500000920E-02 0. -1.
       -2   -1    0    0    0  501  0.00000000000E+00  0.00000000000E+00 -0.52522877432E+03  0.52522877433E+03  0.25500000920E-02 0.  1.
    10030    2    1    2    0    0  0.00000000000E+00  0.00000000000E+00  0.12309750568E+04  0.22814326054E+04  0.19208423003E+04 0.  0.
        5    1    3    3  502    0 -0.16707282551E+03  0.69779475399E+03  0.13737324277E+04  0.15498366755E+04  0.46999998093E+01 0. -1.
       -5    1    3    3    0  502  0.16707282551E+03 -0.69779475399E+03 -0.14275737096E+03  0.73159592992E+03  0.46999998093E+01 0.  1.
</event>
<event>
 5   0  0.2376359E-04  0.1324720E+04  0.7818609E-02  0.9010189E-01
        1   -1    0    0  501    0  0.00000000000E+00  0.00000000000E+00  0.91541163095E+03  0.91541163097E+03  0.50400001928E-02 0.  1.
       -1   -1    0    0    0  501  0.00000000000E+00  0.00000000000E+00 -0.47926048738E+03  0.47926048741E+03  0.50400001928E-02 0. -1.
    10030    2    1    2    0    0  0.00000000000E+00  0.00000000000E+00  0.43615114358E+03  0.13946721184E+04  0.13247197808E+04 0.  0.
        2    1    3    3  502    0 -0.36147720464E+03 -0.46738372095E+03  0.53322739447E+03  0.79589243387E+03  0.25500000920E-02 0.  1.
       -2    1    3    3    0  502  0.36147720464E+03  0.46738372095E+03 -0.97076250895E+02  0.59877968450E+03  0.25500000920E-02 0. -1.
</event>
<event>
 5   0  0.4802635E-04  0.2019901E+04  0.7818609E-02  0.8597372E-01
       -2   -1    0    0    0  501  0.00000000000E+00  0.00000000000E+00  0.67346610359E+03  0.67346610359E+03  0.25500000920E-02 0. -1.
        2   -1    0    0  501    0  0.00000000000E+00  0.00000000000E+00 -0.15145528186E+04  0.15145528186E+04  0.25500000920E-02 0.  1.
    10030    2    1    2    0    0  0.00000000000E+00  0.00000000000E+00 -0.84108671503E+03  0.21880189222E+04  0.20199009733E+04 0.  0.
        3    1    3    3  502    0 -0.68485019106E+03 -0.58673430578E+03  0.71967084045E+02  0.90468569192E+03  0.10100000352E+00 0. -1.
       -3    1    3    3    0  502  0.68485019106E+03  0.58673430578E+03 -0.91305379907E+03  0.12833332303E+04  0.10100000352E+00 0.  1.
</event>
<event>
 5   0  0.4761944E-04  0.1923902E+04  0.7818609E-02  0.8643049E-01
        2   -1    0    0  501    0  0.00000000000E+00  0.00000000000E+00  0.70591725491E+03  0.70591725491E+03  0.25500000920E-02 0.  1.
       -2   -1    0    0    0  501  0.00000000000E+00  0.00000000000E+00 -0.13108472255E+04  0.13108472255E+04  0.25500000920E-02 0. -1.
    10030    2    1    2    0    0  0.00000000000E+00  0.00000000000E+00 -0.60492997061E+03  0.20167644804E+04  0.19239019466E+04 0.  0.
        4    1    3    3  502    0  0.93665198851E+03  0.39760768439E+02 -0.76539083412E+02  0.94061560186E+03  0.12699999809E+01 0.  1.
       -4    1    3    3    0  502 -0.93665198851E+03 -0.39760768439E+02 -0.52839088720E+03  0.10761488786E+04  0.12699999809E+01 0. -1.
</event>
<event>
 5   0  0.1729375E-04  0.1929520E+04  0.7818609E-02  0.8640301E-01
       -3   -1    0    0    0  501  0.00000000000E+00  0.00000000000E+00  0.65050902880E+03  0.65050903665E+03  0.10100000352E+00 0. -1.
        3   -1    0    0  501    0  0.00000000000E+00  0.00000000000E+00 -0.14308201047E+04  0.14308201083E+04  0.10100000352E+00 0.  1.
    10030    2    1    2    0    0  0.00000000000E+00  0.00000000000E+00 -0.78031107591E+03  0.20813291449E+04  0.19295195346E+04 0.  0.
        4    1    3    3  502    0 -0.10073198085E+03 -0.20147351332E+03  0.62174581072E+03  0.66129265427E+03  0.12699999809E+01 0. -1.
       -4    1    3    3    0  502  0.10073198085E+03  0.20147351332E+03 -0.14020568866E+04  0.14200364907E+04  0.12699999809E+01 0.  1.
</event>
<event>
 5   0  0.4802635E-04  0.2110276E+04  0.7818609E-02  0.8556730E-01
        2   -1    0    0  501    0  0.00000000000E+00  0.00000000000E+00  0.14773667399E+04  0.14773667399E+04  0.25500000920E-02 0. -1.
       -2   -1    0    0    0  501  0.00000000000E+00  0.00000000000E+00 -0.75358167428E+03  0.75358167429E+03  0.25500000920E-02 0.  1.
    10030    2    1    2    0    0  0.00000000000E+00  0.00000000000E+00  0.72378506562E+03  0.22309484142E+04  0.21102762865E+04 0.  0.
        3    1    3    3  502    0  0.42752996128E+03 -0.93562976558E+03  0.61012030559E+03  0.11960065734E+04  0.10100000352E+00 0. -1.
       -3    1    3    3    0  502 -0.42752996128E+03  0.93562976558E+03  0.11366476004E+03  0.10349418408E+04  0.10100000352E+00 0.  1.
</event>
<event>
 5   0  0.4761944E-04  0.1850780E+04  0.7818609E-02  0.8679752E-01
        2   -1    0    0  501    0  0.00000000000E+00  0.00000000000E+00  0.11433969348E+04  0.11433969348E+04  0.25500000920E-02 0.  1.
       -2   -1    0    0    0  501  0.00000000000E+00  0.00000000000E+00 -0.74894939324E+03  0.74894939324E+03  0.25500000920E-02 0. -1.
    10030    2    1    2    0    0  0.00000000000E+00  0.00000000000E+00  0.39444754161E+03  0.18923463281E+04  0.18507797714E+04 0.  0.
        4    1    3    3  502    0  0.45245714760E+03 -0.72948468024E+03 -0.15619735066E+03  0.87250478187E+03  0.12699999809E+01 0. -1.
       -4    1    3    3    0  502 -0.45245714760E+03  0.72948468024E+03  0.55064489227E+03  0.10198415462E+04  0.12699999809E+01 0.  1.
</event>
<event>
 5   0  0.4973411E-04  0.1789348E+04  0.7818609E-02  0.8711984E-01
       -2   -1    0    0    0  501  0.00000000000E+00  0.00000000000E+00  0.72618138859E+03  0.72618138860E+03  0.25500000920E-02 0. -1.
        2   -1    0    0  501    0  0.00000000000E+00  0.00000000000E+00 -0.11022617105E+04  0.11022617105E+04  0.25500000920E-02 0.  1.
    10030    2    1    2    0    0  0.00000000000E+00  0.00000000000E+00 -0.37608032191E+03  0.18284430991E+04  0.17893484172E+04 0.  0.
        1    1    3    3  502    0 -0.13546551900E+03  0.79149088918E+03  0.21508292207E+03  0.83130583896E+03  0.50400001928E-02 0. -1.
       -1    1    3    3    0  502  0.13546551900E+03 -0.79149088918E+03 -0.59116324399E+03  0.99713726014E+03  0.50400001928E-02 0.  1.
</event>
<event>
 5   0  0.2510069E-04  0.1966160E+04  0.7818609E-02  0.8622608E-01
       -1   -1    0    0    0  501  0.00000000000E+00  0.00000000000E+00  0.91535291358E+03  0.91535291360E+03  0.50400001928E-02 0.  1.
        1   -1    0    0  501    0  0.00000000000E+00  0.00000000000E+00 -0.10558178593E+04  0.10558178593E+04  0.50400001928E-02 0. -1.
    10030    2    1    2    0    0  0.00000000000E+00  0.00000000000E+00 -0.14046494575E+03  0.19711707729E+04  0.19661596617E+04 0.  0.
        4    1    3    3  502    0  0.99820486385E+02 -0.37817794056E+03 -0.97445227315E+03  0.10500197759E+04  0.12699999809E+01 0. -1.
       -4    1    3    3    0  502 -0.99820486385E+02  0.37817794056E+03  0.83398732739E+03  0.92115099705E+03  0.12699999809E+01 0.  1.
</event>
<event>
 5   0  0.4802635E-04  0.1820532E+04  0.7818609E-02  0.8695456E-01
        2   -1    0    0  501    0  0.00000000000E+00  0.00000000000E+00  0.14763342736E+04  0.14763342736E+04  0.25500000920E-02 0.  1.
       -2   -1    0    0    0  501  0.00000000000E+00  0.00000000000E+00 -0.56124426851E+03  0.56124426851E+03  0.25500000920E-02 0. -1.
    10030    2    1    2    0    0  0.00000000000E+00  0.00000000000E+00  0.91509000513E+03  0.20375785422E+04  0.18205319547E+04 0.  0.
        3    1    3    3  502    0 -0.48367968487E+03 -0.45659318194E+03 -0.23795978990E+03  0.70643346690E+03  0.10100000352E+00 0. -1.
       -3    1    3    3    0  502  0.48367968487E+03  0.45659318194E+03  0.11530497950E+04  0.13311450753E+04  0.10100000352E+00 0.  1.
</event>
<event>
 5   0  0.4839293E-04  0.1919737E+04  0.7818609E-02  0.8645094E-01
        2   -1    0    0  501    0  0.00000000000E+00  0.00000000000E+00  0.11382661275E+04  0.11382661275E+04  0.25500000920E-02 0. -1.
       -2   -1    0    0    0  501  0.00000000000E+00  0.00000000000E+00 -0.80943086943E+03  0.80943086944E+03  0.25500000920E-02 0.  1.
    10030    2    1    2    0    0  0.00000000000E+00  0.00000000000E+00  0.32883525806E+03  0.19476969969E+04  0.19197372125E+04 0.  0.
        5    1    3    3  502    0 -0.27608316216E+03 -0.91921982531E+03  0.15247109318E+03  0.97183153063E+03  0.46999998093E+01 0.  1.
       -5    1    3    3    0  502  0.27608316216E+03  0.91921982531E+03  0.17636416488E+03  0.97586546631E+03  0.46999998093E+01 0. -1.
</event>
<event>
 5   0  0.2317458E-04  0.1811813E+04  0.7818609E-02  0.8700042E-01
        1   -1    0    0  501    0  0.00000000000E+00  0.00000000000E+00  0.11478135481E+04  0.11478135481E+04  0.50400001928E-02 0.  1.
       -1   -1    0    0    0  501  0.00000000000E+00  0.00000000000E+00 -0.71498277872E+03  0.71498277874E+03  0.50400001928E-02 0. -1.
    10030    2    1    2    0    0  0.00000000000E+00  0.00000000000E+00  0.43283076939E+03  0.18627963269E+04  0.18118133680E+04 0.  0.
        3    1    3    3  502    0 -0.14002189458E+03  0.76035100147E+02 -0.70046312034E+03  0.71835649964E+03  0.10100000352E+00 0. -1.
       -3    1    3    3    0  502  0.14002189458E+03 -0.76035100147E+02  0.11332938897E+04  0.11444398272E+04  0.10100000352E+00 0.  1.
</event>
<event>
 5   0  0.2510069E-04  0.1658430E+04  0.7818609E-02  0.8785435E-01
       -1   -1    0    0    0  501  0.00000000000E+00  0.00000000000E+00  0.29749957216E+03  0.29749957221E+03  0.50400001928E-02 0.  1.
        1   -1    0    0  501    0  0.00000000000E+00  0.00000000000E+00 -0.23112542029E+04  0.23112542029E+04  0.50400001928E-02 0. -1.
    10030    2    1    2    0    0  0.00000000000E+00  0.00000000000E+00 -0.20137546307E+04  0.26087537751E+04  0.16584295422E+04 0.  0.
        4    1    3    3  502    0 -0.70653795948E+03 -0.41798551520E+03 -0.82284164336E+03  0.11623156895E+04  0.12699999809E+01 0.  1.
       -4    1    3    3    0  502  0.70653795948E+03  0.41798551520E+03 -0.11909129873E+04  0.14464380856E+04  0.12699999809E+01 0. -1.
</event>
<event>
 5   0  0.4761944E-04  0.1286331E+04  0.7818609E-02  0.9040475E-01
       -2   -1    0    0    0  501  0.00000000000E+00  0.00000000000E+00  0.83613473256E+03  0.83613473256E+03  0.25500000920E-02 0.  1.
        2   -1    0    0  501    0  0.00000000000E+00  0.00000000000E+00 -0.49473146026E+03  0.49473146027E+03  0.25500000920E-02 0. -1.
    10030    2    1    2    0    0  0.00000000000E+00  0.00000000000E+00  0.34140327230E+03  0.13308661928E+04  0.12863314615E+04 0.  0.
        4    1    3    3  502    0 -0.39130078826E+03 -0.33521675826E+03  0.56896233233E+03  0.76759776604E+03  0.12699999809E+01 0.  1.
       -4    1    3    3    0  502  0.39130078826E+03  0.33521675826E+03 -0.22755906004E+03  0.56326842679E+03  0.12699999809E+01 0. -1.
</event>
<event>
 5   0  0.2317458E-04  0.1906672E+04  0.7818609E-02  0.8651542E-01
        1   -1    0    0  501    0  0.00000000000E+00  0.00000000000E+00  0.12591828780E+04  0.12591828780E+04  0.50400001928E-02 0.  1.
       -1   -1    0    0    0  501  0.00000000000E+00  0.00000000000E+00 -0.72177720751E+03  0.72177720753E+03  0.50400001928E-02 0. -1.
    10030    2    1    2    0    0  0.00000000000E+00  0.00000000000E+00  0.53740567044E+03  0.19809600855E+04  0.19066719712E+04 0.  0.
        3    1    3    3  502    0  0.32533499948E+02 -0.57264605990E+03 -0.52245684565E+03  0.77584992383E+03  0.10100000352E+00 0. -1.
       -3    1    3    3    0  502 -0.32533499948E+02  0.57264605990E+03  0.10598625161E+04  0.12051101617E+04  0.10100000352E+00 0.  1.
</event>
<event>
 5   0  0.4839293E-04  0.1960057E+04  0.7818609E-02  0.8625527E-01
        2   -1    0    0  501    0  0.00000000000E+00  0.00000000000E+00  0.11770740170E+04  0.11770740170E+04  0.25500000920E-02 0. -1.
       -2   -1    0    0    0  501  0.00000000000E+00  0.00000000000E+00 -0.81596854448E+03  0.81596854449E+03  0.25500000920E-02 0.  1.
    10030    2    1    2    0    0  0.00000000000E+00  0.00000000000E+00  0.36110547256E+03  0.19930425615E+04  0.19600565017E+04 0.  0.
        5    1    3    3  502    0 -0.18917656855E+03 -0.78067693437E+03 -0.39031241352E+03  0.89309020826E+03  0.46999998093E+01 0.  1.
       -5    1    3    3    0  502  0.18917656855E+03  0.78067693437E+03  0.75141788608E+03  0.10999523533E+04  0.46999998093E+01 0. -1.
</event>
<event>
 5   0  0.4829134E-04  0.1848086E+04  0.7818609E-02  0.8681138E-01
        2   -1    0    0  501    0  0.00000000000E+00  0.00000000000E+00  0.46793788906E+03  0.46793788907E+03  0.25500000920E-02 0. -1.
       -2   -1    0    0    0  501  0.00000000000E+00  0.00000000000E+00 -0.18247205235E+04  0.18247205235E+04  0.25500000920E-02 0.  1.
    10030    2    1    2    0    0  0.00000000000E+00  0.00000000000E+00 -0.13567826344E+04  0.22926584125E+04  0.18480864372E+04 0.  0.
        2    1    3    3  502    0  0.89488033865E+03  0.20073016991E+03 -0.53829914850E+03  0.10634234316E+04  0.25500000920E-02 0.  1.
       -2    1    3    3    0  502 -0.89488033865E+03 -0.20073016991E+03 -0.81848348591E+03  0.12292349809E+04  0.25500000920E-02 0. -1.
</event>
<event>
 5   0  0.4839293E-04  0.1169166E+04  0.7818609E-02  0.9140282E-01
        2   -1    0    0  501    0  0.00000000000E+00  0.00000000000E+00  0.14403890422E+04  0.14403890422E+04  0.25500000920E-02 0. -1.
       -2   -1    0    0    0  501  0.00000000000E+00  0.00000000000E+00 -0.23725352356E+03  0.23725352357E+03  0.25500000920E-02 0.  1.
    10030    2    1    2    0    0  0.00000000000E+00  0.00000000000E+00  0.12031355186E+04  0.16776425658E+04  0.11691661568E+04 0.  0.
        5    1    3    3  502    0  0.53701436342E+03 -0.23092352490E+03  0.60483503069E+03  0.84116443411E+03  0.46999998093E+01 0. -1.
       -5    1    3    3    0  502 -0.53701436342E+03  0.23092352490E+03  0.59830048795E+03  0.83647813166E+03  0.46999998093E+01 0.  1.
</event>
<event>
 5   0  0.2355414E-04  0.1890266E+04  0.7818609E-02  0.8659717E-01
       -1   -1    0    0    0  501  0.00000000000E+00  0.00000000000E+00  0.13946590317E+04  0.13946590317E+04  0.50400001928E-02 0. -1.
        1   -1    0    0  501    0  0.00000000000E+00  0.00000000000E+00 -0.64049821956E+03  0.64049821958E+03  0.50400001928E-02 0.  1.
    10030    2    1    2    0    0  0.00000000000E+00  0.00000000000E+00  0.75416081212E+03  0.20351572513E+04  0.18902662529E+04 0.  0.
        5    1    3    3  502    0 -0.18926557760E+03  0.33707229615E+03  0.13056352451E+04  0.13616698112E+04  0.46999998093E+01 0. -1.
       -5    1    3    3    0  502  0.18926557760E+03 -0.33707229615E+03 -0.55147443294E+03  0.67348744003E+03  0.46999998093E+01 0.  1.
</event>
<event>
 5   0  0.2510069E-04  0.1872924E+04  0.7818609E-02  0.8668452E-01
        1   -1    0    0  501    0  0.00000000000E+00  0.00000000000E+00  0.54280876611E+03  0.54280876613E+03  0.50400001928E-02 0. -1.
       -1   -1    0    0    0  501  0.00000000000E+00  0.00000000000E+00 -0.16155987472E+04  0.16155987472E+04  0.50400001928E-02 0.  1.
    10030    2    1    2    0    0  0.00000000000E+00  0.00000000000E+00 -0.10727899811E+04  0.21584075133E+04  0.18729240909E+04 0.  0.
        4    1    3    3  502    0 -0.48369551249E+03  0.33502909797E+03  0.30318056440E+03  0.66191080427E+03  0.12699999809E+01 0. -1.
       -4    1    3    3    0  502  0.48369551249E+03 -0.33502909797E+03 -0.13759705455E+04  0.14964967091E+04  0.12699999809E+01 0.  1.
</event>
<event>
 5   0  0.4802635E-04  0.1891571E+04  0.7818609E-02  0.8659063E-01
        2   -1    0    0  501    0  0.00000000000E+00  0.00000000000E+00  0.69241274516E+03  0.69241274516E+03  0.25500000920E-02 0. -1.
       -2   -1    0    0    0  501  0.00000000000E+00  0.00000000000E+00 -0.12918741698E+04  0.12918741698E+04  0.25500000920E-02 0.  1.
    10030    2    1    2    0    0  0.00000000000E+00  0.00000000000E+00 -0.59946142464E+03  0.19842869150E+04  0.18915709242E+04 0.  0.
        3    1    3    3  502    0 -0.13753178736E+03  0.42093407355E+03 -0.11764023420E+04  0.12569896448E+04  0.10100000352E+00 0.  1.
       -3    1    3    3    0  502  0.13753178736E+03 -0.42093407355E+03  0.57694091735E+03  0.72729727012E+03  0.10100000352E+00 0. -1.
</event>
<event>
 5   0  0.2376359E-04  0.1801281E+04  0.7818609E-02  0.8705618E-01
        1   -1    0    0  501    0  0.00000000000E+00  0.00000000000E+00  0.15211849139E+04  0.15211849139E+04  0.50400001928E-02 0. -1.
       -1   -1    0    0    0  501  0.00000000000E+00  0.00000000000E+00 -0.53323803941E+03  0.53323803944E+03  0.50400001928E-02 0.  1.
    10030    2    1    2    0    0  0.00000000000E+00  0.00000000000E+00  0.98794687450E+03  0.20544229534E+04  0.18012813896E+04 0.  0.
        2    1    3    3  502    0 -0.13299381020E+03 -0.51360401247E+03 -0.33609508861E+03  0.62804167359E+03  0.25500000920E-02 0.  1.
       -2    1    3    3    0  502  0.13299381020E+03  0.51360401247E+03  0.13240419631E+04  0.14263812798E+04  0.25500000920E-02 0. -1.
</event>
<event>
 5   0  0.4761944E-04  0.1883856E+04  0.7818609E-02  0.8662934E-01
       -2   -1    0    0    0  501  0.00000000000E+00  0.00000000000E+00  0.68206341627E+03  0.68206341628E+03  0.25500000920E-02 0. -1.
        2   -1    0    0  501    0  0.00000000000E+00  0.00000000000E+00 -0.13007997258E+04  0.13007997258E+04  0.25500000920E-02 0.  1.
    10030    2    1    2    0    0  0.00000000000E+00  0.00000000000E+00 -0.61873630951E+03  0.19828631421E+04  0.18838555198E+04 0.  0.
        4    1    3    3  502    0 -0.13305012730E+03  0.78845038255E+03 -0.83339928543E+03  0.11549512215E+04  0.12699999809E+01 0.  1.
       -4    1    3    3    0  502  0.13305012730E+03 -0.78845038255E+03  0.21466297592E+03  0.82791192059E+03  0.12699999809E+01 0. -1.
</event>
<event>
 5   0  0.2510069E-04  0.1364495E+04  0.7818609E-02  0.8979928E-01
       -1   -1    0    0    0  501  0.00000000000E+00  0.00000000000E+00  0.36389574232E+03  0.36389574235E+03  0.50400001928E-02 0.  1.
        1   -1    0    0  501    0  0.00000000000E+00  0.00000000000E+00 -0.12791063095E+04  0.12791063095E+04  0.50400001928E-02 0. -1.
    10030    2    1    2    0    0  0.00000000000E+00  0.00000000000E+00 -0.91521056714E+03  0.16430020518E+04  0.13644945438E+04 0.  0.
        4    1    3    3  502    0 -0.51434972492E+03 -0.23694072895E+03 -0.91574227296E+03  0.10766996201E+04  0.12699999809E+01 0. -1.
       -4    1    3    3    0  502  0.51434972492E+03  0.23694072895E+03  0.53170581276E+00  0.56630243172E+03  0.12699999809E+01 0.  1.
</event>
<event>
 5   0  0.2261755E-04  0.1875937E+04  0.7818609E-02  0.8666928E-01
       -1   -1    0    0    0  501  0.00000000000E+00  0.00000000000E+00  0.32176256586E+03  0.32176256590E+03  0.50400001928E-02 0.  1.
        1   -1    0    0  501    0  0.00000000000E+00  0.00000000000E+00 -0.27342663748E+04  0.27342663748E+04  0.50400001928E-02 0. -1.
    10030    2    1    2    0    0  0.00000000000E+00  0.00000000000E+00 -0.24125038089E+04  0.30560289407E+04  0.18759366349E+04 0.  0.
        1    1    3    3  502    0 -0.82134313662E+02  0.11455567706E+03  0.30440969789E+03  0.33546134326E+03  0.50400001928E-02 0.  1.
       -1    1    3    3    0  502  0.82134313662E+02 -0.11455567706E+03 -0.27169135068E+04  0.27205675974E+04  0.50400001928E-02 0. -1.
</event>
<event>
 5   0  0.2355414E-04  0.2506211E+04  0.7818609E-02  0.8400776E-01
       -1   -1    0    0    0  501  0.00000000000E+00  0.00000000000E+00  0.21526812079E+04  0.21526812079E+04  0.50400001928E-02 0. -1.
        1   -1    0    0  501    0  0.00000000000E+00  0.00000000000E+00 -0.72945002773E+03  0.72945002774E+03  0.50400001928E-02 0.  1.
    10030    2    1    2    0    0  0.00000000000E+00  0.00000000000E+00  0.14232311802E+04  0.28821312356E+04  0.25062109782E+04 0.  0.
        5    1    3    3  502    0  0.26885313038E+03  0.11628216406E+04  0.27248127127E+03  0.12242157926E+04  0.46999998093E+01 0. -1.
       -5    1    3    3    0  502 -0.26885313038E+03 -0.11628216406E+04  0.11507499089E+04  0.16579154431E+04  0.46999998093E+01 0.  1.
</event>
<event>
 5   0  0.2317458E-04  0.1912322E+04  0.7818609E-02  0.8648747E-01
       -1   -1    0    0    0  501  0.00000000000E+00  0.00000000000E+00  0.52939665041E+03  0.52939665044E+03  0.50400001928E-02 0. -1.
        1   -1    0    0  501    0  0.00000000000E+00  0.00000000000E+00 -0.17269547394E+04  0.17269547394E+04  0.50400001928E-02 0.  1.
    10030    2    1    2    0    0  0.00000000000E+00  0.00000000000E+00 -0.11975580890E+04  0.22563513899E+04  0.19123222056E+04 0.  0.
        3    1    3    3  502    0 -0.43731740544E+03 -0.62126296214E+03 -0.12837621479E+04  0.14917303522E+04  0.10100000352E+00 0.  1.
       -3    1    3    3    0  502  0.43731740544E+03  0.62126296214E+03  0.86204058872E+02  0.76462103764E+03  0.10100000352E+00 0. -1.
</event>
<event>
 5   0  0.4829134E-04  0.1823948E+04  0.7818609E-02  0.8693667E-01
       -2   -1    0    0    0  501  0.00000000000E+00  0.00000000000E+00  0.10558424135E+04  0.10558424135E+04  0.25500000920E-02 0. -1.
        2   -1    0    0  501    0  0.00000000000E+00  0.00000000000E+00 -0.78770896951E+03  0.78770896951E+03  0.25500000920E-02 0.  1.
    10030    2    1    2    0    0  0.00000000000E+00  0.00000000000E+00  0.26813344395E+03  0.18435513830E+04  0.18239479592E+04 0.  0.
        2    1    3    3  502    0  0.17408641786E+03 -0.39142524034E+02  0.10380269800E+04  0.10532512660E+04  0.25500000920E-02 0. -1.
       -2    1    3    3    0  502 -0.17408641786E+03  0.39142524034E+02 -0.76989353605E+03  0.79030011700E+03  0.25500000920E-02 0.  1.
</event>
<event>
 5   0  0.2510069E-04  0.1926465E+04  0.7818609E-02  0.8641794E-01
       -1   -1    0    0    0  501  0.00000000000E+00  0.00000000000E+00  0.57929749591E+03  0.57929749593E+03  0.50400001928E-02 0. -1.
        1   -1    0    0  501    0  0.00000000000E+00  0.00000000000E+00 -0.16016241124E+04  0.16016241124E+04  0.50400001928E-02 0.  1.
    10030    2    1    2    0    0  0.00000000000E+00  0.00000000000E+00 -0.10223266165E+04  0.21809216084E+04  0.19264649883E+04 0.  0.
        4    1    3    3  502    0 -0.43853297819E+03  0.35087062325E+03  0.37475636902E+03  0.67517798856E+03  0.12699999809E+01 0. -1.
       -4    1    3    3    0  502  0.43853297819E+03 -0.35087062325E+03 -0.13970829855E+04  0.15057436198E+04  0.12699999809E+01 0.  1.
</event>
<event>
 5   0  0.4839293E-04  0.1929564E+04  0.7818609E-02  0.8640279E-01
       -2   -1    0    0    0  501  0.00000000000E+00  0.00000000000E+00  0.93850103179E+03  0.93850103179E+03  0.25500000920E-02 0.  1.
        2   -1    0    0  501    0  0.00000000000E+00  0.00000000000E+00 -0.99179881187E+03  0.99179881187E+03  0.25500000920E-02 0. -1.
    10030    2    1    2    0    0  0.00000000000E+00  0.00000000000E+00 -0.53297780079E+02  0.19302998437E+04  0.19295638971E+04 0.  0.
        5    1    3    3  502    0 -0.43381274573E+03 -0.43099189502E+03  0.71984923258E+03  0.94453825733E+03  0.46999998093E+01 0.  1.
       -5    1    3    3    0  502  0.43381274573E+03  0.43099189502E+03 -0.77314701265E+03  0.98576158634E+03  0.46999998093E+01 0. -1.
</event>
<event>
 5   0  0.4761944E-04  0.1805827E+04  0.7818609E-02  0.8703207E-01
       -2   -1    0    0    0  501  0.00000000000E+00  0.00000000000E+00  0.96533462097E+03  0.96533462097E+03  0.25500000920E-02 0. -1.
        2   -1    0    0  501    0  0.00000000000E+00  0.00000000000E+00 -0.84452880724E+03  0.84452880724E+03  0.25500000920E-02 0.  1.
    10030    2    1    2    0    0  0.00000000000E+00  0.00000000000E+00  0.12080581373E+03  0.18098634282E+04  0.18058271191E+04 0.  0.
        4    1    3    3  502    0 -0.70976613006E+03  0.54163239181E+03  0.19530567987E+03  0.91393628264E+03  0.12699999809E+01 0. -1.
       -4    1    3    3    0  502  0.70976613006E+03 -0.54163239181E+03 -0.74499866136E+02  0.89592714558E+03  0.12699999809E+01 0.  1.
</event>
<event>
 5   0  0.2261755E-04  0.1873759E+04  0.7818609E-02  0.8668030E-01
        1   -1    0    0  501    0  0.00000000000E+00  0.00000000000E+00  0.81729476368E+03  0.81729476369E+03  0.50400001928E-02 0.  1.
       -1   -1    0    0    0  501  0.00000000000E+00  0.00000000000E+00 -0.10739616984E+04  0.10739616984E+04  0.50400001928E-02 0. -1.
    10030    2    1    2    0    0  0.00000000000E+00  0.00000000000E+00 -0.25666693474E+03  0.18912564621E+04  0.18737590801E+04 0.  0.
        1    1    3    3  502    0  0.44382042017E+03  0.68066687086E+03 -0.59901340304E+03  0.10095053301E+04  0.50400001928E-02 0. -1.
       -1    1    3    3    0  502 -0.44382042017E+03 -0.68066687086E+03  0.34234646830E+03  0.88175113203E+03  0.50400001928E-02 0.  1.
</event>
<event>
 5   0  0.4839293E-04  0.1905257E+04  0.7818609E-02  0.8652244E-01
       -2   -1    0    0    0  501  0.00000000000E+00  0.00000000000E+00  0.18401817327E+04  0.18401817327E+04  0.25500000920E-02 0. -1.
        2   -1    0    0  501    0  0.00000000000E+00  0.00000000000E+00 -0.49315835901E+03  0.49315835902E+03  0.25500000920E-02 0.  1.
    10030    2    1    2    0    0  0.00000000000E+00  0.00000000000E+00  0.13470233737E+04  0.23333400917E+04  0.19052569418E+04 0.  0.
        5    1    3    3  502    0  0.34946032679E+03 -0.87674199386E+03  0.51534288720E+03  0.10753601374E+04  0.46999998093E+01 0.  1.
       -5    1    3    3    0  502 -0.34946032679E+03  0.87674199386E+03  0.83168048651E+03  0.12579799543E+04  0.46999998093E+01 0. -1.
</event>
<event>
 5   0  0.4973411E-04  0.1847819E+04  0.7818609E-02  0.8681275E-01
        2   -1    0    0  501    0  0.00000000000E+00  0.00000000000E+00  0.11024138741E+04  0.11024138741E+04  0.25500000920E-02 0.  1.
       -2   -1    0    0    0  501  0.00000000000E+00  0.00000000000E+00 -0.77430853804E+03  0.77430853804E+03  0.25500000920E-02 0. -1.
    10030    2    1    2    0    0  0.00000000000E+00  0.00000000000E+00  0.32810533603E+03  0.18767224121E+04  0.18478186872E+04 0.  0.
        1    1    3    3  502    0  0.15571122207E+03  0.39254229607E+03  0.99865652979E+03  0.10842740905E+04  0.50400001928E-02 0.  1.
       -1    1    3    3    0  502 -0.15571122207E+03 -0.39254229607E+03 -0.67055119376E+03  0.79244832157E+03  0.50400001928E-02 0. -1.
</event>
<event>
 5   0  0.4802635E-04  0.1984834E+04  0.7818609E-02  0.8613744E-01
        2   -1    0    0  501    0  0.00000000000E+00  0.00000000000E+00  0.10874078546E+04  0.10874078546E+04  0.25500000920E-02 0. -1.
       -2   -1    0    0    0  501  0.00000000000E+00  0.00000000000E+00 -0.90572381498E+03  0.90572381498E+03  0.25500000920E-02 0.  1.
    10030    2    1    2    0    0  0.00000000000E+00  0.00000000000E+00  0.18168403967E+03  0.19931316696E+04  0.19848336863E+04 0.  0.
        3    1    3    3  502    0  0.59071326745E+03  0.38348892781E+03  0.79296847778E+03  0.10605682152E+04  0.10100000352E+00 0. -1.
       -3    1    3    3    0  502 -0.59071326745E+03 -0.38348892781E+03 -0.61128443811E+03  0.93256345445E+03  0.10100000352E+00 0.  1.
</event>
<event>
 5   0  0.2261755E-04  0.1903342E+04  0.7818609E-02  0.8653195E-01
       -1   -1    0    0    0  501  0.00000000000E+00  0.00000000000E+00  0.19148662689E+04  0.19148662689E+04  0.50400001928E-02 0.  1.
        1   -1    0    0  501    0  0.00000000000E+00  0.00000000000E+00 -0.47297170034E+03  0.47297170037E+03  0.50400001928E-02 0. -1.
    10030    2    1    2    0    0  0.00000000000E+00  0.00000000000E+00  0.14418945685E+04  0.23878379692E+04  0.19033418559E+04 0.  0.
        1    1    3    3  502    0 -0.74382241396E+03 -0.33156892450E+03  0.13387006344E+04  0.15669489857E+04  0.50400001928E-02 0.  1.
       -1    1    3    3    0  502  0.74382241396E+03  0.33156892450E+03  0.10319393409E+03  0.82088898352E+03  0.50400001928E-02 0. -1.
</event>
<event>
 5   0  0.2376359E-04  0.1940481E+04  0.7818609E-02  0.8634965E-01
        1   -1    0    0  501    0  0.00000000000E+00  0.00000000000E+00  0.12599248323E+04  0.12599248323E+04  0.50400001928E-02 0. -1.
       -1   -1    0    0    0  501  0.00000000000E+00  0.00000000000E+00 -0.74716095720E+03  0.74716095722E+03  0.50400001928E-02 0.  1.
    10030    2    1    2    0    0  0.00000000000E+00  0.00000000000E+00  0.51276387506E+03  0.20070857895E+04  0.19404810163E+04 0.  0.
        2    1    3    3  502    0 -0.12093642509E+03  0.95665161406E+03  0.36758360466E+03  0.10319523419E+04  0.25500000920E-02 0.  1.
       -2    1    3    3    0  502  0.12093642509E+03 -0.95665161406E+03  0.14518027039E+03  0.97513344755E+03  0.25500000920E-02 0. -1.
</event>
<event>
 5   0  0.4973411E-04  0.1910556E+04  0.7818609E-02  0.8649620E-01
       -2   -1    0    0    0  501  0.00000000000E+00  0.00000000000E+00  0.47254872973E+03  0.47254872974E+03  0.25500000920E-02 0. -1.
        2   -1    0    0  501    0  0.00000000000E+00  0.00000000000E+00 -0.19311362525E+04  0.19311362525E+04  0.25500000920E-02 0.  1.
    10030    2    1    2    0    0  0.00000000000E+00  0.00000000000E+00 -0.14585875228E+04  0.24036849823E+04  0.19105559223E+04 0.  0.
        1    1    3    3  502    0  0.21689486363E+03 -0.29673299563E+03  0.38002770751E+03  0.52869169756E+03  0.50400001928E-02 0. -1.
       -1    1    3    3    0  502 -0.21689486363E+03  0.29673299563E+03 -0.18386152303E+04  0.18749932847E+04  0.50400001928E-02 0.  1.
</event>
<event>
 5   0  0.4802635E-04  0.1873504E+04  0.7818609E-02  0.8668158E-01
        2   -1    0    0  501    0  0.00000000000E+00  0.00000000000E+00  0.10150782242E+04  0.10150782242E+04  0.25500000920E-02 0.  1.
       -2   -1    0    0    0  501  0.00000000000E+00  0.00000000000E+00 -0.86447002174E+03  0.86447002174E+03  0.25500000920E-02 0. -1.
    10030    2    1    2    0    0  0.00000000000E+00  0.00000000000E+00  0.15060820250E+03  0.18795482460E+04  0.18735044111E+04 0.  0.
        3    1    3    3  502    0  0.24812120123E+03 -0.33358462529E+03 -0.76684528883E+03  0.87229269167E+03  0.10100000352E+00 0. -1.
       -3    1    3    3    0  502 -0.24812120123E+03  0.33358462529E+03  0.91745349133E+03  0.10072555543E+04  0.10100000352E+00 0.  1.
</event>
<event>
 5   0  0.2355414E-04  0.1827527E+04  0.7818609E-02  0.8691796E-01
        1   -1    0    0  501    0  0.00000000000E+00  0.00000000000E+00  0.12363328816E+04  0.12363328816E+04  0.50400001928E-02 0.  1.
       -1   -1    0    0    0  501  0.00000000000E+00  0.00000000000E+00 -0.67535524553E+03  0.67535524554E+03  0.50400001928E-02 0. -1.
    10030    2    1    2    0    0  0.00000000000E+00  0.00000000000E+00  0.56097763609E+03  0.19116881272E+04  0.18275271783E+04 0.  0.
        5    1    3    3  502    0  0.88979933687E+03  0.14462218144E+03  0.43663941533E+03  0.10016658646E+04  0.46999998093E+01 0. -1.
       -5    1    3    3    0  502 -0.88979933687E+03 -0.14462218144E+03  0.12433822076E+03  0.91002226259E+03  0.46999998093E+01 0.  1.
</event>
<event>
 5   0  0.4802635E-04  0.1374230E+04  0.7818609E-02  0.8972686E-01
        2   -1    0    0  501    0  0.00000000000E+00  0.00000000000E+00  0.11402471265E+04  0.11402471265E+04  0.25500000920E-02 0. -1.
       -2   -1    0    0    0  501  0.00000000000E+00  0.00000000000E+00 -0.41405677600E+03  0.41405677601E+03  0.25500000920E-02 0.  1.
    10030    2    1    2    0    0  0.00000000000E+00  0.00000000000E+00  0.72619035052E+03  0.15543039025E+04  0.13742300376E+04 0.  0.
        3    1    3    3  502    0  0.90499874068E-01 -0.59982771984E+03  0.74217581437E+03  0.95426319814E+03  0.10100000352E+00 0. -1.
       -3    1    3    3    0  502 -0.90499874068E-01  0.59982771984E+03 -0.15985463850E+02  0.60004070439E+03  0.10100000352E+00 0.  1.
</event>
<event>
 5   0  0.2510069E-04  0.1867321E+04  0.7818609E-02  0.8671296E-01
       -1   -1    0    0    0  501  0.00000000000E+00  0.00000000000E+00  0.80611062142E+03  0.80611062143E+03  0.50400001928E-02 0. -1.
        1   -1    0    0  501    0  0.00000000000E+00  0.00000000000E+00 -0.10813920262E+04  0.10813920262E+04  0.50400001928E-02 0.  1.
    10030    2    1    2    0    0  0.00000000000E+00  0.00000000000E+00 -0.27528140481E+03  0.18875026477E+04  0.18673206455E+04 0.  0.
        4    1    3    3  502    0 -0.25569137050E+03 -0.89741992451E+03 -0.16927410838E+03  0.94836487415E+03  0.12699999809E+01 0. -1.
       -4    1    3    3    0  502  0.25569137050E+03  0.89741992451E+03 -0.10600729644E+03  0.93913777352E+03  0.12699999809E+01 0.  1.
</event>
<event>
 5   0  0.2510069E-04  0.1777753E+04  0.7818609E-02  0.8718220E-01
       -1   -1    0    0    0  501  0.00000000000E+00  0.00000000000E+00  0.93746657352E+03  0.93746657353E+03  0.50400001928E-02 0. -1.
        1   -1    0    0  501    0  0.00000000000E+00  0.00000000000E+00 -0.84280524367E+03  0.84280524369E+03  0.50400001928E-02 0.  1.
    10030    2    1    2    0    0  0.00000000000E+00  0.00000000000E+00  0.94661329843E+02  0.17802718172E+04  0.17777533507E+04 0.  0.
        4    1    3    3  502    0  0.85932871064E+03 -0.38581288068E+02 -0.17696382547E+03  0.87820963166E+03  0.12699999809E+01 0. -1.
       -4    1    3    3    0  502 -0.85932871064E+03  0.38581288068E+02  0.27162515531E+03  0.90206218556E+03  0.12699999809E+01 0.  1.
</event>
<event>
 5   0  0.4802635E-04  0.1856678E+04  0.7818609E-02  0.8676726E-01
       -2   -1    0    0    0  501  0.00000000000E+00  0.00000000000E+00  0.10094813418E+04  0.10094813419E+04  0.25500000920E-02 0. -1.
        2   -1    0    0  501    0  0.00000000000E+00  0.00000000000E+00 -0.85371857244E+03  0.85371857244E+03  0.25500000920E-02 0.  1.
    10030    2    1    2    0    0  0.00000000000E+00  0.00000000000E+00  0.15576276941E+03  0.18631999143E+04  0.18566776458E+04 0.  0.
        3    1    3    3  502    0 -0.20347293201E+03  0.75931998937E+03  0.57342258354E+03  0.97302700365E+03  0.10100000352E+00 0. -1.
       -3    1    3    3    0  502  0.20347293201E+03 -0.75931998937E+03 -0.41765981413E+03  0.89017291065E+03  0.10100000352E+00 0.  1.
</event>
<event>
 5   0  0.2355414E-04  0.1793951E+04  0.7818609E-02  0.8709523E-01
        1   -1    0    0  501    0  0.00000000000E+00  0.00000000000E+00  0.19205241461E+04  0.19205241461E+04  0.50400001928E-02 0.  1.
       -1   -1    0    0    0  501  0.00000000000E+00  0.00000000000E+00 -0.41892980065E+03  0.41892980069E+03  0.50400001928E-02 0. -1.
    10030    2    1    2    0    0  0.00000000000E+00  0.00000000000E+00  0.15015943455E+04  0.23394539468E+04  0.17939507214E+04 0.  0.
        5    1    3    3  502    0  0.58651529712E+03 -0.56897720904E+03  0.12331433762E+04  0.14793241479E+04  0.46999998093E+01 0. -1.
       -5    1    3    3    0  502 -0.58651529712E+03  0.56897720904E+03  0.26845096927E+03  0.86012979897E+03  0.46999998093E+01 0.  1.
</event>
<event>
 5   0  0.2261755E-04  0.1835149E+04  0.7818609E-02  0.8687828E-01
       -1   -1    0    0    0  501  0.00000000000E+00  0.00000000000E+00  0.46729009061E+03  0.46729009064E+03  0.50400001928E-02 0. -1.
        1   -1    0    0  501    0  0.00000000000E+00  0.00000000000E+00 -0.18017574202E+04  0.18017574202E+04  0.50400001928E-02 0.  1.
    10030    2    1    2    0    0  0.00000000000E+00  0.00000000000E+00 -0.13344673296E+04  0.22690475108E+04  0.18351494633E+04 0.  0.
        1    1    3    3  502    0  0.18419012331E+03 -0.55080178763E+03 -0.15455697733E+04  0.16510888937E+04  0.50400001928E-02 0.  1.
       -1    1    3    3    0  502 -0.18419012331E+03  0.55080178763E+03  0.21110244368E+03  0.61795861717E+03  0.50400001928E-02 0. -1.
</event>
<event>
 5   0  0.2510069E-04  0.1876318E+04  0.7818609E-02  0.8666735E-01
       -1   -1    0    0    0  501  0.00000000000E+00  0.00000000000E+00  0.71858634541E+03  0.71858634543E+03  0.50400001928E-02 0. -1.
        1   -1    0    0  501    0  0.00000000000E+00  0.00000000000E+00 -0.12248250250E+04  0.12248250250E+04  0.50400001928E-02 0.  1.
    10030    2    1    2    0    0  0.00000000000E+00  0.00000000000E+00 -0.50623867960E+03  0.19434113704E+04  0.18763182443E+04 0.  0.
        4    1    3    3  502    0 -0.77457573572E+03  0.76799576294E+02  0.28932039199E+03  0.83040571253E+03  0.12699999809E+01 0. -1.
       -4    1    3    3    0  502  0.77457573572E+03 -0.76799576294E+02 -0.79555907158E+03  0.11130056579E+04  0.12699999809E+01 0.  1.
</event>
<event>
 5   0  0.4829134E-04  0.1933242E+04  0.7818609E-02  0.8638485E-01
       -2   -1    0    0    0  501  0.00000000000E+00  0.00000000000E+00  0.81096375906E+03  0.81096375906E+03  0.25500000920E-02 0.  1.
        2   -1    0    0  501    0  0.00000000000E+00  0.00000000000E+00 -0.11521548462E+04  0.11521548462E+04  0.25500000920E-02 0. -1.
    10030    2    1    2    0    0  0.00000000000E+00  0.00000000000E+00 -0.34119108718E+03  0.19631186053E+04  0.19332416560E+04 0.  0.
        2    1    3    3  502    0 -0.75074253993E+03 -0.49269843459E+03  0.19268984688E+03  0.91842010312E+03  0.25500000920E-02 0.  1.
       -2    1    3    3    0  502  0.75074253993E+03  0.49269843459E+03 -0.53388093405E+03  0.10446985022E+04  0.25500000920E-02 0. -1.
</event>
<event>
 5   0  0.4829134E-04  0.1879422E+04  0.7818609E-02  0.8665168E-01
       -2   -1    0    0    0  501  0.00000000000E+00  0.00000000000E+00  0.46208733977E+03  0.46208733978E+03  0.25500000920E-02 0.  1.
        2   -1    0    0  501    0  0.00000000000E+00  0.00000000000E+00 -0.19110174481E+04  0.19110174481E+04  0.25500000920E-02 0. -1.
    10030    2    1    2    0    0  0.00000000000E+00  0.00000000000E+00 -0.14489301084E+04  0.23731047879E+04  0.18794222185E+04 0.  0.
        2    1    3    3  502    0 -0.93032081295E+03 -0.87824479848E+02 -0.84976325916E+03  0.12630548487E+04  0.25500000920E-02 0.  1.
       -2    1    3    3    0  502  0.93032081295E+03  0.87824479848E+02 -0.59916684920E+03  0.11100499392E+04  0.25500000920E-02 0. -1.
</event>
<event>
 5   0  0.4829134E-04  0.1718513E+04  0.7818609E-02  0.8750876E-01
        2   -1    0    0  501    0  0.00000000000E+00  0.00000000000E+00  0.23101775148E+04  0.23101775148E+04  0.25500000920E-02 0. -1.
       -2   -1    0    0    0  501  0.00000000000E+00  0.00000000000E+00 -0.31959509351E+03  0.31959509352E+03  0.25500000920E-02 0.  1.
    10030    2    1    2    0    0  0.00000000000E+00  0.00000000000E+00  0.19905824213E+04  0.26297726083E+04  0.17185126114E+04 0.  0.
        2    1    3    3  502    0  0.26903702092E+02 -0.68459004758E+03  0.17888669367E+04  0.19155762213E+04  0.25500000920E-02 0. -1.
       -2    1    3    3    0  502 -0.26903702092E+02  0.68459004758E+03  0.20171548453E+03  0.71419638695E+03  0.25500000920E-02 0.  1.
</event>
<event>
 5   0  0.2376359E-04  0.1881154E+04  0.7818609E-02  0.8664294E-01
       -1   -1    0    0    0  501  0.00000000000E+00  0.00000000000E+00  0.16828538649E+04  0.16828538649E+04  0.50400001928E-02 0.  1.
        1   -1    0    0  501    0  0.00000000000E+00  0.00000000000E+00 -0.52570526050E+03  0.52570526053E+03  0.50400001928E-02 0. -1.
    10030    2    1    2    0    0  0.00000000000E+00  0.00000000000E+00  0.11571486044E+04  0.22085591254E+04  0.18811540388E+04 0.  0.
        2    1    3    3  502    0 -0.17382917442E+03 -0.73242777922E+03 -0.83505878234E+02  0.75739043126E+03  0.25500000920E-02 0. -1.
       -2    1    3    3    0  502  0.17382917442E+03  0.73242777922E+03  0.12406544826E+04  0.14511686941E+04  0.25500000920E-02 0.  1.
</event>
<event>
 5   0  0.2510069E-04  0.1851173E+04  0.7818609E-02  0.8679550E-01
        1   -1    0    0  501    0  0.00000000000E+00  0.00000000000E+00  0.72077953701E+03  0.72077953703E+03  0.50400001928E-02 0.  1.
       -1   -1    0    0    0  501  0.00000000000E+00  0.00000000000E+00 -0.11885888186E+04  0.11885888187E+04  0.50400001928E-02 0. -1.
    10030    2    1    2    0    0  0.00000000000E+00  0.00000000000E+00 -0.46780928163E+03  0.19093683557E+04  0.18511731399E+04 0.  0.
        4    1    3    3  502    0  0.17700107857E+03  0.21766927278E+03  0.67586693713E+03  0.73178345412E+03  0.12699999809E+01 0.  1.
       -4    1    3    3    0  502 -0.17700107857E+03 -0.21766927278E+03 -0.11436762188E+04  0.11775849016E+04  0.12699999809E+01 0. -1.
</event>
<event>
 5   0  0.2317458E-04  0.1925667E+04  0.7818609E-02  0.8642185E-01
       -1   -1    0    0    0  501  0.00000000000E+00  0.00000000000E+00  0.68255210751E+03  0.68255210753E+03  0.50400001928E-02 0.  1.
        1   -1    0    0  501    0  0.00000000000E+00  0.00000000000E+00 -0.13582093025E+04  0.13582093025E+04  0.50400001928E-02 0. -1.
    10030    2    1    2    0    0  0.00000000000E+00  0.00000000000E+00 -0.67565719495E+03  0.20407614100E+04  0.19256672837E+04 0.  0.
        3    1    3    3  502    0 -0.63353300521E+03 -0.67456288044E+03 -0.61951469613E+03  0.11136416018E+04  0.10100000352E+00 0. -1.
       -3    1    3    3    0  502  0.63353300521E+03  0.67456288044E+03 -0.56142498823E+02  0.92711980819E+03  0.10100000352E+00 0.  1.
</event>
<event>
 5   0  0.4839293E-04  0.1867301E+04  0.7818609E-02  0.8671306E-01
       -2   -1    0    0    0  501  0.00000000000E+00  0.00000000000E+00  0.80135548717E+03  0.80135548718E+03  0.25500000920E-02 0.  1.
        2   -1    0    0  501    0  0.00000000000E+00  0.00000000000E+00 -0.10877856206E+04  0.10877856206E+04  0.25500000920E-02 0. -1.
    10030    2    1    2    0    0  0.00000000000E+00  0.00000000000E+00 -0.28643013340E+03  0.18891411078E+04  0.18673006999E+04 0.  0.
        5    1    3    3  502    0  0.39346422482E+03  0.57761071747E+03 -0.76951359163E+03  0.10395294584E+04  0.46999998093E+01 0. -1.
       -5    1    3    3    0  502 -0.39346422482E+03 -0.57761071747E+03  0.48308345823E+03  0.84961164938E+03  0.46999998093E+01 0.  1.
</event>
<event>
 5   0  0.2510069E-04  0.1755151E+04  0.7818609E-02  0.8730520E-01
        1   -1    0    0  501    0  0.00000000000E+00  0.00000000000E+00  0.18501473889E+04  0.18501473889E+04  0.50400001928E-02 0. -1.
       -1   -1    0    0    0  501  0.00000000000E+00  0.00000000000E+00 -0.41625805453E+03  0.41625805456E+03  0.50400001928E-02 0.  1.
    10030    2    1    2    0    0  0.00000000000E+00  0.00000000000E+00  0.14338893343E+04  0.22664054434E+04  0.17551509938E+04 0.  0.
        4    1    3    3  502    0  0.48233160919E+03 -0.66869832474E+03  0.32883601021E+03  0.88765757207E+03  0.12699999809E+01 0. -1.
       -4    1    3    3    0  502 -0.48233160919E+03  0.66869832474E+03  0.11050533241E+04  0.13787478714E+04  0.12699999809E+01 0.  1.
</event>
<event>
 5   0  0.4839293E-04  0.1867583E+04  0.7818609E-02  0.8671163E-01
       -2   -1    0    0    0  501  0.00000000000E+00  0.00000000000E+00  0.75696520466E+03  0.75696520466E+03  0.25500000920E-02 0. -1.
        2   -1    0    0  501    0  0.00000000000E+00  0.00000000000E+00 -0.11519246938E+04  0.11519246938E+04  0.25500000920E-02 0.  1.
    10030    2    1    2    0    0  0.00000000000E+00  0.00000000000E+00 -0.39495948919E+03  0.19088898985E+04  0.18675833707E+04 0.  0.
        5    1    3    3  502    0  0.68517713950E+03 -0.56330918686E+02 -0.84336099515E+03  0.10880812208E+04  0.46999998093E+01 0.  1.
       -5    1    3    3    0  502 -0.68517713950E+03  0.56330918686E+02  0.44840150596E+03  0.82080867773E+03  0.46999998093E+01 0. -1.
</event>
<event>
 5   0  0.2510069E-04  0.1764550E+04  0.7818609E-02  0.8725382E-01
       -1   -1    0    0    0  501  0.00000000000E+00  0.00000000000E+00  0.84512193179E+03  0.84512193181E+03  0.50400001928E-02 0.  1.
        1   -1    0    0  501    0  0.00000000000E+00  0.00000000000E+00 -0.92106142558E+03  0.92106142559E+03  0.50400001928E-02 0. -1.
    10030    2    1    2    0    0  0.00000000000E+00  0.00000000000E+00 -0.75939493785E+02  0.17661833574E+04  0.17645500404E+04 0.  0.
        4    1    3    3  502    0  0.15597746047E+03 -0.74982131139E+03 -0.47637817841E+03  0.90194165496E+03  0.12699999809E+01 0. -1.
       -4    1    3    3    0  502 -0.15597746047E+03  0.74982131139E+03  0.40043868463E+03  0.86424170244E+03  0.12699999809E+01 0.  1.
</event>
<event>
 5   0  0.2355414E-04  0.1918293E+04  0.7818609E-02  0.8645804E-01
       -1   -1    0    0    0  501  0.00000000000E+00  0.00000000000E+00  0.75400017749E+03  0.75400017751E+03  0.50400001928E-02 0.  1.
        1   -1    0    0  501    0  0.00000000000E+00  0.00000000000E+00 -0.12201078771E+04  0.12201078771E+04  0.50400001928E-02 0. -1.
    10030    2    1    2    0    0  0.00000000000E+00  0.00000000000E+00 -0.46610769960E+03  0.19741080546E+04  0.19182925282E+04 0.  0.
        5    1    3    3  502    0 -0.39722876921E+03 -0.86791472379E+03 -0.13611753479E+03  0.96416634257E+03  0.46999998093E+01 0.  1.
       -5    1    3    3    0  502  0.39722876921E+03  0.86791472379E+03 -0.32999016481E+03  0.10099417120E+04  0.46999998093E+01 0. -1.
</event>
<event>
 5   0  0.2317458E-04  0.1941014E+04  0.7818609E-02  0.8634706E-01
       -1   -1    0    0    0  501  0.00000000000E+00  0.00000000000E+00  0.71387337060E+03  0.71387337062E+03  0.50400001928E-02 0.  1.
        1   -1    0    0  501    0  0.00000000000E+00  0.00000000000E+00 -0.13193995190E+04  0.13193995190E+04  0.50400001928E-02 0. -1.
    10030    2    1    2    0    0  0.00000000000E+00  0.00000000000E+00 -0.60552614840E+03  0.20332728896E+04  0.19410143553E+04 0.  0.
        3    1    3    3  502    0  0.85860239064E+03 -0.44769596930E+03 -0.23443685594E+03  0.99628830956E+03  0.10100000352E+00 0.  1.
       -3    1    3    3    0  502 -0.85860239064E+03  0.44769596930E+03 -0.37108929246E+03  0.10369845801E+04  0.10100000352E+00 0. -1.
</event>
<event>
 5   0  0.2317458E-04  0.1879908E+04  0.7818609E-02  0.8664923E-01
        1   -1    0    0  501    0  0.00000000000E+00  0.00000000000E+00  0.16962729745E+04  0.16962729745E+04  0.50400001928E-02 0.  1.
       -1   -1    0    0    0  501  0.00000000000E+00  0.00000000000E+00 -0.52085579909E+03  0.52085579912E+03  0.50400001928E-02 0. -1.
    10030    2    1    2    0    0  0.00000000000E+00  0.00000000000E+00  0.11754171754E+04  0.22171287736E+04  0.18799080995E+04 0.  0.
        3    1    3    3  502    0 -0.14325450174E+03 -0.58740436004E+03 -0.26107568789E+03  0.65857896981E+03  0.10100000352E+00 0. -1.
       -3    1    3    3    0  502  0.14325450174E+03  0.58740436004E+03  0.14364928633E+04  0.15585498038E+04  0.10100000352E+00 0.  1.
</event>
<event>
 5   0  0.4761944E-04  0.1946430E+04  0.7818609E-02  0.8632084E-01
       -2   -1    0    0    0  501  0.00000000000E+00  0.00000000000E+00  0.45251457532E+03  0.45251457533E+03  0.25500000920E-02 0. -1.
        2   -1    0    0  501    0  0.00000000000E+00  0.00000000000E+00 -0.20930754854E+04  0.20930754854E+04  0.25500000920E-02 0.  1.
    10030    2    1    2    0    0  0.00000000000E+00  0.00000000000E+00 -0.16405609101E+04  0.25455900608E+04  0.19464297207E+04 0.  0.
        4    1    3    3  502    0 -0.54718460748E+03 -0.60758778866E+03 -0.15105491640E+04  0.17176537210E+04  0.12699999809E+01 0.  1.
       -4    1    3    3    0  502  0.54718460748E+03  0.60758778866E+03 -0.13001174609E+03  0.82793633971E+03  0.12699999809E+01 0. -1.
</event>
<event>
 5   0  0.4829134E-04  0.1896216E+04  0.7818609E-02  0.8656742E-01
        2   -1    0    0  501    0  0.00000000000E+00  0.00000000000E+00  0.19931009354E+04  0.19931009354E+04  0.25500000920E-02 0.  1.
       -2   -1    0    0    0  501  0.00000000000E+00  0.00000000000E+00 -0.45101011801E+03  0.45101011802E+03  0.25500000920E-02 0. -1.
    10030    2    1    2    0    0  0.00000000000E+00  0.00000000000E+00  0.15420908173E+04  0.24441110534E+04  0.18962159034E+04 0.  0.
        2    1    3    3  502    0 -0.27037019569E+03  0.44643994276E+03  0.17912650869E+04  0.18657543453E+04  0.25500000920E-02 0.  1.
       -2    1    3    3    0  502  0.27037019569E+03 -0.44643994276E+03 -0.24917426957E+03  0.57835670812E+03  0.25500000920E-02 0. -1.
</event>
<event>
 5   0  0.2317458E-04  0.1658427E+04  0.7818609E-02  0.8785437E-01
       -1   -1    0    0    0  501  0.00000000000E+00  0.00000000000E+00  0.54198206195E+03  0.54198206198E+03  0.50400001928E-02 0. -1.
        1   -1    0    0  501    0  0.00000000000E+00  0.00000000000E+00 -0.12686671373E+04  0.12686671373E+04  0.50400001928E-02 0.  1.
    10030    2    1    2    0    0  0.00000000000E+00  0.00000000000E+00 -0.72668507536E+03  0.18106491993E+04  0.16584267618E+04 0.  0.
        3    1    3    3  502    0  0.71473005822E+03 -0.69861137936E+02  0.89288791237E+02  0.72366576066E+03  0.10100000352E+00 0. -1.
       -3    1    3    3    0  502 -0.71473005822E+03  0.69861137936E+02 -0.81597386660E+03  0.10869834386E+04  0.10100000352E+00 0.  1.
</event>
<event>
 5   0  0.4802635E-04  0.1858463E+04  0.7818609E-02  0.8675813E-01
       -2   -1    0    0    0  501  0.00000000000E+00  0.00000000000E+00  0.15044026343E+04  0.15044026343E+04  0.25500000920E-02 0.  1.
        2   -1    0    0  501    0  0.00000000000E+00  0.00000000000E+00 -0.57396255205E+03  0.57396255206E+03  0.25500000920E-02 0. -1.
    10030    2    1    2    0    0  0.00000000000E+00  0.00000000000E+00  0.93044008221E+03  0.20783651863E+04  0.18584625638E+04 0.  0.
        3    1    3    3  502    0 -0.89040784205E+03  0.25111945935E+03  0.36783160681E+03  0.99558385344E+03  0.10100000352E+00 0. -1.
       -3    1    3    3    0  502  0.89040784205E+03 -0.25111945935E+03  0.56260847540E+03  0.10827813329E+04  0.10100000352E+00 0.  1.
</event>
<event>
 5   0  0.2261755E-04  0.1885329E+04  0.7818609E-02  0.8662194E-01
       -1   -1    0    0    0  501  0.00000000000E+00  0.00000000000E+00  0.91198819948E+03  0.91198819949E+03  0.50400001928E-02 0. -1.
        1   -1    0    0  501    0  0.00000000000E+00  0.00000000000E+00 -0.97437247725E+03  0.97437247726E+03  0.50400001928E-02 0.  1.
    10030    2    1    2    0    0  0.00000000000E+00  0.00000000000E+00 -0.62384277774E+02  0.18863606768E+04  0.18853288320E+04 0.  0.
        1    1    3    3  502    0  0.42050787519E+03 -0.32501884197E+03  0.74779165993E+03  0.91741838188E+03  0.50400001928E-02 0. -1.
       -1    1    3    3    0  502 -0.42050787519E+03  0.32501884197E+03 -0.81017593770E+03  0.96894229487E+03  0.50400001928E-02 0.  1.
</event>
<event>
 5   0  0.2510069E-04  0.1916211E+04  0.7818609E-02  0.8646829E-01
       -1   -1    0    0    0  501  0.00000000000E+00  0.00000000000E+00  0.14109308511E+04  0.14109308511E+04  0.50400001928E-02 0. -1.
        1   -1    0    0  501    0  0.00000000000E+00  0.00000000000E+00 -0.65061048355E+03  0.65061048357E+03  0.50400001928E-02 0.  1.
    10030    2    1    2    0    0  0.00000000000E+00  0.00000000000E+00  0.76032036754E+03  0.20615413347E+04  0.19162112653E+04 0.  0.
        4    1    3    3  502    0 -0.33679661469E+02 -0.78119510024E+03  0.97583566043E+03  0.12504626957E+04  0.12699999809E+01 0. -1.
       -4    1    3    3    0  502  0.33679661469E+02  0.78119510024E+03 -0.21551529289E+03  0.81107863898E+03  0.12699999809E+01 0.  1.
</event>
<event>
 5   0  0.2355414E-04  0.1867846E+04  0.7818609E-02  0.8671029E-01
       -1   -1    0    0    0  501  0.00000000000E+00  0.00000000000E+00  0.32976995423E+03  0.32976995426E+03  0.50400001928E-02 0.  1.
        1   -1    0    0  501    0  0.00000000000E+00  0.00000000000E+00 -0.26449116549E+04  0.26449116549E+04  0.50400001928E-02 0. -1.
    10030    2    1    2    0    0  0.00000000000E+00  0.00000000000E+00 -0.23151417007E+04  0.29746816092E+04  0.18678462415E+04 0.  0.
        5    1    3    3  502    0 -0.17179874533E+03  0.79653044672E+03 -0.43087094224E+03  0.92176321271E+03  0.46999998093E+01 0.  1.
       -5    1    3    3    0  502  0.17179874533E+03 -0.79653044672E+03 -0.18842707585E+04  0.20529183965E+04  0.46999998093E+01 0. -1.
</event>
<event>
 5   0  0.4802635E-04  0.1854279E+04  0.7818609E-02  0.8677956E-01
        2   -1    0    0  501    0  0.00000000000E+00  0.00000000000E+00  0.24676996931E+04  0.24676996931E+04  0.25500000920E-02 0. -1.
       -2   -1    0    0    0  501  0.00000000000E+00  0.00000000000E+00 -0.34833544431E+03  0.34833544432E+03  0.25500000920E-02 0.  1.
    10030    2    1    2    0    0  0.00000000000E+00  0.00000000000E+00  0.21193642488E+04  0.28160351374E+04  0.18542785864E+04 0.  0.
        3    1    3    3  502    0 -0.67873508040E+03  0.29350501678E+03  0.21036630650E+03  0.76881759693E+03  0.10100000352E+00 0.  1.
       -3    1    3    3    0  502  0.67873508040E+03 -0.29350501678E+03  0.19089979423E+04  0.20472175405E+04  0.10100000352E+00 0. -1.
</event>
<event>
 5   0  0.2261755E-04  0.9777773E+03  0.7818609E-02  0.9333260E-01
        1   -1    0    0  501    0  0.00000000000E+00  0.00000000000E+00  0.34073050372E+03  0.34073050376E+03  0.50400001928E-02 0. -1.
       -1   -1    0    0    0  501  0.00000000000E+00  0.00000000000E+00 -0.70146959975E+03  0.70146959977E+03  0.50400001928E-02 0.  1.
    10030    2    1    2    0    0  0.00000000000E+00  0.00000000000E+00 -0.36073909603E+03  0.10422001035E+04  0.97777725500E+03 0.  0.
        1    1    3    3  502    0 -0.23504744227E+03 -0.44560984437E+02 -0.63481646995E+03  0.67839880011E+03  0.50400001928E-02 0.  1.
       -1    1    3    3    0  502  0.23504744227E+03  0.44560984437E+02  0.27407737392E+03  0.36380130342E+03  0.50400001928E-02 0. -1.
</event>
<event>
 5   0  0.4973411E-04  0.1879808E+04  0.7818609E-02  0.8664973E-01
       -2   -1    0    0    0  501  0.00000000000E+00  0.00000000000E+00  0.12896531462E+04  0.12896531462E+04  0.25500000920E-02 0.  1.
        2   -1    0    0  501    0  0.00000000000E+00  0.00000000000E+00 -0.68500558113E+03  0.68500558113E+03  0.25500000920E-02 0. -1.
    10030    2    1    2    0    0  0.00000000000E+00  0.00000000000E+00  0.60464756508E+03  0.19746587273E+04  0.18798080784E+04 0.  0.
        1    1    3    3  502    0 -0.82467067488E+03  0.37626814327E+03  0.56337923109E+03  0.10672654757E+04  0.50400001928E-02 0.  1.
       -1    1    3    3    0  502  0.82467067488E+03 -0.37626814327E+03  0.41268333996E+02  0.90739325161E+03  0.50400001928E-02 0. -1.
</event>
<event>
 5   0  0.2510069E-04  0.1893618E+04  0.7818609E-02  0.8658040E-01
       -1   -1    0    0    0  501  0.00000000000E+00  0.00000000000E+00  0.68911711615E+03  0.68911711617E+03  0.50400001928E-02 0.  1.
        1   -1    0    0  501    0  0.00000000000E+00  0.00000000000E+00 -0.13008638093E+04  0.13008638093E+04  0.50400001928E-02 0. -1.
    10030    2    1    2    0    0  0.00000000000E+00  0.00000000000E+00 -0.61174669310E+03  0.19899809254E+04  0.18936182474E+04 0.  0.
        4    1    3    3  502    0  0.81958630508E+03 -0.38069206499E+03 -0.90132731516E+01  0.90373171451E+03  0.12699999809E+01 0.  1.
       -4    1    3    3    0  502 -0.81958630508E+03  0.38069206499E+03 -0.60273341995E+03  0.10862492109E+04  0.12699999809E+01 0. -1.
</event>
<event>
 5   0  0.2355414E-04  0.1834672E+04  0.7818609E-02  0.8688075E-01
       -1   -1    0    0    0  501  0.00000000000E+00  0.00000000000E+00  0.10016944593E+04  0.10016944594E+04  0.50400001928E-02 0. -1.
        1   -1    0    0  501    0  0.00000000000E+00  0.00000000000E+00 -0.84008224243E+03  0.84008224244E+03  0.50400001928E-02 0.  1.
    10030    2    1    2    0    0  0.00000000000E+00  0.00000000000E+00  0.16161221691E+03  0.18417767018E+04  0.18346724260E+04 0.  0.
        5    1    3    3  502    0  0.53364681895E+03  0.63172750598E+03  0.47936369947E+03  0.95586098129E+03  0.46999998093E+01 0. -1.
       -5    1    3    3    0  502 -0.53364681895E+03 -0.63172750598E+03 -0.31775148255E+03  0.88591572051E+03  0.46999998093E+01 0.  1.
</event>
<event>
 5   0  0.2376359E-04  0.1896470E+04  0.7818609E-02  0.8656616E-01
        1   -1    0    0  501    0  0.00000000000E+00  0.00000000000E+00  0.54312291001E+03  0.54312291004E+03  0.50400001928E-02 0. -1.
       -1   -1    0    0    0  501  0.00000000000E+00  0.00000000000E+00 -0.16555174337E+04  0.16555174337E+04  0.50400001928E-02 0.  1.
    10030    2    1    2    0    0  0.00000000000E+00  0.00000000000E+00 -0.11123945237E+04  0.21986403438E+04  0.18964698218E+04 0.  0.
        2    1    3    3  502    0  0.12749121797E+03  0.40465632319E+03  0.42694780655E+03  0.60190130426E+03  0.25500000920E-02 0. -1.
       -2    1    3    3    0  502 -0.12749121797E+03 -0.40465632319E+03 -0.15393423303E+04  0.15967390395E+04  0.25500000920E-02 0.  1.
</event>
<event>
 5   0  0.2510069E-04  0.1864635E+04  0.7818609E-02  0.8672663E-01
       -1   -1    0    0    0  501  0.00000000000E+00  0.00000000000E+00  0.32121051090E+03  0.32121051094E+03  0.50400001928E-02 0.  1.
        1   -1    0    0  501    0  0.00000000000E+00  0.00000000000E+00 -0.27060641234E+04  0.27060641234E+04  0.50400001928E-02 0. -1.
    10030    2    1    2    0    0  0.00000000000E+00  0.00000000000E+00 -0.23848536125E+04  0.30272746344E+04  0.18646353420E+04 0.  0.
        4    1    3    3  502    0  0.66471570990E+03 -0.37785388218E+03 -0.32632119322E+03  0.83132885510E+03  0.12699999809E+01 0.  1.
       -4    1    3    3    0  502 -0.66471570990E+03  0.37785388218E+03 -0.20585324193E+04  0.21959457793E+04  0.12699999809E+01 0. -1.
</event>
<event>
 5   0  0.2355414E-04  0.1872242E+04  0.7818609E-02  0.8668798E-01
       -1   -1    0    0    0  501  0.00000000000E+00  0.00000000000E+00  0.88909554518E+03  0.88909554520E+03  0.50400001928E-02 0.  1.
        1   -1    0    0  501    0  0.00000000000E+00  0.00000000000E+00 -0.98563367659E+03  0.98563367660E+03  0.50400001928E-02 0. -1.
    10030    2    1    2    0    0  0.00000000000E+00  0.00000000000E+00 -0.96538131405E+02  0.18747292218E+04  0.18722419834E+04 0.  0.
        5    1    3    3  502    0  0.36850801682E+03 -0.13985469738E+03 -0.89848063758E+03  0.98114577966E+03  0.46999998093E+01 0. -1.
       -5    1    3    3    0  502 -0.36850801682E+03  0.13985469738E+03  0.80194250618E+03  0.89358344213E+03  0.46999998093E+01 0.  1.
</event>
<event>
 5   0  0.4829134E-04  0.1472949E+04  0.7818609E-02  0.8902644E-01
        2   -1    0    0  501    0  0.00000000000E+00  0.00000000000E+00  0.10222065303E+04  0.10222065303E+04  0.25500000920E-02 0. -1.
       -2   -1    0    0    0  501  0.00000000000E+00  0.00000000000E+00 -0.53061154650E+03  0.53061154650E+03  0.25500000920E-02 0.  1.
    10030    2    1    2    0    0  0.00000000000E+00  0.00000000000E+00  0.49159498376E+03  0.15528180768E+04  0.14729488625E+04 0.  0.
        2    1    3    3  502    0  0.21414046504E+03 -0.44052837270E+03 -0.33400003781E+03  0.59285530375E+03  0.25500000920E-02 0. -1.
       -2    1    3    3    0  502 -0.21414046504E+03  0.44052837270E+03  0.82559502157E+03  0.95996277301E+03  0.25500000920E-02 0.  1.
</event>
<event>
 5   0  0.2261755E-04  0.1898976E+04  0.7818609E-02  0.8655366E-01
        1   -1    0    0  501    0  0.00000000000E+00  0.00000000000E+00  0.10141130083E+04  0.10141130084E+04  0.50400001928E-02 0.  1.
       -1   -1    0    0    0  501  0.00000000000E+00  0.00000000000E+00 -0.88898152455E+03  0.88898152457E+03  0.50400001928E-02 0. -1.
    10030    2    1    2    0    0  0.00000000000E+00  0.00000000000E+00  0.12513148379E+03  0.19030945329E+04  0.18989762803E+04 0.  0.
        1    1    3    3  502    0  0.28394073581E+02 -0.34555079288E+03 -0.82327208897E+03  0.89330202417E+03  0.50400001928E-02 0. -1.
       -1    1    3    3    0  502 -0.28394073581E+02  0.34555079288E+03  0.94840357276E+03  0.10097925088E+04  0.50400001928E-02 0.  1.
</event>
<event>
 5   0  0.2261755E-04  0.1890505E+04  0.7818609E-02  0.8659597E-01
       -1   -1    0    0    0  501  0.00000000000E+00  0.00000000000E+00  0.45670337866E+03  0.45670337868E+03  0.50400001928E-02 0. -1.
        1   -1    0    0  501    0  0.00000000000E+00  0.00000000000E+00 -0.19564172103E+04  0.19564172104E+04  0.50400001928E-02 0.  1.
    10030    2    1    2    0    0  0.00000000000E+00  0.00000000000E+00 -0.14997138317E+04  0.24131205890E+04  0.18905050649E+04 0.  0.
        1    1    3    3  502    0  0.85249211940E+03  0.99794831902E+02 -0.12553031209E+04  0.15206866040E+04  0.50400001928E-02 0.  1.
       -1    1    3    3    0  502 -0.85249211940E+03 -0.99794831902E+02 -0.24441071078E+03  0.89243398506E+03  0.50400001928E-02 0. -1.
</event>
<event>
 5   0  0.2261755E-04  0.1905392E+04  0.7818609E-02  0.8652177E-01
        1   -1    0    0  501    0  0.00000000000E+00  0.00000000000E+00  0.12889013390E+04  0.12889013390E+04  0.50400001928E-02 0. -1.
       -1   -1    0    0    0  501  0.00000000000E+00  0.00000000000E+00 -0.70418841579E+03  0.70418841580E+03  0.50400001928E-02 0.  1.
    10030    2    1    2    0    0  0.00000000000E+00  0.00000000000E+00  0.58471292317E+03  0.19930897548E+04  0.19053917099E+04 0.  0.
        1    1    3    3  502    0 -0.75522796040E+03 -0.47226378913E+03 -0.61174157777E+02  0.89282956733E+03  0.50400001928E-02 0. -1.
       -1    1    3    3    0  502  0.75522796040E+03  0.47226378913E+03  0.64588708094E+03  0.11002601874E+04  0.50400001928E-02 0.  1.
</event>
<event>
 5   0  0.4761944E-04  0.1865193E+04  0.7818609E-02  0.8672379E-01
        2   -1    0    0  501    0  0.00000000000E+00  0.00000000000E+00  0.12921433741E+04  0.12921433741E+04  0.25500000920E-02 0.  1.
       -2   -1    0    0    0  501  0.00000000000E+00  0.00000000000E+00 -0.67309578123E+03  0.67309578123E+03  0.25500000920E-02 0. -1.
    10030    2    1    2    0    0  0.00000000000E+00  0.00000000000E+00  0.61904759285E+03  0.19652391553E+04  0.18651930236E+04 0.  0.
        4    1    3    3  502    0  0.15766101747E+03 -0.42393390465E+03 -0.54979425284E+03  0.71193559070E+03  0.12699999809E+01 0. -1.
       -4    1    3    3    0  502 -0.15766101747E+03  0.42393390465E+03  0.11688418457E+04  0.12533035646E+04  0.12699999809E+01 0.  1.
</event>
<event>
 5   0  0.2317458E-04  0.1755012E+04  0.7818609E-02  0.8730596E-01
       -1   -1    0    0    0  501  0.00000000000E+00  0.00000000000E+00  0.64916842716E+03  0.64916842718E+03  0.50400001928E-02 0.  1.
        1   -1    0    0  501    0  0.00000000000E+00  0.00000000000E+00 -0.11861585564E+04  0.11861585564E+04  0.50400001928E-02 0. -1.
    10030    2    1    2    0    0  0.00000000000E+00  0.00000000000E+00 -0.53699012927E+03  0.18353269836E+04  0.17550118911E+04 0.  0.
        3    1    3    3  502    0  0.84049236731E+03 -0.15829012593E+03 -0.63212264323E+02  0.85760071364E+03  0.10100000352E+00 0.  1.
       -3    1    3    3    0  502 -0.84049236731E+03  0.15829012593E+03 -0.47377786494E+03  0.97772626997E+03  0.10100000352E+00 0. -1.
</event>
<event>
 5   0  0.4761944E-04  0.1925800E+04  0.7818609E-02  0.8642120E-01
       -2   -1    0    0    0  501  0.00000000000E+00  0.00000000000E+00  0.58711069533E+03  0.58711069534E+03  0.25500000920E-02 0.  1.
        2   -1    0    0  501    0  0.00000000000E+00  0.00000000000E+00 -0.15792185445E+04  0.15792185445E+04  0.25500000920E-02 0. -1.
    10030    2    1    2    0    0  0.00000000000E+00  0.00000000000E+00 -0.99210784917E+03  0.21663292398E+04  0.19257996757E+04 0.  0.
        4    1    3    3  502    0 -0.48417541428E+03 -0.76718607588E+03 -0.85912645629E+03  0.12494399496E+04  0.12699999809E+01 0. -1.
       -4    1    3    3    0  502  0.48417541428E+03  0.76718607588E+03 -0.13298139287E+03  0.91688929025E+03  0.12699999809E+01 0.  1.
</event>
<event>
 5   0  0.4802635E-04  0.1917057E+04  0.7818609E-02  0.8646412E-01
        2   -1    0    0  501    0  0.00000000000E+00  0.00000000000E+00  0.13029216732E+04  0.13029216732E+04  0.25500000920E-02 0. -1.
       -2   -1    0    0    0  501  0.00000000000E+00  0.00000000000E+00 -0.70516696907E+03  0.70516696907E+03  0.25500000920E-02 0.  1.
    10030    2    1    2    0    0  0.00000000000E+00  0.00000000000E+00  0.59775470410E+03  0.20080886422E+04  0.19170574610E+04 0.  0.
        3    1    3    3  502    0  0.89030870231E+03  0.31447709425E+03  0.12602048723E+03  0.95258941923E+03  0.10100000352E+00 0. -1.
       -3    1    3    3    0  502 -0.89030870231E+03 -0.31447709425E+03  0.47173421688E+03  0.10554992230E+04  0.10100000352E+00 0.  1.
</event>
<event>
 5   0  0.4973411E-04  0.1119665E+04  0.7818609E-02  0.9186234E-01
       -2   -1    0    0    0  501  0.00000000000E+00  0.00000000000E+00  0.41320871518E+03  0.41320871519E+03  0.25500000920E-02 0. -1.
        2   -1    0    0  501    0  0.00000000000E+00  0.00000000000E+00 -0.75848442977E+03  0.75848442978E+03  0.25500000920E-02 0.  1.
    10030    2    1    2    0    0  0.00000000000E+00  0.00000000000E+00 -0.34527571459E+03  0.11716931450E+04  0.11196649083E+04 0.  0.
        1    1    3    3  502    0  0.48360961759E+03 -0.13028852744E+03 -0.43437826216E+03  0.66297649828E+03  0.50400001928E-02 0.  1.
       -1    1    3    3    0  502 -0.48360961759E+03  0.13028852744E+03  0.89102547572E+02  0.50871664669E+03  0.50400001928E-02 0. -1.
</event>
<event>
 5   0  0.4761944E-04  0.1897215E+04  0.7818609E-02  0.8656244E-01
       -2   -1    0    0    0  501  0.00000000000E+00  0.00000000000E+00  0.32409532747E+03  0.32409532748E+03  0.25500000920E-02 0.  1.
        2   -1    0    0  501    0  0.00000000000E+00  0.00000000000E+00 -0.27765158079E+04  0.27765158079E+04  0.25500000920E-02 0. -1.
    10030    2    1    2    0    0  0.00000000000E+00  0.00000000000E+00 -0.24524204804E+04  0.31006111354E+04  0.18972145899E+04 0.  0.
        4    1    3    3  502    0  0.49947307583E+03 -0.20547199891E+03 -0.25007122347E+04  0.25583696742E+04  0.12699999809E+01 0. -1.
       -4    1    3    3    0  502 -0.49947307583E+03  0.20547199891E+03  0.48291754311E+02  0.54224146121E+03  0.12699999809E+01 0.  1.
</event>
<event>
 5   0  0.2317458E-04  0.1883171E+04  0.7818609E-02  0.8663279E-01
       -1   -1    0    0    0  501  0.00000000000E+00  0.00000000000E+00  0.14330187751E+04  0.14330187751E+04  0.50400001928E-02 0.  1.
        1   -1    0    0  501    0  0.00000000000E+00  0.00000000000E+00 -0.61868245782E+03  0.61868245785E+03  0.50400001928E-02 0. -1.
    10030    2    1    2    0    0  0.00000000000E+00  0.00000000000E+00  0.81433631725E+03  0.20517012329E+04  0.18831713442E+04 0.  0.
        3    1    3    3  502    0  0.59830409100E+03 -0.49612445961E+03 -0.17188081044E+03  0.79602153735E+03  0.10100000352E+00 0. -1.
       -3    1    3    3    0  502 -0.59830409100E+03  0.49612445961E+03  0.98621712770E+03  0.12556796956E+04  0.10100000352E+00 0.  1.
</event>
<event>
 5   0  0.4802635E-04  0.1930029E+04  0.7818609E-02  0.8640052E-01
       -2   -1    0    0    0  501  0.00000000000E+00  0.00000000000E+00  0.37882185010E+03  0.37882185011E+03  0.25500000920E-02 0.  1.
        2   -1    0    0  501    0  0.00000000000E+00  0.00000000000E+00 -0.24582883486E+04  0.24582883486E+04  0.25500000920E-02 0. -1.
    10030    2    1    2    0    0  0.00000000000E+00  0.00000000000E+00 -0.20794664985E+04  0.28371101987E+04  0.19300293680E+04 0.  0.
        3    1    3    3  502    0 -0.32101445782E+03 -0.22847808131E+03 -0.23346545536E+04  0.23676706719E+04  0.10100000352E+00 0. -1.
       -3    1    3    3    0  502  0.32101445782E+03  0.22847808131E+03  0.25518805503E+03  0.46943952688E+03  0.10100000352E+00 0.  1.
</event>
<event>
 5   0  0.2317458E-04  0.1876591E+04  0.7818609E-02  0.8666597E-01
        1   -1    0    0  501    0  0.00000000000E+00  0.00000000000E+00  0.92249982656E+03  0.92249982657E+03  0.50400001928E-02 0. -1.
       -1   -1    0    0    0  501  0.00000000000E+00  0.00000000000E+00 -0.95436122584E+03  0.95436122586E+03  0.50400001928E-02 0.  1.
    10030    2    1    2    0    0  0.00000000000E+00  0.00000000000E+00 -0.31861399287E+02  0.18768610524E+04  0.18765905950E+04 0.  0.
        3    1    3    3  502    0 -0.58279042291E+03  0.19607681798E+02 -0.75113453934E+03  0.95091127063E+03  0.10100000352E+00 0. -1.
       -3    1    3    3    0  502  0.58279042291E+03 -0.19607681798E+02  0.71927314005E+03  0.92594978180E+03  0.10100000352E+00 0.  1.
</event>
<event>
 5   0  0.4761944E-04  0.1889536E+04  0.7818609E-02  0.8660083E-01
        2   -1    0    0  501    0  0.00000000000E+00  0.00000000000E+00  0.72465121382E+03  0.72465121383E+03  0.25500000920E-02 0.  1.
       -2   -1    0    0    0  501  0.00000000000E+00  0.00000000000E+00 -0.12317462292E+04  0.12317462292E+04  0.25500000920E-02 0. -1.
    10030    2    1    2    0    0  0.00000000000E+00  0.00000000000E+00 -0.50709501538E+03  0.19563974430E+04  0.18895358161E+04 0.  0.
        4    1    3    3  502    0 -0.48940358650E+03  0.41427587563E+03 -0.97196191785E+03  0.11644105609E+04  0.12699999809E+01 0. -1.
       -4    1    3    3    0  502  0.48940358650E+03 -0.41427587563E+03  0.46486690247E+03  0.79198688217E+03  0.12699999809E+01 0.  1.
</event>
<event>
 5   0  0.4829134E-04  0.1932663E+04  0.7818609E-02  0.8638767E-01
        2   -1    0    0  501    0  0.00000000000E+00  0.00000000000E+00  0.11059493811E+04  0.11059493811E+04  0.25500000920E-02 0.  1.
       -2   -1    0    0    0  501  0.00000000000E+00  0.00000000000E+00 -0.84433901615E+03  0.84433901615E+03  0.25500000920E-02 0. -1.
    10030    2    1    2    0    0  0.00000000000E+00  0.00000000000E+00  0.26161036492E+03  0.19502883972E+04  0.19326626320E+04 0.  0.
        2    1    3    3  502    0 -0.48017937673E+02 -0.25360527219E+03 -0.80890974513E+03  0.84909147457E+03  0.25500000920E-02 0. -1.
       -2    1    3    3    0  502  0.48017937673E+02  0.25360527219E+03  0.10705201100E+04  0.11011969226E+04  0.25500000920E-02 0.  1.
</event>
<event>
 5   0  0.4973411E-04  0.1851587E+04  0.7818609E-02  0.8679337E-01
        2   -1    0    0  501    0  0.00000000000E+00  0.00000000000E+00  0.19004017593E+04  0.19004017593E+04  0.25500000920E-02 0. -1.
       -2   -1    0    0    0  501  0.00000000000E+00  0.00000000000E+00 -0.45100655383E+03  0.45100655384E+03  0.25500000920E-02 0.  1.
    10030    2    1    2    0    0  0.00000000000E+00  0.00000000000E+00  0.14493952054E+04  0.23514083131E+04  0.18515870472E+04 0.  0.
        1    1    3    3  502    0 -0.91543466334E+03  0.53924377297E+02  0.88616107291E+03  0.12752293552E+04  0.50400001928E-02 0. -1.
       -1    1    3    3    0  502  0.91543466334E+03 -0.53924377297E+02  0.56323413254E+03  0.10761789579E+04  0.50400001928E-02 0.  1.
</event>
<event>
 5   0  0.4802635E-04  0.1889216E+04  0.7818609E-02  0.8660243E-01
       -2   -1    0    0    0  501  0.00000000000E+00  0.00000000000E+00  0.99088352119E+03  0.99088352119E+03  0.25500000920E-02 0. -1.
        2   -1    0    0  501    0  0.00000000000E+00  0.00000000000E+00 -0.90049375140E+03  0.90049375140E+03  0.25500000920E-02 0.  1.
    10030    2    1    2    0    0  0.00000000000E+00  0.00000000000E+00  0.90389769793E+02  0.18913772726E+04  0.18892161541E+04 0.  0.
        3    1    3    3  502    0  0.84140606849E+03  0.89741985252E+02 -0.37512655715E+03  0.92560128570E+03  0.10100000352E+00 0.  1.
       -3    1    3    3    0  502 -0.84140606849E+03 -0.89741985252E+02  0.46551632695E+03  0.96577598690E+03  0.10100000352E+00 0. -1.
</event>
<event>
 5   0  0.4829134E-04  0.1947476E+04  0.7818609E-02  0.8631579E-01
        2   -1    0    0  501    0  0.00000000000E+00  0.00000000000E+00  0.13565881268E+04  0.13565881268E+04  0.25500000920E-02 0. -1.
       -2   -1    0    0    0  501  0.00000000000E+00  0.00000000000E+00 -0.69893437657E+03  0.69893437658E+03  0.25500000920E-02 0.  1.
    10030    2    1    2    0    0  0.00000000000E+00  0.00000000000E+00  0.65765375025E+03  0.20555225034E+04  0.19474763944E+04 0.  0.
        2    1    3    3  502    0  0.35991267155E+03  0.96034853102E+02  0.12784107058E+04  0.13315756670E+04  0.25500000920E-02 0. -1.
       -2    1    3    3    0  502 -0.35991267155E+03 -0.96034853102E+02 -0.62075695554E+03  0.72394683645E+03  0.25500000920E-02 0.  1.
</event>
<event>
 5   0  0.2376359E-04  0.2036508E+04  0.7818609E-02  0.8589740E-01
       -1   -1    0    0    0  501  0.00000000000E+00  0.00000000000E+00  0.69530224705E+03  0.69530224707E+03  0.50400001928E-02 0. -1.
        1   -1    0    0  501    0  0.00000000000E+00  0.00000000000E+00 -0.14912095493E+04  0.14912095493E+04  0.50400001928E-02 0.  1.
    10030    2    1    2    0    0  0.00000000000E+00  0.00000000000E+00 -0.79590730221E+03  0.21865117963E+04  0.20365081394E+04 0.  0.
        2    1    3    3  502    0 -0.36390926021E+03  0.25240536125E+01  0.62309670015E+03  0.72158562781E+03  0.25500000920E-02 0. -1.
       -2    1    3    3    0  502  0.36390926021E+03 -0.25240536125E+01 -0.14190040024E+04  0.14649261685E+04  0.25500000920E-02 0.  1.
</event>
<event>
 5   0  0.2376359E-04  0.1896392E+04  0.7818609E-02  0.8656655E-01
        1   -1    0    0  501    0  0.00000000000E+00  0.00000000000E+00  0.27158166965E+04  0.27158166966E+04  0.50400001928E-02 0. -1.
       -1   -1    0    0    0  501  0.00000000000E+00  0.00000000000E+00 -0.33105155129E+03  0.33105155133E+03  0.50400001928E-02 0.  1.
    10030    2    1    2    0    0  0.00000000000E+00  0.00000000000E+00  0.23847651453E+04  0.30468682479E+04  0.18963916584E+04 0.  0.
        2    1    3    3  502    0 -0.80825257033E+03  0.30273603492E+03  0.56156606967E+03  0.10296979047E+04  0.25500000920E-02 0.  1.
       -2    1    3    3    0  502  0.80825257033E+03 -0.30273603492E+03  0.18231990756E+04  0.20171703432E+04  0.25500000920E-02 0. -1.
</event>
<event>
 5   0  0.2510069E-04  0.1897931E+04  0.7818609E-02  0.8655887E-01
        1   -1    0    0  501    0  0.00000000000E+00  0.00000000000E+00  0.12797707913E+04  0.12797707913E+04  0.50400001928E-02 0.  1.
       -1   -1    0    0    0  501  0.00000000000E+00  0.00000000000E+00 -0.70366927419E+03  0.70366927421E+03  0.50400001928E-02 0. -1.
    10030    2    1    2    0    0  0.00000000000E+00  0.00000000000E+00  0.57610151711E+03  0.19834400655E+04  0.18979308564E+04 0.  0.
        4    1    3    3  502    0 -0.63522376486E+03 -0.52327071569E+03  0.78179012353E+03  0.11351294567E+04  0.12699999809E+01 0.  1.
       -4    1    3    3    0  502  0.63522376486E+03  0.52327071569E+03 -0.20568860642E+03  0.84831060882E+03  0.12699999809E+01 0. -1.
</event>
<event>
 5   0  0.2355414E-04  0.1910953E+04  0.7818609E-02  0.8649423E-01
        1   -1    0    0  501    0  0.00000000000E+00  0.00000000000E+00  0.11540006150E+04  0.11540006150E+04  0.50400001928E-02 0. -1.
       -1   -1    0    0    0  501  0.00000000000E+00  0.00000000000E+00 -0.79110494946E+03  0.79110494947E+03  0.50400001928E-02 0.  1.
    10030    2    1    2    0    0  0.00000000000E+00  0.00000000000E+00  0.36289566550E+03  0.19451055644E+04  0.19109532681E+04 0.  0.
        5    1    3    3  502    0  0.14920558172E+03  0.52577133714E+03 -0.61627783750E+03  0.82372220290E+03  0.46999998093E+01 0.  1.
       -5    1    3    3    0  502 -0.14920558172E+03 -0.52577133714E+03  0.97917350300E+03  0.11213833615E+04  0.46999998093E+01 0. -1.
</event>
<event>
 5   0  0.2355414E-04  0.1722668E+04  0.7818609E-02  0.8748541E-01
       -1   -1    0    0    0  501  0.00000000000E+00  0.00000000000E+00  0.73842765454E+03  0.73842765456E+03  0.50400001928E-02 0. -1.
        1   -1    0    0  501    0  0.00000000000E+00  0.00000000000E+00 -0.10046969349E+04  0.10046969350E+04  0.50400001928E-02 0.  1.
    10030    2    1    2    0    0  0.00000000000E+00  0.00000000000E+00 -0.26626928041E+03  0.17431245895E+04  0.17226677001E+04 0.  0.
        5    1    3    3  502    0 -0.73271656726E+03  0.22399690442E+03 -0.53128625997E+03  0.93238155342E+03  0.46999998093E+01 0.  1.
       -5    1    3    3    0  502  0.73271656726E+03 -0.22399690442E+03  0.26501697956E+03  0.81074303610E+03  0.46999998093E+01 0. -1.
</event>
<event>
 5   0  0.4802635E-04  0.1882609E+04  0.7818609E-02  0.8663562E-01
       -2   -1    0    0    0  501  0.00000000000E+00  0.00000000000E+00  0.15608132609E+04  0.15608132609E+04  0.25500000920E-02 0. -1.
        2   -1    0    0  501    0  0.00000000000E+00  0.00000000000E+00 -0.56768729684E+03  0.56768729684E+03  0.25500000920E-02 0.  1.
    10030    2    1    2    0    0  0.00000000000E+00  0.00000000000E+00  0.99312596403E+03  0.21285005577E+04  0.18826086805E+04 0.  0.
        3    1    3    3  502    0 -0.14459948014E+03  0.22090773902E+03 -0.52496549239E+03  0.58762064056E+03  0.10100000352E+00 0.  1.
       -3    1    3    3    0  502  0.14459948014E+03 -0.22090773902E+03  0.15180914564E+04  0.15408799172E+04  0.10100000352E+00 0. -1.
</event>
<event>
 5   0  0.4802635E-04  0.1918334E+04  0.7818609E-02  0.8645784E-01
        2   -1    0    0  501    0  0.00000000000E+00  0.00000000000E+00  0.17536950709E+04  0.17536950709E+04  0.25500000920E-02 0. -1.
       -2   -1    0    0    0  501  0.00000000000E+00  0.00000000000E+00 -0.52460720352E+03  0.52460720353E+03  0.25500000920E-02 0.  1.
    10030    2    1    2    0    0  0.00000000000E+00  0.00000000000E+00  0.12290878674E+04  0.22783022744E+04  0.19183337217E+04 0.  0.
        3    1    3    3  502    0 -0.53509666961E+03 -0.73895155667E+03  0.96610174881E+03  0.13288079049E+04  0.10100000352E+00 0.  1.
       -3    1    3    3    0  502  0.53509666961E+03  0.73895155667E+03  0.26298611854E+03  0.94949436948E+03  0.10100000352E+00 0. -1.
</event>
<event>
 5   0  0.2355414E-04  0.1925182E+04  0.7818609E-02  0.8642422E-01
       -1   -1    0    0    0  501  0.00000000000E+00  0.00000000000E+00  0.91736822622E+03  0.91736822623E+03  0.50400001928E-02 0. -1.
        1   -1    0    0  501    0  0.00000000000E+00  0.00000000000E+00 -0.10100426067E+04  0.10100426067E+04  0.50400001928E-02 0.  1.
    10030    2    1    2    0    0  0.00000000000E+00  0.00000000000E+00 -0.92674380475E+02  0.19274108329E+04  0.19251815442E+04 0.  0.
        5    1    3    3  502    0  0.55647094328E+03  0.88801044577E+01 -0.83262560696E+03  0.10015119861E+04  0.46999998093E+01 0.  1.
       -5    1    3    3    0  502 -0.55647094328E+03 -0.88801044577E+01  0.73995122648E+03  0.92589884682E+03  0.46999998093E+01 0. -1.
</event>
<event>
 5   0  0.4973411E-04  0.1867757E+04  0.7818609E-02  0.8671075E-01
        2   -1    0    0  501    0  0.00000000000E+00  0.00000000000E+00  0.13541605697E+04  0.13541605697E+04  0.25500000920E-02 0.  1.
       -2   -1    0    0    0  501  0.00000000000E+00  0.00000000000E+00 -0.64403641700E+03  0.64403641700E+03  0.25500000920E-02 0. -1.
    10030    2    1    2    0    0  0.00000000000E+00  0.00000000000E+00  0.71012415269E+03  0.19981969867E+04  0.18677566451E+04 0.  0.
        1    1    3    3  502    0 -0.20952485506E+03 -0.88401625040E+03  0.58636323727E+03  0.10812988680E+04  0.50400001928E-02 0.  1.
       -1    1    3    3    0  502  0.20952485506E+03  0.88401625040E+03  0.12376091542E+03  0.91689811870E+03  0.50400001928E-02 0. -1.
</event>
<event>
 5   0  0.2376359E-04  0.1917816E+04  0.7818609E-02  0.8646039E-01
        1   -1    0    0  501    0  0.00000000000E+00  0.00000000000E+00  0.19380520810E+04  0.19380520810E+04  0.50400001928E-02 0.  1.
       -1   -1    0    0    0  501  0.00000000000E+00  0.00000000000E+00 -0.47444768485E+03  0.47444768487E+03  0.50400001928E-02 0. -1.
    10030    2    1    2    0    0  0.00000000000E+00  0.00000000000E+00  0.14636043962E+04  0.24124997659E+04  0.19178157607E+04 0.  0.
        2    1    3    3  502    0  0.85711462960E+03 -0.37162189580E+03  0.10038085698E+04  0.13712694726E+04  0.25500000920E-02 0. -1.
       -2    1    3    3    0  502 -0.85711462960E+03  0.37162189580E+03  0.45979582637E+03  0.10412302933E+04  0.25500000920E-02 0.  1.
</event>
<event>
 5   0  0.4802635E-04  0.1921349E+04  0.7818609E-02  0.8644302E-01
        2   -1    0    0  501    0  0.00000000000E+00  0.00000000000E+00  0.19329652221E+04  0.19329652221E+04  0.25500000920E-02 0. -1.
       -2   -1    0    0    0  501  0.00000000000E+00  0.00000000000E+00 -0.47745087105E+03  0.47745087106E+03  0.25500000920E-02 0.  1.
    10030    2    1    2    0    0  0.00000000000E+00  0.00000000000E+00  0.14555143511E+04  0.24104160932E+04  0.19213494518E+04 0.  0.
        3    1    3    3  502    0 -0.69009846020E+02  0.79023752354E+03  0.47917141075E+02  0.79469098716E+03  0.10100000352E+00 0.  1.
       -3    1    3    3    0  502  0.69009846020E+02 -0.79023752354E+03  0.14075972100E+04  0.16157251060E+04  0.10100000352E+00 0. -1.
</event>
<event>
 5   0  0.4761944E-04  0.1892099E+04  0.7818609E-02  0.8658799E-01
       -2   -1    0    0    0  501  0.00000000000E+00  0.00000000000E+00  0.84155852046E+03  0.84155852047E+03  0.25500000920E-02 0.  1.
        2   -1    0    0  501    0  0.00000000000E+00  0.00000000000E+00 -0.10635149900E+04  0.10635149900E+04  0.25500000920E-02 0. -1.
    10030    2    1    2    0    0  0.00000000000E+00  0.00000000000E+00 -0.22195646949E+03  0.19050735104E+04  0.18920994704E+04 0.  0.
        4    1    3    3  502    0 -0.35192349223E+02  0.41070835838E+03  0.74638197142E+03  0.85264735808E+03  0.12699999809E+01 0.  1.
       -4    1    3    3    0  502  0.35192349223E+02 -0.41070835838E+03 -0.96833844091E+03  0.10524261523E+04  0.12699999809E+01 0. -1.
</event>
<event>
 5   0  0.4839293E-04  0.1988063E+04  0.7818609E-02  0.8612222E-01
        2   -1    0    0  501    0  0.00000000000E+00  0.00000000000E+00  0.11339633621E+04  0.11339633621E+04  0.25500000920E-02 0.  1.
       -2   -1    0    0    0  501  0.00000000000E+00  0.00000000000E+00 -0.87136755302E+03  0.87136755302E+03  0.25500000920E-02 0. -1.
    10030    2    1    2    0    0  0.00000000000E+00  0.00000000000E+00  0.26259580908E+03  0.20053309151E+04  0.19880632586E+04 0.  0.
        5    1    3    3  502    0  0.58723406315E+03  0.79452445967E+03  0.20968586853E+02  0.98821795854E+03  0.46999998093E+01 0.  1.
       -5    1    3    3    0  502 -0.58723406315E+03 -0.79452445967E+03  0.24162722223E+03  0.10171129566E+04  0.46999998093E+01 0. -1.
</event>
<event>
 5   0  0.2261755E-04  0.1729176E+04  0.7818609E-02  0.8744897E-01
       -1   -1    0    0    0  501  0.00000000000E+00  0.00000000000E+00  0.54308323043E+03  0.54308323045E+03  0.50400001928E-02 0.  1.
        1   -1    0    0  501    0  0.00000000000E+00  0.00000000000E+00 -0.13764238017E+04  0.13764238017E+04  0.50400001928E-02 0. -1.
    10030    2    1    2    0    0  0.00000000000E+00  0.00000000000E+00 -0.83334057128E+03  0.19195070322E+04  0.17291763180E+04 0.  0.
        1    1    3    3  502    0  0.78723540679E+02  0.82104268997E+03 -0.70444233141E+03  0.10846877398E+04  0.50400001928E-02 0. -1.
       -1    1    3    3    0  502 -0.78723540679E+02 -0.82104268997E+03 -0.12889823987E+03  0.83481929235E+03  0.50400001928E-02 0.  1.
</event>
<event>
 5   0  0.2317458E-04  0.1916352E+04  0.7818609E-02  0.8646759E-01
       -1   -1    0    0    0  501  0.00000000000E+00  0.00000000000E+00  0.31360168198E+03  0.31360168202E+03  0.50400001928E-02 0. -1.
        1   -1    0    0  501    0  0.00000000000E+00  0.00000000000E+00 -0.29276034072E+04  0.29276034072E+04  0.50400001928E-02 0.  1.
    10030    2    1    2    0    0  0.00000000000E+00  0.00000000000E+00 -0.26140017252E+04  0.32412050892E+04  0.19163521104E+04 0.  0.
        3    1    3    3  502    0  0.72967068138E+03  0.61886569802E+03 -0.12193233471E+04  0.15498914447E+04  0.10100000352E+00 0. -1.
       -3    1    3    3    0  502 -0.72967068138E+03 -0.61886569802E+03 -0.13946783780E+04  0.16913136444E+04  0.10100000352E+00 0.  1.
</event>
<event>
 5   0  0.2510069E-04  0.1828287E+04  0.7818609E-02  0.8691400E-01
       -1   -1    0    0    0  501  0.00000000000E+00  0.00000000000E+00  0.62115604775E+03  0.62115604777E+03  0.50400001928E-02 0.  1.
        1   -1    0    0  501    0  0.00000000000E+00  0.00000000000E+00 -0.13453276142E+04  0.13453276142E+04  0.50400001928E-02 0. -1.
    10030    2    1    2    0    0  0.00000000000E+00  0.00000000000E+00 -0.72417156641E+03  0.19664836619E+04  0.18282870494E+04 0.  0.
        4    1    3    3  502    0  0.83967471888E+03 -0.18260307014E+03 -0.26648423225E+02  0.85971464225E+03  0.12699999809E+01 0.  1.
       -4    1    3    3    0  502 -0.83967471888E+03  0.18260307014E+03 -0.69752314318E+03  0.11067690197E+04  0.12699999809E+01 0. -1.
</event>
<event>
 5   0  0.2355414E-04  0.1786814E+04  0.7818609E-02  0.8713343E-01
        1   -1    0    0  501    0  0.00000000000E+00  0.00000000000E+00  0.12067218721E+04  0.12067218721E+04  0.50400001928E-02 0.  1.
       -1   -1    0    0    0  501  0.00000000000E+00  0.00000000000E+00 -0.66144133937E+03  0.66144133939E+03  0.50400001928E-02 0. -1.
    10030    2    1    2    0    0  0.00000000000E+00  0.00000000000E+00  0.54528053271E+03  0.18681632115E+04  0.17868136236E+04 0.  0.
        5    1    3    3  502    0 -0.12595818822E+03 -0.49818970968E+02 -0.65063013987E+03  0.66459691840E+03  0.46999998093E+01 0. -1.
       -5    1    3    3    0  502  0.12595818822E+03  0.49818970968E+02  0.11959106726E+04  0.12035662931E+04  0.46999998093E+01 0.  1.
</event>
<event>
 5   0  0.4802635E-04  0.1753486E+04  0.7818609E-02  0.8731434E-01
       -2   -1    0    0    0  501  0.00000000000E+00  0.00000000000E+00  0.58791039039E+03  0.58791039039E+03  0.25500000920E-02 0.  1.
        2   -1    0    0  501    0  0.00000000000E+00  0.00000000000E+00 -0.13074745209E+04  0.13074745209E+04  0.25500000920E-02 0. -1.
    10030    2    1    2    0    0  0.00000000000E+00  0.00000000000E+00 -0.71956413054E+03  0.18953849113E+04  0.17534855072E+04 0.  0.
        3    1    3    3  502    0  0.65180974840E+03  0.56874115192E+03 -0.51400006182E+03  0.10062397924E+04  0.10100000352E+00 0. -1.
       -3    1    3    3    0  502 -0.65180974840E+03 -0.56874115192E+03 -0.20556406873E+03  0.88914511895E+03  0.10100000352E+00 0.  1.
</event>
<event>
 5   0  0.2376359E-04  0.1968546E+04  0.7818609E-02  0.8621469E-01
        1   -1    0    0  501    0  0.00000000000E+00  0.00000000000E+00  0.85044981870E+03  0.85044981871E+03  0.50400001928E-02 0. -1.
       -1   -1    0    0    0  501  0.00000000000E+00  0.00000000000E+00 -0.11391544958E+04  0.11391544958E+04  0.50400001928E-02 0.  1.
    10030    2    1    2    0    0  0.00000000000E+00  0.00000000000E+00 -0.28870467707E+03  0.19896043145E+04  0.19685464022E+04 0.  0.
        2    1    3    3  502    0 -0.64987103899E+03  0.45944048999E+03  0.44095897755E+03  0.90986963410E+03  0.25500000920E-02 0. -1.
       -2    1    3    3    0  502  0.64987103899E+03 -0.45944048999E+03 -0.72966365462E+03  0.10797346804E+04  0.25500000920E-02 0.  1.
</event>
<event>
 5   0  0.2510069E-04  0.1863656E+04  0.7818609E-02  0.8673162E-01
       -1   -1    0    0    0  501  0.00000000000E+00  0.00000000000E+00  0.91393976411E+03  0.91393976413E+03  0.50400001928E-02 0.  1.
        1   -1    0    0  501    0  0.00000000000E+00  0.00000000000E+00 -0.95006607120E+03  0.95006607122E+03  0.50400001928E-02 0. -1.
    10030    2    1    2    0    0  0.00000000000E+00  0.00000000000E+00 -0.36126307093E+02  0.18640058353E+04  0.18636557204E+04 0.  0.
        4    1    3    3  502    0  0.97320706891E+00  0.19285036071E+03 -0.92988640439E+03  0.94967496899E+03  0.12699999809E+01 0. -1.
       -4    1    3    3    0  502 -0.97320706891E+00 -0.19285036071E+03  0.89376009729E+03  0.91433086636E+03  0.12699999809E+01 0.  1.
</event>
<event>
 5   0  0.2317458E-04  0.1852159E+04  0.7818609E-02  0.8679043E-01
        1   -1    0    0  501    0  0.00000000000E+00  0.00000000000E+00  0.94757522821E+03  0.94757522823E+03  0.50400001928E-02 0.  1.
       -1   -1    0    0    0  501  0.00000000000E+00  0.00000000000E+00 -0.90507112747E+03  0.90507112748E+03  0.50400001928E-02 0. -1.
    10030    2    1    2    0    0  0.00000000000E+00  0.00000000000E+00  0.42504100746E+02  0.18526463557E+04  0.18521587191E+04 0.  0.
        3    1    3    3  502    0  0.52712602777E+03 -0.21925050081E+03  0.75061502077E+03  0.94305649400E+03  0.10100000352E+00 0.  1.
       -3    1    3    3    0  502 -0.52712602777E+03  0.21925050081E+03 -0.70811092003E+03  0.90958986171E+03  0.10100000352E+00 0. -1.
</event>
<event>
 5   0  0.2510069E-04  0.1888580E+04  0.7818609E-02  0.8660562E-01
        1   -1    0    0  501    0  0.00000000000E+00  0.00000000000E+00  0.12567116072E+04  0.12567116072E+04  0.50400001928E-02 0.  1.
       -1   -1    0    0    0  501  0.00000000000E+00  0.00000000000E+00 -0.70953711006E+03  0.70953711008E+03  0.50400001928E-02 0. -1.
    10030    2    1    2    0    0  0.00000000000E+00  0.00000000000E+00  0.54717449712E+03  0.19662487173E+04  0.18885799130E+04 0.  0.
        4    1    3    3  502    0  0.83033977413E+03  0.42714792116E+03  0.41994750802E+03  0.10238539981E+04  0.12699999809E+01 0. -1.
       -4    1    3    3    0  502 -0.83033977413E+03 -0.42714792116E+03  0.12722698910E+03  0.94239471916E+03  0.12699999809E+01 0.  1.
</event>
<event>
 5   0  0.4829134E-04  0.1878875E+04  0.7818609E-02  0.8665444E-01
       -2   -1    0    0    0  501  0.00000000000E+00  0.00000000000E+00  0.47775096513E+03  0.47775096514E+03  0.25500000920E-02 0. -1.
        2   -1    0    0  501    0  0.00000000000E+00  0.00000000000E+00 -0.18472862250E+04  0.18472862250E+04  0.25500000920E-02 0.  1.
    10030    2    1    2    0    0  0.00000000000E+00  0.00000000000E+00 -0.13695352599E+04  0.23250371902E+04  0.18788749579E+04 0.  0.
        2    1    3    3  502    0 -0.94168528595E+02  0.63172008935E+03 -0.15372748901E+04  0.16646777679E+04  0.25500000920E-02 0.  1.
       -2    1    3    3    0  502  0.94168528595E+02 -0.63172008935E+03  0.16773963021E+03  0.66035942230E+03  0.25500000920E-02 0. -1.
</event>
<event>
 5   0  0.4839293E-04  0.1927440E+04  0.7818609E-02  0.8641317E-01
       -2   -1    0    0    0  501  0.00000000000E+00  0.00000000000E+00  0.93541236242E+03  0.93541236243E+03  0.25500000920E-02 0.  1.
        2   -1    0    0  501    0  0.00000000000E+00  0.00000000000E+00 -0.99288411642E+03  0.99288411642E+03  0.25500000920E-02 0. -1.
    10030    2    1    2    0    0  0.00000000000E+00  0.00000000000E+00 -0.57471753996E+02  0.19282964788E+04  0.19274398325E+04 0.  0.
        5    1    3    3  502    0  0.79493950143E+03  0.52632289758E+03  0.11200138927E+03  0.95995364713E+03  0.46999998093E+01 0. -1.
       -5    1    3    3    0  502 -0.79493950143E+03 -0.52632289758E+03 -0.16947314327E+03  0.96834283171E+03  0.46999998093E+01 0.  1.
</event>
<event>
 5   0  0.4802635E-04  0.1310140E+04  0.7818609E-02  0.9021562E-01
        2   -1    0    0  501    0  0.00000000000E+00  0.00000000000E+00  0.77235359483E+03  0.77235359483E+03  0.25500000920E-02 0.  1.
       -2   -1    0    0    0  501  0.00000000000E+00  0.00000000000E+00 -0.55559636163E+03  0.55559636163E+03  0.25500000920E-02 0. -1.
    10030    2    1    2    0    0  0.00000000000E+00  0.00000000000E+00  0.21675723320E+03  0.13279499565E+04  0.13101402172E+04 0.  0.
        3    1    3    3  502    0  0.17486567803E+03  0.73149479361E+01 -0.53145948148E+03  0.55953615118E+03  0.10100000352E+00 0. -1.
       -3    1    3    3    0  502 -0.17486567803E+03 -0.73149479361E+01  0.74821671469E+03  0.76841380528E+03  0.10100000352E+00 0.  1.
</event>
<event>
 5   0  0.4839293E-04  0.2026901E+04  0.7818609E-02  0.8594146E-01
        2   -1    0    0  501    0  0.00000000000E+00  0.00000000000E+00  0.84550937224E+03  0.84550937224E+03  0.25500000920E-02 0.  1.
       -2   -1    0    0    0  501  0.00000000000E+00  0.00000000000E+00 -0.12147495917E+04  0.12147495917E+04  0.25500000920E-02 0. -1.
    10030    2    1    2    0    0  0.00000000000E+00  0.00000000000E+00 -0.36924021947E+03  0.20602589640E+04  0.20269012455E+04 0.  0.
        5    1    3    3  502    0  0.51386164242E+03 -0.28558593404E+03  0.65446352831E+03  0.87974866476E+03  0.46999998093E+01 0.  1.
       -5    1    3    3    0  502 -0.51386164242E+03  0.28558593404E+03 -0.10237037478E+04  0.11805102992E+04  0.46999998093E+01 0. -1.
</event>
<event>
 5   0  0.2510069E-04  0.1799790E+04  0.7818609E-02  0.8706411E-01
        1   -1    0    0  501    0  0.00000000000E+00  0.00000000000E+00  0.89349571517E+03  0.89349571518E+03  0.50400001928E-02 0. -1.
       -1   -1    0    0    0  501  0.00000000000E+00  0.00000000000E+00 -0.90634040836E+03  0.90634040838E+03  0.50400001928E-02 0.  1.
    10030    2    1    2    0    0  0.00000000000E+00  0.00000000000E+00 -0.12844693195E+02  0.17998361236E+04  0.17997902893E+04 0.  0.
        4    1    3    3  502    0 -0.20102996652E+03 -0.34722995329E+03 -0.81194144486E+03  0.90566672164E+03  0.12699999809E+01 0.  1.
       -4    1    3    3    0  502  0.20102996652E+03  0.34722995329E+03  0.79909675167E+03  0.89416940192E+03  0.12699999809E+01 0. -1.
</event>
<event>
 5   0  0.2355414E-04  0.1876845E+04  0.7818609E-02  0.8666468E-01
       -1   -1    0    0    0  501  0.00000000000E+00  0.00000000000E+00  0.49041625894E+03  0.49041625896E+03  0.50400001928E-02 0.  1.
        1   -1    0    0  501    0  0.00000000000E+00  0.00000000000E+00 -0.17956933747E+04  0.17956933747E+04  0.50400001928E-02 0. -1.
    10030    2    1    2    0    0  0.00000000000E+00  0.00000000000E+00 -0.13052771158E+04  0.22861096337E+04  0.18768454673E+04 0.  0.
        5    1    3    3  502    0  0.42466626231E+03  0.83629314641E+03 -0.61635191067E+03  0.11223365934E+04  0.46999998093E+01 0. -1.
       -5    1    3    3    0  502 -0.42466626231E+03 -0.83629314641E+03 -0.68892520510E+03  0.11637730403E+04  0.46999998093E+01 0.  1.
</event>
<event>
 5   0  0.2317458E-04  0.2064206E+04  0.7818609E-02  0.8577177E-01
        1   -1    0    0  501    0  0.00000000000E+00  0.00000000000E+00  0.49249125795E+03  0.49249125798E+03  0.50400001928E-02 0. -1.
       -1   -1    0    0    0  501  0.00000000000E+00  0.00000000000E+00 -0.21629562570E+04  0.21629562570E+04  0.50400001928E-02 0.  1.
    10030    2    1    2    0    0  0.00000000000E+00  0.00000000000E+00 -0.16704649990E+04  0.26554475150E+04  0.20642064315E+04 0.  0.
        3    1    3    3  502    0 -0.12084137863E+03  0.66805150991E+03  0.16482698409E+03  0.69861534736E+03  0.10100000352E+00 0. -1.
       -3    1    3    3    0  502  0.12084137863E+03 -0.66805150991E+03 -0.18352919831E+04  0.19568321676E+04  0.10100000352E+00 0.  1.
</event>
<event>
 5   0  0.2355414E-04  0.2016006E+04  0.7818609E-02  0.8599174E-01
       -1   -1    0    0    0  501  0.00000000000E+00  0.00000000000E+00  0.57546643144E+03  0.57546643147E+03  0.50400001928E-02 0. -1.
        1   -1    0    0  501    0  0.00000000000E+00  0.00000000000E+00 -0.17656453199E+04  0.17656453199E+04  0.50400001928E-02 0.  1.
    10030    2    1    2    0    0  0.00000000000E+00  0.00000000000E+00 -0.11901788885E+04  0.23411117514E+04  0.20160055669E+04 0.  0.
        5    1    3    3  502    0 -0.53562945842E+03  0.18372188412E+03 -0.15634702226E+04  0.16628631557E+04  0.46999998093E+01 0.  1.
       -5    1    3    3    0  502  0.53562945842E+03 -0.18372188412E+03  0.37329133417E+03  0.67824859572E+03  0.46999998093E+01 0. -1.
</event>
<event>
 5   0  0.4829134E-04  0.1995346E+04  0.7818609E-02  0.8608799E-01
       -2   -1    0    0    0  501  0.00000000000E+00  0.00000000000E+00  0.58837654583E+03  0.58837654583E+03  0.25500000920E-02 0. -1.
        2   -1    0    0  501    0  0.00000000000E+00  0.00000000000E+00 -0.16916920031E+04  0.16916920031E+04  0.25500000920E-02 0.  1.
    10030    2    1    2    0    0  0.00000000000E+00  0.00000000000E+00 -0.11033154573E+04  0.22800685489E+04  0.19953464836E+04 0.  0.
        2    1    3    3  502    0 -0.63604813954E+03 -0.76661307660E+03 -0.48804499754E+03  0.11092523449E+04  0.25500000920E-02 0. -1.
       -2    1    3    3    0  502  0.63604813954E+03  0.76661307660E+03 -0.61527045974E+03  0.11708162040E+04  0.25500000920E-02 0.  1.
</event>
<event>
 5   0  0.4802635E-04  0.1772534E+04  0.7818609E-02  0.8721043E-01
        2   -1    0    0  501    0  0.00000000000E+00  0.00000000000E+00  0.44140238305E+03  0.44140238305E+03  0.25500000920E-02 0.  1.
       -2   -1    0    0    0  501  0.00000000000E+00  0.00000000000E+00 -0.17794858542E+04  0.17794858542E+04  0.25500000920E-02 0. -1.
    10030    2    1    2    0    0  0.00000000000E+00  0.00000000000E+00 -0.13380834711E+04  0.22208882372E+04  0.17725341144E+04 0.  0.
        3    1    3    3  502    0  0.48248482456E+03  0.32135091594E+03  0.17090951443E+03  0.60437413034E+03  0.10100000352E+00 0.  1.
       -3    1    3    3    0  502 -0.48248482456E+03 -0.32135091594E+03 -0.15089929856E+04  0.16165141069E+04  0.10100000352E+00 0. -1.
</event>
<event>
 5   0  0.4802635E-04  0.1916424E+04  0.7818609E-02  0.8646724E-01
       -2   -1    0    0    0  501  0.00000000000E+00  0.00000000000E+00  0.63011978316E+03  0.63011978317E+03  0.25500000920E-02 0. -1.
        2   -1    0    0  501    0  0.00000000000E+00  0.00000000000E+00 -0.14571367431E+04  0.14571367431E+04  0.25500000920E-02 0.  1.
    10030    2    1    2    0    0  0.00000000000E+00  0.00000000000E+00 -0.82701695994E+03  0.20872565263E+04  0.19164244714E+04 0.  0.
        3    1    3    3  502    0 -0.27072084110E+03  0.88040838044E+03 -0.12583916137E+03  0.92964734975E+03  0.10100000352E+00 0. -1.
       -3    1    3    3    0  502  0.27072084110E+03 -0.88040838044E+03 -0.70117779857E+03  0.11576091765E+04  0.10100000352E+00 0.  1.
</event>
<event>
 5   0  0.2376359E-04  0.1729921E+04  0.7818609E-02  0.8744481E-01
        1   -1    0    0  501    0  0.00000000000E+00  0.00000000000E+00  0.51789817111E+03  0.51789817114E+03  0.50400001928E-02 0. -1.
       -1   -1    0    0    0  501  0.00000000000E+00  0.00000000000E+00 -0.14446012800E+04  0.14446012800E+04  0.50400001928E-02 0.  1.
    10030    2    1    2    0    0  0.00000000000E+00  0.00000000000E+00 -0.92670310891E+03  0.19624994512E+04  0.17299206467E+04 0.  0.
        2    1    3    3  502    0  0.79511161784E+03  0.32085632515E+03 -0.33397960519E+03  0.92015957469E+03  0.25500000920E-02 0.  1.
       -2    1    3    3    0  502 -0.79511161784E+03 -0.32085632515E+03 -0.59272350372E+03  0.10423398765E+04  0.25500000920E-02 0. -1.
</event>
<event>
 5   0  0.4761944E-04  0.1901604E+04  0.7818609E-02  0.8654058E-01
       -2   -1    0    0    0  501  0.00000000000E+00  0.00000000000E+00  0.81857511045E+03  0.81857511045E+03  0.25500000920E-02 0.  1.
        2   -1    0    0  501    0  0.00000000000E+00  0.00000000000E+00 -0.11043880072E+04  0.11043880072E+04  0.25500000920E-02 0. -1.
    10030    2    1    2    0    0  0.00000000000E+00  0.00000000000E+00 -0.28581289679E+03  0.19229631177E+04  0.19016040966E+04 0.  0.
        4    1    3    3  502    0 -0.38608978755E+02 -0.58125746723E+03 -0.90279339939E+03  0.10744246978E+04  0.12699999809E+01 0. -1.
       -4    1    3    3    0  502  0.38608978755E+02  0.58125746723E+03  0.61698050261E+03  0.84853841984E+03  0.12699999809E+01 0.  1.
</event>
<event>
 5   0  0.4802635E-04  0.1374451E+04  0.7818609E-02  0.8972522E-01
        2   -1    0    0  501    0  0.00000000000E+00  0.00000000000E+00  0.10842577354E+04  0.10842577354E+04  0.25500000920E-02 0.  1.
       -2   -1    0    0    0  501  0.00000000000E+00  0.00000000000E+00 -0.43557829375E+03  0.43557829376E+03  0.25500000920E-02 0. -1.
    10030    2    1    2    0    0  0.00000000000E+00  0.00000000000E+00  0.64867944168E+03  0.15198360292E+04  0.13744513588E+04 0.  0.
        3    1    3    3  502    0 -0.26222080354E+02 -0.64062040185E+03  0.50792362959E+02  0.64316558606E+03  0.10100000352E+00 0. -1.
       -3    1    3    3    0  502  0.26222080354E+02  0.64062040185E+03  0.59788707873E+03  0.87667044314E+03  0.10100000352E+00 0.  1.
</event>
<event>
 5   0  0.4802635E-04  0.1075112E+04  0.7818609E-02  0.9229794E-01
        2   -1    0    0  501    0  0.00000000000E+00  0.00000000000E+00  0.46448239033E+03  0.46448239033E+03  0.25500000920E-02 0. -1.
       -2   -1    0    0    0  501  0.00000000000E+00  0.00000000000E+00 -0.62212613552E+03  0.62212613553E+03  0.25500000920E-02 0.  1.
    10030    2    1    2    0    0  0.00000000000E+00  0.00000000000E+00 -0.15764374519E+03  0.10866085259E+04  0.10751123374E+04 0.  0.
        3    1    3    3  502    0 -0.28046962006E+03 -0.38234558299E+03  0.17709564016E+03  0.50617608455E+03  0.10100000352E+00 0. -1.
       -3    1    3    3    0  502  0.28046962006E+03  0.38234558299E+03 -0.33473938536E+03  0.58043244130E+03  0.10100000352E+00 0.  1.
</event>
<event>
 5   0  0.4802635E-04  0.1887807E+04  0.7818609E-02  0.8660949E-01
        2   -1    0    0  501    0  0.00000000000E+00  0.00000000000E+00  0.22118870074E+04  0.22118870074E+04  0.25500000920E-02 0. -1.
       -2   -1    0    0    0  501  0.00000000000E+00  0.00000000000E+00 -0.40280260607E+03  0.40280260608E+03  0.25500000920E-02 0.  1.
    10030    2    1    2    0    0  0.00000000000E+00  0.00000000000E+00  0.18090844014E+04  0.26146896135E+04  0.18878070356E+04 0.  0.
        3    1    3    3  502    0 -0.27622148395E+03 -0.66276774097E+03  0.55935478811E+02  0.72020009348E+03  0.10100000352E+00 0.  1.
       -3    1    3    3    0  502  0.27622148395E+03  0.66276774097E+03  0.17531489226E+04  0.18944895200E+04  0.10100000352E+00 0. -1.
</event>
<event>
 5   0  0.4839293E-04  0.1928490E+04  0.7818609E-02  0.8640804E-01
        2   -1    0    0  501    0  0.00000000000E+00  0.00000000000E+00  0.87439565481E+03  0.87439565481E+03  0.25500000920E-02 0.  1.
       -2   -1    0    0    0  501  0.00000000000E+00  0.00000000000E+00 -0.10633266299E+04  0.10633266299E+04  0.25500000920E-02 0. -1.
    10030    2    1    2    0    0  0.00000000000E+00  0.00000000000E+00 -0.18893097513E+03  0.19377222848E+04  0.19284897561E+04 0.  0.
        5    1    3    3  502    0  0.34835629585E+02 -0.95751706650E+03  0.14189352905E+02  0.95826712428E+03  0.46999998093E+01 0.  1.
       -5    1    3    3    0  502 -0.34835629585E+02  0.95751706650E+03 -0.20312032803E+03  0.97945516048E+03  0.46999998093E+01 0. -1.
</event>
<event>
 5   0  0.2317458E-04  0.1866431E+04  0.7818609E-02  0.8671749E-01
        1   -1    0    0  501    0  0.00000000000E+00  0.00000000000E+00  0.12283057016E+04  0.12283057016E+04  0.50400001928E-02 0.  1.
       -1   -1    0    0    0  501  0.00000000000E+00  0.00000000000E+00 -0.70901788861E+03  0.70901788863E+03  0.50400001928E-02 0. -1.
    10030    2    1    2    0    0  0.00000000000E+00  0.00000000000E+00  0.51928781294E+03  0.19373235902E+04  0.18664305132E+04 0.  0.
        3    1    3    3  502    0 -0.79765403414E+03  0.34146173361E+03  0.61626726169E+03  0.10642525178E+04  0.10100000352E+00 0.  1.
       -3    1    3    3    0  502  0.79765403414E+03 -0.34146173361E+03 -0.96979448752E+02  0.87307107235E+03  0.10100000352E+00 0. -1.
</event>
<event>
 5   0  0.2376359E-04  0.1875248E+04  0.7818609E-02  0.8667276E-01
       -1   -1    0    0    0  501  0.00000000000E+00  0.00000000000E+00  0.35258294068E+03  0.35258294072E+03  0.50400001928E-02 0. -1.
        1   -1    0    0  501    0  0.00000000000E+00  0.00000000000E+00 -0.24934239273E+04  0.24934239273E+04  0.50400001928E-02 0.  1.
    10030    2    1    2    0    0  0.00000000000E+00  0.00000000000E+00 -0.21408409866E+04  0.28460068680E+04  0.18752479737E+04 0.  0.
        2    1    3    3  502    0  0.38816351129E+03  0.84780378165E+03 -0.92097374686E+03  0.13105856729E+04  0.25500000920E-02 0.  1.
       -2    1    3    3    0  502 -0.38816351129E+03 -0.84780378165E+03 -0.12198672397E+04  0.15354211951E+04  0.25500000920E-02 0. -1.
</event>
<event>
 5   0  0.2510069E-04  0.1921584E+04  0.7818609E-02  0.8644187E-01
        1   -1    0    0  501    0  0.00000000000E+00  0.00000000000E+00  0.20020807620E+04  0.20020807620E+04  0.50400001928E-02 0. -1.
       -1   -1    0    0    0  501  0.00000000000E+00  0.00000000000E+00 -0.46108095469E+03  0.46108095472E+03  0.50400001928E-02 0.  1.
    10030    2    1    2    0    0  0.00000000000E+00  0.00000000000E+00  0.15409998073E+04  0.24631617168E+04  0.19215840436E+04 0.  0.
        4    1    3    3  502    0  0.47079893914E+03  0.33545823817E+03 -0.21321109932E+03  0.61615294889E+03  0.12699999809E+01 0.  1.
       -4    1    3    3    0  502 -0.47079893914E+03 -0.33545823817E+03  0.17542109067E+04  0.18470087679E+04  0.12699999809E+01 0. -1.
</event>
<event>
 5   0  0.4802635E-04  0.1949037E+04  0.7818609E-02  0.8630825E-01
        2   -1    0    0  501    0  0.00000000000E+00  0.00000000000E+00  0.28656059456E+04  0.28656059456E+04  0.25500000920E-02 0.  1.
       -2   -1    0    0    0  501  0.00000000000E+00  0.00000000000E+00 -0.33140857758E+03  0.33140857759E+03  0.25500000920E-02 0. -1.
    10030    2    1    2    0    0  0.00000000000E+00  0.00000000000E+00  0.25341973680E+04  0.31970145232E+04  0.19490370857E+04 0.  0.
        3    1    3    3  502    0  0.50395296678E+03 -0.82361260101E+03  0.10508515911E+04  0.14270933347E+04  0.10100000352E+00 0. -1.
       -3    1    3    3    0  502 -0.50395296678E+03  0.82361260101E+03  0.14833457770E+04  0.17699211885E+04  0.10100000352E+00 0.  1.
</event>
<event>
 5   0  0.4802635E-04  0.1887294E+04  0.7818609E-02  0.8661207E-01
        2   -1    0    0  501    0  0.00000000000E+00  0.00000000000E+00  0.16212735889E+04  0.16212735889E+04  0.25500000920E-02 0. -1.
       -2   -1    0    0    0  501  0.00000000000E+00  0.00000000000E+00 -0.54924083513E+03  0.54924083514E+03  0.25500000920E-02 0.  1.
    10030    2    1    2    0    0  0.00000000000E+00  0.00000000000E+00  0.10720327538E+04  0.21705144241E+04  0.18872939993E+04 0.  0.
        3    1    3    3  502    0 -0.62696340886E+03  0.42540208417E+03  0.11829426753E+04  0.14047787842E+04  0.10100000352E+00 0. -1.
       -3    1    3    3    0  502  0.62696340886E+03 -0.42540208417E+03 -0.11090992152E+03  0.76573563987E+03  0.10100000352E+00 0.  1.
</event>
<event>
 5   0  0.4973411E-04  0.1782293E+04  0.7818609E-02  0.8715773E-01
        2   -1    0    0  501    0  0.00000000000E+00  0.00000000000E+00  0.90390297592E+03  0.90390297593E+03  0.25500000920E-02 0. -1.
       -2   -1    0    0    0  501  0.00000000000E+00  0.00000000000E+00 -0.87857027573E+03  0.87857027574E+03  0.25500000920E-02 0.  1.
    10030    2    1    2    0    0  0.00000000000E+00  0.00000000000E+00  0.25332700189E+02  0.17824732517E+04  0.17822932271E+04 0.  0.
        1    1    3    3  502    0 -0.77694430499E+03  0.69294970264E+02  0.44363683217E+03  0.89736162434E+03  0.50400001928E-02 0.  1.
       -1    1    3    3    0  502  0.77694430499E+03 -0.69294970264E+02 -0.41830413198E+03  0.88511162732E+03  0.50400001928E-02 0. -1.
</event>
<event>
 5   0  0.2261755E-04  0.1897298E+04  0.7818609E-02  0.8656202E-01
        1   -1    0    0  501    0  0.00000000000E+00  0.00000000000E+00  0.19985165758E+04  0.19985165758E+04  0.50400001928E-02 0. -1.
       -1   -1    0    0    0  501  0.00000000000E+00  0.00000000000E+00 -0.45030156761E+03  0.45030156764E+03  0.50400001928E-02 0.  1.
    10030    2    1    2    0    0  0.00000000000E+00  0.00000000000E+00  0.15482150082E+04  0.24488181434E+04  0.18972982338E+04 0.  0.
        1    1    3    3  502    0 -0.37208281726E+03  0.30723326089E+02 -0.35149114016E+03  0.51277243227E+03  0.50400001928E-02 0.  1.
       -1    1    3    3    0  502  0.37208281726E+03 -0.30723326089E+02  0.18997061483E+04  0.19360457112E+04  0.50400001928E-02 0. -1.
</event>
<event>
 5   0  0.4829134E-04  0.1942020E+04  0.7818609E-02  0.8634218E-01
       -2   -1    0    0    0  501  0.00000000000E+00  0.00000000000E+00  0.14680615490E+04  0.14680615490E+04  0.25500000920E-02 0. -1.
        2   -1    0    0  501    0  0.00000000000E+00  0.00000000000E+00 -0.64224885050E+03  0.64224885050E+03  0.25500000920E-02 0.  1.
    10030    2    1    2    0    0  0.00000000000E+00  0.00000000000E+00  0.82581269854E+03  0.21103103995E+04  0.19420204348E+04 0.  0.
        2    1    3    3  502    0 -0.30300053890E+03  0.77242599377E+03  0.96100570449E+03  0.12696390064E+04  0.25500000920E-02 0. -1.
       -2    1    3    3    0  502  0.30300053890E+03 -0.77242599377E+03 -0.13519300596E+03  0.84067139317E+03  0.25500000920E-02 0.  1.
</event>
<event>
 5   0  0.4802635E-04  0.2156520E+04  0.7818609E-02  0.8536746E-01
       -2   -1    0    0    0  501  0.00000000000E+00  0.00000000000E+00  0.75712676443E+03  0.75712676443E+03  0.25500000920E-02 0.  1.
        2   -1    0    0  501    0  0.00000000000E+00  0.00000000000E+00 -0.15356016396E+04  0.15356016396E+04  0.25500000920E-02 0. -1.
    10030    2    1    2    0    0  0.00000000000E+00  0.00000000000E+00 -0.77847487515E+03  0.22927284040E+04  0.21565204389E+04 0.  0.
        3    1    3    3  502    0 -0.70017941153E+03  0.33813470984E+03 -0.11834541350E+04  0.14160331882E+04  0.10100000352E+00 0. -1.
       -3    1    3    3    0  502  0.70017941153E+03 -0.33813470984E+03  0.40497925983E+03  0.87669521580E+03  0.10100000352E+00 0.  1.
</event>
<event>
 5   0  0.2261755E-04  0.1695925E+04  0.7818609E-02  0.8763692E-01
       -1   -1    0    0    0  501  0.00000000000E+00  0.00000000000E+00  0.52197754536E+03  0.52197754538E+03  0.50400001928E-02 0. -1.
        1   -1    0    0  501    0  0.00000000000E+00  0.00000000000E+00 -0.13775320014E+04  0.13775320014E+04  0.50400001928E-02 0.  1.
    10030    2    1    2    0    0  0.00000000000E+00  0.00000000000E+00 -0.85555445600E+03  0.18995095468E+04  0.16959254379E+04 0.  0.
        1    1    3    3  502    0  0.49814587139E+02 -0.20552540137E+03 -0.13475219245E+04  0.13640152202E+04  0.50400001928E-02 0.  1.
       -1    1    3    3    0  502 -0.49814587139E+02  0.20552540137E+03  0.49196746853E+03  0.53549432659E+03  0.50400001928E-02 0. -1.
</event>
<event>
 5   0  0.4761944E-04  0.1740317E+04  0.7818609E-02  0.8738698E-01
       -2   -1    0    0    0  501  0.00000000000E+00  0.00000000000E+00  0.38134730599E+03  0.38134730600E+03  0.25500000920E-02 0.  1.
        2   -1    0    0  501    0  0.00000000000E+00  0.00000000000E+00 -0.19855282671E+04  0.19855282671E+04  0.25500000920E-02 0. -1.
    10030    2    1    2    0    0  0.00000000000E+00  0.00000000000E+00 -0.16041809612E+04  0.23668755731E+04  0.17403170466E+04 0.  0.
        4    1    3    3  502    0 -0.55705213424E+03  0.53873161720E+03 -0.26383058402E+03  0.81862508243E+03  0.12699999809E+01 0.  1.
       -4    1    3    3    0  502  0.55705213424E+03 -0.53873161720E+03 -0.13403503771E+04  0.15482504907E+04  0.12699999809E+01 0. -1.
</event>
<event>
 5   0  0.1729375E-04  0.1852039E+04  0.7818609E-02  0.8679105E-01
        3   -1    0    0  501    0  0.00000000000E+00  0.00000000000E+00  0.10690912537E+04  0.10690912585E+04  0.10100000352E+00 0. -1.
       -3   -1    0    0    0  501  0.00000000000E+00  0.00000000000E+00 -0.80209449925E+03  0.80209450561E+03  0.10100000352E+00 0.  1.
    10030    2    1    2    0    0  0.00000000000E+00  0.00000000000E+00  0.26699675448E+03  0.18711857641E+04  0.18520391186E+04 0.  0.
        2    1    3    3  502    0  0.23414213303E+03  0.30774372544E+03 -0.71661786288E+03  0.81429104158E+03  0.25500000920E-02 0.  1.
       -2    1    3    3    0  502 -0.23414213303E+03 -0.30774372544E+03  0.98361461736E+03  0.10568947225E+04  0.25500000920E-02 0. -1.
</event>
<event>
 5   0  0.4839293E-04  0.1914450E+04  0.7818609E-02  0.8647697E-01
       -2   -1    0    0    0  501  0.00000000000E+00  0.00000000000E+00  0.67082544721E+03  0.67082544721E+03  0.25500000920E-02 0. -1.
        2   -1    0    0  501    0  0.00000000000E+00  0.00000000000E+00 -0.13658983986E+04  0.13658983986E+04  0.25500000920E-02 0.  1.
    10030    2    1    2    0    0  0.00000000000E+00  0.00000000000E+00 -0.69507295138E+03  0.20367238458E+04  0.19144496902E+04 0.  0.
        5    1    3    3  502    0  0.85033371242E+03  0.34050771377E+02  0.11866455005E+03  0.85926145203E+03  0.46999998093E+01 0. -1.
       -5    1    3    3    0  502 -0.85033371242E+03 -0.34050771377E+02 -0.81373750142E+03  0.11774623938E+04  0.46999998093E+01 0.  1.
</event>
<event>
 5   0  0.4761944E-04  0.1896887E+04  0.7818609E-02  0.8656407E-01
       -2   -1    0    0    0  501  0.00000000000E+00  0.00000000000E+00  0.11548363357E+04  0.11548363357E+04  0.25500000920E-02 0.  1.
        2   -1    0    0  501    0  0.00000000000E+00  0.00000000000E+00 -0.77893749025E+03  0.77893749025E+03  0.25500000920E-02 0. -1.
    10030    2    1    2    0    0  0.00000000000E+00  0.00000000000E+00  0.37589884549E+03  0.19337738260E+04  0.18968872576E+04 0.  0.
        4    1    3    3  502    0 -0.63773778339E+03 -0.53706145644E+03  0.64884630580E+03  0.10564788828E+04  0.12699999809E+01 0. -1.
       -4    1    3    3    0  502  0.63773778339E+03  0.53706145644E+03 -0.27294746031E+03  0.87729494319E+03  0.12699999809E+01 0.  1.
</event>
<event>
 5   0  0.4802635E-04  0.1994546E+04  0.7818609E-02  0.8609175E-01
       -2   -1    0    0    0  501  0.00000000000E+00  0.00000000000E+00  0.17460223499E+04  0.17460223499E+04  0.25500000920E-02 0. -1.
        2   -1    0    0  501    0  0.00000000000E+00  0.00000000000E+00 -0.56961071796E+03  0.56961071797E+03  0.25500000920E-02 0.  1.
    10030    2    1    2    0    0  0.00000000000E+00  0.00000000000E+00  0.11764116319E+04  0.23156330679E+04  0.19945456067E+04 0.  0.
        3    1    3    3  502    0  0.43068299617E+03  0.62322582642E+03  0.13411948916E+04  0.15403577576E+04  0.10100000352E+00 0. -1.
       -3    1    3    3    0  502 -0.43068299617E+03 -0.62322582642E+03 -0.16478325964E+03  0.77527531031E+03  0.10100000352E+00 0.  1.
</event>
<event>
 5   0  0.4802635E-04  0.1925218E+04  0.7818609E-02  0.8642405E-01
        2   -1    0    0  501    0  0.00000000000E+00  0.00000000000E+00  0.19250099230E+04  0.19250099230E+04  0.25500000920E-02 0. -1.
       -2   -1    0    0    0  501  0.00000000000E+00  0.00000000000E+00 -0.48135633499E+03  0.48135633500E+03  0.25500000920E-02 0.  1.
    10030    2    1    2    0    0  0.00000000000E+00  0.00000000000E+00  0.14436535880E+04  0.24063662580E+04  0.19252176203E+04 0.  0.
        3    1    3    3  502    0 -0.18279082550E+02  0.27931125807E+02 -0.48063268571E+03  0.48179047460E+03  0.10100000352E+00 0.  1.
       -3    1    3    3    0  502  0.18279082550E+02 -0.27931125807E+02  0.19242862737E+04  0.19245757834E+04  0.10100000352E+00 0. -1.
</event>
<event>
 5   0  0.4761944E-04  0.1893602E+04  0.7818609E-02  0.8658047E-01
        2   -1    0    0  501    0  0.00000000000E+00  0.00000000000E+00  0.12935332800E+04  0.12935332800E+04  0.25500000920E-02 0.  1.
       -2   -1    0    0    0  501  0.00000000000E+00  0.00000000000E+00 -0.69301074455E+03  0.69301074455E+03  0.25500000920E-02 0. -1.
    10030    2    1    2    0    0  0.00000000000E+00  0.00000000000E+00  0.60052253545E+03  0.19865440246E+04  0.18936023463E+04 0.  0.
        4    1    3    3  502    0 -0.84532991942E+03  0.31168605186E+03  0.60557832467E+03  0.10855678642E+04  0.12699999809E+01 0.  1.
       -4    1    3    3    0  502  0.84532991942E+03 -0.31168605186E+03 -0.50557892176E+01  0.90097616034E+03  0.12699999809E+01 0. -1.
</event>
<event>
 5   0  0.4802635E-04  0.1882412E+04  0.7818609E-02  0.8663661E-01
       -2   -1    0    0    0  501  0.00000000000E+00  0.00000000000E+00  0.51162796774E+03  0.51162796775E+03  0.25500000920E-02 0. -1.
        2   -1    0    0  501    0  0.00000000000E+00  0.00000000000E+00 -0.17314712620E+04  0.17314712620E+04  0.25500000920E-02 0.  1.
    10030    2    1    2    0    0  0.00000000000E+00  0.00000000000E+00 -0.12198432943E+04  0.22430992298E+04  0.18824124128E+04 0.  0.
        3    1    3    3  502    0  0.19599314485E+03 -0.76265745308E+03 -0.12242759203E+04  0.14556480491E+04  0.10100000352E+00 0.  1.
       -3    1    3    3    0  502 -0.19599314485E+03  0.76265745308E+03  0.44326260319E+01  0.78745118067E+03  0.10100000352E+00 0. -1.
</event>
<event>
 5   0  0.2355414E-04  0.1966670E+04  0.7818609E-02  0.8622364E-01
        1   -1    0    0  501    0  0.00000000000E+00  0.00000000000E+00  0.91956673937E+03  0.91956673938E+03  0.50400001928E-02 0.  1.
       -1   -1    0    0    0  501  0.00000000000E+00  0.00000000000E+00 -0.10515257189E+04  0.10515257189E+04  0.50400001928E-02 0. -1.
    10030    2    1    2    0    0  0.00000000000E+00  0.00000000000E+00 -0.13195897954E+03  0.19710924583E+04  0.19666703605E+04 0.  0.
        5    1    3    3  502    0  0.37739788014E+03  0.43377264198E+03 -0.86548119532E+03  0.10390705723E+04  0.46999998093E+01 0. -1.
       -5    1    3    3    0  502 -0.37739788014E+03 -0.43377264198E+03  0.73352221578E+03  0.93202188596E+03  0.46999998093E+01 0.  1.
</event>
<event>
 5   0  0.4973411E-04  0.1875654E+04  0.7818609E-02  0.8667071E-01
        2   -1    0    0  501    0  0.00000000000E+00  0.00000000000E+00  0.78314289890E+03  0.78314289890E+03  0.25500000920E-02 0. -1.
       -2   -1    0    0    0  501  0.00000000000E+00  0.00000000000E+00 -0.11230640650E+04  0.11230640650E+04  0.25500000920E-02 0.  1.
    10030    2    1    2    0    0  0.00000000000E+00  0.00000000000E+00 -0.33992116610E+03  0.19062069639E+04  0.18756541766E+04 0.  0.
        1    1    3    3  502    0 -0.39533082858E+03  0.49588924169E+03 -0.87210315150E+03  0.10783118802E+04  0.50400001928E-02 0.  1.
       -1    1    3    3    0  502  0.39533082858E+03 -0.49588924169E+03  0.53218198540E+03  0.82789508372E+03  0.50400001928E-02 0. -1.
</event>
<event>
 5   0  0.2317458E-04  0.1124958E+04  0.7818609E-02  0.9181202E-01
       -1   -1    0    0    0  501  0.00000000000E+00  0.00000000000E+00  0.16485811746E+03  0.16485811754E+03  0.50400001928E-02 0. -1.
        1   -1    0    0  501    0  0.00000000000E+00  0.00000000000E+00 -0.19191214712E+04  0.19191214712E+04  0.50400001928E-02 0.  1.
    10030    2    1    2    0    0  0.00000000000E+00  0.00000000000E+00 -0.17542633538E+04  0.20839795888E+04  0.11249582268E+04 0.  0.
        3    1    3    3  502    0  0.27827673990E+03 -0.10750319618E+03  0.62343722504E+01  0.29838525224E+03  0.10100000352E+00 0. -1.
       -3    1    3    3    0  502 -0.27827673990E+03  0.10750319618E+03 -0.17604977260E+04  0.17855943365E+04  0.10100000352E+00 0.  1.
</event>
<event>
 5   0  0.4761944E-04  0.1841805E+04  0.7818609E-02  0.8684379E-01
        2   -1    0    0  501    0  0.00000000000E+00  0.00000000000E+00  0.14507219572E+04  0.14507219572E+04  0.25500000920E-02 0. -1.
       -2   -1    0    0    0  501  0.00000000000E+00  0.00000000000E+00 -0.58457859463E+03  0.58457859464E+03  0.25500000920E-02 0.  1.
    10030    2    1    2    0    0  0.00000000000E+00  0.00000000000E+00  0.86614336257E+03  0.20353005518E+04  0.18418045531E+04 0.  0.
        4    1    3    3  502    0  0.25945174065E+03 -0.78576484541E+03 -0.13510877794E+02  0.82760241344E+03  0.12699999809E+01 0.  1.
       -4    1    3    3    0  502 -0.25945174065E+03  0.78576484541E+03  0.87965424036E+03  0.12076981384E+04  0.12699999809E+01 0. -1.
</event>
<event>
 5   0  0.4761944E-04  0.1934070E+04  0.7818609E-02  0.8638081E-01
       -2   -1    0    0    0  501  0.00000000000E+00  0.00000000000E+00  0.12085381109E+04  0.12085381109E+04  0.25500000920E-02 0. -1.
        2   -1    0    0  501    0  0.00000000000E+00  0.00000000000E+00 -0.77379150989E+03  0.77379150989E+03  0.25500000920E-02 0.  1.
    10030    2    1    2    0    0  0.00000000000E+00  0.00000000000E+00  0.43474660103E+03  0.19823296208E+04  0.19340698329E+04 0.  0.
        4    1    3    3  502    0 -0.84553014204E+02  0.52132670530E+03  0.10476633455E+04  0.11732565126E+04  0.12699999809E+01 0. -1.
       -4    1    3    3    0  502  0.84553014204E+02 -0.52132670530E+03 -0.61291674450E+03  0.80907310823E+03  0.12699999809E+01 0.  1.
</event>
<event>
 5   0  0.1729375E-04  0.1947966E+04  0.7818609E-02  0.8631342E-01
        3   -1    0    0  501    0  0.00000000000E+00  0.00000000000E+00  0.16837067274E+04  0.16837067304E+04  0.10100000352E+00 0. -1.
       -3   -1    0    0    0  501  0.00000000000E+00  0.00000000000E+00 -0.56342516509E+03  0.56342517414E+03  0.10100000352E+00 0.  1.
    10030    2    1    2    0    0  0.00000000000E+00  0.00000000000E+00  0.11202815623E+04  0.22471319045E+04  0.19479658666E+04 0.  0.
        5    1    3    3  502    0  0.18459061823E+03  0.95628076762E+03  0.57006836658E+03  0.11285152349E+04  0.46999998093E+01 0. -1.
       -5    1    3    3    0  502 -0.18459061823E+03 -0.95628076762E+03  0.55021319569E+03  0.11186166696E+04  0.46999998093E+01 0.  1.
</event>
<event>
 5   0  0.4761944E-04  0.1838605E+04  0.7818609E-02  0.8686035E-01
       -2   -1    0    0    0  501  0.00000000000E+00  0.00000000000E+00  0.67720634450E+03  0.67720634451E+03  0.25500000920E-02 0.  1.
        2   -1    0    0  501    0  0.00000000000E+00  0.00000000000E+00 -0.12479464418E+04  0.12479464418E+04  0.25500000920E-02 0. -1.
    10030    2    1    2    0    0  0.00000000000E+00  0.00000000000E+00 -0.57074009726E+03  0.19251527863E+04  0.18386051756E+04 0.  0.
        4    1    3    3  502    0 -0.31937888420E+03 -0.42702923549E+03  0.49871788581E+03  0.73012189542E+03  0.12699999809E+01 0.  1.
       -4    1    3    3    0  502  0.31937888420E+03  0.42702923549E+03 -0.10694579831E+04  0.11950308909E+04  0.12699999809E+01 0. -1.
</event>
<event>
 5   0  0.4973411E-04  0.1905700E+04  0.7818609E-02  0.8652025E-01
        2   -1    0    0  501    0  0.00000000000E+00  0.00000000000E+00  0.15048907122E+04  0.15048907122E+04  0.25500000920E-02 0.  1.
       -2   -1    0    0    0  501  0.00000000000E+00  0.00000000000E+00 -0.60331468849E+03  0.60331468849E+03  0.25500000920E-02 0. -1.
    10030    2    1    2    0    0  0.00000000000E+00  0.00000000000E+00  0.90157602370E+03  0.21082054007E+04  0.19056995264E+04 0.  0.
        1    1    3    3  502    0 -0.53000182557E+03 -0.70605113732E+03  0.84736839515E+03  0.12237006745E+04  0.50400001928E-02 0. -1.
       -1    1    3    3    0  502  0.53000182557E+03  0.70605113732E+03  0.54207628545E+02  0.88450472618E+03  0.50400001928E-02 0.  1.
</event>
<event>
 5   0  0.2510069E-04  0.1911550E+04  0.7818609E-02  0.8649128E-01
       -1   -1    0    0    0  501  0.00000000000E+00  0.00000000000E+00  0.78280070477E+03  0.78280070478E+03  0.50400001928E-02 0.  1.
        1   -1    0    0  501    0  0.00000000000E+00  0.00000000000E+00 -0.11669711984E+04  0.11669711985E+04  0.50400001928E-02 0. -1.
    10030    2    1    2    0    0  0.00000000000E+00  0.00000000000E+00 -0.38417049368E+03  0.19497719032E+04  0.19115500272E+04 0.  0.
        4    1    3    3  502    0 -0.17722587145E+03 -0.96924370295E+02  0.76077861532E+03  0.78713979540E+03  0.12699999809E+01 0.  1.
       -4    1    3    3    0  502  0.17722587145E+03  0.96924370295E+02 -0.11449491090E+04  0.11626321078E+04  0.12699999809E+01 0. -1.
</event>
<event>
 5   0  0.2355414E-04  0.1912382E+04  0.7818609E-02  0.8648718E-01
        1   -1    0    0  501    0  0.00000000000E+00  0.00000000000E+00  0.16294000392E+04  0.16294000392E+04  0.50400001928E-02 0. -1.
       -1   -1    0    0    0  501  0.00000000000E+00  0.00000000000E+00 -0.56112725156E+03  0.56112725158E+03  0.50400001928E-02 0.  1.
    10030    2    1    2    0    0  0.00000000000E+00  0.00000000000E+00  0.10682727877E+04  0.21905272908E+04  0.19123815161E+04 0.  0.
        5    1    3    3  502    0  0.88885333196E+03 -0.34865909327E+03  0.59316033482E+03  0.11240483450E+04  0.46999998093E+01 0. -1.
       -5    1    3    3    0  502 -0.88885333196E+03  0.34865909327E+03  0.47511245286E+03  0.10664789458E+04  0.46999998093E+01 0.  1.
</event>
<event>
 5   0  0.4761944E-04  0.1903957E+04  0.7818609E-02  0.8652889E-01
        2   -1    0    0  501    0  0.00000000000E+00  0.00000000000E+00  0.11017760849E+04  0.11017760849E+04  0.25500000920E-02 0. -1.
       -2   -1    0    0    0  501  0.00000000000E+00  0.00000000000E+00 -0.82254782711E+03  0.82254782711E+03  0.25500000920E-02 0.  1.
    10030    2    1    2    0    0  0.00000000000E+00  0.00000000000E+00  0.27922825779E+03  0.19243239120E+04  0.19039574834E+04 0.  0.
        4    1    3    3  502    0 -0.52425180021E+03  0.63944298216E+03  0.61639600312E+03  0.10313452007E+04  0.12699999809E+01 0. -1.
       -4    1    3    3    0  502  0.52425180021E+03 -0.63944298216E+03 -0.33716774533E+03  0.89297871131E+03  0.12699999809E+01 0.  1.
</event>
<event>
 5   0  0.4973411E-04  0.1907261E+04  0.7818609E-02  0.8651251E-01
        2   -1    0    0  501    0  0.00000000000E+00  0.00000000000E+00  0.10857151420E+04  0.10857151420E+04  0.25500000920E-02 0.  1.
       -2   -1    0    0    0  501  0.00000000000E+00  0.00000000000E+00 -0.83761490320E+03  0.83761490320E+03  0.25500000920E-02 0. -1.
    10030    2    1    2    0    0  0.00000000000E+00  0.00000000000E+00  0.24810023880E+03  0.19233300452E+04  0.19072610556E+04 0.  0.
        1    1    3    3  502    0 -0.89956456456E+03 -0.87286014799E+02  0.43087651284E+03  0.10012441378E+04  0.50400001928E-02 0.  1.
       -1    1    3    3    0  502  0.89956456456E+03  0.87286014799E+02 -0.18277627404E+03  0.92208590737E+03  0.50400001928E-02 0. -1.
</event>
<event>
 5   0  0.4829134E-04  0.1634917E+04  0.7818609E-02  0.8799380E-01
       -2   -1    0    0    0  501  0.00000000000E+00  0.00000000000E+00  0.47568279370E+03  0.47568279371E+03  0.25500000920E-02 0.  1.
        2   -1    0    0  501    0  0.00000000000E+00  0.00000000000E+00 -0.14047975301E+04  0.14047975301E+04  0.25500000920E-02 0. -1.
    10030    2    1    2    0    0  0.00000000000E+00  0.00000000000E+00 -0.92911473642E+03  0.18804803238E+04  0.16349165284E+04 0.  0.
        2    1    3    3  502    0  0.43599598506E+03  0.10803273238E+03  0.32101669609E+03  0.55210079644E+03  0.25500000920E-02 0.  1.
       -2    1    3    3    0  502 -0.43599598506E+03 -0.10803273238E+03 -0.12501314325E+04  0.13283795274E+04  0.25500000920E-02 0. -1.
</event>
<event>
 5   0  0.4839293E-04  0.1889012E+04  0.7818609E-02  0.8660345E-01
       -2   -1    0    0    0  501  0.00000000000E+00  0.00000000000E+00  0.44619241730E+03  0.44619241731E+03  0.25500000920E-02 0. -1.
        2   -1    0    0  501    0  0.00000000000E+00  0.00000000000E+00 -0.19993437584E+04  0.19993437584E+04  0.25500000920E-02 0.  1.
    10030    2    1    2    0    0  0.00000000000E+00  0.00000000000E+00 -0.15531513411E+04  0.24455361757E+04  0.18890124664E+04 0.  0.
        5    1    3    3  502    0 -0.18569984534E+03  0.76250283077E+03 -0.14569241176E+04  0.16548549707E+04  0.46999998093E+01 0.  1.
       -5    1    3    3    0  502  0.18569984534E+03 -0.76250283077E+03 -0.96227223509E+02  0.79068120505E+03  0.46999998093E+01 0. -1.
</event>
<event>
 5   0  0.4829134E-04  0.1928296E+04  0.7818609E-02  0.8640898E-01
        2   -1    0    0  501    0  0.00000000000E+00  0.00000000000E+00  0.18768473310E+04  0.18768473310E+04  0.25500000920E-02 0. -1.
       -2   -1    0    0    0  501  0.00000000000E+00  0.00000000000E+00 -0.49528898101E+03  0.49528898101E+03  0.25500000920E-02 0.  1.
    10030    2    1    2    0    0  0.00000000000E+00  0.00000000000E+00  0.13815583500E+04  0.23721363120E+04  0.19282964524E+04 0.  0.
        2    1    3    3  502    0 -0.40876684013E+03 -0.34282194317E+03  0.16787264653E+04  0.17614595537E+04  0.25500000920E-02 0. -1.
       -2    1    3    3    0  502  0.40876684013E+03  0.34282194317E+03 -0.29716811529E+03  0.61067675825E+03  0.25500000920E-02 0.  1.
</event>
<event>
 5   0  0.2317458E-04  0.1861848E+04  0.7818609E-02  0.8674083E-01
       -1   -1    0    0    0  501  0.00000000000E+00  0.00000000000E+00  0.77621068231E+03  0.77621068233E+03  0.50400001928E-02 0.  1.
        1   -1    0    0  501    0  0.00000000000E+00  0.00000000000E+00 -0.11164751584E+04  0.11164751584E+04  0.50400001928E-02 0. -1.
    10030    2    1    2    0    0  0.00000000000E+00  0.00000000000E+00 -0.34026447606E+03  0.18926858407E+04  0.18618484842E+04 0.  0.
        3    1    3    3  502    0 -0.32693479035E+02  0.20652413476E+03 -0.10922946711E+04  0.11121280234E+04  0.10100000352E+00 0. -1.
       -3    1    3    3    0  502  0.32693479035E+02 -0.20652413476E+03  0.75203019499E+03  0.78055781732E+03  0.10100000352E+00 0.  1.
</event>
<event>
 5   0  0.4973411E-04  0.1866899E+04  0.7818609E-02  0.8671511E-01
        2   -1    0    0  501    0  0.00000000000E+00  0.00000000000E+00  0.84605258132E+03  0.84605258132E+03  0.25500000920E-02 0.  1.
       -2   -1    0    0    0  501  0.00000000000E+00  0.00000000000E+00 -0.10298742880E+04  0.10298742880E+04  0.25500000920E-02 0. -1.
    10030    2    1    2    0    0  0.00000000000E+00  0.00000000000E+00 -0.18382170673E+03  0.18759268694E+04  0.18668988187E+04 0.  0.
        1    1    3    3  502    0  0.80604692353E+03  0.40979224312E+03 -0.32473475631E+03  0.96077780336E+03  0.50400001928E-02 0. -1.
       -1    1    3    3    0  502 -0.80604692353E+03 -0.40979224312E+03  0.14091304959E+03  0.91514906601E+03  0.50400001928E-02 0.  1.
</event>
<event>
 5   0  0.2376359E-04  0.1794072E+04  0.7818609E-02  0.8709458E-01
       -1   -1    0    0    0  501  0.00000000000E+00  0.00000000000E+00  0.48954347423E+03  0.48954347426E+03  0.50400001928E-02 0.  1.
        1   -1    0    0  501    0  0.00000000000E+00  0.00000000000E+00 -0.16437230104E+04  0.16437230104E+04  0.50400001928E-02 0. -1.
    10030    2    1    2    0    0  0.00000000000E+00  0.00000000000E+00 -0.11541795362E+04  0.21332664847E+04  0.17940723210E+04 0.  0.
        2    1    3    3  502    0 -0.25953210266E+03  0.54312497414E+01  0.44390516958E+03  0.51423555923E+03  0.25500000920E-02 0.  1.
       -2    1    3    3    0  502  0.25953210266E+03 -0.54312497414E+01 -0.15980847057E+04  0.16190309254E+04  0.25500000920E-02 0. -1.
</event>
<event>
 5   0  0.2510069E-04  0.1908727E+04  0.7818609E-02  0.8650525E-01
       -1   -1    0    0    0  501  0.00000000000E+00  0.00000000000E+00  0.87407801035E+03  0.87407801036E+03  0.50400001928E-02 0. -1.
        1   -1    0    0  501    0  0.00000000000E+00  0.00000000000E+00 -0.10420232596E+04  0.10420232596E+04  0.50400001928E-02 0.  1.
    10030    2    1    2    0    0  0.00000000000E+00  0.00000000000E+00 -0.16794524924E+03  0.19161012700E+04  0.19087269239E+04 0.  0.
        4    1    3    3  502    0 -0.46215744455E+03  0.62492708383E+03  0.47195809440E+03  0.90932360545E+03  0.12699999809E+01 0. -1.
       -4    1    3    3    0  502  0.46215744455E+03 -0.62492708383E+03 -0.63990334364E+03  0.10067776645E+04  0.12699999809E+01 0.  1.
</event>
<event>
 5   0  0.4802635E-04  0.1867406E+04  0.7818609E-02  0.8671253E-01
        2   -1    0    0  501    0  0.00000000000E+00  0.00000000000E+00  0.86309028865E+03  0.86309028866E+03  0.25500000920E-02 0.  1.
       -2   -1    0    0    0  501  0.00000000000E+00  0.00000000000E+00 -0.10100930186E+04  0.10100930186E+04  0.25500000920E-02 0. -1.
    10030    2    1    2    0    0  0.00000000000E+00  0.00000000000E+00 -0.14700272996E+03  0.18731833073E+04  0.18674061958E+04 0.  0.
        3    1    3    3  502    0  0.43612610626E+03 -0.46790444254E+02  0.75330957960E+03  0.87170560349E+03  0.10100000352E+00 0.  1.
       -3    1    3    3    0  502 -0.43612610626E+03  0.46790444254E+02 -0.90031230956E+03  0.10014777038E+04  0.10100000352E+00 0. -1.
</event>
<event>
 5   0  0.4839293E-04  0.1877368E+04  0.7818609E-02  0.8666204E-01
       -2   -1    0    0    0  501  0.00000000000E+00  0.00000000000E+00  0.50769858196E+03  0.50769858197E+03  0.25500000920E-02 0.  1.
        2   -1    0    0  501    0  0.00000000000E+00  0.00000000000E+00 -0.17355331481E+04  0.17355331481E+04  0.25500000920E-02 0. -1.
    10030    2    1    2    0    0  0.00000000000E+00  0.00000000000E+00 -0.12278345662E+04  0.22432317301E+04  0.18773680707E+04 0.  0.
        5    1    3    3  502    0 -0.72716010806E+03 -0.11079853144E+03 -0.13107158849E+04  0.15030091012E+04  0.46999998093E+01 0. -1.
       -5    1    3    3    0  502  0.72716010806E+03  0.11079853144E+03  0.82881318762E+02  0.74022262889E+03  0.46999998093E+01 0.  1.
</event>
<event>
 5   0  0.1729375E-04  0.1890397E+04  0.7818609E-02  0.8659651E-01
        3   -1    0    0  501    0  0.00000000000E+00  0.00000000000E+00  0.68106706474E+03  0.68106707223E+03  0.10100000352E+00 0.  1.
       -3   -1    0    0    0  501  0.00000000000E+00  0.00000000000E+00 -0.13117649352E+04  0.13117649391E+04  0.10100000352E+00 0. -1.
    10030    2    1    2    0    0  0.00000000000E+00  0.00000000000E+00 -0.63069787047E+03  0.19928320113E+04  0.18903966837E+04 0.  0.
        5    1    3    3  502    0  0.44297478320E+03  0.82331913046E+03 -0.46178903371E+03  0.10427618380E+04  0.46999998093E+01 0. -1.
       -5    1    3    3    0  502 -0.44297478320E+03 -0.82331913046E+03 -0.16890883676E+03  0.95007017333E+03  0.46999998093E+01 0.  1.
</event>
<event>
 5   0  0.4839293E-04  0.1891634E+04  0.7818609E-02  0.8659032E-01
       -2   -1    0    0    0  501  0.00000000000E+00  0.00000000000E+00  0.85695108382E+03  0.85695108383E+03  0.25500000920E-02 0. -1.
        2   -1    0    0  501    0  0.00000000000E+00  0.00000000000E+00 -0.10438985058E+04  0.10438985058E+04  0.25500000920E-02 0.  1.
    10030    2    1    2    0    0  0.00000000000E+00  0.00000000000E+00 -0.18694742194E+03  0.19008495896E+04  0.18916341675E+04 0.  0.
        5    1    3    3  502    0 -0.26710388601E+03  0.61727583818E+03 -0.76167477863E+03  0.10161419707E+04  0.46999998093E+01 0.  1.
       -5    1    3    3    0  502  0.26710388601E+03 -0.61727583818E+03  0.57472735668E+03  0.88470761884E+03  0.46999998093E+01 0. -1.
</event>
<event>
 5   0  0.4973411E-04  0.1858768E+04  0.7818609E-02  0.8675657E-01
        2   -1    0    0  501    0  0.00000000000E+00  0.00000000000E+00  0.13042821649E+04  0.13042821649E+04  0.25500000920E-02 0. -1.
       -2   -1    0    0    0  501  0.00000000000E+00  0.00000000000E+00 -0.66224536061E+03  0.66224536062E+03  0.25500000920E-02 0.  1.
    10030    2    1    2    0    0  0.00000000000E+00  0.00000000000E+00  0.64203680425E+03  0.19665275255E+04  0.18587682078E+04 0.  0.
        1    1    3    3  502    0  0.55601958452E+03 -0.71953007954E+03  0.11786131917E+03  0.91693653233E+03  0.50400001928E-02 0. -1.
       -1    1    3    3    0  502 -0.55601958452E+03  0.71953007954E+03  0.52417548508E+03  0.10495909932E+04  0.50400001928E-02 0.  1.
</event>
<event>
 5   0  0.2261755E-04  0.1894381E+04  0.7818609E-02  0.8657658E-01
       -1   -1    0    0    0  501  0.00000000000E+00  0.00000000000E+00  0.12191508823E+04  0.12191508823E+04  0.50400001928E-02 0. -1.
        1   -1    0    0  501    0  0.00000000000E+00  0.00000000000E+00 -0.73589736736E+03  0.73589736738E+03  0.50400001928E-02 0.  1.
    10030    2    1    2    0    0  0.00000000000E+00  0.00000000000E+00  0.48325351492E+03  0.19550482497E+04  0.18943810860E+04 0.  0.
        1    1    3    3  502    0  0.80798137842E+03 -0.28152170948E+03  0.66094078570E+03  0.10811711719E+04  0.50400001928E-02 0. -1.
       -1    1    3    3    0  502 -0.80798137842E+03  0.28152170948E+03 -0.17768727078E+03  0.87387707774E+03  0.50400001928E-02 0.  1.
</event>
<event>
 5   0  0.1729375E-04  0.1955772E+04  0.7818609E-02  0.8627582E-01
       -3   -1    0    0    0  501  0.00000000000E+00  0.00000000000E+00  0.15011022386E+04  0.15011022420E+04  0.10100000352E+00 0.  1.
        3   -1    0    0  501    0  0.00000000000E+00  0.00000000000E+00 -0.63703920061E+03  0.63703920862E+03  0.10100000352E+00 0. -1.
    10030    2    1    2    0    0  0.00000000000E+00  0.00000000000E+00  0.86406303802E+03  0.21381414506E+04  0.19557719523E+04 0.  0.
        2    1    3    3  502    0  0.11629921978E+03  0.33918337257E+03 -0.56257683623E+03  0.66713084580E+03  0.25500000920E-02 0. -1.
       -2    1    3    3    0  502 -0.11629921978E+03 -0.33918337257E+03  0.14266398743E+04  0.14710106048E+04  0.25500000920E-02 0.  1.
</event>
<event>
 5   0  0.4839293E-04  0.1923407E+04  0.7818609E-02  0.8643292E-01
        2   -1    0    0  501    0  0.00000000000E+00  0.00000000000E+00  0.67083985802E+03  0.67083985802E+03  0.25500000920E-02 0. -1.
       -2   -1    0    0    0  501  0.00000000000E+00  0.00000000000E+00 -0.13786806183E+04  0.13786806183E+04  0.25500000920E-02 0.  1.
    10030    2    1    2    0    0  0.00000000000E+00  0.00000000000E+00 -0.70784076027E+03  0.20495204763E+04  0.19234072998E+04 0.  0.
        5    1    3    3  502    0 -0.73452205303E+03  0.11758740228E+03 -0.10033944250E+04  0.12490684151E+04  0.46999998093E+01 0.  1.
       -5    1    3    3    0  502  0.73452205303E+03 -0.11758740228E+03  0.29555366470E+03  0.80045206120E+03  0.46999998093E+01 0. -1.
</event>
<event>
 5   0  0.4829134E-04  0.1843114E+04  0.7818609E-02  0.8683702E-01
        2   -1    0    0  501    0  0.00000000000E+00  0.00000000000E+00  0.20329586521E+04  0.20329586521E+04  0.25500000920E-02 0. -1.
       -2   -1    0    0    0  501  0.00000000000E+00  0.00000000000E+00 -0.41774946418E+03  0.41774946419E+03  0.25500000920E-02 0.  1.
    10030    2    1    2    0    0  0.00000000000E+00  0.00000000000E+00  0.16152091880E+04  0.24507081163E+04  0.18431140905E+04 0.  0.
        2    1    3    3  502    0  0.38663947786E+03 -0.34078498635E+03  0.18234157340E+04  0.18948534064E+04  0.25500000920E-02 0. -1.
       -2    1    3    3    0  502 -0.38663947786E+03  0.34078498635E+03 -0.20820654602E+03  0.55585470995E+03  0.25500000920E-02 0.  1.
</event>
<event>
 5   0  0.4802635E-04  0.1915836E+04  0.7818609E-02  0.8647014E-01
        2   -1    0    0  501    0  0.00000000000E+00  0.00000000000E+00  0.16617543345E+04  0.16617543345E+04  0.25500000920E-02 0. -1.
       -2   -1    0    0    0  501  0.00000000000E+00  0.00000000000E+00 -0.55219176319E+03  0.55219176320E+03  0.25500000920E-02 0.  1.
    10030    2    1    2    0    0  0.00000000000E+00  0.00000000000E+00  0.11095625713E+04  0.22139460977E+04  0.19158361684E+04 0.  0.
        3    1    3    3  502    0  0.50385640783E+03  0.73712299000E+03  0.15382622427E+03  0.90602654463E+03  0.10100000352E+00 0.  1.
       -3    1    3    3    0  502 -0.50385640783E+03 -0.73712299000E+03  0.95573634707E+03  0.13079195531E+04  0.10100000352E+00 0. -1.
</event>
<event>
 5   0  0.2261755E-04  0.1624086E+04  0.7818609E-02  0.8805886E-01
       -1   -1    0    0    0  501  0.00000000000E+00  0.00000000000E+00  0.10678856734E+04  0.10678856734E+04  0.50400001928E-02 0. -1.
        1   -1    0    0  501    0  0.00000000000E+00  0.00000000000E+00 -0.61749492103E+03  0.61749492105E+03  0.50400001928E-02 0.  1.
    10030    2    1    2    0    0  0.00000000000E+00  0.00000000000E+00  0.45039075238E+03  0.16853805945E+04  0.16240861795E+04 0.  0.
        1    1    3    3  502    0 -0.23761738665E+03 -0.51038905566E+03  0.83247771998E+03  0.10049766987E+04  0.50400001928E-02 0. -1.
       -1    1    3    3    0  502  0.23761738665E+03  0.51038905566E+03 -0.38208696761E+03  0.68040389580E+03  0.50400001928E-02 0.  1.
</event>
<event>
 5   0  0.4802635E-04  0.1996622E+04  0.7818609E-02  0.8608201E-01
        2   -1    0    0  501    0  0.00000000000E+00  0.00000000000E+00  0.20374168785E+04  0.20374168785E+04  0.25500000920E-02 0.  1.
       -2   -1    0    0    0  501  0.00000000000E+00  0.00000000000E+00 -0.48916113492E+03  0.48916113492E+03  0.25500000920E-02 0. -1.
    10030    2    1    2    0    0  0.00000000000E+00  0.00000000000E+00  0.15482557436E+04  0.25265780134E+04  0.19966223004E+04 0.  0.
        3    1    3    3  502    0 -0.82714203598E+03  0.12027631136E+03  0.14649100756E+04  0.16865917937E+04  0.10100000352E+00 0.  1.
       -3    1    3    3    0  502  0.82714203598E+03 -0.12027631136E+03  0.83345667973E+02  0.83998621972E+03  0.10100000352E+00 0. -1.
</event>
<event>
 5   0  0.4839293E-04  0.1902448E+04  0.7818609E-02  0.8653639E-01
       -2   -1    0    0    0  501  0.00000000000E+00  0.00000000000E+00  0.51406332327E+03  0.51406332327E+03  0.25500000920E-02 0. -1.
        2   -1    0    0  501    0  0.00000000000E+00  0.00000000000E+00 -0.17601471513E+04  0.17601471513E+04  0.25500000920E-02 0.  1.
    10030    2    1    2    0    0  0.00000000000E+00  0.00000000000E+00 -0.12460838280E+04  0.22742104746E+04  0.19024479957E+04 0.  0.
        5    1    3    3  502    0 -0.59335006748E+03 -0.59826646328E+03 -0.11506753822E+04  0.14262058017E+04  0.46999998093E+01 0.  1.
       -5    1    3    3    0  502  0.59335006748E+03  0.59826646328E+03 -0.95408445834E+02  0.84800467286E+03  0.46999998093E+01 0. -1.
</event>
<event>
 5   0  0.2261755E-04  0.1872516E+04  0.7818609E-02  0.8668659E-01
       -1   -1    0    0    0  501  0.00000000000E+00  0.00000000000E+00  0.33120751504E+03  0.33120751508E+03  0.50400001928E-02 0.  1.
        1   -1    0    0  501    0  0.00000000000E+00  0.00000000000E+00 -0.26466153924E+04  0.26466153924E+04  0.50400001928E-02 0. -1.
    10030    2    1    2    0    0  0.00000000000E+00  0.00000000000E+00 -0.23154078774E+04  0.29778229075E+04  0.18725158557E+04 0.  0.
        1    1    3    3  502    0  0.26143740232E+03  0.55180946645E+03 -0.29013801522E+02  0.61129780247E+03  0.50400001928E-02 0.  1.
       -1    1    3    3    0  502 -0.26143740232E+03 -0.55180946645E+03 -0.22863940758E+04  0.23665251050E+04  0.50400001928E-02 0. -1.
</event>
<event>
 5   0  0.2376359E-04  0.1802811E+04  0.7818609E-02  0.8704806E-01
        1   -1    0    0  501    0  0.00000000000E+00  0.00000000000E+00  0.68590991525E+03  0.68590991527E+03  0.50400001928E-02 0. -1.
       -1   -1    0    0    0  501  0.00000000000E+00  0.00000000000E+00 -0.11846044319E+04  0.11846044319E+04  0.50400001928E-02 0.  1.
    10030    2    1    2    0    0  0.00000000000E+00  0.00000000000E+00 -0.49869451667E+03  0.18705143472E+04  0.18028110556E+04 0.  0.
        2    1    3    3  502    0  0.10905504062E+02 -0.90054618686E+03 -0.21011781440E+03  0.92479828104E+03  0.25500000920E-02 0. -1.
       -2    1    3    3    0  502 -0.10905504062E+02  0.90054618686E+03 -0.28857670228E+03  0.94571606616E+03  0.25500000920E-02 0.  1.
</event>
<event>
 5   0  0.4761944E-04  0.1016734E+04  0.7818609E-02  0.9290379E-01
       -2   -1    0    0    0  501  0.00000000000E+00  0.00000000000E+00  0.21313299602E+03  0.21313299603E+03  0.25500000920E-02 0. -1.
        2   -1    0    0  501    0  0.00000000000E+00  0.00000000000E+00 -0.12125632475E+04  0.12125632475E+04  0.25500000920E-02 0.  1.
    10030    2    1    2    0    0  0.00000000000E+00  0.00000000000E+00 -0.99943025146E+03  0.14256962435E+04  0.10167344546E+04 0.  0.
        4    1    3    3  502    0  0.35383118662E+03  0.34625813601E+03 -0.66169807719E+03  0.82640012321E+03  0.12699999809E+01 0.  1.
       -4    1    3    3    0  502 -0.35383118662E+03 -0.34625813601E+03 -0.33773217427E+03  0.59929612030E+03  0.12699999809E+01 0. -1.
</event>
<event>
 5   0  0.4761944E-04  0.1868124E+04  0.7818609E-02  0.8670888E-01
       -2   -1    0    0    0  501  0.00000000000E+00  0.00000000000E+00  0.12475045744E+04  0.12475045744E+04  0.25500000920E-02 0. -1.
        2   -1    0    0  501    0  0.00000000000E+00  0.00000000000E+00 -0.69937376777E+03  0.69937376778E+03  0.25500000920E-02 0.  1.
    10030    2    1    2    0    0  0.00000000000E+00  0.00000000000E+00  0.54813080664E+03  0.19468783422E+04  0.18681241656E+04 0.  0.
        4    1    3    3  502    0 -0.21698569103E+03 -0.30778268959E+02  0.12203301787E+04  0.12398538018E+04  0.12699999809E+01 0. -1.
       -4    1    3    3    0  502  0.21698569103E+03  0.30778268959E+02 -0.67219937207E+03  0.70702454036E+03  0.12699999809E+01 0.  1.
</event>
<event>
 5   0  0.4829134E-04  0.1839641E+04  0.7818609E-02  0.8685498E-01
       -2   -1    0    0    0  501  0.00000000000E+00  0.00000000000E+00  0.16561660396E+04  0.16561660396E+04  0.25500000920E-02 0.  1.
        2   -1    0    0  501    0  0.00000000000E+00  0.00000000000E+00 -0.51086029391E+03  0.51086029392E+03  0.25500000920E-02 0. -1.
    10030    2    1    2    0    0  0.00000000000E+00  0.00000000000E+00  0.11453057457E+04  0.21670263336E+04  0.18396406929E+04 0.  0.
        2    1    3    3  502    0 -0.27496675702E+03 -0.10006416192E+03 -0.45457427684E+03  0.54060829363E+03  0.25500000920E-02 0. -1.
       -2    1    3    3    0  502  0.27496675702E+03  0.10006416192E+03  0.15998800226E+04  0.16264180399E+04  0.25500000920E-02 0.  1.
</event>
<event>
 5   0  0.4973411E-04  0.1926970E+04  0.7818609E-02  0.8641547E-01
        2   -1    0    0  501    0  0.00000000000E+00  0.00000000000E+00  0.10170737746E+04  0.10170737746E+04  0.25500000920E-02 0. -1.
       -2   -1    0    0    0  501  0.00000000000E+00  0.00000000000E+00 -0.91272007825E+03  0.91272007825E+03  0.25500000920E-02 0.  1.
    10030    2    1    2    0    0  0.00000000000E+00  0.00000000000E+00  0.10435369632E+03  0.19297938528E+04  0.19269703216E+04 0.  0.
        1    1    3    3  502    0  0.26028528233E+02 -0.23420951527E+03  0.98776844738E+03  0.10154890876E+04  0.50400001928E-02 0. -1.
       -1    1    3    3    0  502 -0.26028528233E+02  0.23420951527E+03 -0.88341475106E+03  0.91430476524E+03  0.50400001928E-02 0.  1.
</event>
<event>
 5   0  0.4761944E-04  0.1917145E+04  0.7818609E-02  0.8646369E-01
       -2   -1    0    0    0  501  0.00000000000E+00  0.00000000000E+00  0.78896629751E+03  0.78896629751E+03  0.25500000920E-02 0.  1.
        2   -1    0    0  501    0  0.00000000000E+00  0.00000000000E+00 -0.11646397355E+04  0.11646397355E+04  0.25500000920E-02 0. -1.
    10030    2    1    2    0    0  0.00000000000E+00  0.00000000000E+00 -0.37567343803E+03  0.19536060331E+04  0.19171452737E+04 0.  0.
        4    1    3    3  502    0  0.94861125564E+02 -0.27841186111E+03 -0.11175187953E+04  0.11555784994E+04  0.12699999809E+01 0. -1.
       -4    1    3    3    0  502 -0.94861125564E+02  0.27841186111E+03  0.74184535724E+03  0.79802753367E+03  0.12699999809E+01 0.  1.
</event>
<event>
 5   0  0.4839293E-04  0.1930759E+04  0.7818609E-02  0.8639695E-01
       -2   -1    0    0    0  501  0.00000000000E+00  0.00000000000E+00  0.23811203643E+04  0.23811203643E+04  0.25500000920E-02 0.  1.
        2   -1    0    0  501    0  0.00000000000E+00  0.00000000000E+00 -0.39139447339E+03  0.39139447339E+03  0.25500000920E-02 0. -1.
    10030    2    1    2    0    0  0.00000000000E+00  0.00000000000E+00  0.19897258909E+04  0.27725148377E+04  0.19307587639E+04 0.  0.
        5    1    3    3  502    0  0.41196078692E+03  0.28544056224E+03 -0.18992005479E+03  0.53598481484E+03  0.46999998093E+01 0. -1.
       -5    1    3    3    0  502 -0.41196078692E+03 -0.28544056224E+03  0.21796459457E+04  0.22365300229E+04  0.46999998093E+01 0.  1.
</event>
<event>
 5   0  0.2317458E-04  0.1022223E+04  0.7818609E-02  0.9284502E-01
       -1   -1    0    0    0  501  0.00000000000E+00  0.00000000000E+00  0.47756144303E+03  0.47756144305E+03  0.50400001928E-02 0. -1.
        1   -1    0    0  501    0  0.00000000000E+00  0.00000000000E+00 -0.54701821211E+03  0.54701821213E+03  0.50400001928E-02 0.  1.
    10030    2    1    2    0    0  0.00000000000E+00  0.00000000000E+00 -0.69456769082E+02  0.10245796552E+04  0.10222226896E+04 0.  0.
        3    1    3    3  502    0 -0.46638552293E+03 -0.45979318813E+02 -0.23917232450E+03  0.52614918490E+03  0.10100000352E+00 0.  1.
       -3    1    3    3    0  502  0.46638552293E+03  0.45979318813E+02  0.16971555541E+03  0.49843047029E+03  0.10100000352E+00 0. -1.
</event>
<event>
 5   0  0.2317458E-04  0.1919596E+04  0.7818609E-02  0.8645163E-01
       -1   -1    0    0    0  501  0.00000000000E+00  0.00000000000E+00  0.55428484613E+03  0.55428484616E+03  0.50400001928E-02 0.  1.
        1   -1    0    0  501    0  0.00000000000E+00  0.00000000000E+00 -0.16619827489E+04  0.16619827489E+04  0.50400001928E-02 0. -1.
    10030    2    1    2    0    0  0.00000000000E+00  0.00000000000E+00 -0.11076979028E+04  0.22162675951E+04  0.19195956369E+04 0.  0.
        3    1    3    3  502    0 -0.57999765663E+02 -0.83028422165E+03 -0.19841218079E+01  0.83230992333E+03  0.10100000352E+00 0.  1.
       -3    1    3    3    0  502  0.57999765663E+02  0.83028422165E+03 -0.11057137810E+04  0.13839576717E+04  0.10100000352E+00 0. -1.
</event>
<event>
 5   0  0.2510069E-04  0.2058413E+04  0.7818609E-02  0.8579787E-01
       -1   -1    0    0    0  501  0.00000000000E+00  0.00000000000E+00  0.10298442659E+04  0.10298442659E+04  0.50400001928E-02 0.  1.
        1   -1    0    0  501    0  0.00000000000E+00  0.00000000000E+00 -0.10285688760E+04  0.10285688761E+04  0.50400001928E-02 0. -1.
    10030    2    1    2    0    0  0.00000000000E+00  0.00000000000E+00  0.12753898651E+01  0.20584131420E+04  0.20584127469E+04 0.  0.
        4    1    3    3  502    0 -0.65886742383E+02 -0.11493965156E+03 -0.10200054160E+04  0.10285741820E+04  0.12699999809E+01 0. -1.
       -4    1    3    3    0  502  0.65886742383E+02  0.11493965156E+03  0.10212808058E+04  0.10298389600E+04  0.12699999809E+01 0.  1.
</event>
<event>
 5   0  0.2261755E-04  0.1899135E+04  0.7818609E-02  0.8655287E-01
       -1   -1    0    0    0  501  0.00000000000E+00  0.00000000000E+00  0.58266352627E+03  0.58266352629E+03  0.50400001928E-02 0. -1.
        1   -1    0    0  501    0  0.00000000000E+00  0.00000000000E+00 -0.15475118879E+04  0.15475118879E+04  0.50400001928E-02 0.  1.
    10030    2    1    2    0    0  0.00000000000E+00  0.00000000000E+00 -0.96484836165E+03  0.21301754142E+04  0.18991353123E+04 0.  0.
        1    1    3    3  502    0  0.20682213277E+03 -0.47678093925E+03  0.40898021057E+03  0.66133219436E+03  0.50400001928E-02 0. -1.
       -1    1    3    3    0  502 -0.20682213277E+03  0.47678093925E+03 -0.13738285722E+04  0.14688432199E+04  0.50400001928E-02 0.  1.
</event>
<event>
 5   0  0.4973411E-04  0.1781919E+04  0.7818609E-02  0.8715974E-01
        2   -1    0    0  501    0  0.00000000000E+00  0.00000000000E+00  0.20721049223E+04  0.20721049223E+04  0.25500000920E-02 0. -1.
       -2   -1    0    0    0  501  0.00000000000E+00  0.00000000000E+00 -0.38309294587E+03  0.38309294588E+03  0.25500000920E-02 0.  1.
    10030    2    1    2    0    0  0.00000000000E+00  0.00000000000E+00  0.16890119765E+04  0.24551978682E+04  0.17819189419E+04 0.  0.
        1    1    3    3  502    0  0.69387653825E+03  0.27944540191E+03  0.17763407190E+03  0.76883564337E+03  0.50400001928E-02 0.  1.
       -1    1    3    3    0  502 -0.69387653825E+03 -0.27944540191E+03  0.15113779046E+04  0.16863622248E+04  0.50400001928E-02 0. -1.
</event>
<event>
 5   0  0.4761944E-04  0.1568628E+04  0.7818609E-02  0.8840056E-01
        2   -1    0    0  501    0  0.00000000000E+00  0.00000000000E+00  0.70044130571E+03  0.70044130571E+03  0.25500000920E-02 0.  1.
       -2   -1    0    0    0  501  0.00000000000E+00  0.00000000000E+00 -0.87822988037E+03  0.87822988037E+03  0.25500000920E-02 0. -1.
    10030    2    1    2    0    0  0.00000000000E+00  0.00000000000E+00 -0.17778857466E+03  0.15786711861E+04  0.15686280427E+04 0.  0.
        4    1    3    3  502    0 -0.53063995068E+03 -0.12320980015E+03  0.47897670401E+03  0.72538245636E+03  0.12699999809E+01 0.  1.
       -4    1    3    3    0  502  0.53063995068E+03  0.12320980015E+03 -0.65676527867E+03  0.85328872973E+03  0.12699999809E+01 0. -1.
</event>
<event>
 5   0  0.4829134E-04  0.1881976E+04  0.7818609E-02  0.8663880E-01
        2   -1    0    0  501    0  0.00000000000E+00  0.00000000000E+00  0.11632410764E+04  0.11632410765E+04  0.25500000920E-02 0. -1.
       -2   -1    0    0    0  501  0.00000000000E+00  0.00000000000E+00 -0.76119961653E+03  0.76119961653E+03  0.25500000920E-02 0.  1.
    10030    2    1    2    0    0  0.00000000000E+00  0.00000000000E+00  0.40204145992E+03  0.19244406930E+04  0.18819762606E+04 0.  0.
        2    1    3    3  502    0  0.45805020264E+03  0.34204887049E+03 -0.56327384265E+03  0.80254896410E+03  0.25500000920E-02 0.  1.
       -2    1    3    3    0  502 -0.45805020264E+03 -0.34204887049E+03  0.96531530258E+03  0.11218917289E+04  0.25500000920E-02 0. -1.
</event>
<event>
 5   0  0.2355414E-04  0.1880344E+04  0.7818609E-02  0.8664703E-01
       -1   -1    0    0    0  501  0.00000000000E+00  0.00000000000E+00  0.57334986528E+03  0.57334986530E+03  0.50400001928E-02 0. -1.
        1   -1    0    0  501    0  0.00000000000E+00  0.00000000000E+00 -0.15416820100E+04  0.15416820100E+04  0.50400001928E-02 0.  1.
    10030    2    1    2    0    0  0.00000000000E+00  0.00000000000E+00 -0.96833214468E+03  0.21150318753E+04  0.18803437694E+04 0.  0.
        5    1    3    3  502    0 -0.28447704289E+03 -0.89538703353E+03 -0.44430337312E+03  0.10392654642E+04  0.46999998093E+01 0. -1.
       -5    1    3    3    0  502  0.28447704289E+03  0.89538703353E+03 -0.52402877155E+03  0.10757664111E+04  0.46999998093E+01 0.  1.
</event>
<event>
 5   0  0.2317458E-04  0.1881176E+04  0.7818609E-02  0.8664283E-01
        1   -1    0    0  501    0  0.00000000000E+00  0.00000000000E+00  0.12683255015E+04  0.12683255015E+04  0.50400001928E-02 0.  1.
       -1   -1    0    0    0  501  0.00000000000E+00  0.00000000000E+00 -0.69753859077E+03  0.69753859079E+03  0.50400001928E-02 0. -1.
    10030    2    1    2    0    0  0.00000000000E+00  0.00000000000E+00  0.57078691072E+03  0.19658640923E+04  0.18811762097E+04 0.  0.
        3    1    3    3  502    0  0.41534901713E+03 -0.39288446679E+03  0.10658991911E+04  0.12095512003E+04  0.10100000352E+00 0.  1.
       -3    1    3    3    0  502 -0.41534901713E+03  0.39288446679E+03 -0.49511228037E+03  0.75631289203E+03  0.10100000352E+00 0. -1.
</event>
<event>
 5   0  0.4973411E-04  0.1919862E+04  0.7818609E-02  0.8645033E-01
        2   -1    0    0  501    0  0.00000000000E+00  0.00000000000E+00  0.15488928578E+04  0.15488928578E+04  0.25500000920E-02 0. -1.
       -2   -1    0    0    0  501  0.00000000000E+00  0.00000000000E+00 -0.59492001570E+03  0.59492001570E+03  0.25500000920E-02 0.  1.
    10030    2    1    2    0    0  0.00000000000E+00  0.00000000000E+00  0.95397284214E+03  0.21438128735E+04  0.19198618318E+04 0.  0.
        1    1    3    3  502    0 -0.75546599212E+02  0.14280682363E+03 -0.57962978769E+03  0.60172399680E+03  0.50400001928E-02 0.  1.
       -1    1    3    3    0  502  0.75546599212E+02 -0.14280682363E+03  0.15336026298E+04  0.15420888767E+04  0.50400001928E-02 0. -1.
</event>
<event>
 5   0  0.2510069E-04  0.2103724E+04  0.7818609E-02  0.8559605E-01
        1   -1    0    0  501    0  0.00000000000E+00  0.00000000000E+00  0.18861357007E+04  0.18861357007E+04  0.50400001928E-02 0. -1.
       -1   -1    0    0    0  501  0.00000000000E+00  0.00000000000E+00 -0.58660365111E+03  0.58660365113E+03  0.50400001928E-02 0.  1.
    10030    2    1    2    0    0  0.00000000000E+00  0.00000000000E+00  0.12995320496E+04  0.24727393519E+04  0.21037244007E+04 0.  0.
        4    1    3    3  502    0  0.19108416837E+03 -0.87326052464E+03  0.13013668693E+04  0.15788142528E+04  0.12699999809E+01 0.  1.
       -4    1    3    3    0  502 -0.19108416837E+03  0.87326052464E+03 -0.18348197166E+01  0.89392509908E+03  0.12699999809E+01 0. -1.
</event>
<event>
 5   0  0.2317458E-04  0.1827145E+04  0.7818609E-02  0.8691996E-01
        1   -1    0    0  501    0  0.00000000000E+00  0.00000000000E+00  0.91331969809E+03  0.91331969811E+03  0.50400001928E-02 0.  1.
       -1   -1    0    0    0  501  0.00000000000E+00  0.00000000000E+00 -0.91382510312E+03  0.91382510313E+03  0.50400001928E-02 0. -1.
    10030    2    1    2    0    0  0.00000000000E+00  0.00000000000E+00 -0.50540502358E+00  0.18271448012E+04  0.18271447313E+04 0.  0.
        3    1    3    3  502    0 -0.19758051058E+02 -0.28319990539E+03  0.86809166916E+03  0.91333220859E+03  0.10100000352E+00 0.  1.
       -3    1    3    3    0  502  0.19758051058E+02  0.28319990539E+03 -0.86859707418E+03  0.91381259264E+03  0.10100000352E+00 0. -1.
</event>
<event>
 5   0  0.2261755E-04  0.1822466E+04  0.7818609E-02  0.8694443E-01
        1   -1    0    0  501    0  0.00000000000E+00  0.00000000000E+00  0.87033822663E+03  0.87033822665E+03  0.50400001928E-02 0. -1.
       -1   -1    0    0    0  501  0.00000000000E+00  0.00000000000E+00 -0.95404900974E+03  0.95404900975E+03  0.50400001928E-02 0.  1.
    10030    2    1    2    0    0  0.00000000000E+00  0.00000000000E+00 -0.83710783109E+02  0.18243872364E+04  0.18224657180E+04 0.  0.
        1    1    3    3  502    0  0.42922472746E+02  0.80023530803E+03  0.39233736296E+03  0.89227097526E+03  0.50400001928E-02 0. -1.
       -1    1    3    3    0  502 -0.42922472746E+02 -0.80023530803E+03 -0.47604814607E+03  0.93211626114E+03  0.50400001928E-02 0.  1.
</event>
<event>
 5   0  0.2355414E-04  0.1851359E+04  0.7818609E-02  0.8679454E-01
       -1   -1    0    0    0  501  0.00000000000E+00  0.00000000000E+00  0.97606055594E+03  0.97606055595E+03  0.50400001928E-02 0. -1.
        1   -1    0    0  501    0  0.00000000000E+00  0.00000000000E+00 -0.87789878032E+03  0.87789878033E+03  0.50400001928E-02 0.  1.
    10030    2    1    2    0    0  0.00000000000E+00  0.00000000000E+00  0.98161775621E+02  0.18539593363E+04  0.18513588216E+04 0.  0.
        5    1    3    3  502    0 -0.52769084775E+03  0.32109130401E+03  0.73947152626E+03  0.96353385227E+03  0.46999998093E+01 0. -1.
       -5    1    3    3    0  502  0.52769084775E+03 -0.32109130401E+03 -0.64130975064E+03  0.89042548402E+03  0.46999998093E+01 0.  1.
</event>
<event>
 5   0  0.2317458E-04  0.1851184E+04  0.7818609E-02  0.8679544E-01
        1   -1    0    0  501    0  0.00000000000E+00  0.00000000000E+00  0.81964470787E+03  0.81964470789E+03  0.50400001928E-02 0.  1.
       -1   -1    0    0    0  501  0.00000000000E+00  0.00000000000E+00 -0.10452336139E+04  0.10452336139E+04  0.50400001928E-02 0. -1.
    10030    2    1    2    0    0  0.00000000000E+00  0.00000000000E+00 -0.22558890600E+03  0.18648783218E+04  0.18511836215E+04 0.  0.
        3    1    3    3  502    0 -0.44884440840E+03  0.39564866864E+03 -0.82422062348E+03  0.10184983153E+04  0.10100000352E+00 0. -1.
       -3    1    3    3    0  502  0.44884440840E+03 -0.39564866864E+03  0.59863171748E+03  0.84638000645E+03  0.10100000352E+00 0.  1.
</event>
<event>
 5   0  0.4761944E-04  0.1903377E+04  0.7818609E-02  0.8653177E-01
       -2   -1    0    0    0  501  0.00000000000E+00  0.00000000000E+00  0.99065835584E+03  0.99065835585E+03  0.25500000920E-02 0. -1.
        2   -1    0    0  501    0  0.00000000000E+00  0.00000000000E+00 -0.91425198638E+03  0.91425198638E+03  0.25500000920E-02 0.  1.
    10030    2    1    2    0    0  0.00000000000E+00  0.00000000000E+00  0.76406369465E+02  0.19049103422E+04  0.19033773873E+04 0.  0.
        4    1    3    3  502    0  0.85260744577E+03 -0.42172204826E+03  0.68572544308E+02  0.95367329275E+03  0.12699999809E+01 0. -1.
       -4    1    3    3    0  502 -0.85260744577E+03  0.42172204826E+03  0.78338251575E+01  0.95123704948E+03  0.12699999809E+01 0.  1.
</event>
<event>
 5   0  0.4973411E-04  0.1883048E+04  0.7818609E-02  0.8663341E-01
        2   -1    0    0  501    0  0.00000000000E+00  0.00000000000E+00  0.78655787619E+03  0.78655787620E+03  0.25500000920E-02 0.  1.
       -2   -1    0    0    0  501  0.00000000000E+00  0.00000000000E+00 -0.11270210144E+04  0.11270210144E+04  0.25500000920E-02 0. -1.
    10030    2    1    2    0    0  0.00000000000E+00  0.00000000000E+00 -0.34046313822E+03  0.19135788906E+04  0.18830478013E+04 0.  0.
        1    1    3    3  502    0  0.55728777432E+03  0.62846598179E+03  0.26202145482E+03  0.87988317206E+03  0.50400001928E-02 0.  1.
       -1    1    3    3    0  502 -0.55728777432E+03 -0.62846598179E+03 -0.60248459304E+03  0.10336957185E+04  0.50400001928E-02 0. -1.
</event>
<event>
 5   0  0.2510069E-04  0.1916411E+04  0.7818609E-02  0.8646731E-01
        1   -1    0    0  501    0  0.00000000000E+00  0.00000000000E+00  0.14593913911E+04  0.14593913911E+04  0.50400001928E-02 0.  1.
       -1   -1    0    0    0  501  0.00000000000E+00  0.00000000000E+00 -0.62913735395E+03  0.62913735397E+03  0.50400001928E-02 0. -1.
    10030    2    1    2    0    0  0.00000000000E+00  0.00000000000E+00  0.83025403715E+03  0.20885287451E+04  0.19164108518E+04 0.  0.
        4    1    3    3  502    0  0.43214067781E+03 -0.46863862070E+03 -0.36451818871E+03  0.73433156342E+03  0.12699999809E+01 0. -1.
       -4    1    3    3    0  502 -0.43214067781E+03  0.46863862070E+03  0.11947722259E+04  0.13541971817E+04  0.12699999809E+01 0.  1.
</event>
<event>
 5   0  0.4839293E-04  0.1905991E+04  0.7818609E-02  0.8651880E-01
       -2   -1    0    0    0  501  0.00000000000E+00  0.00000000000E+00  0.54732925499E+03  0.54732925499E+03  0.25500000920E-02 0. -1.
        2   -1    0    0  501    0  0.00000000000E+00  0.00000000000E+00 -0.16593318177E+04  0.16593318177E+04  0.25500000920E-02 0.  1.
    10030    2    1    2    0    0  0.00000000000E+00  0.00000000000E+00 -0.11120025627E+04  0.22066610727E+04  0.19059914455E+04 0.  0.
        5    1    3    3  502    0 -0.64527391491E+02  0.30746019799E+03 -0.15976435784E+04  0.16282452675E+04  0.46999998093E+01 0.  1.
       -5    1    3    3    0  502  0.64527391491E+02 -0.30746019799E+03  0.48564101567E+03  0.57841580519E+03  0.46999998093E+01 0. -1.
</event>
<event>
 5   0  0.2510069E-04  0.1890984E+04  0.7818609E-02  0.8659357E-01
        1   -1    0    0  501    0  0.00000000000E+00  0.00000000000E+00  0.17872171403E+04  0.17872171403E+04  0.50400001928E-02 0.  1.
       -1   -1    0    0    0  501  0.00000000000E+00  0.00000000000E+00 -0.50019375941E+03  0.50019375944E+03  0.50400001928E-02 0. -1.
    10030    2    1    2    0    0  0.00000000000E+00  0.00000000000E+00  0.12870233809E+04  0.22874108997E+04  0.18909837232E+04 0.  0.
        4    1    3    3  502    0  0.77192890292E+03 -0.39959345030E+03  0.19349268153E+03  0.89049996484E+03  0.12699999809E+01 0. -1.
       -4    1    3    3    0  502 -0.77192890292E+03  0.39959345030E+03  0.10935306993E+04  0.13969109349E+04  0.12699999809E+01 0.  1.
</event>
<event>
 5   0  0.2261755E-04  0.1890778E+04  0.7818609E-02  0.8659461E-01
       -1   -1    0    0    0  501  0.00000000000E+00  0.00000000000E+00  0.64581507745E+03  0.64581507747E+03  0.50400001928E-02 0. -1.
        1   -1    0    0  501    0  0.00000000000E+00  0.00000000000E+00 -0.13839256040E+04  0.13839256040E+04  0.50400001928E-02 0.  1.
    10030    2    1    2    0    0  0.00000000000E+00  0.00000000000E+00 -0.73811052650E+03  0.20297406814E+04  0.18907776402E+04 0.  0.
        1    1    3    3  502    0  0.86479742357E+03  0.12331431152E+03  0.19008444938E+02  0.87375186652E+03  0.50400001928E-02 0. -1.
       -1    1    3    3    0  502 -0.86479742357E+03 -0.12331431152E+03 -0.75711897144E+03  0.11559888149E+04  0.50400001928E-02 0.  1.
</event>
<event>
 5   0  0.2261755E-04  0.1710434E+04  0.7818609E-02  0.8755436E-01
        1   -1    0    0  501    0  0.00000000000E+00  0.00000000000E+00  0.12811479349E+04  0.12811479349E+04  0.50400001928E-02 0.  1.
       -1   -1    0    0    0  501  0.00000000000E+00  0.00000000000E+00 -0.57089091029E+03  0.57089091031E+03  0.50400001928E-02 0. -1.
    10030    2    1    2    0    0  0.00000000000E+00  0.00000000000E+00  0.71025702459E+03  0.18520388452E+04  0.17104335249E+04 0.  0.
        1    1    3    3  502    0 -0.85198824477E+03  0.68172520229E+02  0.32329655523E+03  0.91381186488E+03  0.50400001928E-02 0. -1.
       -1    1    3    3    0  502  0.85198824477E+03 -0.68172520229E+02  0.38696046935E+03  0.93822698032E+03  0.50400001928E-02 0.  1.
</event>
<event>
 5   0  0.2317458E-04  0.1890671E+04  0.7818609E-02  0.8659514E-01
        1   -1    0    0  501    0  0.00000000000E+00  0.00000000000E+00  0.13335958770E+04  0.13335958770E+04  0.50400001928E-02 0.  1.
       -1   -1    0    0    0  501  0.00000000000E+00  0.00000000000E+00 -0.67011232059E+03  0.67011232061E+03  0.50400001928E-02 0. -1.
    10030    2    1    2    0    0  0.00000000000E+00  0.00000000000E+00  0.66348355643E+03  0.20037081976E+04  0.18906708100E+04 0.  0.
        3    1    3    3  502    0  0.52590801360E+03 -0.78498699229E+03  0.36309429613E+03  0.10122357902E+04  0.10100000352E+00 0.  1.
       -3    1    3    3    0  502 -0.52590801360E+03  0.78498699229E+03  0.30038926030E+03  0.99147240745E+03  0.10100000352E+00 0. -1.
</event>
<event>
 5   0  0.4839293E-04  0.1910293E+04  0.7818609E-02  0.8649750E-01
        2   -1    0    0  501    0  0.00000000000E+00  0.00000000000E+00  0.10271724407E+04  0.10271724407E+04  0.25500000920E-02 0. -1.
       -2   -1    0    0    0  501  0.00000000000E+00  0.00000000000E+00 -0.88817091214E+03  0.88817091215E+03  0.25500000920E-02 0.  1.
    10030    2    1    2    0    0  0.00000000000E+00  0.00000000000E+00  0.13900152856E+03  0.19153433529E+04  0.19102928400E+04 0.  0.
        5    1    3    3  502    0  0.31971910231E+03 -0.86235878863E+03 -0.18886171984E+03  0.93892162821E+03  0.46999998093E+01 0.  1.
       -5    1    3    3    0  502 -0.31971910231E+03  0.86235878863E+03  0.32786324839E+03  0.97642172464E+03  0.46999998093E+01 0. -1.
</event>
<event>
 5   0  0.4973411E-04  0.1777530E+04  0.7818609E-02  0.8718341E-01
        2   -1    0    0  501    0  0.00000000000E+00  0.00000000000E+00  0.30570848497E+03  0.30570848498E+03  0.25500000920E-02 0. -1.
       -2   -1    0    0    0  501  0.00000000000E+00  0.00000000000E+00 -0.25838444372E+04  0.25838444372E+04  0.25500000920E-02 0.  1.
    10030    2    1    2    0    0  0.00000000000E+00  0.00000000000E+00 -0.22781359523E+04  0.28895529222E+04  0.17775299360E+04 0.  0.
        1    1    3    3  502    0 -0.35908334302E+03 -0.20847616945E+03  0.13834761686E+03  0.43765651324E+03  0.50400001928E-02 0. -1.
       -1    1    3    3    0  502  0.35908334302E+03  0.20847616945E+03 -0.24164835691E+04  0.24518964090E+04  0.50400001928E-02 0.  1.
</event>
<event>
 5   0  0.2510069E-04  0.1898213E+04  0.7818609E-02  0.8655746E-01
       -1   -1    0    0    0  501  0.00000000000E+00  0.00000000000E+00  0.54472546951E+03  0.54472546953E+03  0.50400001928E-02 0.  1.
        1   -1    0    0  501    0  0.00000000000E+00  0.00000000000E+00 -0.16536832607E+04  0.16536832607E+04  0.50400001928E-02 0. -1.
    10030    2    1    2    0    0  0.00000000000E+00  0.00000000000E+00 -0.11089577912E+04  0.21984087303E+04  0.18982132553E+04 0.  0.
        4    1    3    3  502    0 -0.25378482633E+03  0.58768169382E+03 -0.13660290379E+04  0.15085799471E+04  0.12699999809E+01 0. -1.
       -4    1    3    3    0  502  0.25378482633E+03 -0.58768169382E+03  0.25707124671E+03  0.68982878319E+03  0.12699999809E+01 0.  1.
</event>
<event>
 5   0  0.2317458E-04  0.1948632E+04  0.7818609E-02  0.8631021E-01
       -1   -1    0    0    0  501  0.00000000000E+00  0.00000000000E+00  0.10131676897E+04  0.10131676897E+04  0.50400001928E-02 0.  1.
        1   -1    0    0  501    0  0.00000000000E+00  0.00000000000E+00 -0.93695418476E+03  0.93695418478E+03  0.50400001928E-02 0. -1.
    10030    2    1    2    0    0  0.00000000000E+00  0.00000000000E+00  0.76213504961E+02  0.19501218745E+04  0.19486320399E+04 0.  0.
        3    1    3    3  502    0 -0.68988266770E+03 -0.30508660211E+03  0.65524326222E+03  0.99917949983E+03  0.10100000352E+00 0.  1.
       -3    1    3    3    0  502  0.68988266770E+03  0.30508660211E+03 -0.57902975726E+03  0.95094237469E+03  0.10100000352E+00 0. -1.
</event>
<event>
 5   0  0.4839293E-04  0.1374219E+04  0.7818609E-02  0.8972694E-01
       -2   -1    0    0    0  501  0.00000000000E+00  0.00000000000E+00  0.22612257147E+03  0.22612257149E+03  0.25500000920E-02 0.  1.
        2   -1    0    0  501    0  0.00000000000E+00  0.00000000000E+00 -0.20878920089E+04  0.20878920089E+04  0.25500000920E-02 0. -1.
    10030    2    1    2    0    0  0.00000000000E+00  0.00000000000E+00 -0.18617694375E+04  0.23140145804E+04  0.13742190656E+04 0.  0.
        5    1    3    3  502    0  0.21255930866E+03 -0.41490123369E+03 -0.80947672019E+02  0.47317978509E+03  0.46999998093E+01 0.  1.
       -5    1    3    3    0  502 -0.21255930866E+03  0.41490123369E+03 -0.17808217655E+04  0.18408347953E+04  0.46999998093E+01 0. -1.
</event>
<event>
 5   0  0.2317458E-04  0.1920208E+04  0.7818609E-02  0.8644862E-01
       -1   -1    0    0    0  501  0.00000000000E+00  0.00000000000E+00  0.10369864136E+04  0.10369864136E+04  0.50400001928E-02 0.  1.
        1   -1    0    0  501    0  0.00000000000E+00  0.00000000000E+00 -0.88892200991E+03  0.88892200992E+03  0.50400001928E-02 0. -1.
    10030    2    1    2    0    0  0.00000000000E+00  0.00000000000E+00  0.14806440365E+03  0.19259084235E+04  0.19202083710E+04 0.  0.
        3    1    3    3  502    0  0.89935970001E+02 -0.71831852478E+02 -0.88197707598E+03  0.88945593848E+03  0.10100000352E+00 0. -1.
       -3    1    3    3    0  502 -0.89935970001E+02  0.71831852478E+02  0.10300414796E+04  0.10364524850E+04  0.10100000352E+00 0.  1.
</event>
<event>
 5   0  0.2317458E-04  0.1893373E+04  0.7818609E-02  0.8658162E-01
        1   -1    0    0  501    0  0.00000000000E+00  0.00000000000E+00  0.18526634301E+04  0.18526634301E+04  0.50400001928E-02 0. -1.
       -1   -1    0    0    0  501  0.00000000000E+00  0.00000000000E+00 -0.48374422142E+03  0.48374422145E+03  0.50400001928E-02 0.  1.
    10030    2    1    2    0    0  0.00000000000E+00  0.00000000000E+00  0.13689192087E+04  0.23364076515E+04  0.18933728936E+04 0.  0.
        3    1    3    3  502    0  0.72843543027E+03 -0.57589563506E+03  0.45711929654E+03  0.10350033913E+04  0.10100000352E+00 0. -1.
       -3    1    3    3    0  502 -0.72843543027E+03  0.57589563506E+03  0.91179991212E+03  0.13014042602E+04  0.10100000352E+00 0.  1.
</event>
<event>
 5   0  0.4761944E-04  0.1928313E+04  0.7818609E-02  0.8640890E-01
       -2   -1    0    0    0  501  0.00000000000E+00  0.00000000000E+00  0.23205735301E+04  0.23205735301E+04  0.25500000920E-02 0.  1.
        2   -1    0    0  501    0  0.00000000000E+00  0.00000000000E+00 -0.40058948392E+03  0.40058948393E+03  0.25500000920E-02 0. -1.
    10030    2    1    2    0    0  0.00000000000E+00  0.00000000000E+00  0.19199840462E+04  0.27211630140E+04  0.19283125813E+04 0.  0.
        4    1    3    3  502    0 -0.47502896142E+03  0.82710269743E+03  0.11587825128E+04  0.15008430668E+04  0.12699999809E+01 0.  1.
       -4    1    3    3    0  502  0.47502896142E+03 -0.82710269743E+03  0.76120153341E+03  0.12203199472E+04  0.12699999809E+01 0. -1.
</event>
<event>
 5   0  0.4829134E-04  0.1918396E+04  0.7818609E-02  0.8645753E-01
        2   -1    0    0  501    0  0.00000000000E+00  0.00000000000E+00  0.82014141178E+03  0.82014141178E+03  0.25500000920E-02 0. -1.
       -2   -1    0    0    0  501  0.00000000000E+00  0.00000000000E+00 -0.11218319062E+04  0.11218319062E+04  0.25500000920E-02 0.  1.
    10030    2    1    2    0    0  0.00000000000E+00  0.00000000000E+00 -0.30169049443E+03  0.19419733180E+04  0.19183960001E+04 0.  0.
        2    1    3    3  502    0 -0.58592686318E+03 -0.71794052641E+03 -0.40150086255E+03  0.10099266464E+04  0.25500000920E-02 0.  1.
       -2    1    3    3    0  502  0.58592686318E+03  0.71794052641E+03  0.99810368121E+02  0.93204667160E+03  0.25500000920E-02 0. -1.
</event>
<event>
 5   0  0.2376359E-04  0.1874309E+04  0.7818609E-02  0.8667751E-01
        1   -1    0    0  501    0  0.00000000000E+00  0.00000000000E+00  0.97416158802E+03  0.97416158803E+03  0.50400001928E-02 0. -1.
       -1   -1    0    0    0  501  0.00000000000E+00  0.00000000000E+00 -0.90155298302E+03  0.90155298304E+03  0.50400001928E-02 0.  1.
    10030    2    1    2    0    0  0.00000000000E+00  0.00000000000E+00  0.72608604995E+02  0.18757145711E+04  0.18743087106E+04 0.  0.
        2    1    3    3  502    0 -0.65085730915E+03 -0.56056412432E+03 -0.33869119877E+03  0.92334127086E+03  0.25500000920E-02 0.  1.
       -2    1    3    3    0  502  0.65085730915E+03  0.56056412432E+03  0.41129980377E+03  0.95237330020E+03  0.25500000920E-02 0. -1.
</event>
<event>
 5   0  0.4829134E-04  0.1911427E+04  0.7818609E-02  0.8649189E-01
       -2   -1    0    0    0  501  0.00000000000E+00  0.00000000000E+00  0.92655990321E+03  0.92655990321E+03  0.25500000920E-02 0.  1.
        2   -1    0    0  501    0  0.00000000000E+00  0.00000000000E+00 -0.98578487898E+03  0.98578487899E+03  0.25500000920E-02 0. -1.
    10030    2    1    2    0    0  0.00000000000E+00  0.00000000000E+00 -0.59224975777E+02  0.19123447822E+04  0.19114274687E+04 0.  0.
        2    1    3    3  502    0  0.64856584144E+03 -0.31440637531E+03 -0.65752799670E+03  0.97561882207E+03  0.25500000920E-02 0. -1.
       -2    1    3    3    0  502 -0.64856584144E+03  0.31440637531E+03  0.59830302093E+03  0.93672596013E+03  0.25500000920E-02 0.  1.
</event>
<event>
 5   0  0.2376359E-04  0.1853330E+04  0.7818609E-02  0.8678442E-01
        1   -1    0    0  501    0  0.00000000000E+00  0.00000000000E+00  0.63280986425E+03  0.63280986427E+03  0.50400001928E-02 0.  1.
       -1   -1    0    0    0  501  0.00000000000E+00  0.00000000000E+00 -0.13569770854E+04  0.13569770854E+04  0.50400001928E-02 0. -1.
    10030    2    1    2    0    0  0.00000000000E+00  0.00000000000E+00 -0.72416722115E+03  0.19897869497E+04  0.18533304997E+04 0.  0.
        2    1    3    3  502    0  0.59877323407E+03 -0.68587471037E+03 -0.54728043877E+03  0.10622943956E+04  0.25500000920E-02 0.  1.
       -2    1    3    3    0  502 -0.59877323407E+03  0.68587471037E+03 -0.17688678238E+03  0.92749255412E+03  0.25500000920E-02 0. -1.
</event>
<event>
 5   0  0.1729375E-04  0.1826768E+04  0.7818609E-02  0.8692193E-01
       -3   -1    0    0    0  501  0.00000000000E+00  0.00000000000E+00  0.95052551058E+03  0.95052551595E+03  0.10100000352E+00 0. -1.
        3   -1    0    0  501    0  0.00000000000E+00  0.00000000000E+00 -0.87769396521E+03  0.87769397102E+03  0.10100000352E+00 0.  1.
    10030    2    1    2    0    0  0.00000000000E+00  0.00000000000E+00  0.72831545372E+02  0.18282194870E+04  0.18267682006E+04 0.  0.
        3    1    3    3  502    0 -0.39050202276E+03 -0.41890809217E+03  0.74852493702E+03  0.94247833450E+03  0.10100000352E+00 0. -1.
       -3    1    3    3    0  502  0.39050202276E+03  0.41890809217E+03 -0.67569339165E+03  0.88574115247E+03  0.10100000352E+00 0.  1.
</event>
<event>
 5   0  0.2261755E-04  0.1835000E+04  0.7818609E-02  0.8687905E-01
       -1   -1    0    0    0  501  0.00000000000E+00  0.00000000000E+00  0.82315466698E+03  0.82315466700E+03  0.50400001928E-02 0.  1.
        1   -1    0    0  501    0  0.00000000000E+00  0.00000000000E+00 -0.10226581438E+04  0.10226581438E+04  0.50400001928E-02 0. -1.
    10030    2    1    2    0    0  0.00000000000E+00  0.00000000000E+00 -0.19950347681E+03  0.18458128108E+04  0.18349995355E+04 0.  0.
        1    1    3    3  502    0  0.56253491546E+03  0.29627159819E+03  0.56564724449E+03  0.85098718923E+03  0.50400001928E-02 0.  1.
       -1    1    3    3    0  502 -0.56253491546E+03 -0.29627159819E+03 -0.76515072131E+03  0.99482562158E+03  0.50400001928E-02 0. -1.
</event>
<event>
 5   0  0.4829134E-04  0.1899969E+04  0.7818609E-02  0.8654872E-01
       -2   -1    0    0    0  501  0.00000000000E+00  0.00000000000E+00  0.59773602124E+03  0.59773602124E+03  0.25500000920E-02 0. -1.
        2   -1    0    0  501    0  0.00000000000E+00  0.00000000000E+00 -0.15098145925E+04  0.15098145925E+04  0.25500000920E-02 0.  1.
    10030    2    1    2    0    0  0.00000000000E+00  0.00000000000E+00 -0.91207857126E+03  0.21075506137E+04  0.18999690180E+04 0.  0.
        2    1    3    3  502    0  0.38193078258E+02 -0.12044696142E+03 -0.15004514904E+04  0.15057625499E+04  0.25500000920E-02 0.  1.
       -2    1    3    3    0  502 -0.38193078258E+02  0.12044696142E+03  0.58837291915E+03  0.60178806380E+03  0.25500000920E-02 0. -1.
</event>
<event>
 5   0  0.4761944E-04  0.1925219E+04  0.7818609E-02  0.8642404E-01
        2   -1    0    0  501    0  0.00000000000E+00  0.00000000000E+00  0.20231910877E+04  0.20231910877E+04  0.25500000920E-02 0. -1.
       -2   -1    0    0    0  501  0.00000000000E+00  0.00000000000E+00 -0.45799780470E+03  0.45799780471E+03  0.25500000920E-02 0.  1.
    10030    2    1    2    0    0  0.00000000000E+00  0.00000000000E+00  0.15651932830E+04  0.24811888925E+04  0.19252190283E+04 0.  0.
        4    1    3    3  502    0  0.89966603900E+03  0.56460908579E+02  0.34739886272E+03  0.96606128100E+03  0.12699999809E+01 0.  1.
       -4    1    3    3    0  502 -0.89966603900E+03 -0.56460908579E+02  0.12177944203E+04  0.15151276115E+04  0.12699999809E+01 0. -1.
</event>
<event>
 5   0  0.4973411E-04  0.1799339E+04  0.7818609E-02  0.8706651E-01
       -2   -1    0    0    0  501  0.00000000000E+00  0.00000000000E+00  0.57063619260E+03  0.57063619260E+03  0.25500000920E-02 0.  1.
        2   -1    0    0  501    0  0.00000000000E+00  0.00000000000E+00 -0.14184256722E+04  0.14184256722E+04  0.25500000920E-02 0. -1.
    10030    2    1    2    0    0  0.00000000000E+00  0.00000000000E+00 -0.84778947963E+03  0.19890618648E+04  0.17993387953E+04 0.  0.
        1    1    3    3  502    0  0.76759385490E+03  0.10462014386E+03 -0.92957704452E+03  0.12100657760E+04  0.50400001928E-02 0. -1.
       -1    1    3    3    0  502 -0.76759385490E+03 -0.10462014386E+03  0.81787564888E+02  0.77899608881E+03  0.50400001928E-02 0.  1.
</event>
<event>
 5   0  0.4973411E-04  0.1880212E+04  0.7818609E-02  0.8664769E-01
       -2   -1    0    0    0  501  0.00000000000E+00  0.00000000000E+00  0.47375998752E+03  0.47375998752E+03  0.25500000920E-02 0.  1.
        2   -1    0    0  501    0  0.00000000000E+00  0.00000000000E+00 -0.18655002283E+04  0.18655002283E+04  0.25500000920E-02 0. -1.
    10030    2    1    2    0    0  0.00000000000E+00  0.00000000000E+00 -0.13917402408E+04  0.23392602159E+04  0.18802120784E+04 0.  0.
        1    1    3    3  502    0  0.95143700351E+02 -0.81354857584E+03 -0.12699138779E+04  0.15111567974E+04  0.50400001928E-02 0. -1.
       -1    1    3    3    0  502 -0.95143700351E+02  0.81354857584E+03 -0.12182636291E+03  0.82810341847E+03  0.50400001928E-02 0.  1.
</event>
<event>
 5   0  0.2376359E-04  0.1808227E+04  0.7818609E-02  0.8701937E-01
        1   -1    0    0  501    0  0.00000000000E+00  0.00000000000E+00  0.13864433440E+04  0.13864433440E+04  0.50400001928E-02 0.  1.
       -1   -1    0    0    0  501  0.00000000000E+00  0.00000000000E+00 -0.58958124592E+03  0.58958124594E+03  0.50400001928E-02 0. -1.
    10030    2    1    2    0    0  0.00000000000E+00  0.00000000000E+00  0.79686209805E+03  0.19760245899E+04  0.18082267492E+04 0.  0.
        2    1    3    3  502    0 -0.37183444040E+02  0.18820520149E+02 -0.58853104505E+03  0.59000475548E+03  0.25500000920E-02 0. -1.
       -2    1    3    3    0  502  0.37183444040E+02 -0.18820520149E+02  0.13853931431E+04  0.13860198344E+04  0.25500000920E-02 0.  1.
</event>
<event>
 5   0  0.2376359E-04  0.1825712E+04  0.7818609E-02  0.8692745E-01
       -1   -1    0    0    0  501  0.00000000000E+00  0.00000000000E+00  0.12702261463E+04  0.12702261463E+04  0.50400001928E-02 0. -1.
        1   -1    0    0  501    0  0.00000000000E+00  0.00000000000E+00 -0.65602955021E+03  0.65602955023E+03  0.50400001928E-02 0.  1.
    10030    2    1    2    0    0  0.00000000000E+00  0.00000000000E+00  0.61419659608E+03  0.19262556965E+04  0.18257117926E+04 0.  0.
        2    1    3    3  502    0  0.69683187444E+02  0.56030763933E+03 -0.44969403211E+03  0.72182069784E+03  0.25500000920E-02 0.  1.
       -2    1    3    3    0  502 -0.69683187444E+02 -0.56030763933E+03  0.10638906282E+04  0.12044349987E+04  0.25500000920E-02 0. -1.
</event>
<event>
 5   0  0.4973411E-04  0.1882851E+04  0.7818609E-02  0.8663440E-01
       -2   -1    0    0    0  501  0.00000000000E+00  0.00000000000E+00  0.29619739846E+03  0.29619739847E+03  0.25500000920E-02 0. -1.
        2   -1    0    0  501    0  0.00000000000E+00  0.00000000000E+00 -0.29922004263E+04  0.29922004263E+04  0.25500000920E-02 0.  1.
    10030    2    1    2    0    0  0.00000000000E+00  0.00000000000E+00 -0.26960030278E+04  0.32883978247E+04  0.18828510105E+04 0.  0.
        1    1    3    3  502    0 -0.23491549969E+03  0.74419751813E+03 -0.22676403172E+04  0.23981676018E+04  0.50400001928E-02 0.  1.
       -1    1    3    3    0  502  0.23491549969E+03 -0.74419751813E+03 -0.42836271057E+03  0.89023022293E+03  0.50400001928E-02 0. -1.
</event>
<event>
 5   0  0.4839293E-04  0.1931027E+04  0.7818609E-02  0.8639565E-01
        2   -1    0    0  501    0  0.00000000000E+00  0.00000000000E+00  0.14276072673E+04  0.14276072673E+04  0.25500000920E-02 0. -1.
       -2   -1    0    0    0  501  0.00000000000E+00  0.00000000000E+00 -0.65299195556E+03  0.65299195557E+03  0.25500000920E-02 0.  1.
    10030    2    1    2    0    0  0.00000000000E+00  0.00000000000E+00  0.77461531178E+03  0.20805992229E+04  0.19310267334E+04 0.  0.
        5    1    3    3  502    0  0.17474714253E+03 -0.60702600480E+03 -0.39944058881E+03  0.74739013126E+03  0.46999998093E+01 0.  1.
       -5    1    3    3    0  502 -0.17474714253E+03  0.60702600480E+03  0.11740559006E+04  0.13332090916E+04  0.46999998093E+01 0. -1.
</event>
<event>
 5   0  0.4761944E-04  0.1829349E+04  0.7818609E-02  0.8690846E-01
       -2   -1    0    0    0  501  0.00000000000E+00  0.00000000000E+00  0.11416590371E+04  0.11416590371E+04  0.25500000920E-02 0.  1.
        2   -1    0    0  501    0  0.00000000000E+00  0.00000000000E+00 -0.73281927272E+03  0.73281927272E+03  0.25500000920E-02 0. -1.
    10030    2    1    2    0    0  0.00000000000E+00  0.00000000000E+00  0.40883976436E+03  0.18744783098E+04  0.18293493327E+04 0.  0.
        4    1    3    3  502    0 -0.84529941767E+03  0.80576849592E+00  0.56246286188E+03  0.10153313935E+04  0.12699999809E+01 0.  1.
       -4    1    3    3    0  502  0.84529941767E+03 -0.80576849592E+00 -0.15362309752E+03  0.85914691629E+03  0.12699999809E+01 0. -1.
</event>
<event>
 5   0  0.2261755E-04  0.1807558E+04  0.7818609E-02  0.8702291E-01
        1   -1    0    0  501    0  0.00000000000E+00  0.00000000000E+00  0.21334486370E+04  0.21334486370E+04  0.50400001928E-02 0. -1.
       -1   -1    0    0    0  501  0.00000000000E+00  0.00000000000E+00 -0.38286191071E+03  0.38286191075E+03  0.50400001928E-02 0.  1.
    10030    2    1    2    0    0  0.00000000000E+00  0.00000000000E+00  0.17505867263E+04  0.25163105478E+04  0.18075577132E+04 0.  0.
        1    1    3    3  502    0 -0.24247110229E+03 -0.85506284512E+03  0.64700713266E+03  0.10993374979E+04  0.50400001928E-02 0.  1.
       -1    1    3    3    0  502  0.24247110229E+03  0.85506284512E+03  0.11035795937E+04  0.14169730499E+04  0.50400001928E-02 0. -1.
</event>
<event>
 5   0  0.4802635E-04  0.2025519E+04  0.7818609E-02  0.8594782E-01
       -2   -1    0    0    0  501  0.00000000000E+00  0.00000000000E+00  0.75895495111E+03  0.75895495112E+03  0.25500000920E-02 0.  1.
        2   -1    0    0  501    0  0.00000000000E+00  0.00000000000E+00 -0.13514398292E+04  0.13514398292E+04  0.25500000920E-02 0. -1.
    10030    2    1    2    0    0  0.00000000000E+00  0.00000000000E+00 -0.59248487810E+03  0.21103947803E+04  0.20255191429E+04 0.  0.
        3    1    3    3  502    0 -0.71358107516E+03 -0.60516207328E+03 -0.70012320208E+03  0.11685852960E+04  0.10100000352E+00 0. -1.
       -3    1    3    3    0  502  0.71358107516E+03  0.60516207328E+03  0.10763832398E+03  0.94180948432E+03  0.10100000352E+00 0.  1.
</event>
<event>
 5   0  0.4973411E-04  0.1883355E+04  0.7818609E-02  0.8663186E-01
       -2   -1    0    0    0  501  0.00000000000E+00  0.00000000000E+00  0.63506050183E+03  0.63506050184E+03  0.25500000920E-02 0. -1.
        2   -1    0    0  501    0  0.00000000000E+00  0.00000000000E+00 -0.13963346271E+04  0.13963346271E+04  0.25500000920E-02 0.  1.
    10030    2    1    2    0    0  0.00000000000E+00  0.00000000000E+00 -0.76127412528E+03  0.20313951290E+04  0.18833554832E+04 0.  0.
        1    1    3    3  502    0  0.79898341811E+03  0.28735760056E+03 -0.81983970659E+03  0.11802906581E+04  0.50400001928E-02 0.  1.
       -1    1    3    3    0  502 -0.79898341811E+03 -0.28735760056E+03  0.58565581306E+02  0.85110447088E+03  0.50400001928E-02 0. -1.
</event>
<event>
 5   0  0.2510069E-04  0.1125605E+04  0.7818609E-02  0.9180589E-01
       -1   -1    0    0    0  501  0.00000000000E+00  0.00000000000E+00  0.34237007677E+03  0.34237007681E+03  0.50400001928E-02 0.  1.
        1   -1    0    0  501    0  0.00000000000E+00  0.00000000000E+00 -0.92515827140E+03  0.92515827142E+03  0.50400001928E-02 0. -1.
    10030    2    1    2    0    0  0.00000000000E+00  0.00000000000E+00 -0.58278819463E+03  0.12675283482E+04  0.11256047414E+04 0.  0.
        4    1    3    3  502    0  0.27755128487E+01  0.17892653884E+03  0.30947884874E+03  0.35749290971E+03  0.12699999809E+01 0.  1.
       -4    1    3    3    0  502 -0.27755128487E+01 -0.17892653884E+03 -0.89226704338E+03  0.91003543852E+03  0.12699999809E+01 0. -1.
</event>
<event>
 5   0  0.4802635E-04  0.1951666E+04  0.7818609E-02  0.8629558E-01
        2   -1    0    0  501    0  0.00000000000E+00  0.00000000000E+00  0.12674376735E+04  0.12674376735E+04  0.25500000920E-02 0. -1.
       -2   -1    0    0    0  501  0.00000000000E+00  0.00000000000E+00 -0.75131891899E+03  0.75131891899E+03  0.25500000920E-02 0.  1.
    10030    2    1    2    0    0  0.00000000000E+00  0.00000000000E+00  0.51611875449E+03  0.20187565925E+04  0.19516658553E+04 0.  0.
        3    1    3    3  502    0 -0.64225700708E+03  0.19232880906E+03  0.99149366662E+03  0.11968893579E+04  0.10100000352E+00 0. -1.
       -3    1    3    3    0  502  0.64225700708E+03 -0.19232880906E+03 -0.47537491213E+03  0.82186723455E+03  0.10100000352E+00 0.  1.
</event>
<event>
 5   0  0.4973411E-04  0.1911625E+04  0.7818609E-02  0.8649091E-01
        2   -1    0    0  501    0  0.00000000000E+00  0.00000000000E+00  0.12813698480E+04  0.12813698480E+04  0.25500000920E-02 0. -1.
       -2   -1    0    0    0  501  0.00000000000E+00  0.00000000000E+00 -0.71296958195E+03  0.71296958196E+03  0.25500000920E-02 0.  1.
    10030    2    1    2    0    0  0.00000000000E+00  0.00000000000E+00  0.56840026606E+03  0.19943394300E+04  0.19116251985E+04 0.  0.
        1    1    3    3  502    0  0.52971448251E+03  0.79414702689E+03  0.23404946581E+03  0.98287643464E+03  0.50400001928E-02 0.  1.
       -1    1    3    3    0  502 -0.52971448251E+03 -0.79414702689E+03  0.33435080025E+03  0.10114629953E+04  0.50400001928E-02 0. -1.
</event>
<event>
 5   0  0.2376359E-04  0.1747540E+04  0.7818609E-02  0.8734705E-01
       -1   -1    0    0    0  501  0.00000000000E+00  0.00000000000E+00  0.55249920854E+03  0.55249920856E+03  0.50400001928E-02 0. -1.
        1   -1    0    0  501    0  0.00000000000E+00  0.00000000000E+00 -0.13818558213E+04  0.13818558214E+04  0.50400001928E-02 0.  1.
    10030    2    1    2    0    0  0.00000000000E+00  0.00000000000E+00 -0.82935661281E+03  0.19343550299E+04  0.17475402687E+04 0.  0.
        2    1    3    3  502    0 -0.45488824710E+03 -0.42308787124E+02 -0.12391237381E+04  0.13206593009E+04  0.25500000920E-02 0.  1.
       -2    1    3    3    0  502  0.45488824710E+03  0.42308787124E+02  0.40976712528E+03  0.61369572899E+03  0.25500000920E-02 0. -1.
</event>
<event>
 5   0  0.4839293E-04  0.2041951E+04  0.7818609E-02  0.8587255E-01
        2   -1    0    0  501    0  0.00000000000E+00  0.00000000000E+00  0.13113359303E+04  0.13113359303E+04  0.25500000920E-02 0. -1.
       -2   -1    0    0    0  501  0.00000000000E+00  0.00000000000E+00 -0.79490737420E+03  0.79490737421E+03  0.25500000920E-02 0.  1.
    10030    2    1    2    0    0  0.00000000000E+00  0.00000000000E+00  0.51642855614E+03  0.21062433046E+04  0.20419506371E+04 0.  0.
        5    1    3    3  502    0 -0.99451271043E+03  0.17387159523E+03  0.41492427708E+03  0.10915452847E+04  0.46999998093E+01 0. -1.
       -5    1    3    3    0  502  0.99451271043E+03 -0.17387159523E+03  0.10150427906E+03  0.10146980199E+04  0.46999998093E+01 0.  1.
</event>
<event>
 5   0  0.2261755E-04  0.1292609E+04  0.7818609E-02  0.9035447E-01
       -1   -1    0    0    0  501  0.00000000000E+00  0.00000000000E+00  0.93492432351E+03  0.93492432352E+03  0.50400001928E-02 0.  1.
        1   -1    0    0  501    0  0.00000000000E+00  0.00000000000E+00 -0.44678419427E+03  0.44678419430E+03  0.50400001928E-02 0. -1.
    10030    2    1    2    0    0  0.00000000000E+00  0.00000000000E+00  0.48814012924E+03  0.13817085178E+04  0.12926088513E+04 0.  0.
        1    1    3    3  502    0  0.33222364509E+03  0.16118861827E+01  0.83666072000E+03  0.90020903626E+03  0.50400001928E-02 0.  1.
       -1    1    3    3    0  502 -0.33222364509E+03 -0.16118861827E+01 -0.34852059076E+03  0.48149948156E+03  0.50400001928E-02 0. -1.
</event>
<event>
 5   0  0.4973411E-04  0.1115797E+04  0.7818609E-02  0.9189930E-01
        2   -1    0    0  501    0  0.00000000000E+00  0.00000000000E+00  0.54248455087E+03  0.54248455087E+03  0.25500000920E-02 0.  1.
       -2   -1    0    0    0  501  0.00000000000E+00  0.00000000000E+00 -0.57375038084E+03  0.57375038085E+03  0.25500000920E-02 0. -1.
    10030    2    1    2    0    0  0.00000000000E+00  0.00000000000E+00 -0.31265829977E+02  0.11162349317E+04  0.11157969666E+04 0.  0.
        1    1    3    3  502    0  0.24143705231E+03  0.38777261867E+03 -0.33605734648E+03  0.56709257989E+03  0.50400001928E-02 0. -1.
       -1    1    3    3    0  502 -0.24143705231E+03 -0.38777261867E+03  0.30479151650E+03  0.54914235183E+03  0.50400001928E-02 0.  1.
</event>
<event>
 5   0  0.4829134E-04  0.1787262E+04  0.7818609E-02  0.8713103E-01
        2   -1    0    0  501    0  0.00000000000E+00  0.00000000000E+00  0.11126405388E+04  0.11126405388E+04  0.25500000920E-02 0.  1.
       -2   -1    0    0    0  501  0.00000000000E+00  0.00000000000E+00 -0.71773075642E+03  0.71773075642E+03  0.25500000920E-02 0. -1.
    10030    2    1    2    0    0  0.00000000000E+00  0.00000000000E+00  0.39490978243E+03  0.18303712953E+04  0.17872619680E+04 0.  0.
        2    1    3    3  502    0 -0.87660366241E+02  0.50697327637E+02  0.11067455809E+04  0.11113686786E+04  0.25500000920E-02 0.  1.
       -2    1    3    3    0  502  0.87660366241E+02 -0.50697327637E+02 -0.71183579847E+03  0.71900261671E+03  0.25500000920E-02 0. -1.
</event>
<event>
 5   0  0.2355414E-04  0.1894669E+04  0.7818609E-02  0.8657515E-01
        1   -1    0    0  501    0  0.00000000000E+00  0.00000000000E+00  0.19975721089E+04  0.19975721089E+04  0.50400001928E-02 0. -1.
       -1   -1    0    0    0  501  0.00000000000E+00  0.00000000000E+00 -0.44926665051E+03  0.44926665054E+03  0.50400001928E-02 0.  1.
    10030    2    1    2    0    0  0.00000000000E+00  0.00000000000E+00  0.15483054584E+04  0.24468387594E+04  0.18946688687E+04 0.  0.
        5    1    3    3  502    0 -0.58484978942E+03 -0.59025479511E+03  0.18662794070E+03  0.85164668589E+03  0.46999998093E+01 0.  1.
       -5    1    3    3    0  502  0.58484978942E+03  0.59025479511E+03  0.13616775177E+04  0.15951920735E+04  0.46999998093E+01 0. -1.
</event>
<event>
 5   0  0.2317458E-04  0.1908201E+04  0.7818609E-02  0.8650785E-01
       -1   -1    0    0    0  501  0.00000000000E+00  0.00000000000E+00  0.10417848294E+04  0.10417848294E+04  0.50400001928E-02 0.  1.
        1   -1    0    0  501    0  0.00000000000E+00  0.00000000000E+00 -0.87379630889E+03  0.87379630891E+03  0.50400001928E-02 0. -1.
    10030    2    1    2    0    0  0.00000000000E+00  0.00000000000E+00  0.16798852054E+03  0.19155811384E+04  0.19082009733E+04 0.  0.
        3    1    3    3  502    0 -0.56775014612E+03 -0.76311680867E+03  0.15925244327E+03  0.96439039967E+03  0.10100000352E+00 0.  1.
       -3    1    3    3    0  502  0.56775014612E+03  0.76311680867E+03  0.87360772706E+01  0.95119073868E+03  0.10100000352E+00 0. -1.
</event>
<event>
 5   0  0.4802635E-04  0.1906380E+04  0.7818609E-02  0.8651687E-01
        2   -1    0    0  501    0  0.00000000000E+00  0.00000000000E+00  0.18013880797E+04  0.18013880797E+04  0.25500000920E-02 0. -1.
       -2   -1    0    0    0  501  0.00000000000E+00  0.00000000000E+00 -0.50437279570E+03  0.50437279570E+03  0.25500000920E-02 0.  1.
    10030    2    1    2    0    0  0.00000000000E+00  0.00000000000E+00  0.12970152841E+04  0.23057608755E+04  0.19063799641E+04 0.  0.
        3    1    3    3  502    0  0.82924814713E+03 -0.15658097419E+03  0.11845223333E+04  0.14543944648E+04  0.10100000352E+00 0. -1.
       -3    1    3    3    0  502 -0.82924814713E+03  0.15658097419E+03  0.11249295075E+03  0.85136641064E+03  0.10100000352E+00 0.  1.
</event>
<event>
 5   0  0.4839293E-04  0.1905847E+04  0.7818609E-02  0.8651951E-01
        2   -1    0    0  501    0  0.00000000000E+00  0.00000000000E+00  0.22314068622E+04  0.22314068622E+04  0.25500000920E-02 0.  1.
       -2   -1    0    0    0  501  0.00000000000E+00  0.00000000000E+00 -0.40694654127E+03  0.40694654128E+03  0.25500000920E-02 0. -1.
    10030    2    1    2    0    0  0.00000000000E+00  0.00000000000E+00  0.18244603209E+04  0.26383534035E+04  0.19058471132E+04 0.  0.
        5    1    3    3  502    0  0.63342735696E+03 -0.46746919034E+03  0.16555142619E+04  0.18331686288E+04  0.46999998093E+01 0.  1.
       -5    1    3    3    0  502 -0.63342735696E+03  0.46746919034E+03  0.16894605905E+03  0.80518477465E+03  0.46999998093E+01 0. -1.
</event>
<event>
 5   0  0.2355414E-04  0.1926399E+04  0.7818609E-02  0.8641826E-01
       -1   -1    0    0    0  501  0.00000000000E+00  0.00000000000E+00  0.14263114577E+04  0.14263114577E+04  0.50400001928E-02 0. -1.
        1   -1    0    0  501    0  0.00000000000E+00  0.00000000000E+00 -0.65045661708E+03  0.65045661710E+03  0.50400001928E-02 0.  1.
    10030    2    1    2    0    0  0.00000000000E+00  0.00000000000E+00  0.77585484061E+03  0.20767680748E+04  0.19263994661E+04 0.  0.
        5    1    3    3  502    0  0.85031571006E+03 -0.32245727514E+03  0.45797406716E+02  0.91056850018E+03  0.46999998093E+01 0.  1.
       -5    1    3    3    0  502 -0.85031571006E+03  0.32245727514E+03  0.73005743389E+03  0.11661995746E+04  0.46999998093E+01 0. -1.
</event>
<event>
 5   0  0.4973411E-04  0.1756663E+04  0.7818609E-02  0.8729691E-01
        2   -1    0    0  501    0  0.00000000000E+00  0.00000000000E+00  0.13261399906E+04  0.13261399906E+04  0.25500000920E-02 0. -1.
       -2   -1    0    0    0  501  0.00000000000E+00  0.00000000000E+00 -0.58173802574E+03  0.58173802575E+03  0.25500000920E-02 0.  1.
    10030    2    1    2    0    0  0.00000000000E+00  0.00000000000E+00  0.74440196482E+03  0.19078780163E+04  0.17566628134E+04 0.  0.
        1    1    3    3  502    0  0.57254863136E+03  0.65665257259E+03  0.25096046867E+03  0.90663426652E+03  0.50400001928E-02 0. -1.
       -1    1    3    3    0  502 -0.57254863136E+03 -0.65665257259E+03  0.49344149615E+03  0.10012437498E+04  0.50400001928E-02 0.  1.
</event>
<event>
 5   0  0.2261755E-04  0.1833419E+04  0.7818609E-02  0.8688727E-01
       -1   -1    0    0    0  501  0.00000000000E+00  0.00000000000E+00  0.45892194006E+03  0.45892194009E+03  0.50400001928E-02 0. -1.
        1   -1    0    0  501    0  0.00000000000E+00  0.00000000000E+00 -0.18311533537E+04  0.18311533537E+04  0.50400001928E-02 0.  1.
    10030    2    1    2    0    0  0.00000000000E+00  0.00000000000E+00 -0.13722314137E+04  0.22900752938E+04  0.18334191552E+04 0.  0.
        1    1    3    3  502    0 -0.73552287617E+03 -0.12854479174E+03 -0.13504053452E+04  0.15430853059E+04  0.50400001928E-02 0.  1.
       -1    1    3    3    0  502  0.73552287617E+03  0.12854479174E+03 -0.21826068509E+02  0.74698998798E+03  0.50400001928E-02 0. -1.
</event>
<event>
 5   0  0.4802635E-04  0.1923727E+04  0.7818609E-02  0.8643135E-01
       -2   -1    0    0    0  501  0.00000000000E+00  0.00000000000E+00  0.68395479976E+03  0.68395479977E+03  0.25500000920E-02 0. -1.
        2   -1    0    0  501    0  0.00000000000E+00  0.00000000000E+00 -0.13526932545E+04  0.13526932545E+04  0.25500000920E-02 0.  1.
    10030    2    1    2    0    0  0.00000000000E+00  0.00000000000E+00 -0.66873845471E+03  0.20366480542E+04  0.19237266376E+04 0.  0.
        3    1    3    3  502    0  0.34750369865E+03  0.80293531934E+03 -0.75747438289E+03  0.11572516574E+04  0.10100000352E+00 0.  1.
       -3    1    3    3    0  502 -0.34750369865E+03 -0.80293531934E+03  0.88735928183E+02  0.87939639684E+03  0.10100000352E+00 0. -1.
</event>
<event>
 5   0  0.4761944E-04  0.1982315E+04  0.7818609E-02  0.8614934E-01
        2   -1    0    0  501    0  0.00000000000E+00  0.00000000000E+00  0.94952445269E+03  0.94952445270E+03  0.25500000920E-02 0.  1.
       -2   -1    0    0    0  501  0.00000000000E+00  0.00000000000E+00 -0.10346164843E+04  0.10346164843E+04  0.25500000920E-02 0. -1.
    10030    2    1    2    0    0  0.00000000000E+00  0.00000000000E+00 -0.85092031616E+02  0.19841409370E+04  0.19823154653E+04 0.  0.
        4    1    3    3  502    0  0.49584124037E+03 -0.66976960458E+02  0.81383968222E+03  0.95534344094E+03  0.12699999809E+01 0.  1.
       -4    1    3    3    0  502 -0.49584124037E+03  0.66976960458E+02 -0.89893171384E+03  0.10287974961E+04  0.12699999809E+01 0. -1.
</event>
<event>
 5   0  0.4829134E-04  0.1907205E+04  0.7818609E-02  0.8651278E-01
        2   -1    0    0  501    0  0.00000000000E+00  0.00000000000E+00  0.98023385743E+03  0.98023385743E+03  0.25500000920E-02 0. -1.
       -2   -1    0    0    0  501  0.00000000000E+00  0.00000000000E+00 -0.92769444898E+03  0.92769444898E+03  0.25500000920E-02 0.  1.
    10030    2    1    2    0    0  0.00000000000E+00  0.00000000000E+00  0.52539408445E+02  0.19079283064E+04  0.19072047695E+04 0.  0.
        2    1    3    3  502    0  0.79447458235E+03  0.52741413160E+03  0.27677371560E+02  0.95400291672E+03  0.25500000920E-02 0. -1.
       -2    1    3    3    0  502 -0.79447458235E+03 -0.52741413160E+03  0.24862036884E+02  0.95392538969E+03  0.25500000920E-02 0.  1.
</event>
<event>
 5   0  0.4829134E-04  0.1922094E+04  0.7818609E-02  0.8643936E-01
        2   -1    0    0  501    0  0.00000000000E+00  0.00000000000E+00  0.11828400311E+04  0.11828400311E+04  0.25500000920E-02 0.  1.
       -2   -1    0    0    0  501  0.00000000000E+00  0.00000000000E+00 -0.78084233673E+03  0.78084233673E+03  0.25500000920E-02 0. -1.
    10030    2    1    2    0    0  0.00000000000E+00  0.00000000000E+00  0.40199769441E+03  0.19636823679E+04  0.19220942473E+04 0.  0.
        2    1    3    3  502    0  0.35073342239E+03 -0.26149992423E+03  0.10752093099E+04  0.11608062733E+04  0.25500000920E-02 0.  1.
       -2    1    3    3    0  502 -0.35073342239E+03  0.26149992423E+03 -0.67321161552E+03  0.80287609457E+03  0.25500000920E-02 0. -1.
</event>
<event>
 5   0  0.4973411E-04  0.2017663E+04  0.7818609E-02  0.8598407E-01
       -2   -1    0    0    0  501  0.00000000000E+00  0.00000000000E+00  0.68984154515E+03  0.68984154516E+03  0.25500000920E-02 0.  1.
        2   -1    0    0  501    0  0.00000000000E+00  0.00000000000E+00 -0.14753253894E+04  0.14753253894E+04  0.25500000920E-02 0. -1.
    10030    2    1    2    0    0  0.00000000000E+00  0.00000000000E+00 -0.78548384429E+03  0.21651669346E+04  0.20176627531E+04 0.  0.
        1    1    3    3  502    0  0.18513141040E+03  0.54398328682E+03 -0.12825466901E+04  0.14053887248E+04  0.50400001928E-02 0. -1.
       -1    1    3    3    0  502 -0.18513141040E+03 -0.54398328682E+03  0.49706284578E+03  0.75977820984E+03  0.50400001928E-02 0.  1.
</event>
<event>
 5   0  0.2355414E-04  0.1844310E+04  0.7818609E-02  0.8683085E-01
        1   -1    0    0  501    0  0.00000000000E+00  0.00000000000E+00  0.12596739976E+04  0.12596739976E+04  0.50400001928E-02 0.  1.
       -1   -1    0    0    0  501  0.00000000000E+00  0.00000000000E+00 -0.67507128456E+03  0.67507128458E+03  0.50400001928E-02 0. -1.
    10030    2    1    2    0    0  0.00000000000E+00  0.00000000000E+00  0.58460271302E+03  0.19347452822E+04  0.18443098912E+04 0.  0.
        5    1    3    3  502    0 -0.42969842159E+03  0.81185614284E+03  0.37750289922E+03  0.99311714269E+03  0.46999998093E+01 0.  1.
       -5    1    3    3    0  502  0.42969842159E+03 -0.81185614284E+03  0.20709981380E+03  0.94162813948E+03  0.46999998093E+01 0. -1.
</event>
<event>
 5   0  0.2261755E-04  0.1629708E+04  0.7818609E-02  0.8802502E-01
        1   -1    0    0  501    0  0.00000000000E+00  0.00000000000E+00  0.20070613127E+04  0.20070613127E+04  0.50400001928E-02 0.  1.
       -1   -1    0    0    0  501  0.00000000000E+00  0.00000000000E+00 -0.33082536585E+03  0.33082536589E+03  0.50400001928E-02 0. -1.
    10030    2    1    2    0    0  0.00000000000E+00  0.00000000000E+00  0.16762359469E+04  0.23378866786E+04  0.16297076954E+04 0.  0.
        1    1    3    3  502    0  0.62814501597E+03  0.22067091474E+03  0.15120862928E+04  0.16521703213E+04  0.50400001928E-02 0.  1.
       -1    1    3    3    0  502 -0.62814501597E+03 -0.22067091474E+03  0.16414965403E+03  0.68571635728E+03  0.50400001928E-02 0. -1.
</event>
<event>
 5   0  0.4973411E-04  0.1730303E+04  0.7818609E-02  0.8744268E-01
       -2   -1    0    0    0  501  0.00000000000E+00  0.00000000000E+00  0.10954678936E+04  0.10954678936E+04  0.25500000920E-02 0. -1.
        2   -1    0    0  501    0  0.00000000000E+00  0.00000000000E+00 -0.68325793436E+03  0.68325793436E+03  0.25500000920E-02 0.  1.
    10030    2    1    2    0    0  0.00000000000E+00  0.00000000000E+00  0.41220995928E+03  0.17787258280E+04  0.17303030141E+04 0.  0.
        1    1    3    3  502    0 -0.19425721482E+03  0.21487443398E+03 -0.63192693832E+03  0.69515361129E+03  0.50400001928E-02 0.  1.
       -1    1    3    3    0  502  0.19425721482E+03 -0.21487443398E+03  0.10441368976E+04  0.10835722167E+04  0.50400001928E-02 0. -1.
</event>
<event>
 5   0  0.2376359E-04  0.1798937E+04  0.7818609E-02  0.8706865E-01
        1   -1    0    0  501    0  0.00000000000E+00  0.00000000000E+00  0.19918935857E+04  0.19918935857E+04  0.50400001928E-02 0. -1.
       -1   -1    0    0    0  501  0.00000000000E+00  0.00000000000E+00 -0.40616823054E+03  0.40616823057E+03  0.50400001928E-02 0.  1.
    10030    2    1    2    0    0  0.00000000000E+00  0.00000000000E+00  0.15857253551E+04  0.23980618162E+04  0.17989373454E+04 0.  0.
        2    1    3    3  502    0 -0.99809541303E+02  0.66068267285E+03 -0.98247687108E+01  0.66825149819E+03  0.25500000920E-02 0.  1.
       -2    1    3    3    0  502  0.99809541303E+02 -0.66068267285E+03  0.15955501238E+04  0.17298103180E+04  0.25500000920E-02 0. -1.
</event>
<event>
 5   0  0.2317458E-04  0.1791355E+04  0.7818609E-02  0.8710910E-01
       -1   -1    0    0    0  501  0.00000000000E+00  0.00000000000E+00  0.10381233902E+04  0.10381233902E+04  0.50400001928E-02 0. -1.
        1   -1    0    0  501    0  0.00000000000E+00  0.00000000000E+00 -0.77277739197E+03  0.77277739198E+03  0.50400001928E-02 0.  1.
    10030    2    1    2    0    0  0.00000000000E+00  0.00000000000E+00  0.26534599824E+03  0.18109007822E+04  0.17913551139E+04 0.  0.
        3    1    3    3  502    0 -0.34899684048E+03  0.74927761632E+03 -0.21608772131E+03  0.85434750219E+03  0.10100000352E+00 0.  1.
       -3    1    3    3    0  502  0.34899684048E+03 -0.74927761632E+03  0.48143371956E+03  0.95655328002E+03  0.10100000352E+00 0. -1.
</event>
<event>
 5   0  0.2510069E-04  0.1844875E+04  0.7818609E-02  0.8682793E-01
       -1   -1    0    0    0  501  0.00000000000E+00  0.00000000000E+00  0.13989223119E+04  0.13989223119E+04  0.50400001928E-02 0. -1.
        1   -1    0    0  501    0  0.00000000000E+00  0.00000000000E+00 -0.60824761590E+03  0.60824761592E+03  0.50400001928E-02 0.  1.
    10030    2    1    2    0    0  0.00000000000E+00  0.00000000000E+00  0.79067469598E+03  0.20071699278E+04  0.18448752381E+04 0.  0.
        4    1    3    3  502    0 -0.39152474006E+02  0.50168523720E+03  0.12364367867E+04  0.13349151786E+04  0.12699999809E+01 0. -1.
       -4    1    3    3    0  502  0.39152474006E+02 -0.50168523720E+03 -0.44576209075E+03  0.67225474926E+03  0.12699999809E+01 0.  1.
</event>
<event>
 5   0  0.4973411E-04  0.1865641E+04  0.7818609E-02  0.8672151E-01
        2   -1    0    0  501    0  0.00000000000E+00  0.00000000000E+00  0.15073123904E+04  0.15073123904E+04  0.25500000920E-02 0.  1.
       -2   -1    0    0    0  501  0.00000000000E+00  0.00000000000E+00 -0.57728833640E+03  0.57728833641E+03  0.25500000920E-02 0. -1.
    10030    2    1    2    0    0  0.00000000000E+00  0.00000000000E+00  0.93002405402E+03  0.20846007268E+04  0.18656407610E+04 0.  0.
        1    1    3    3  502    0  0.54471696832E+03 -0.43964867131E+02 -0.37969215359E+03  0.66544392449E+03  0.50400001928E-02 0. -1.
       -1    1    3    3    0  502 -0.54471696832E+03  0.43964867131E+02  0.13097162076E+04  0.14191568023E+04  0.50400001928E-02 0.  1.
</event>
<event>
 5   0  0.2376359E-04  0.1620206E+04  0.7818609E-02  0.8808230E-01
        1   -1    0    0  501    0  0.00000000000E+00  0.00000000000E+00  0.14695906535E+04  0.14695906535E+04  0.50400001928E-02 0.  1.
       -1   -1    0    0    0  501  0.00000000000E+00  0.00000000000E+00 -0.44656425268E+03  0.44656425271E+03  0.50400001928E-02 0. -1.
    10030    2    1    2    0    0  0.00000000000E+00  0.00000000000E+00  0.10230264008E+04  0.19161549062E+04  0.16202057301E+04 0.  0.
        2    1    3    3  502    0  0.37751640753E+03 -0.52563224197E+03 -0.64794668782E+02  0.65038929947E+03  0.25500000920E-02 0. -1.
       -2    1    3    3    0  502 -0.37751640753E+03  0.52563224197E+03  0.10878210696E+04  0.12657656068E+04  0.25500000920E-02 0.  1.
</event>
<event>
 5   0  0.2355414E-04  0.2154885E+04  0.7818609E-02  0.8537444E-01
        1   -1    0    0  501    0  0.00000000000E+00  0.00000000000E+00  0.16870490527E+04  0.16870490527E+04  0.50400001928E-02 0.  1.
       -1   -1    0    0    0  501  0.00000000000E+00  0.00000000000E+00 -0.68811394686E+03  0.68811394687E+03  0.50400001928E-02 0. -1.
    10030    2    1    2    0    0  0.00000000000E+00  0.00000000000E+00  0.99893510580E+03  0.23751629995E+04  0.21548846672E+04 0.  0.
        5    1    3    3  502    0 -0.77930720293E+03  0.74041472260E+03  0.41902632277E+03  0.11537498980E+04  0.46999998093E+01 0. -1.
       -5    1    3    3    0  502  0.77930720293E+03 -0.74041472260E+03  0.57990878303E+03  0.12214131015E+04  0.46999998093E+01 0.  1.
</event>
<event>
 5   0  0.2355414E-04  0.1810413E+04  0.7818609E-02  0.8700782E-01
       -1   -1    0    0    0  501  0.00000000000E+00  0.00000000000E+00  0.56276612816E+03  0.56276612818E+03  0.50400001928E-02 0.  1.
        1   -1    0    0  501    0  0.00000000000E+00  0.00000000000E+00 -0.14560196820E+04  0.14560196820E+04  0.50400001928E-02 0. -1.
    10030    2    1    2    0    0  0.00000000000E+00  0.00000000000E+00 -0.89325355385E+03  0.20187858102E+04  0.18104127253E+04 0.  0.
        5    1    3    3  502    0  0.32018853245E+03  0.30640123997E+03  0.43350485356E+03  0.61996045376E+03  0.46999998093E+01 0.  1.
       -5    1    3    3    0  502 -0.32018853245E+03 -0.30640123997E+03 -0.13267584074E+04  0.13988253564E+04  0.46999998093E+01 0. -1.
</event>
<event>
 5   0  0.4973411E-04  0.1064031E+04  0.7818609E-02  0.9240977E-01
        2   -1    0    0  501    0  0.00000000000E+00  0.00000000000E+00  0.52173943169E+03  0.52173943170E+03  0.25500000920E-02 0. -1.
       -2   -1    0    0    0  501  0.00000000000E+00  0.00000000000E+00 -0.54249384179E+03  0.54249384180E+03  0.25500000920E-02 0.  1.
    10030    2    1    2    0    0  0.00000000000E+00  0.00000000000E+00 -0.20754410103E+02  0.10642332735E+04  0.10640308806E+04 0.  0.
        1    1    3    3  502    0  0.18096086185E+03  0.48232328743E+03  0.12253088248E+03  0.52952469659E+03  0.50400001928E-02 0. -1.
       -1    1    3    3    0  502 -0.18096086185E+03 -0.48232328743E+03 -0.14328529258E+03  0.53470857690E+03  0.50400001928E-02 0.  1.
</event>
<event>
 5   0  0.2355414E-04  0.1924237E+04  0.7818609E-02  0.8642885E-01
        1   -1    0    0  501    0  0.00000000000E+00  0.00000000000E+00  0.13798982885E+04  0.13798982885E+04  0.50400001928E-02 0. -1.
       -1   -1    0    0    0  501  0.00000000000E+00  0.00000000000E+00 -0.67082608071E+03  0.67082608073E+03  0.50400001928E-02 0.  1.
    10030    2    1    2    0    0  0.00000000000E+00  0.00000000000E+00  0.70907220775E+03  0.20507243692E+04  0.19242367429E+04 0.  0.
        5    1    3    3  502    0 -0.49840396810E+03 -0.66724041645E+03  0.86789846538E+03  0.12028657967E+04  0.46999998093E+01 0. -1.
       -5    1    3    3    0  502  0.49840396810E+03  0.66724041645E+03 -0.15882625763E+03  0.84785857245E+03  0.46999998093E+01 0.  1.
</event>
<event>
 5   0  0.4829134E-04  0.1700976E+04  0.7818609E-02  0.8760808E-01
       -2   -1    0    0    0  501  0.00000000000E+00  0.00000000000E+00  0.62861149114E+03  0.62861149114E+03  0.25500000920E-02 0.  1.
        2   -1    0    0  501    0  0.00000000000E+00  0.00000000000E+00 -0.11506786969E+04  0.11506786969E+04  0.25500000920E-02 0. -1.
    10030    2    1    2    0    0  0.00000000000E+00  0.00000000000E+00 -0.52206720573E+03  0.17792901880E+04  0.17009760157E+04 0.  0.
        2    1    3    3  502    0 -0.14297018512E+03 -0.59483050008E+01  0.61592915965E+03  0.63233265445E+03  0.25500000920E-02 0.  1.
       -2    1    3    3    0  502  0.14297018512E+03  0.59483050008E+01 -0.11379963654E+04  0.11469575336E+04  0.25500000920E-02 0. -1.
</event>
<event>
 5   0  0.2376359E-04  0.1174497E+04  0.7818609E-02  0.9135477E-01
       -1   -1    0    0    0  501  0.00000000000E+00  0.00000000000E+00  0.48107332559E+03  0.48107332562E+03  0.50400001928E-02 0.  1.
        1   -1    0    0  501    0  0.00000000000E+00  0.00000000000E+00 -0.71685717550E+03  0.71685717551E+03  0.50400001928E-02 0. -1.
    10030    2    1    2    0    0  0.00000000000E+00  0.00000000000E+00 -0.23578384991E+03  0.11979305011E+04  0.11744971101E+04 0.  0.
        2    1    3    3  502    0 -0.39928279522E+03 -0.35572966821E+03 -0.36540740038E+03  0.64768272763E+03  0.25500000920E-02 0. -1.
       -2    1    3    3    0  502  0.39928279522E+03  0.35572966821E+03  0.12962355047E+03  0.55024777351E+03  0.25500000920E-02 0.  1.
</event>
<event>
 5   0  0.4839293E-04  0.1935173E+04  0.7818609E-02  0.8637544E-01
        2   -1    0    0  501    0  0.00000000000E+00  0.00000000000E+00  0.82699053642E+03  0.82699053642E+03  0.25500000920E-02 0.  1.
       -2   -1    0    0    0  501  0.00000000000E+00  0.00000000000E+00 -0.11320852236E+04  0.11320852236E+04  0.25500000920E-02 0. -1.
    10030    2    1    2    0    0  0.00000000000E+00  0.00000000000E+00 -0.30509468715E+03  0.19590757600E+04  0.19351731357E+04 0.  0.
        5    1    3    3  502    0 -0.48195335325E+03  0.14352525921E+02 -0.10017870995E+04  0.11117933767E+04  0.46999998093E+01 0. -1.
       -5    1    3    3    0  502  0.48195335325E+03 -0.14352525921E+02  0.69669241233E+03  0.84728238333E+03  0.46999998093E+01 0.  1.
</event>
<event>
 5   0  0.4761944E-04  0.9820260E+03  0.7818609E-02  0.9328481E-01
        2   -1    0    0  501    0  0.00000000000E+00  0.00000000000E+00  0.12078424562E+04  0.12078424562E+04  0.25500000920E-02 0.  1.
       -2   -1    0    0    0  501  0.00000000000E+00  0.00000000000E+00 -0.19960698331E+03  0.19960698333E+03  0.25500000920E-02 0. -1.
    10030    2    1    2    0    0  0.00000000000E+00  0.00000000000E+00  0.10082354729E+04  0.14074494396E+04  0.98202604653E+03 0.  0.
        4    1    3    3  502    0  0.23508314810E+03  0.39412694195E+03  0.75438443180E+03  0.88300487922E+03  0.12699999809E+01 0.  1.
       -4    1    3    3    0  502 -0.23508314810E+03 -0.39412694195E+03  0.25385104113E+03  0.52444456034E+03  0.12699999809E+01 0. -1.
</event>
<event>
 5   0  0.4761944E-04  0.1900711E+04  0.7818609E-02  0.8654503E-01
        2   -1    0    0  501    0  0.00000000000E+00  0.00000000000E+00  0.84394239818E+03  0.84394239818E+03  0.25500000920E-02 0. -1.
       -2   -1    0    0    0  501  0.00000000000E+00  0.00000000000E+00 -0.10701860024E+04  0.10701860024E+04  0.25500000920E-02 0.  1.
    10030    2    1    2    0    0  0.00000000000E+00  0.00000000000E+00 -0.22624360420E+03  0.19141284006E+04  0.19007107527E+04 0.  0.
        4    1    3    3  502    0 -0.20851407783E+03  0.37695041393E+03  0.73997332025E+03  0.85623119705E+03  0.12699999809E+01 0. -1.
       -4    1    3    3    0  502  0.20851407783E+03 -0.37695041393E+03 -0.96621692445E+03  0.10578972035E+04  0.12699999809E+01 0.  1.
</event>
<event>
 5   0  0.2355414E-04  0.1944382E+04  0.7818609E-02  0.8633075E-01
        1   -1    0    0  501    0  0.00000000000E+00  0.00000000000E+00  0.10738706876E+04  0.10738706876E+04  0.50400001928E-02 0. -1.
       -1   -1    0    0    0  501  0.00000000000E+00  0.00000000000E+00 -0.88013900723E+03  0.88013900724E+03  0.50400001928E-02 0.  1.
    10030    2    1    2    0    0  0.00000000000E+00  0.00000000000E+00  0.19373168032E+03  0.19540096948E+04  0.19443821444E+04 0.  0.
        5    1    3    3  502    0  0.22405002054E+03  0.30961753837E+03  0.99520025011E+03  0.10660708511E+04  0.46999998093E+01 0. -1.
       -5    1    3    3    0  502 -0.22405002054E+03 -0.30961753837E+03 -0.80146856979E+03  0.88793884369E+03  0.46999998093E+01 0.  1.
</event>
<event>
 5   0  0.1729375E-04  0.1931968E+04  0.7818609E-02  0.8639106E-01
        3   -1    0    0  501    0  0.00000000000E+00  0.00000000000E+00  0.14721887993E+04  0.14721888027E+04  0.10100000352E+00 0.  1.
       -3   -1    0    0    0  501  0.00000000000E+00  0.00000000000E+00 -0.63383514455E+03  0.63383515259E+03  0.10100000352E+00 0. -1.
    10030    2    1    2    0    0  0.00000000000E+00  0.00000000000E+00  0.83835365472E+03  0.21060239553E+04  0.19319679216E+04 0.  0.
        4    1    3    3  502    0  0.43011208865E+03  0.15682605406E+03 -0.50806377726E+03  0.68390148026E+03  0.12699999809E+01 0. -1.
       -4    1    3    3    0  502 -0.43011208865E+03 -0.15682605406E+03  0.13464174320E+04  0.14221224751E+04  0.12699999809E+01 0.  1.
</event>
<event>
 5   0  0.2355414E-04  0.1884608E+04  0.7818609E-02  0.8662556E-01
        1   -1    0    0  501    0  0.00000000000E+00  0.00000000000E+00  0.79125406749E+03  0.79125406750E+03  0.50400001928E-02 0. -1.
       -1   -1    0    0    0  501  0.00000000000E+00  0.00000000000E+00 -0.11221890583E+04  0.11221890584E+04  0.50400001928E-02 0.  1.
    10030    2    1    2    0    0  0.00000000000E+00  0.00000000000E+00 -0.33093499085E+03  0.19134431259E+04  0.18846078180E+04 0.  0.
        5    1    3    3  502    0 -0.20131257932E+03  0.60432764345E+03 -0.87048081945E+03  0.10786554604E+04  0.46999998093E+01 0.  1.
       -5    1    3    3    0  502  0.20131257932E+03 -0.60432764345E+03  0.53954582860E+03  0.83478766545E+03  0.46999998093E+01 0. -1.
</event>
<event>
 5   0  0.4761944E-04  0.1618163E+04  0.7818609E-02  0.8809467E-01
       -2   -1    0    0    0  501  0.00000000000E+00  0.00000000000E+00  0.64013256001E+03  0.64013256002E+03  0.25500000920E-02 0.  1.
        2   -1    0    0  501    0  0.00000000000E+00  0.00000000000E+00 -0.10226210700E+04  0.10226210700E+04  0.25500000920E-02 0. -1.
    10030    2    1    2    0    0  0.00000000000E+00  0.00000000000E+00 -0.38248850996E+03  0.16627536300E+04  0.16181632099E+04 0.  0.
        4    1    3    3  502    0  0.30258451975E+03  0.42982880919E+02 -0.96102480237E+03  0.10084518845E+04  0.12699999809E+01 0. -1.
       -4    1    3    3    0  502 -0.30258451975E+03 -0.42982880919E+02  0.57853629241E+03  0.65430174551E+03  0.12699999809E+01 0.  1.
</event>
<event>
 5   0  0.4839293E-04  0.1961953E+04  0.7818609E-02  0.8624618E-01
        2   -1    0    0  501    0  0.00000000000E+00  0.00000000000E+00  0.16558941768E+04  0.16558941768E+04  0.25500000920E-02 0. -1.
       -2   -1    0    0    0  501  0.00000000000E+00  0.00000000000E+00 -0.58114541363E+03  0.58114541363E+03  0.25500000920E-02 0.  1.
    10030    2    1    2    0    0  0.00000000000E+00  0.00000000000E+00  0.10747487632E+04  0.22370395904E+04  0.19619534208E+04 0.  0.
        5    1    3    3  502    0  0.50828680314E+03  0.22436918237E+02 -0.41893134509E+03  0.65907848656E+03  0.46999998093E+01 0.  1.
       -5    1    3    3    0  502 -0.50828680314E+03 -0.22436918237E+02  0.14936801083E+04  0.15779611039E+04  0.46999998093E+01 0. -1.
</event>
<event>
 5   0  0.2317458E-04  0.1899604E+04  0.7818609E-02  0.8655053E-01
        1   -1    0    0  501    0  0.00000000000E+00  0.00000000000E+00  0.10332350856E+04  0.10332350857E+04  0.50400001928E-02 0.  1.
       -1   -1    0    0    0  501  0.00000000000E+00  0.00000000000E+00 -0.87310646091E+03  0.87310646092E+03  0.50400001928E-02 0. -1.
    10030    2    1    2    0    0  0.00000000000E+00  0.00000000000E+00  0.16012862473E+03  0.19063415466E+04  0.18996044103E+04 0.  0.
        3    1    3    3  502    0  0.32791702859E+03 -0.39695352758E+03 -0.72090327656E+03  0.88589120384E+03  0.10100000352E+00 0. -1.
       -3    1    3    3    0  502 -0.32791702859E+03  0.39695352758E+03  0.88103190129E+03  0.10204503427E+04  0.10100000352E+00 0.  1.
</event>
<event>
 5   0  0.4761944E-04  0.1875852E+04  0.7818609E-02  0.8666971E-01
        2   -1    0    0  501    0  0.00000000000E+00  0.00000000000E+00  0.77339977350E+03  0.77339977351E+03  0.25500000920E-02 0.  1.
       -2   -1    0    0    0  501  0.00000000000E+00  0.00000000000E+00 -0.11374520835E+04  0.11374520835E+04  0.25500000920E-02 0. -1.
    10030    2    1    2    0    0  0.00000000000E+00  0.00000000000E+00 -0.36405231000E+03  0.19108518570E+04  0.18758520024E+04 0.  0.
        4    1    3    3  502    0 -0.22212318450E+02  0.71038618068E+03 -0.80545961437E+03  0.10742014318E+04  0.12699999809E+01 0. -1.
       -4    1    3    3    0  502  0.22212318450E+02 -0.71038618068E+03  0.44140730436E+03  0.83665042523E+03  0.12699999809E+01 0.  1.
</event>
<event>
 5   0  0.4973411E-04  0.1823050E+04  0.7818609E-02  0.8694137E-01
       -2   -1    0    0    0  501  0.00000000000E+00  0.00000000000E+00  0.48850502666E+03  0.48850502667E+03  0.25500000920E-02 0. -1.
        2   -1    0    0  501    0  0.00000000000E+00  0.00000000000E+00 -0.17008578730E+04  0.17008578730E+04  0.25500000920E-02 0.  1.
    10030    2    1    2    0    0  0.00000000000E+00  0.00000000000E+00 -0.12123528463E+04  0.21893628997E+04  0.18230497751E+04 0.  0.
        1    1    3    3  502    0 -0.85226706330E+03 -0.11703634578E+03 -0.24425666826E+03  0.89426951946E+03  0.50400001928E-02 0. -1.
       -1    1    3    3    0  502  0.85226706330E+03  0.11703634578E+03 -0.96809617807E+03  0.12950933802E+04  0.50400001928E-02 0.  1.
</event>
<event>
 5   0  0.2317458E-04  0.1865732E+04  0.7818609E-02  0.8672104E-01
       -1   -1    0    0    0  501  0.00000000000E+00  0.00000000000E+00  0.54457935972E+03  0.54457935974E+03  0.50400001928E-02 0. -1.
        1   -1    0    0  501    0  0.00000000000E+00  0.00000000000E+00 -0.15980019195E+04  0.15980019195E+04  0.50400001928E-02 0.  1.
    10030    2    1    2    0    0  0.00000000000E+00  0.00000000000E+00 -0.10534225598E+04  0.21425812792E+04  0.18657318802E+04 0.  0.
        3    1    3    3  502    0 -0.65177308994E+03  0.66716441762E+03 -0.50609362997E+03  0.10611537558E+04  0.10100000352E+00 0. -1.
       -3    1    3    3    0  502  0.65177308994E+03 -0.66716441762E+03 -0.54732892980E+03  0.10814275235E+04  0.10100000352E+00 0.  1.
</event>
<event>
 5   0  0.4802635E-04  0.1833895E+04  0.7818609E-02  0.8688479E-01
        2   -1    0    0  501    0  0.00000000000E+00  0.00000000000E+00  0.11128019727E+04  0.11128019727E+04  0.25500000920E-02 0. -1.
       -2   -1    0    0    0  501  0.00000000000E+00  0.00000000000E+00 -0.75556357365E+03  0.75556357366E+03  0.25500000920E-02 0.  1.
    10030    2    1    2    0    0  0.00000000000E+00  0.00000000000E+00  0.35723839901E+03  0.18683655463E+04  0.18338949100E+04 0.  0.
        3    1    3    3  502    0 -0.70939771988E+03 -0.42151396935E+03  0.58597660004E+03  0.10120710140E+04  0.10100000352E+00 0. -1.
       -3    1    3    3    0  502  0.70939771988E+03  0.42151396935E+03 -0.22873820102E+03  0.85629453235E+03  0.10100000352E+00 0.  1.
</event>
<event>
 5   0  0.2317458E-04  0.1930506E+04  0.7818609E-02  0.8639819E-01
       -1   -1    0    0    0  501  0.00000000000E+00  0.00000000000E+00  0.45031137879E+03  0.45031137882E+03  0.50400001928E-02 0. -1.
        1   -1    0    0  501    0  0.00000000000E+00  0.00000000000E+00 -0.20690429478E+04  0.20690429478E+04  0.50400001928E-02 0.  1.
    10030    2    1    2    0    0  0.00000000000E+00  0.00000000000E+00 -0.16187315690E+04  0.25193543266E+04  0.19305062369E+04 0.  0.
        3    1    3    3  502    0 -0.89297452848E+03  0.23131930265E+03 -0.43840533920E+03  0.10213282430E+04  0.10100000352E+00 0. -1.
       -3    1    3    3    0  502  0.89297452848E+03 -0.23131930265E+03 -0.11803262298E+04  0.14980260836E+04  0.10100000352E+00 0.  1.
</event>
<event>
 5   0  0.2355414E-04  0.1963292E+04  0.7818609E-02  0.8623978E-01
       -1   -1    0    0    0  501  0.00000000000E+00  0.00000000000E+00  0.42789283131E+03  0.42789283134E+03  0.50400001928E-02 0.  1.
        1   -1    0    0  501    0  0.00000000000E+00  0.00000000000E+00 -0.22520321288E+04  0.22520321288E+04  0.50400001928E-02 0. -1.
    10030    2    1    2    0    0  0.00000000000E+00  0.00000000000E+00 -0.18241392975E+04  0.26799249602E+04  0.19632915258E+04 0.  0.
        5    1    3    3  502    0  0.80628784838E+03  0.45450698807E+03 -0.46570802618E+03  0.10361383847E+04  0.46999998093E+01 0. -1.
       -5    1    3    3    0  502 -0.80628784838E+03 -0.45450698807E+03 -0.13584312713E+04  0.16437865754E+04  0.46999998093E+01 0.  1.
</event>
<event>
 5   0  0.2261755E-04  0.1480572E+04  0.7818609E-02  0.8897476E-01
        1   -1    0    0  501    0  0.00000000000E+00  0.00000000000E+00  0.56494483423E+03  0.56494483425E+03  0.50400001928E-02 0.  1.
       -1   -1    0    0    0  501  0.00000000000E+00  0.00000000000E+00 -0.97004701403E+03  0.97004701404E+03  0.50400001928E-02 0. -1.
    10030    2    1    2    0    0  0.00000000000E+00  0.00000000000E+00 -0.40510217980E+03  0.15349918483E+04  0.14805715782E+04 0.  0.
        1    1    3    3  502    0 -0.55069112046E+03 -0.97031700063E+02 -0.70550845549E+03  0.90023221547E+03  0.50400001928E-02 0. -1.
       -1    1    3    3    0  502  0.55069112046E+03  0.97031700063E+02  0.30040627569E+03  0.63475963283E+03  0.50400001928E-02 0.  1.
</event>
<event>
 5   0  0.2261755E-04  0.1627073E+04  0.7818609E-02  0.8804086E-01
       -1   -1    0    0    0  501  0.00000000000E+00  0.00000000000E+00  0.12013157774E+04  0.12013157774E+04  0.50400001928E-02 0. -1.
        1   -1    0    0  501    0  0.00000000000E+00  0.00000000000E+00 -0.55093076916E+03  0.55093076918E+03  0.50400001928E-02 0.  1.
    10030    2    1    2    0    0  0.00000000000E+00  0.00000000000E+00  0.65038500826E+03  0.17522465466E+04  0.16270732316E+04 0.  0.
        1    1    3    3  502    0 -0.20178946787E+03  0.43953837018E+03  0.10296809900E+04  0.11376097351E+04  0.50400001928E-02 0. -1.
       -1    1    3    3    0  502  0.20178946787E+03 -0.43953837018E+03 -0.37929598177E+03  0.61463681148E+03  0.50400001928E-02 0.  1.
</event>
<event>
 5   0  0.4802635E-04  0.1900395E+04  0.7818609E-02  0.8654660E-01
       -2   -1    0    0    0  501  0.00000000000E+00  0.00000000000E+00  0.68190852933E+03  0.68190852933E+03  0.25500000920E-02 0.  1.
        2   -1    0    0  501    0  0.00000000000E+00  0.00000000000E+00 -0.13240411614E+04  0.13240411614E+04  0.25500000920E-02 0. -1.
    10030    2    1    2    0    0  0.00000000000E+00  0.00000000000E+00 -0.64213263207E+03  0.20059496907E+04  0.19003946549E+04 0.  0.
        3    1    3    3  502    0  0.84747910515E+03 -0.35084019294E+03 -0.59161096961E+02  0.91913531117E+03  0.10100000352E+00 0. -1.
       -3    1    3    3    0  502 -0.84747910515E+03  0.35084019294E+03 -0.58297153511E+03  0.10868143796E+04  0.10100000352E+00 0.  1.
</event>
<event>
 5   0  0.2261755E-04  0.2248843E+04  0.7818609E-02  0.8498369E-01
       -1   -1    0    0    0  501  0.00000000000E+00  0.00000000000E+00  0.70213224119E+03  0.70213224121E+03  0.50400001928E-02 0.  1.
        1   -1    0    0  501    0  0.00000000000E+00  0.00000000000E+00 -0.18006915729E+04  0.18006915729E+04  0.50400001928E-02 0. -1.
    10030    2    1    2    0    0  0.00000000000E+00  0.00000000000E+00 -0.10985593317E+04  0.25028238141E+04  0.22488429112E+04 0.  0.
        1    1    3    3  502    0  0.11200290938E+04 -0.74047464475E+02 -0.62289709175E+03  0.12837246530E+04  0.50400001928E-02 0.  1.
       -1    1    3    3    0  502 -0.11200290938E+04  0.74047464475E+02 -0.47566223991E+03  0.12190991610E+04  0.50400001928E-02 0. -1.
</event>
<event>
 5   0  0.2376359E-04  0.9790489E+03  0.7818609E-02  0.9331827E-01
       -1   -1    0    0    0  501  0.00000000000E+00  0.00000000000E+00  0.29288221658E+03  0.29288221663E+03  0.50400001928E-02 0.  1.
        1   -1    0    0  501    0  0.00000000000E+00  0.00000000000E+00 -0.81819309698E+03  0.81819309699E+03  0.50400001928E-02 0. -1.
    10030    2    1    2    0    0  0.00000000000E+00  0.00000000000E+00 -0.52531088039E+03  0.11110753136E+04  0.97904894233E+03 0.  0.
        2    1    3    3  502    0 -0.21475979553E+03 -0.22383560025E+03 -0.69241832653E+03  0.75872741129E+03  0.25500000920E-02 0. -1.
       -2    1    3    3    0  502  0.21475979553E+03  0.22383560025E+03  0.16710744614E+03  0.35234790233E+03  0.25500000920E-02 0.  1.
</event>
<event>
 5   0  0.2355414E-04  0.1900088E+04  0.7818609E-02  0.8654813E-01
        1   -1    0    0  501    0  0.00000000000E+00  0.00000000000E+00  0.74547831185E+03  0.74547831186E+03  0.50400001928E-02 0. -1.
       -1   -1    0    0    0  501  0.00000000000E+00  0.00000000000E+00 -0.12107443766E+04  0.12107443766E+04  0.50400001928E-02 0.  1.
    10030    2    1    2    0    0  0.00000000000E+00  0.00000000000E+00 -0.46526606474E+03  0.19562226885E+04  0.19000880758E+04 0.  0.
        5    1    3    3  502    0  0.90743695239E+03  0.16622581387E+03  0.98195008249E+00  0.92254858842E+03  0.46999998093E+01 0.  1.
       -5    1    3    3    0  502 -0.90743695239E+03 -0.16622581387E+03 -0.46624801482E+03  0.10336741000E+04  0.46999998093E+01 0. -1.
</event>
<event>
 5   0  0.4973411E-04  0.1921642E+04  0.7818609E-02  0.8644158E-01
        2   -1    0    0  501    0  0.00000000000E+00  0.00000000000E+00  0.17772239686E+04  0.17772239686E+04  0.25500000920E-02 0. -1.
       -2   -1    0    0    0  501  0.00000000000E+00  0.00000000000E+00 -0.51944885559E+03  0.51944885560E+03  0.25500000920E-02 0.  1.
    10030    2    1    2    0    0  0.00000000000E+00  0.00000000000E+00  0.12577751130E+04  0.22966728242E+04  0.19216419611E+04 0.  0.
        1    1    3    3  502    0  0.80235186595E+03 -0.51387119856E+03  0.48083779429E+03  0.10672568154E+04  0.50400001928E-02 0. -1.
       -1    1    3    3    0  502 -0.80235186595E+03  0.51387119856E+03  0.77693731872E+03  0.12294160088E+04  0.50400001928E-02 0.  1.
</event>
<event>
 5   0  0.4802635E-04  0.1890172E+04  0.7818609E-02  0.8659764E-01
       -2   -1    0    0    0  501  0.00000000000E+00  0.00000000000E+00  0.99225391317E+03  0.99225391317E+03  0.25500000920E-02 0. -1.
        2   -1    0    0  501    0  0.00000000000E+00  0.00000000000E+00 -0.90016060835E+03  0.90016060836E+03  0.25500000920E-02 0.  1.
    10030    2    1    2    0    0  0.00000000000E+00  0.00000000000E+00  0.92093304815E+02  0.18924145215E+04  0.18901723584E+04 0.  0.
        3    1    3    3  502    0 -0.55349196454E+03 -0.74302264713E+03 -0.14059300761E+03  0.93712454506E+03  0.10100000352E+00 0.  1.
       -3    1    3    3    0  502  0.55349196454E+03  0.74302264713E+03  0.23268631243E+03  0.95528997647E+03  0.10100000352E+00 0. -1.
</event>
<event>
 5   0  0.2261755E-04  0.1852363E+04  0.7818609E-02  0.8678938E-01
       -1   -1    0    0    0  501  0.00000000000E+00  0.00000000000E+00  0.70211429701E+03  0.70211429703E+03  0.50400001928E-02 0. -1.
        1   -1    0    0  501    0  0.00000000000E+00  0.00000000000E+00 -0.12217561431E+04  0.12217561431E+04  0.50400001928E-02 0.  1.
    10030    2    1    2    0    0  0.00000000000E+00  0.00000000000E+00 -0.51964184609E+03  0.19238704401E+04  0.18523633073E+04 0.  0.
        1    1    3    3  502    0  0.19510205114E+03  0.75776155183E+03 -0.77447482132E+03  0.11009444258E+04  0.50400001928E-02 0.  1.
       -1    1    3    3    0  502 -0.19510205114E+03 -0.75776155183E+03  0.25483297523E+03  0.82292601435E+03  0.50400001928E-02 0. -1.
</event>
<event>
 5   0  0.2376359E-04  0.1774812E+04  0.7818609E-02  0.8719810E-01
       -1   -1    0    0    0  501  0.00000000000E+00  0.00000000000E+00  0.54744644631E+03  0.54744644633E+03  0.50400001928E-02 0.  1.
        1   -1    0    0  501    0  0.00000000000E+00  0.00000000000E+00 -0.14384769965E+04  0.14384769965E+04  0.50400001928E-02 0. -1.
    10030    2    1    2    0    0  0.00000000000E+00  0.00000000000E+00 -0.89103055018E+03  0.19859234428E+04  0.17748116743E+04 0.  0.
        2    1    3    3  502    0  0.16260433984E+03 -0.45131246316E+03  0.38985778500E+03  0.61815224926E+03  0.25500000920E-02 0.  1.
       -2    1    3    3    0  502 -0.16260433984E+03  0.45131246316E+03 -0.12808883352E+04  0.13677711936E+04  0.25500000920E-02 0. -1.
</event>
<event>
 5   0  0.2510069E-04  0.1064914E+04  0.7818609E-02  0.9240080E-01
       -1   -1    0    0    0  501  0.00000000000E+00  0.00000000000E+00  0.26251125143E+03  0.26251125148E+03  0.50400001928E-02 0.  1.
        1   -1    0    0  501    0  0.00000000000E+00  0.00000000000E+00 -0.10799933702E+04  0.10799933702E+04  0.50400001928E-02 0. -1.
    10030    2    1    2    0    0  0.00000000000E+00  0.00000000000E+00 -0.81748211878E+03  0.13425046217E+04  0.10649139142E+04 0.  0.
        4    1    3    3  502    0 -0.79505374745E+02  0.48412839333E+03 -0.66957294137E+03  0.83007887731E+03  0.12699999809E+01 0. -1.
       -4    1    3    3    0  502  0.79505374745E+02 -0.48412839333E+03 -0.14790917741E+03  0.51242574438E+03  0.12699999809E+01 0.  1.
</event>
<event>
 5   0  0.2317458E-04  0.2054354E+04  0.7818609E-02  0.8581622E-01
        1   -1    0    0  501    0  0.00000000000E+00  0.00000000000E+00  0.23879781687E+04  0.23879781687E+04  0.50400001928E-02 0. -1.
       -1   -1    0    0    0  501  0.00000000000E+00  0.00000000000E+00 -0.44183495290E+03  0.44183495293E+03  0.50400001928E-02 0.  1.
    10030    2    1    2    0    0  0.00000000000E+00  0.00000000000E+00  0.19461432158E+04  0.28298131216E+04  0.20543536421E+04 0.  0.
        3    1    3    3  502    0  0.89967902143E+03  0.20057749914E+03  0.34872823498E+03  0.98552781130E+03  0.10100000352E+00 0.  1.
       -3    1    3    3    0  502 -0.89967902143E+03 -0.20057749914E+03  0.15974149808E+04  0.18442853103E+04  0.10100000352E+00 0. -1.
</event>
<event>
 5   0  0.1729375E-04  0.1919374E+04  0.7818609E-02  0.8645272E-01
        3   -1    0    0  501    0  0.00000000000E+00  0.00000000000E+00  0.10166621725E+04  0.10166621775E+04  0.10100000352E+00 0.  1.
       -3   -1    0    0    0  501  0.00000000000E+00  0.00000000000E+00 -0.90590524755E+03  0.90590525318E+03  0.10100000352E+00 0. -1.
    10030    2    1    2    0    0  0.00000000000E+00  0.00000000000E+00  0.11075692497E+03  0.19225674307E+04  0.19193744890E+04 0.  0.
        5    1    3    3  502    0 -0.57485127505E+03  0.49879379388E+03 -0.53016929634E+03  0.92755097436E+03  0.46999998093E+01 0. -1.
       -5    1    3    3    0  502  0.57485127505E+03 -0.49879379388E+03  0.64092622132E+03  0.99501645636E+03  0.46999998093E+01 0.  1.
</event>
<event>
 5   0  0.2261755E-04  0.1873344E+04  0.7818609E-02  0.8668240E-01
       -1   -1    0    0    0  501  0.00000000000E+00  0.00000000000E+00  0.59199042368E+03  0.59199042370E+03  0.50400001928E-02 0. -1.
        1   -1    0    0  501    0  0.00000000000E+00  0.00000000000E+00 -0.14820412205E+04  0.14820412205E+04  0.50400001928E-02 0.  1.
    10030    2    1    2    0    0  0.00000000000E+00  0.00000000000E+00 -0.89005079677E+03  0.20740316442E+04  0.18733437592E+04 0.  0.
        1    1    3    3  502    0 -0.37239172756E+03 -0.14641092902E+03 -0.13826541009E+04  0.14393901909E+04  0.50400001928E-02 0.  1.
       -1    1    3    3    0  502  0.37239172756E+03  0.14641092902E+03  0.49260330415E+03  0.63464145325E+03  0.50400001928E-02 0. -1.
</event>
<event>
 5   0  0.4761944E-04  0.1914365E+04  0.7818609E-02  0.8647739E-01
        2   -1    0    0  501    0  0.00000000000E+00  0.00000000000E+00  0.85943823189E+03  0.85943823190E+03  0.25500000920E-02 0.  1.
       -2   -1    0    0    0  501  0.00000000000E+00  0.00000000000E+00 -0.10660437845E+04  0.10660437845E+04  0.25500000920E-02 0. -1.
    10030    2    1    2    0    0  0.00000000000E+00  0.00000000000E+00 -0.20660555262E+03  0.19254820164E+04  0.19143654670E+04 0.  0.
        4    1    3    3  502    0  0.83058618249E+02 -0.56895548108E+03  0.66637817103E+03  0.88015371001E+03  0.12699999809E+01 0.  1.
       -4    1    3    3    0  502 -0.83058618249E+02  0.56895548108E+03 -0.87298372364E+03  0.10453283064E+04  0.12699999809E+01 0. -1.
</event>
<event>
 5   0  0.4761944E-04  0.1838584E+04  0.7818609E-02  0.8686046E-01
        2   -1    0    0  501    0  0.00000000000E+00  0.00000000000E+00  0.16856629576E+04  0.16856629576E+04  0.25500000920E-02 0. -1.
       -2   -1    0    0    0  501  0.00000000000E+00  0.00000000000E+00 -0.50134452662E+03  0.50134452662E+03  0.25500000920E-02 0.  1.
    10030    2    1    2    0    0  0.00000000000E+00  0.00000000000E+00  0.11843184310E+04  0.21870074842E+04  0.18385841265E+04 0.  0.
        4    1    3    3  502    0  0.18935054597E+02  0.13411976887E+03  0.16737270653E+04  0.16791993779E+04  0.12699999809E+01 0. -1.
       -4    1    3    3    0  502 -0.18935054597E+02 -0.13411976887E+03 -0.48940863428E+03  0.50780810638E+03  0.12699999809E+01 0.  1.
</event>
<event>
 5   0  0.2261755E-04  0.1876690E+04  0.7818609E-02  0.8666547E-01
       -1   -1    0    0    0  501  0.00000000000E+00  0.00000000000E+00  0.89970681792E+03  0.89970681794E+03  0.50400001928E-02 0. -1.
        1   -1    0    0  501    0  0.00000000000E+00  0.00000000000E+00 -0.97864220549E+03  0.97864220550E+03  0.50400001928E-02 0.  1.
    10030    2    1    2    0    0  0.00000000000E+00  0.00000000000E+00 -0.78935387564E+02  0.18783490234E+04  0.18766897076E+04 0.  0.
        1    1    3    3  502    0  0.14543673545E+03 -0.78909134686E+03  0.44745403803E+03  0.91871220406E+03  0.50400001928E-02 0. -1.
       -1    1    3    3    0  502 -0.14543673545E+03  0.78909134686E+03 -0.52638942559E+03  0.95963681938E+03  0.50400001928E-02 0.  1.
</event>
<event>
 5   0  0.2510069E-04  0.1840643E+04  0.7818609E-02  0.8684979E-01
        1   -1    0    0  501    0  0.00000000000E+00  0.00000000000E+00  0.13759806838E+04  0.13759806838E+04  0.50400001928E-02 0.  1.
       -1   -1    0    0    0  501  0.00000000000E+00  0.00000000000E+00 -0.61555515603E+03  0.61555515605E+03  0.50400001928E-02 0. -1.
    10030    2    1    2    0    0  0.00000000000E+00  0.00000000000E+00  0.76042552777E+03  0.19915358399E+04  0.18406433707E+04 0.  0.
        4    1    3    3  502    0 -0.76483509473E+03 -0.17788749353E+03  0.89953262563E+03  0.11940591442E+04  0.12699999809E+01 0.  1.
       -4    1    3    3    0  502  0.76483509473E+03  0.17788749353E+03 -0.13910709786E+03  0.79747669562E+03  0.12699999809E+01 0. -1.
</event>
<event>
 5   0  0.4761944E-04  0.1940850E+04  0.7818609E-02  0.8634785E-01
       -2   -1    0    0    0  501  0.00000000000E+00  0.00000000000E+00  0.54441122754E+03  0.54441122755E+03  0.25500000920E-02 0.  1.
        2   -1    0    0  501    0  0.00000000000E+00  0.00000000000E+00 -0.17298047162E+04  0.17298047162E+04  0.25500000920E-02 0. -1.
    10030    2    1    2    0    0  0.00000000000E+00  0.00000000000E+00 -0.11853934886E+04  0.22742159437E+04  0.19408504414E+04 0.  0.
        4    1    3    3  502    0 -0.66754762685E+03  0.57311552606E+03 -0.10724648543E+04  0.13871783291E+04  0.12699999809E+01 0. -1.
       -4    1    3    3    0  502  0.66754762685E+03 -0.57311552606E+03 -0.11292863438E+03  0.88703761458E+03  0.12699999809E+01 0.  1.
</event>
<event>
 5   0  0.4761944E-04  0.1895163E+04  0.7818609E-02  0.8657268E-01
        2   -1    0    0  501    0  0.00000000000E+00  0.00000000000E+00  0.12995841035E+04  0.12995841035E+04  0.25500000920E-02 0. -1.
       -2   -1    0    0    0  501  0.00000000000E+00  0.00000000000E+00 -0.69092143336E+03  0.69092143337E+03  0.25500000920E-02 0.  1.
    10030    2    1    2    0    0  0.00000000000E+00  0.00000000000E+00  0.60866267017E+03  0.19905055369E+04  0.18951628021E+04 0.  0.
        4    1    3    3  502    0  0.48744266433E+03  0.41748295656E+03  0.10365526821E+04  0.12191535775E+04  0.12699999809E+01 0. -1.
       -4    1    3    3    0  502 -0.48744266433E+03 -0.41748295656E+03 -0.42789001190E+03  0.77135195936E+03  0.12699999809E+01 0.  1.
</event>
<event>
 5   0  0.4839293E-04  0.1943796E+04  0.7818609E-02  0.8633358E-01
       -2   -1    0    0    0  501  0.00000000000E+00  0.00000000000E+00  0.73895998320E+03  0.73895998321E+03  0.25500000920E-02 0. -1.
        2   -1    0    0  501    0  0.00000000000E+00  0.00000000000E+00 -0.12782643181E+04  0.12782643181E+04  0.25500000920E-02 0.  1.
    10030    2    1    2    0    0  0.00000000000E+00  0.00000000000E+00 -0.53930433489E+03  0.20172243013E+04  0.19437964698E+04 0.  0.
        5    1    3    3  502    0  0.70454583748E+03  0.12545722040E+02  0.42497698050E+03  0.82290324838E+03  0.46999998093E+01 0. -1.
       -5    1    3    3    0  502 -0.70454583748E+03 -0.12545722040E+02 -0.96428131538E+03  0.11943210529E+04  0.46999998093E+01 0.  1.
</event>
<event>
 5   0  0.4973411E-04  0.1887234E+04  0.7818609E-02  0.8661237E-01
       -2   -1    0    0    0  501  0.00000000000E+00  0.00000000000E+00  0.44629491214E+03  0.44629491215E+03  0.25500000920E-02 0. -1.
        2   -1    0    0  501    0  0.00000000000E+00  0.00000000000E+00 -0.19951216659E+04  0.19951216659E+04  0.25500000920E-02 0.  1.
    10030    2    1    2    0    0  0.00000000000E+00  0.00000000000E+00 -0.15488267537E+04  0.24414165780E+04  0.18872335824E+04 0.  0.
        1    1    3    3  502    0 -0.60717691768E+03 -0.39633489543E+03  0.67911605242E+01  0.72511466581E+03  0.50400001928E-02 0. -1.
       -1    1    3    3    0  502  0.60717691768E+03  0.39633489543E+03 -0.15556179143E+04  0.17163019122E+04  0.50400001928E-02 0.  1.
</event>
<event>
 5   0  0.2355414E-04  0.1907732E+04  0.7818609E-02  0.8651017E-01
        1   -1    0    0  501    0  0.00000000000E+00  0.00000000000E+00  0.94081144529E+03  0.94081144530E+03  0.50400001928E-02 0. -1.
       -1   -1    0    0    0  501  0.00000000000E+00  0.00000000000E+00 -0.96710190844E+03  0.96710190846E+03  0.50400001928E-02 0.  1.
    10030    2    1    2    0    0  0.00000000000E+00  0.00000000000E+00 -0.26290463151E+02  0.19079133538E+04  0.19077322079E+04 0.  0.
        5    1    3    3  502    0  0.68603791112E+03 -0.32816782165E+03 -0.58895707242E+03  0.96189118814E+03  0.46999998093E+01 0.  1.
       -5    1    3    3    0  502 -0.68603791112E+03  0.32816782165E+03  0.56266660927E+03  0.94602216562E+03  0.46999998093E+01 0. -1.
</event>
<event>
 5   0  0.4839293E-04  0.1894811E+04  0.7818609E-02  0.8657444E-01
       -2   -1    0    0    0  501  0.00000000000E+00  0.00000000000E+00  0.75264171383E+03  0.75264171383E+03  0.25500000920E-02 0. -1.
        2   -1    0    0  501    0  0.00000000000E+00  0.00000000000E+00 -0.11925685877E+04  0.11925685877E+04  0.25500000920E-02 0.  1.
    10030    2    1    2    0    0  0.00000000000E+00  0.00000000000E+00 -0.43992687389E+03  0.19452103016E+04  0.18948106668E+04 0.  0.
        5    1    3    3  502    0  0.65072429292E+03  0.41792850438E+03 -0.78173760365E+03  0.10996554511E+04  0.46999998093E+01 0.  1.
       -5    1    3    3    0  502 -0.65072429292E+03 -0.41792850438E+03  0.34181072975E+03  0.84555485046E+03  0.46999998093E+01 0. -1.
</event>
<event>
 5   0  0.2376359E-04  0.1789062E+04  0.7818609E-02  0.8712138E-01
       -1   -1    0    0    0  501  0.00000000000E+00  0.00000000000E+00  0.55522248274E+03  0.55522248276E+03  0.50400001928E-02 0.  1.
        1   -1    0    0  501    0  0.00000000000E+00  0.00000000000E+00 -0.14411987217E+04  0.14411987217E+04  0.50400001928E-02 0. -1.
    10030    2    1    2    0    0  0.00000000000E+00  0.00000000000E+00 -0.88597623896E+03  0.19964212045E+04  0.17890622487E+04 0.  0.
        2    1    3    3  502    0 -0.39070992381E+03 -0.62468544083E+03  0.12305098649E+03  0.74701250982E+03  0.25500000920E-02 0.  1.
       -2    1    3    3    0  502  0.39070992381E+03  0.62468544083E+03 -0.10090272255E+04  0.12494086946E+04  0.25500000920E-02 0. -1.
</event>
<event>
 5   0  0.4839293E-04  0.1646640E+04  0.7818609E-02  0.8792397E-01
        2   -1    0    0  501    0  0.00000000000E+00  0.00000000000E+00  0.16130321534E+04  0.16130321534E+04  0.25500000920E-02 0.  1.
       -2   -1    0    0    0  501  0.00000000000E+00  0.00000000000E+00 -0.42023689486E+03  0.42023689487E+03  0.25500000920E-02 0. -1.
    10030    2    1    2    0    0  0.00000000000E+00  0.00000000000E+00  0.11927952586E+04  0.20332690483E+04  0.16466397584E+04 0.  0.
        5    1    3    3  502    0 -0.50560393316E+03  0.51112467807E+03  0.10917809940E+04  0.13072458080E+04  0.46999998093E+01 0.  1.
       -5    1    3    3    0  502  0.50560393316E+03 -0.51112467807E+03  0.10101426456E+03  0.72602324027E+03  0.46999998093E+01 0. -1.
</event>
<event>
 5   0  0.2317458E-04  0.1883248E+04  0.7818609E-02  0.8663240E-01
       -1   -1    0    0    0  501  0.00000000000E+00  0.00000000000E+00  0.59508905895E+03  0.59508905897E+03  0.50400001928E-02 0.  1.
        1   -1    0    0  501    0  0.00000000000E+00  0.00000000000E+00 -0.14899553111E+04  0.14899553111E+04  0.50400001928E-02 0. -1.
    10030    2    1    2    0    0  0.00000000000E+00  0.00000000000E+00 -0.89486625216E+03  0.20850443701E+04  0.18832483681E+04 0.  0.
        3    1    3    3  502    0  0.83469676925E+03 -0.72724785254E+02 -0.92318509770E+03  0.12467069928E+04  0.10100000352E+00 0. -1.
       -3    1    3    3    0  502 -0.83469676925E+03  0.72724785254E+02  0.28318845539E+02  0.83833737732E+03  0.10100000352E+00 0.  1.
</event>
<event>
 5   0  0.2510069E-04  0.2034434E+04  0.7818609E-02  0.8590689E-01
        1   -1    0    0  501    0  0.00000000000E+00  0.00000000000E+00  0.71241936609E+03  0.71241936610E+03  0.50400001928E-02 0.  1.
       -1   -1    0    0    0  501  0.00000000000E+00  0.00000000000E+00 -0.14524179167E+04  0.14524179167E+04  0.50400001928E-02 0. -1.
    10030    2    1    2    0    0  0.00000000000E+00  0.00000000000E+00 -0.73999855057E+03  0.21648372828E+04  0.20344342226E+04 0.  0.
        4    1    3    3  502    0 -0.17448050412E+03 -0.47709662482E+03 -0.13077735312E+04  0.14029746461E+04  0.12699999809E+01 0. -1.
       -4    1    3    3    0  502  0.17448050412E+03  0.47709662482E+03  0.56777498060E+03  0.76186263672E+03  0.12699999809E+01 0.  1.
</event>
<event>
 5   0  0.2317458E-04  0.1901040E+04  0.7818609E-02  0.8654339E-01
        1   -1    0    0  501    0  0.00000000000E+00  0.00000000000E+00  0.13907858503E+04  0.13907858503E+04  0.50400001928E-02 0.  1.
       -1   -1    0    0    0  501  0.00000000000E+00  0.00000000000E+00 -0.64962444936E+03  0.64962444938E+03  0.50400001928E-02 0. -1.
    10030    2    1    2    0    0  0.00000000000E+00  0.00000000000E+00  0.74116140090E+03  0.20404102997E+04  0.19010402333E+04 0.  0.
        3    1    3    3  502    0  0.70252918705E+03 -0.43421310043E+03  0.87560841288E+03  0.12036521001E+04  0.10100000352E+00 0.  1.
       -3    1    3    3    0  502 -0.70252918705E+03  0.43421310043E+03 -0.13444701198E+03  0.83675819953E+03  0.10100000352E+00 0. -1.
</event>
<event>
 5   0  0.2317458E-04  0.1411913E+04  0.7818609E-02  0.8945241E-01
       -1   -1    0    0    0  501  0.00000000000E+00  0.00000000000E+00  0.62324314500E+03  0.62324314502E+03  0.50400001928E-02 0.  1.
        1   -1    0    0  501    0  0.00000000000E+00  0.00000000000E+00 -0.79964654658E+03  0.79964654660E+03  0.50400001928E-02 0. -1.
    10030    2    1    2    0    0  0.00000000000E+00  0.00000000000E+00 -0.17640340158E+03  0.14228896916E+04  0.14119125024E+04 0.  0.
        3    1    3    3  502    0  0.42340334002E+03  0.52050060495E+03 -0.30941444515E+03  0.73886979717E+03  0.10100000352E+00 0.  1.
       -3    1    3    3    0  502 -0.42340334002E+03 -0.52050060495E+03  0.13301104357E+03  0.68401989445E+03  0.10100000352E+00 0. -1.
</event>
<event>
 5   0  0.4829134E-04  0.1858541E+04  0.7818609E-02  0.8675773E-01
       -2   -1    0    0    0  501  0.00000000000E+00  0.00000000000E+00  0.37897394714E+03  0.37897394715E+03  0.25500000920E-02 0.  1.
        2   -1    0    0  501    0  0.00000000000E+00  0.00000000000E+00 -0.22786356312E+04  0.22786356312E+04  0.25500000920E-02 0. -1.
    10030    2    1    2    0    0  0.00000000000E+00  0.00000000000E+00 -0.18996616841E+04  0.26576095783E+04  0.18585408677E+04 0.  0.
        2    1    3    3  502    0  0.33465478009E+03  0.85998756822E+03 -0.11062846338E+04  0.14406380983E+04  0.25500000920E-02 0. -1.
       -2    1    3    3    0  502 -0.33465478009E+03 -0.85998756822E+03 -0.79337705022E+03  0.12169714800E+04  0.25500000920E-02 0.  1.
</event>
<event>
 5   0  0.2355414E-04  0.1848513E+04  0.7818609E-02  0.8680918E-01
       -1   -1    0    0    0  501  0.00000000000E+00  0.00000000000E+00  0.10175044097E+04  0.10175044097E+04  0.50400001928E-02 0. -1.
        1   -1    0    0  501    0  0.00000000000E+00  0.00000000000E+00 -0.83955418963E+03  0.83955418965E+03  0.50400001928E-02 0.  1.
    10030    2    1    2    0    0  0.00000000000E+00  0.00000000000E+00  0.17795022007E+03  0.18570585994E+04  0.18485130134E+04 0.  0.
        5    1    3    3  502    0  0.26077938427E+03 -0.27593505006E+03  0.93553431388E+03  0.10096497321E+04  0.46999998093E+01 0. -1.
       -5    1    3    3    0  502 -0.26077938427E+03  0.27593505006E+03 -0.75758409381E+03  0.84740886725E+03  0.46999998093E+01 0.  1.
</event>
<event>
 5   0  0.2376359E-04  0.1870444E+04  0.7818609E-02  0.8669710E-01
        1   -1    0    0  501    0  0.00000000000E+00  0.00000000000E+00  0.15406771101E+04  0.15406771101E+04  0.50400001928E-02 0. -1.
       -1   -1    0    0    0  501  0.00000000000E+00  0.00000000000E+00 -0.56769854902E+03  0.56769854904E+03  0.50400001928E-02 0.  1.
    10030    2    1    2    0    0  0.00000000000E+00  0.00000000000E+00  0.97297856104E+03  0.21083756591E+04  0.18704439686E+04 0.  0.
        2    1    3    3  502    0  0.53716374349E+03  0.18331596149E+03 -0.35135963200E+03  0.66753518264E+03  0.25500000920E-02 0.  1.
       -2    1    3    3    0  502 -0.53716374349E+03 -0.18331596149E+03  0.13243381930E+04  0.14408404765E+04  0.25500000920E-02 0. -1.
</event>
<event>
 5   0  0.2317458E-04  0.1880510E+04  0.7818609E-02  0.8664619E-01
        1   -1    0    0  501    0  0.00000000000E+00  0.00000000000E+00  0.13306019952E+04  0.13306019952E+04  0.50400001928E-02 0.  1.
       -1   -1    0    0    0  501  0.00000000000E+00  0.00000000000E+00 -0.66442039186E+03  0.66442039188E+03  0.50400001928E-02 0. -1.
    10030    2    1    2    0    0  0.00000000000E+00  0.00000000000E+00  0.66618160335E+03  0.19950223871E+04  0.18805096108E+04 0.  0.
        3    1    3    3  502    0  0.77534961881E+03  0.39045496206E+03  0.71627348705E+03  0.11254642719E+04  0.10100000352E+00 0.  1.
       -3    1    3    3    0  502 -0.77534961881E+03 -0.39045496206E+03 -0.50091883701E+02  0.86955811525E+03  0.10100000352E+00 0. -1.
</event>
<event>
 5   0  0.4973411E-04  0.1915899E+04  0.7818609E-02  0.8646982E-01
       -2   -1    0    0    0  501  0.00000000000E+00  0.00000000000E+00  0.40989084262E+03  0.40989084263E+03  0.25500000920E-02 0.  1.
        2   -1    0    0  501    0  0.00000000000E+00  0.00000000000E+00 -0.22388097106E+04  0.22388097107E+04  0.25500000920E-02 0. -1.
    10030    2    1    2    0    0  0.00000000000E+00  0.00000000000E+00 -0.18289188680E+04  0.26487005533E+04  0.19158993698E+04 0.  0.
        1    1    3    3  502    0  0.46930992726E+03  0.44184188888E+03  0.65244522977E+02  0.64786797297E+03  0.50400001928E-02 0.  1.
       -1    1    3    3    0  502 -0.46930992726E+03 -0.44184188888E+03 -0.18941633910E+04  0.20008325803E+04  0.50400001928E-02 0. -1.
</event>
<event>
 5   0  0.4829134E-04  0.1921841E+04  0.7818609E-02  0.8644061E-01
        2   -1    0    0  501    0  0.00000000000E+00  0.00000000000E+00  0.82058522054E+03  0.82058522054E+03  0.25500000920E-02 0. -1.
       -2   -1    0    0    0  501  0.00000000000E+00  0.00000000000E+00 -0.11252553602E+04  0.11252553602E+04  0.25500000920E-02 0.  1.
    10030    2    1    2    0    0  0.00000000000E+00  0.00000000000E+00 -0.30467013963E+03  0.19458405807E+04  0.19218406988E+04 0.  0.
        2    1    3    3  502    0  0.57711732640E+03  0.76509111819E+03 -0.22349136924E+03  0.98406159345E+03  0.25500000920E-02 0. -1.
       -2    1    3    3    0  502 -0.57711732640E+03 -0.76509111819E+03 -0.81178770381E+02  0.96177898726E+03  0.25500000920E-02 0.  1.
</event>
<event>
 5   0  0.2317458E-04  0.1795797E+04  0.7818609E-02  0.8708538E-01
        1   -1    0    0  501    0  0.00000000000E+00  0.00000000000E+00  0.77378319037E+03  0.77378319038E+03  0.50400001928E-02 0.  1.
       -1   -1    0    0    0  501  0.00000000000E+00  0.00000000000E+00 -0.10419224535E+04  0.10419224535E+04  0.50400001928E-02 0. -1.
    10030    2    1    2    0    0  0.00000000000E+00  0.00000000000E+00 -0.26813926312E+03  0.18157056439E+04  0.17957974053E+04 0.  0.
        3    1    3    3  502    0 -0.45213406478E+02  0.23774516339E+02  0.77231278109E+03  0.77400033707E+03  0.10100000352E+00 0.  1.
       -3    1    3    3    0  502  0.45213406478E+02 -0.23774516339E+02 -0.10404520442E+04  0.10417053068E+04  0.10100000352E+00 0. -1.
</event>
<event>
 5   0  0.4973411E-04  0.1853801E+04  0.7818609E-02  0.8678200E-01
       -2   -1    0    0    0  501  0.00000000000E+00  0.00000000000E+00  0.49581356077E+03  0.49581356078E+03  0.25500000920E-02 0. -1.
        2   -1    0    0  501    0  0.00000000000E+00  0.00000000000E+00 -0.17327983792E+04  0.17327983792E+04  0.25500000920E-02 0.  1.
    10030    2    1    2    0    0  0.00000000000E+00  0.00000000000E+00 -0.12369848184E+04  0.22286119400E+04  0.18538014289E+04 0.  0.
        1    1    3    3  502    0  0.19766784095E+03  0.14098010085E+03  0.45690674786E+03  0.51740867836E+03  0.50400001928E-02 0. -1.
       -1    1    3    3    0  502 -0.19766784095E+03 -0.14098010085E+03 -0.16938915663E+04  0.17112032616E+04  0.50400001928E-02 0.  1.
</event>
<event>
 5   0  0.2261755E-04  0.1906986E+04  0.7818609E-02  0.8651387E-01
        1   -1    0    0  501    0  0.00000000000E+00  0.00000000000E+00  0.60009795907E+03  0.60009795909E+03  0.50400001928E-02 0. -1.
       -1   -1    0    0    0  501  0.00000000000E+00  0.00000000000E+00 -0.15150000575E+04  0.15150000576E+04  0.50400001928E-02 0.  1.
    10030    2    1    2    0    0  0.00000000000E+00  0.00000000000E+00 -0.91490209848E+03  0.21150980166E+04  0.19069855191E+04 0.  0.
        1    1    3    3  502    0 -0.36926365993E+03 -0.20128995289E+02  0.51731580618E+03  0.63590602321E+03  0.50400001928E-02 0. -1.
       -1    1    3    3    0  502  0.36926365993E+03  0.20128995289E+02 -0.14322179047E+04  0.14791919934E+04  0.50400001928E-02 0.  1.
</event>
<event>
 5   0  0.2317458E-04  0.1868451E+04  0.7818609E-02  0.8670722E-01
        1   -1    0    0  501    0  0.00000000000E+00  0.00000000000E+00  0.66131122564E+03  0.66131122566E+03  0.50400001928E-02 0. -1.
       -1   -1    0    0    0  501  0.00000000000E+00  0.00000000000E+00 -0.13197679371E+04  0.13197679371E+04  0.50400001928E-02 0.  1.
    10030    2    1    2    0    0  0.00000000000E+00  0.00000000000E+00 -0.65845671144E+03  0.19810791627E+04  0.18684510719E+04 0.  0.
        3    1    3    3  502    0 -0.72230869148E+02  0.23863399002E+03 -0.12838408483E+04  0.13078267521E+04  0.10100000352E+00 0.  1.
       -3    1    3    3    0  502  0.72230869148E+02 -0.23863399002E+03  0.62538413682E+03  0.67325241064E+03  0.10100000352E+00 0. -1.
</event>
<event>
 5   0  0.4761944E-04  0.1907803E+04  0.7818609E-02  0.8650982E-01
        2   -1    0    0  501    0  0.00000000000E+00  0.00000000000E+00  0.15346338239E+04  0.15346338239E+04  0.25500000920E-02 0. -1.
       -2   -1    0    0    0  501  0.00000000000E+00  0.00000000000E+00 -0.59292830805E+03  0.59292830806E+03  0.25500000920E-02 0.  1.
    10030    2    1    2    0    0  0.00000000000E+00  0.00000000000E+00  0.94170551587E+03  0.21275621320E+04  0.19078027536E+04 0.  0.
        4    1    3    3  502    0 -0.74498600128E+03 -0.54043366421E+03  0.75043761095E+03  0.11875314347E+04  0.12699999809E+01 0. -1.
       -4    1    3    3    0  502  0.74498600128E+03  0.54043366421E+03  0.19126790493E+03  0.94003069731E+03  0.12699999809E+01 0.  1.
</event>
<event>
 5   0  0.1729375E-04  0.1877673E+04  0.7818609E-02  0.8666050E-01
        4   -1    0    0  501    0  0.00000000000E+00  0.00000000000E+00  0.68169642851E+03  0.68169761152E+03  0.12699999809E+01 0. -1.
       -4   -1    0    0    0  501  0.00000000000E+00  0.00000000000E+00 -0.12929688501E+04  0.12929694738E+04  0.12699999809E+01 0.  1.
    10030    2    1    2    0    0  0.00000000000E+00  0.00000000000E+00 -0.61127242158E+03  0.19746670853E+04  0.18776730611E+04 0.  0.
        3    1    3    3  502    0  0.68701582088E+03  0.28929369839E+03 -0.90584785586E+03  0.11731333813E+04  0.10100000352E+00 0. -1.
       -3    1    3    3    0  502 -0.68701582088E+03 -0.28929369839E+03  0.29457543428E+03  0.80153370407E+03  0.10100000352E+00 0.  1.
</event>
<event>
 5   0  0.4973411E-04  0.1012340E+04  0.7818609E-02  0.9295113E-01
       -2   -1    0    0    0  501  0.00000000000E+00  0.00000000000E+00  0.24080498656E+03  0.24080498657E+03  0.25500000920E-02 0.  1.
        2   -1    0    0  501    0  0.00000000000E+00  0.00000000000E+00 -0.10639645211E+04  0.10639645211E+04  0.25500000920E-02 0. -1.
    10030    2    1    2    0    0  0.00000000000E+00  0.00000000000E+00 -0.82315953450E+03  0.13047695076E+04  0.10123397892E+04 0.  0.
        1    1    3    3  502    0 -0.54181206247E+02 -0.39471457729E+03 -0.91879624878E+01  0.39852179277E+03  0.50400001928E-02 0.  1.
       -1    1    3    3    0  502  0.54181206247E+02  0.39471457729E+03 -0.81397157201E+03  0.90624771487E+03  0.50400001928E-02 0. -1.
</event>
<event>
 5   0  0.4839293E-04  0.1888833E+04  0.7818609E-02  0.8660435E-01
        2   -1    0    0  501    0  0.00000000000E+00  0.00000000000E+00  0.12940312711E+04  0.12940312711E+04  0.25500000920E-02 0. -1.
       -2   -1    0    0    0  501  0.00000000000E+00  0.00000000000E+00 -0.68925898178E+03  0.68925898179E+03  0.25500000920E-02 0.  1.
    10030    2    1    2    0    0  0.00000000000E+00  0.00000000000E+00  0.60477228936E+03  0.19832902529E+04  0.18888331598E+04 0.  0.
        5    1    3    3  502    0 -0.10670680209E+03 -0.54823106883E+03  0.11020188596E+04  0.12354801914E+04  0.46999998093E+01 0. -1.
       -5    1    3    3    0  502  0.10670680209E+03  0.54823106883E+03 -0.49724657026E+03  0.74781006150E+03  0.46999998093E+01 0.  1.
</event>
<event>
 5   0  0.4761944E-04  0.2056328E+04  0.7818609E-02  0.8580729E-01
       -2   -1    0    0    0  501  0.00000000000E+00  0.00000000000E+00  0.67864051257E+03  0.67864051257E+03  0.25500000920E-02 0. -1.
        2   -1    0    0  501    0  0.00000000000E+00  0.00000000000E+00 -0.15577042848E+04  0.15577042848E+04  0.25500000920E-02 0.  1.
    10030    2    1    2    0    0  0.00000000000E+00  0.00000000000E+00 -0.87906377224E+03  0.22363447974E+04  0.20563280227E+04 0.  0.
        4    1    3    3  502    0 -0.67595036793E+03  0.74293795482E+03 -0.20063380858E+03  0.10242661972E+04  0.12699999809E+01 0. -1.
       -4    1    3    3    0  502  0.67595036793E+03 -0.74293795482E+03 -0.67842996366E+03  0.12120786002E+04  0.12699999809E+01 0.  1.
</event>
<event>
 5   0  0.2317458E-04  0.1917460E+04  0.7818609E-02  0.8646214E-01
        1   -1    0    0  501    0  0.00000000000E+00  0.00000000000E+00  0.19594409540E+04  0.19594409540E+04  0.50400001928E-02 0. -1.
       -1   -1    0    0    0  501  0.00000000000E+00  0.00000000000E+00 -0.46909441773E+03  0.46909441776E+03  0.50400001928E-02 0.  1.
    10030    2    1    2    0    0  0.00000000000E+00  0.00000000000E+00  0.14903465363E+04  0.24285353717E+04  0.19174595833E+04 0.  0.
        3    1    3    3  502    0 -0.25435917946E+03 -0.70250961699E+03 -0.15745679238E+02  0.74730602216E+03  0.10100000352E+00 0.  1.
       -3    1    3    3    0  502  0.25435917946E+03  0.70250961699E+03  0.15060922155E+04  0.16812293496E+04  0.10100000352E+00 0. -1.
</event>
<event>
 5   0  0.2317458E-04  0.1991395E+04  0.7818609E-02  0.8610654E-01
       -1   -1    0    0    0  501  0.00000000000E+00  0.00000000000E+00  0.65423292239E+03  0.65423292241E+03  0.50400001928E-02 0.  1.
        1   -1    0    0  501    0  0.00000000000E+00  0.00000000000E+00 -0.15153833925E+04  0.15153833925E+04  0.50400001928E-02 0. -1.
    10030    2    1    2    0    0  0.00000000000E+00  0.00000000000E+00 -0.86115047011E+03  0.21696163149E+04  0.19913951948E+04 0.  0.
        3    1    3    3  502    0  0.31769795108E+03 -0.18492691578E+03  0.57759607065E+03  0.68465113988E+03  0.10100000352E+00 0.  1.
       -3    1    3    3    0  502 -0.31769795108E+03  0.18492691578E+03 -0.14387465408E+04  0.14849651750E+04  0.10100000352E+00 0. -1.
</event>
<event>
 5   0  0.4802635E-04  0.1879604E+04  0.7818609E-02  0.8665076E-01
       -2   -1    0    0    0  501  0.00000000000E+00  0.00000000000E+00  0.56915006892E+03  0.56915006893E+03  0.25500000920E-02 0.  1.
        2   -1    0    0  501    0  0.00000000000E+00  0.00000000000E+00 -0.15518369383E+04  0.15518369383E+04  0.25500000920E-02 0. -1.
    10030    2    1    2    0    0  0.00000000000E+00  0.00000000000E+00 -0.98268686940E+03  0.21209870073E+04  0.18796043205E+04 0.  0.
        3    1    3    3  502    0  0.20993951473E+03 -0.36630528507E+03  0.45611049527E+03  0.62152309355E+03  0.10100000352E+00 0.  1.
       -3    1    3    3    0  502 -0.20993951473E+03  0.36630528507E+03 -0.14387973647E+04  0.14994639137E+04  0.10100000352E+00 0. -1.
</event>
<event>
 5   0  0.4761944E-04  0.1887255E+04  0.7818609E-02  0.8661227E-01
        2   -1    0    0  501    0  0.00000000000E+00  0.00000000000E+00  0.18045370773E+04  0.18045370773E+04  0.25500000920E-02 0. -1.
       -2   -1    0    0    0  501  0.00000000000E+00  0.00000000000E+00 -0.49344089676E+03  0.49344089676E+03  0.25500000920E-02 0.  1.
    10030    2    1    2    0    0  0.00000000000E+00  0.00000000000E+00  0.13110961806E+04  0.22979779741E+04  0.18872545071E+04 0.  0.
        4    1    3    3  502    0  0.19910663119E+03 -0.80410307860E+03  0.12057843186E+04  0.14629226389E+04  0.12699999809E+01 0. -1.
       -4    1    3    3    0  502 -0.19910663119E+03  0.80410307860E+03  0.10531186195E+03  0.83505533515E+03  0.12699999809E+01 0.  1.
</event>
<event>
 5   0  0.2376359E-04  0.1586146E+04  0.7818609E-02  0.8829104E-01
        1   -1    0    0  501    0  0.00000000000E+00  0.00000000000E+00  0.11015624752E+04  0.11015624752E+04  0.50400001928E-02 0. -1.
       -1   -1    0    0    0  501  0.00000000000E+00  0.00000000000E+00 -0.57097529599E+03  0.57097529602E+03  0.50400001928E-02 0.  1.
    10030    2    1    2    0    0  0.00000000000E+00  0.00000000000E+00  0.53058717921E+03  0.16725377712E+04  0.15861462232E+04 0.  0.
        2    1    3    3  502    0  0.54541786452E+03 -0.26522799481E+03 -0.27355667741E+03  0.66532683091E+03  0.25500000920E-02 0.  1.
       -2    1    3    3    0  502 -0.54541786452E+03  0.26522799481E+03  0.80414385662E+03  0.10072109403E+04  0.25500000920E-02 0. -1.
</event>
<event>
 5   0  0.2261755E-04  0.1762330E+04  0.7818609E-02  0.8726593E-01
        1   -1    0    0  501    0  0.00000000000E+00  0.00000000000E+00  0.15733374560E+04  0.15733374560E+04  0.50400001928E-02 0.  1.
       -1   -1    0    0    0  501  0.00000000000E+00  0.00000000000E+00 -0.49350591470E+03  0.49350591472E+03  0.50400001928E-02 0. -1.
    10030    2    1    2    0    0  0.00000000000E+00  0.00000000000E+00  0.10798315413E+04  0.20668433707E+04  0.17623295269E+04 0.  0.
        1    1    3    3  502    0 -0.48122429118E+03  0.16169137982E+03 -0.30476247057E+03  0.59211576928E+03  0.50400001928E-02 0. -1.
       -1    1    3    3    0  502  0.48122429118E+03 -0.16169137982E+03  0.13845940119E+04  0.14747276014E+04  0.50400001928E-02 0.  1.
</event>
<event>
 5   0  0.2376359E-04  0.1866636E+04  0.7818609E-02  0.8671644E-01
       -1   -1    0    0    0  501  0.00000000000E+00  0.00000000000E+00  0.11066241238E+04  0.11066241238E+04  0.50400001928E-02 0.  1.
        1   -1    0    0  501    0  0.00000000000E+00  0.00000000000E+00 -0.78715303018E+03  0.78715303020E+03  0.50400001928E-02 0. -1.
    10030    2    1    2    0    0  0.00000000000E+00  0.00000000000E+00  0.31947109363E+03  0.18937771540E+04  0.18666360463E+04 0.  0.
        2    1    3    3  502    0  0.13881940706E+03 -0.68325335709E+03 -0.46975087338E+03  0.84069724681E+03  0.25500000920E-02 0. -1.
       -2    1    3    3    0  502 -0.13881940706E+03  0.68325335709E+03  0.78922196701E+03  0.10530799072E+04  0.25500000920E-02 0.  1.
</event>
<event>
 5   0  0.4761944E-04  0.1269091E+04  0.7818609E-02  0.9054442E-01
       -2   -1    0    0    0  501  0.00000000000E+00  0.00000000000E+00  0.24640011335E+03  0.24640011336E+03  0.25500000920E-02 0. -1.
        2   -1    0    0  501    0  0.00000000000E+00  0.00000000000E+00 -0.16341223549E+04  0.16341223549E+04  0.25500000920E-02 0.  1.
    10030    2    1    2    0    0  0.00000000000E+00  0.00000000000E+00 -0.13877222415E+04  0.18805224683E+04  0.12690909085E+04 0.  0.
        4    1    3    3  502    0  0.43578487291E+03 -0.41471630240E+02 -0.13745450751E+04  0.14425685869E+04  0.12699999809E+01 0.  1.
       -4    1    3    3    0  502 -0.43578487291E+03  0.41471630240E+02 -0.13177166451E+02  0.43795388134E+03  0.12699999809E+01 0. -1.
</event>
<event>
 5   0  0.4761944E-04  0.1809387E+04  0.7818609E-02  0.8701323E-01
       -2   -1    0    0    0  501  0.00000000000E+00  0.00000000000E+00  0.76047324786E+03  0.76047324787E+03  0.25500000920E-02 0. -1.
        2   -1    0    0  501    0  0.00000000000E+00  0.00000000000E+00 -0.10762646747E+04  0.10762646747E+04  0.25500000920E-02 0.  1.
    10030    2    1    2    0    0  0.00000000000E+00  0.00000000000E+00 -0.31579142681E+03  0.18367379225E+04  0.18093871810E+04 0.  0.
        4    1    3    3  502    0 -0.38081777901E+03 -0.31667983603E+03  0.61062192688E+03  0.78623727325E+03  0.12699999809E+01 0. -1.
       -4    1    3    3    0  502  0.38081777901E+03  0.31667983603E+03 -0.92641335369E+03  0.10505006493E+04  0.12699999809E+01 0.  1.
</event>
<event>
 5   0  0.4839293E-04  0.1880094E+04  0.7818609E-02  0.8664829E-01
       -2   -1    0    0    0  501  0.00000000000E+00  0.00000000000E+00  0.90381903216E+03  0.90381903216E+03  0.25500000920E-02 0.  1.
        2   -1    0    0  501    0  0.00000000000E+00  0.00000000000E+00 -0.97772738658E+03  0.97772738658E+03  0.25500000920E-02 0. -1.
    10030    2    1    2    0    0  0.00000000000E+00  0.00000000000E+00 -0.73908354416E+02  0.18815464187E+04  0.18800942745E+04 0.  0.
        5    1    3    3  502    0 -0.22385063227E+02 -0.78731402678E+03 -0.55048018160E+03  0.96094484136E+03  0.46999998093E+01 0.  1.
       -5    1    3    3    0  502  0.22385063227E+02  0.78731402678E+03  0.47657182718E+03  0.92060157738E+03  0.46999998093E+01 0. -1.
</event>
<event>
 5   0  0.2317458E-04  0.1813604E+04  0.7818609E-02  0.8699098E-01
        1   -1    0    0  501    0  0.00000000000E+00  0.00000000000E+00  0.23093902916E+04  0.23093902916E+04  0.50400001928E-02 0. -1.
       -1   -1    0    0    0  501  0.00000000000E+00  0.00000000000E+00 -0.35606363440E+03  0.35606363444E+03  0.50400001928E-02 0.  1.
    10030    2    1    2    0    0  0.00000000000E+00  0.00000000000E+00  0.19533266572E+04  0.26654539260E+04  0.18136040367E+04 0.  0.
        3    1    3    3  502    0  0.57796037962E+03  0.25132733135E+01  0.20036097229E+04  0.20853048815E+04  0.10100000352E+00 0. -1.
       -3    1    3    3    0  502 -0.57796037962E+03 -0.25132733135E+01 -0.50283065715E+02  0.58014904452E+03  0.10100000352E+00 0.  1.
</event>
<event>
 5   0  0.2376359E-04  0.1158180E+04  0.7818609E-02  0.9150270E-01
       -1   -1    0    0    0  501  0.00000000000E+00  0.00000000000E+00  0.54013801875E+03  0.54013801878E+03  0.50400001928E-02 0.  1.
        1   -1    0    0  501    0  0.00000000000E+00  0.00000000000E+00 -0.62085066121E+03  0.62085066124E+03  0.50400001928E-02 0. -1.
    10030    2    1    2    0    0  0.00000000000E+00  0.00000000000E+00 -0.80712642460E+02  0.11609886800E+04  0.11581796857E+04 0.  0.
        2    1    3    3  502    0 -0.11027213036E+03  0.45730143723E+03  0.29819122892E+03  0.55695830745E+03  0.25500000920E-02 0.  1.
       -2    1    3    3    0  502  0.11027213036E+03 -0.45730143723E+03 -0.37890387139E+03  0.60403037256E+03  0.25500000920E-02 0. -1.
</event>
<event>
 5   0  0.4973411E-04  0.1947701E+04  0.7818609E-02  0.8631470E-01
       -2   -1    0    0    0  501  0.00000000000E+00  0.00000000000E+00  0.45837203459E+03  0.45837203460E+03  0.25500000920E-02 0. -1.
        2   -1    0    0  501    0  0.00000000000E+00  0.00000000000E+00 -0.20690288769E+04  0.20690288769E+04  0.25500000920E-02 0.  1.
    10030    2    1    2    0    0  0.00000000000E+00  0.00000000000E+00 -0.16106568423E+04  0.25274009115E+04  0.19477011844E+04 0.  0.
        1    1    3    3  502    0  0.27783915312E+03  0.84170027840E+03 -0.13287926216E+04  0.15972926422E+04  0.50400001928E-02 0.  1.
       -1    1    3    3    0  502 -0.27783915312E+03 -0.84170027840E+03 -0.28186422074E+03  0.93010826930E+03  0.50400001928E-02 0. -1.
</event>
<event>
 5   0  0.2510069E-04  0.1902163E+04  0.7818609E-02  0.8653780E-01
        1   -1    0    0  501    0  0.00000000000E+00  0.00000000000E+00  0.23702476155E+04  0.23702476155E+04  0.50400001928E-02 0.  1.
       -1   -1    0    0    0  501  0.00000000000E+00  0.00000000000E+00 -0.38162946205E+03  0.38162946209E+03  0.50400001928E-02 0. -1.
    10030    2    1    2    0    0  0.00000000000E+00  0.00000000000E+00  0.19886181534E+04  0.27518770776E+04  0.19021633184E+04 0.  0.
        4    1    3    3  502    0 -0.68687576521E+03 -0.50135695831E+03  0.37814412931E+03  0.93067272009E+03  0.12699999809E+01 0. -1.
       -4    1    3    3    0  502  0.68687576521E+03  0.50135695831E+03  0.16104740241E+04  0.18212043575E+04  0.12699999809E+01 0.  1.
</event>
<event>
 5   0  0.4973411E-04  0.1875196E+04  0.7818609E-02  0.8667302E-01
        2   -1    0    0  501    0  0.00000000000E+00  0.00000000000E+00  0.15698330612E+04  0.15698330612E+04  0.25500000920E-02 0. -1.
       -2   -1    0    0    0  501  0.00000000000E+00  0.00000000000E+00 -0.55998956275E+03  0.55998956276E+03  0.25500000920E-02 0.  1.
    10030    2    1    2    0    0  0.00000000000E+00  0.00000000000E+00  0.10098434985E+04  0.21298226240E+04  0.18751961279E+04 0.  0.
        1    1    3    3  502    0 -0.38866031035E+03 -0.19988161768E+03 -0.43722033826E+03  0.61819990468E+03  0.50400001928E-02 0.  1.
       -1    1    3    3    0  502  0.38866031035E+03  0.19988161768E+03  0.14470638367E+04  0.15116227193E+04  0.50400001928E-02 0. -1.
</event>
<event>
 5   0  0.1729375E-04  0.1898725E+04  0.7818609E-02  0.8655491E-01
        3   -1    0    0  501    0  0.00000000000E+00  0.00000000000E+00  0.76545921341E+03  0.76545922008E+03  0.10100000352E+00 0.  1.
       -3   -1    0    0    0  501  0.00000000000E+00  0.00000000000E+00 -0.11774492306E+04  0.11774492349E+04  0.10100000352E+00 0. -1.
    10030    2    1    2    0    0  0.00000000000E+00  0.00000000000E+00 -0.41199001720E+03  0.19429084550E+04  0.18987252277E+04 0.  0.
        5    1    3    3  502    0 -0.79629423689E+03  0.51143248831E+03 -0.12928674067E+03  0.95518838619E+03  0.46999998093E+01 0.  1.
       -5    1    3    3    0  502  0.79629423689E+03 -0.51143248831E+03 -0.28270327653E+03  0.98772006883E+03  0.46999998093E+01 0. -1.
</event>
<event>
 5   0  0.4829134E-04  0.1956530E+04  0.7818609E-02  0.8627218E-01
        2   -1    0    0  501    0  0.00000000000E+00  0.00000000000E+00  0.10415914203E+04  0.10415914203E+04  0.25500000920E-02 0. -1.
       -2   -1    0    0    0  501  0.00000000000E+00  0.00000000000E+00 -0.91878856870E+03  0.91878856870E+03  0.25500000920E-02 0.  1.
    10030    2    1    2    0    0  0.00000000000E+00  0.00000000000E+00  0.12280285161E+03  0.19603799890E+04  0.19565298773E+04 0.  0.
        2    1    3    3  502    0  0.86651584707E+03 -0.38685592795E+03 -0.17675321258E+03  0.96527142317E+03  0.25500000920E-02 0.  1.
       -2    1    3    3    0  502 -0.86651584707E+03  0.38685592795E+03  0.29955606419E+03  0.99510856584E+03  0.25500000920E-02 0. -1.
</event>
<event>
 5   0  0.2261755E-04  0.1880736E+04  0.7818609E-02  0.8664505E-01
        1   -1    0    0  501    0  0.00000000000E+00  0.00000000000E+00  0.12952531551E+04  0.12952531551E+04  0.50400001928E-02 0.  1.
       -1   -1    0    0    0  501  0.00000000000E+00  0.00000000000E+00 -0.68271746815E+03  0.68271746817E+03  0.50400001928E-02 0. -1.
    10030    2    1    2    0    0  0.00000000000E+00  0.00000000000E+00  0.61253568698E+03  0.19779706233E+04  0.18807359780E+04 0.  0.
        1    1    3    3  502    0 -0.39867866355E+03  0.83885733795E+03  0.15146540023E+03  0.94104626756E+03  0.50400001928E-02 0. -1.
       -1    1    3    3    0  502  0.39867866355E+03 -0.83885733795E+03  0.46107028675E+03  0.10369243557E+04  0.50400001928E-02 0.  1.
</event>
<event>
 5   0  0.4761944E-04  0.1881525E+04  0.7818609E-02  0.8664107E-01
        2   -1    0    0  501    0  0.00000000000E+00  0.00000000000E+00  0.11396287811E+04  0.11396287811E+04  0.25500000920E-02 0. -1.
       -2   -1    0    0    0  501  0.00000000000E+00  0.00000000000E+00 -0.77659885227E+03  0.77659885227E+03  0.25500000920E-02 0.  1.
    10030    2    1    2    0    0  0.00000000000E+00  0.00000000000E+00  0.36302992883E+03  0.19162276334E+04  0.18815253423E+04 0.  0.
        4    1    3    3  502    0  0.60051939018E+02 -0.86727175167E+03 -0.18465239224E+03  0.88874329561E+03  0.12699999809E+01 0.  1.
       -4    1    3    3    0  502 -0.60051939018E+02  0.86727175167E+03  0.54768232107E+03  0.10274843378E+04  0.12699999809E+01 0. -1.
</event>
<event>
 5   0  0.2317458E-04  0.1869280E+04  0.7818609E-02  0.8670301E-01
        1   -1    0    0  501    0  0.00000000000E+00  0.00000000000E+00  0.11966949647E+04  0.11966949647E+04  0.50400001928E-02 0.  1.
       -1   -1    0    0    0  501  0.00000000000E+00  0.00000000000E+00 -0.72997035264E+03  0.72997035266E+03  0.50400001928E-02 0. -1.
    10030    2    1    2    0    0  0.00000000000E+00  0.00000000000E+00  0.46672461206E+03  0.19266653174E+04  0.18692799099E+04 0.  0.
        3    1    3    3  502    0  0.24110372691E+03 -0.26318724756E+03  0.11236819862E+04  0.11790079520E+04  0.10100000352E+00 0.  1.
       -3    1    3    3    0  502 -0.24110372691E+03  0.26318724756E+03 -0.65695737416E+03  0.74765736542E+03  0.10100000352E+00 0. -1.
</event>
<event>
 5   0  0.4839293E-04  0.1911984E+04  0.7818609E-02  0.8648914E-01
        2   -1    0    0  501    0  0.00000000000E+00  0.00000000000E+00  0.41809786325E+03  0.41809786326E+03  0.25500000920E-02 0. -1.
       -2   -1    0    0    0  501  0.00000000000E+00  0.00000000000E+00 -0.21859014088E+04  0.21859014088E+04  0.25500000920E-02 0.  1.
    10030    2    1    2    0    0  0.00000000000E+00  0.00000000000E+00 -0.17678035455E+04  0.26039992720E+04  0.19119840044E+04 0.  0.
        5    1    3    3  502    0 -0.62774434748E+03  0.47723137783E+03 -0.16199594956E+04  0.18016946498E+04  0.46999998093E+01 0.  1.
       -5    1    3    3    0  502  0.62774434748E+03 -0.47723137783E+03 -0.14784404994E+03  0.80230462224E+03  0.46999998093E+01 0. -1.
</event>
<event>
 5   0  0.4839293E-04  0.1882515E+04  0.7818609E-02  0.8663609E-01
        2   -1    0    0  501    0  0.00000000000E+00  0.00000000000E+00  0.83816814103E+03  0.83816814104E+03  0.25500000920E-02 0.  1.
       -2   -1    0    0    0  501  0.00000000000E+00  0.00000000000E+00 -0.10570265304E+04  0.10570265304E+04  0.25500000920E-02 0. -1.
    10030    2    1    2    0    0  0.00000000000E+00  0.00000000000E+00 -0.21885838941E+03  0.18951946715E+04  0.18825152983E+04 0.  0.
        5    1    3    3  502    0 -0.25371926738E+03 -0.82064464933E+03  0.27801714034E+03  0.90285476542E+03  0.46999998093E+01 0.  1.
       -5    1    3    3    0  502  0.25371926738E+03  0.82064464933E+03 -0.49687552975E+03  0.99233990607E+03  0.46999998093E+01 0. -1.
</event>
<event>
 5   0  0.4973411E-04  0.1933873E+04  0.7818609E-02  0.8638177E-01
       -2   -1    0    0    0  501  0.00000000000E+00  0.00000000000E+00  0.13493384006E+04  0.13493384006E+04  0.25500000920E-02 0.  1.
        2   -1    0    0  501    0  0.00000000000E+00  0.00000000000E+00 -0.69290715238E+03  0.69290715238E+03  0.25500000920E-02 0. -1.
    10030    2    1    2    0    0  0.00000000000E+00  0.00000000000E+00  0.65643124826E+03  0.20422455530E+04  0.19338730349E+04 0.  0.
        1    1    3    3  502    0  0.81432481121E+02 -0.33529357903E+03 -0.62568246701E+03  0.71451492823E+03  0.50400001928E-02 0. -1.
       -1    1    3    3    0  502 -0.81432481121E+02  0.33529357903E+03  0.12821137153E+04  0.13277306248E+04  0.50400001928E-02 0.  1.
</event>
<event>
 5   0  0.2510069E-04  0.1915581E+04  0.7818609E-02  0.8647139E-01
        1   -1    0    0  501    0  0.00000000000E+00  0.00000000000E+00  0.14568920383E+04  0.14568920384E+04  0.50400001928E-02 0.  1.
       -1   -1    0    0    0  501  0.00000000000E+00  0.00000000000E+00 -0.62967119522E+03  0.62967119524E+03  0.50400001928E-02 0. -1.
    10030    2    1    2    0    0  0.00000000000E+00  0.00000000000E+00  0.82722084313E+03  0.20865632336E+04  0.19155813229E+04 0.  0.
        4    1    3    3  502    0  0.52912903711E+03  0.19679154301E+03 -0.42918069415E+03  0.70915592815E+03  0.12699999809E+01 0. -1.
       -4    1    3    3    0  502 -0.52912903711E+03 -0.19679154301E+03  0.12564015373E+04  0.13774073054E+04  0.12699999809E+01 0.  1.
</event>
<event>
 5   0  0.2317458E-04  0.1964201E+04  0.7818609E-02  0.8623543E-01
        1   -1    0    0  501    0  0.00000000000E+00  0.00000000000E+00  0.12139532906E+04  0.12139532906E+04  0.50400001928E-02 0.  1.
       -1   -1    0    0    0  501  0.00000000000E+00  0.00000000000E+00 -0.79452956070E+03  0.79452956072E+03  0.50400001928E-02 0. -1.
    10030    2    1    2    0    0  0.00000000000E+00  0.00000000000E+00  0.41942372986E+03  0.20084828513E+04  0.19642013896E+04 0.  0.
        3    1    3    3  502    0  0.74139524077E+03  0.31211817766E+02 -0.44812725022E+03  0.86686741962E+03  0.10100000352E+00 0. -1.
       -3    1    3    3    0  502 -0.74139524077E+03 -0.31211817766E+02  0.86755098008E+03  0.11416154317E+04  0.10100000352E+00 0.  1.
</event>
<event>
 5   0  0.2317458E-04  0.1906535E+04  0.7818609E-02  0.8651611E-01
        1   -1    0    0  501    0  0.00000000000E+00  0.00000000000E+00  0.79131059026E+03  0.79131059027E+03  0.50400001928E-02 0.  1.
       -1   -1    0    0    0  501  0.00000000000E+00  0.00000000000E+00 -0.11483715022E+04  0.11483715022E+04  0.50400001928E-02 0. -1.
    10030    2    1    2    0    0  0.00000000000E+00  0.00000000000E+00 -0.35706091198E+03  0.19396820925E+04  0.19065345854E+04 0.  0.
        3    1    3    3  502    0  0.68366085594E+03  0.56593091303E+03 -0.53249982068E+03  0.10350004993E+04  0.10100000352E+00 0. -1.
       -3    1    3    3    0  502 -0.68366085594E+03 -0.56593091303E+03  0.17543890870E+03  0.90468159325E+03  0.10100000352E+00 0.  1.
</event>
<event>
 5   0  0.4761944E-04  0.2123703E+04  0.7818609E-02  0.8550873E-01
       -2   -1    0    0    0  501  0.00000000000E+00  0.00000000000E+00  0.18426961881E+04  0.18426961881E+04  0.25500000920E-02 0. -1.
        2   -1    0    0  501    0  0.00000000000E+00  0.00000000000E+00 -0.61189057918E+03  0.61189057919E+03  0.25500000920E-02 0.  1.
    10030    2    1    2    0    0  0.00000000000E+00  0.00000000000E+00  0.12308056089E+04  0.24545867673E+04  0.21237028396E+04 0.  0.
        4    1    3    3  502    0 -0.44160880609E+03 -0.33935173587E+03 -0.42953003602E+03  0.70333178728E+03  0.12699999809E+01 0.  1.
       -4    1    3    3    0  502  0.44160880609E+03  0.33935173587E+03  0.16603356449E+04  0.17512549800E+04  0.12699999809E+01 0. -1.
</event>
<event>
 5   0  0.2355414E-04  0.1928253E+04  0.7818609E-02  0.8640920E-01
       -1   -1    0    0    0  501  0.00000000000E+00  0.00000000000E+00  0.70930982576E+03  0.70930982578E+03  0.50400001928E-02 0.  1.
        1   -1    0    0  501    0  0.00000000000E+00  0.00000000000E+00 -0.13104844134E+04  0.13104844135E+04  0.50400001928E-02 0. -1.
    10030    2    1    2    0    0  0.00000000000E+00  0.00000000000E+00 -0.60117458769E+03  0.20197942392E+04  0.19282525467E+04 0.  0.
        5    1    3    3  502    0 -0.74393808207E+03  0.50876621108E+03 -0.65923118522E+03  0.11166444255E+04  0.46999998093E+01 0.  1.
       -5    1    3    3    0  502  0.74393808207E+03 -0.50876621108E+03  0.58056597534E+02  0.90314981371E+03  0.46999998093E+01 0. -1.
</event>
<event>
 5   0  0.2261755E-04  0.1982326E+04  0.7818609E-02  0.8614929E-01
       -1   -1    0    0    0  501  0.00000000000E+00  0.00000000000E+00  0.80184384329E+03  0.80184384331E+03  0.50400001928E-02 0. -1.
        1   -1    0    0  501    0  0.00000000000E+00  0.00000000000E+00 -0.12251808350E+04  0.12251808350E+04  0.50400001928E-02 0.  1.
    10030    2    1    2    0    0  0.00000000000E+00  0.00000000000E+00 -0.42333699174E+03  0.20270246784E+04  0.19823256135E+04 0.  0.
        1    1    3    3  502    0 -0.35749778027E+03  0.70597428764E+03 -0.82195055937E+03  0.11409676068E+04  0.50400001928E-02 0.  1.
       -1    1    3    3    0  502  0.35749778027E+03 -0.70597428764E+03  0.39861356764E+03  0.88605707154E+03  0.50400001928E-02 0. -1.
</event>
<event>
 5   0  0.2376359E-04  0.1965728E+04  0.7818609E-02  0.8622814E-01
       -1   -1    0    0    0  501  0.00000000000E+00  0.00000000000E+00  0.13471387207E+04  0.13471387207E+04  0.50400001928E-02 0. -1.
        1   -1    0    0  501    0  0.00000000000E+00  0.00000000000E+00 -0.71709113583E+03  0.71709113584E+03  0.50400001928E-02 0.  1.
    10030    2    1    2    0    0  0.00000000000E+00  0.00000000000E+00  0.63004758490E+03  0.20642298566E+04  0.19657275858E+04 0.  0.
        2    1    3    3  502    0  0.12296551545E+03  0.91618258535E+03 -0.35640864748E+02  0.92508449286E+03  0.25500000920E-02 0.  1.
       -2    1    3    3    0  502 -0.12296551545E+03 -0.91618258535E+03  0.66568844965E+03  0.11391453637E+04  0.25500000920E-02 0. -1.
</event>
<event>
 5   0  0.4802635E-04  0.1913305E+04  0.7818609E-02  0.8648262E-01
       -2   -1    0    0    0  501  0.00000000000E+00  0.00000000000E+00  0.40494388818E+03  0.40494388819E+03  0.25500000920E-02 0. -1.
        2   -1    0    0  501    0  0.00000000000E+00  0.00000000000E+00 -0.22600272863E+04  0.22600272863E+04  0.25500000920E-02 0.  1.
    10030    2    1    2    0    0  0.00000000000E+00  0.00000000000E+00 -0.18550833981E+04  0.26649711745E+04  0.19133052414E+04 0.  0.
        3    1    3    3  502    0  0.50207719499E+03 -0.28779655717E+03 -0.19885664280E+04  0.20710636922E+04  0.10100000352E+00 0.  1.
       -3    1    3    3    0  502 -0.50207719499E+03  0.28779655717E+03  0.13348302995E+03  0.59390748230E+03  0.10100000352E+00 0. -1.
</event>
<event>
 5   0  0.4761944E-04  0.1923235E+04  0.7818609E-02  0.8643376E-01
       -2   -1    0    0    0  501  0.00000000000E+00  0.00000000000E+00  0.49254639662E+03  0.49254639663E+03  0.25500000920E-02 0.  1.
        2   -1    0    0  501    0  0.00000000000E+00  0.00000000000E+00 -0.18774040903E+04  0.18774040903E+04  0.25500000920E-02 0. -1.
    10030    2    1    2    0    0  0.00000000000E+00  0.00000000000E+00 -0.13848576937E+04  0.23699504869E+04  0.19232354195E+04 0.  0.
        4    1    3    3  502    0 -0.11960594806E+03  0.61109603298E+03 -0.15954107155E+04  0.17126239834E+04  0.12699999809E+01 0. -1.
       -4    1    3    3    0  502  0.11960594806E+03 -0.61109603298E+03  0.21055302186E+03  0.65732650354E+03  0.12699999809E+01 0.  1.
</event>
<event>
 5   0  0.4973411E-04  0.1926137E+04  0.7818609E-02  0.8641955E-01
        2   -1    0    0  501    0  0.00000000000E+00  0.00000000000E+00  0.76165236252E+03  0.76165236252E+03  0.25500000920E-02 0. -1.
       -2   -1    0    0    0  501  0.00000000000E+00  0.00000000000E+00 -0.12177479142E+04  0.12177479142E+04  0.25500000920E-02 0.  1.
    10030    2    1    2    0    0  0.00000000000E+00  0.00000000000E+00 -0.45609555167E+03  0.19794002767E+04  0.19261366263E+04 0.  0.
        1    1    3    3  502    0 -0.29728722542E+03  0.60211320973E+03  0.48139063809E+03  0.82623057205E+03  0.50400001928E-02 0. -1.
       -1    1    3    3    0  502  0.29728722542E+03 -0.60211320973E+03 -0.93748618976E+03  0.11531697047E+04  0.50400001928E-02 0.  1.
</event>
<event>
 5   0  0.4802635E-04  0.1880774E+04  0.7818609E-02  0.8664486E-01
        2   -1    0    0  501    0  0.00000000000E+00  0.00000000000E+00  0.18971558538E+04  0.18971558538E+04  0.25500000920E-02 0. -1.
       -2   -1    0    0    0  501  0.00000000000E+00  0.00000000000E+00 -0.46613321952E+03  0.46613321953E+03  0.25500000920E-02 0.  1.
    10030    2    1    2    0    0  0.00000000000E+00  0.00000000000E+00  0.14310226343E+04  0.23632890733E+04  0.18807736345E+04 0.  0.
        3    1    3    3  502    0 -0.49500602132E+03 -0.67399283005E+03  0.12560184923E+04  0.15089333184E+04  0.10100000352E+00 0. -1.
       -3    1    3    3    0  502  0.49500602132E+03  0.67399283005E+03  0.17500414198E+03  0.85435575495E+03  0.10100000352E+00 0.  1.
</event>
<event>
 5   0  0.2355414E-04  0.1704476E+04  0.7818609E-02  0.8758815E-01
       -1   -1    0    0    0  501  0.00000000000E+00  0.00000000000E+00  0.85635553998E+03  0.85635554000E+03  0.50400001928E-02 0.  1.
        1   -1    0    0  501    0  0.00000000000E+00  0.00000000000E+00 -0.84814059075E+03  0.84814059077E+03  0.50400001928E-02 0. -1.
    10030    2    1    2    0    0  0.00000000000E+00  0.00000000000E+00  0.82149492273E+01  0.17044961308E+04  0.17044763344E+04 0.  0.
        5    1    3    3  502    0  0.29539630803E+03  0.35388983511E+03 -0.71269287708E+03  0.84879339136E+03  0.46999998093E+01 0. -1.
       -5    1    3    3    0  502 -0.29539630803E+03 -0.35388983511E+03  0.72090782630E+03  0.85570273940E+03  0.46999998093E+01 0.  1.
</event>
<event>
 5   0  0.2510069E-04  0.1632716E+04  0.7818609E-02  0.8800698E-01
       -1   -1    0    0    0  501  0.00000000000E+00  0.00000000000E+00  0.77837018255E+03  0.77837018257E+03  0.50400001928E-02 0. -1.
        1   -1    0    0  501    0  0.00000000000E+00  0.00000000000E+00 -0.85619956049E+03  0.85619956050E+03  0.50400001928E-02 0.  1.
    10030    2    1    2    0    0  0.00000000000E+00  0.00000000000E+00 -0.77829377933E+02  0.16345697431E+04  0.16327157845E+04 0.  0.
        4    1    3    3  502    0  0.52730718229E+03  0.62298149585E+03 -0.55660506836E+02  0.81808221689E+03  0.12699999809E+01 0.  1.
       -4    1    3    3    0  502 -0.52730718229E+03 -0.62298149585E+03 -0.22168871097E+02  0.81648752618E+03  0.12699999809E+01 0. -1.
</event>
<event>
 5   0  0.2355414E-04  0.1942452E+04  0.7818609E-02  0.8634009E-01
       -1   -1    0    0    0  501  0.00000000000E+00  0.00000000000E+00  0.64143591778E+03  0.64143591780E+03  0.50400001928E-02 0. -1.
        1   -1    0    0  501    0  0.00000000000E+00  0.00000000000E+00 -0.14705754704E+04  0.14705754704E+04  0.50400001928E-02 0.  1.
    10030    2    1    2    0    0  0.00000000000E+00  0.00000000000E+00 -0.82913955258E+03  0.21120113882E+04  0.19424519830E+04 0.  0.
        5    1    3    3  502    0 -0.66123102426E+03 -0.39513356725E+03 -0.10577289254E+04  0.13084989771E+04  0.46999998093E+01 0.  1.
       -5    1    3    3    0  502  0.66123102426E+03  0.39513356725E+03  0.22858937281E+03  0.80351241109E+03  0.46999998093E+01 0. -1.
</event>
<event>
 5   0  0.2261755E-04  0.1666817E+04  0.7818609E-02  0.8780520E-01
       -1   -1    0    0    0  501  0.00000000000E+00  0.00000000000E+00  0.35922569151E+03  0.35922569155E+03  0.50400001928E-02 0.  1.
        1   -1    0    0  501    0  0.00000000000E+00  0.00000000000E+00 -0.19335186872E+04  0.19335186872E+04  0.50400001928E-02 0. -1.
    10030    2    1    2    0    0  0.00000000000E+00  0.00000000000E+00 -0.15742929957E+04  0.22927443788E+04  0.16668168316E+04 0.  0.
        1    1    3    3  502    0  0.23210550543E+03  0.37731863782E+03  0.18386659478E+03  0.47963449083E+03  0.50400001928E-02 0. -1.
       -1    1    3    3    0  502 -0.23210550543E+03 -0.37731863782E+03 -0.17581595905E+04  0.18131098880E+04  0.50400001928E-02 0.  1.
</event>
<event>
 5   0  0.4761944E-04  0.1875888E+04  0.7818609E-02  0.8666952E-01
       -2   -1    0    0    0  501  0.00000000000E+00  0.00000000000E+00  0.12336162076E+04  0.12336162076E+04  0.25500000920E-02 0.  1.
        2   -1    0    0  501    0  0.00000000000E+00  0.00000000000E+00 -0.71313844685E+03  0.71313844685E+03  0.25500000920E-02 0. -1.
    10030    2    1    2    0    0  0.00000000000E+00  0.00000000000E+00  0.52047776078E+03  0.19467546545E+04  0.18758882124E+04 0.  0.
        4    1    3    3  502    0 -0.42671143104E+03  0.72283158321E+03 -0.17410466955E+03  0.85725270015E+03  0.12699999809E+01 0. -1.
       -4    1    3    3    0  502  0.42671143104E+03 -0.72283158321E+03  0.69458243033E+03  0.10895019543E+04  0.12699999809E+01 0.  1.
</event>
<event>
 5   0  0.4973411E-04  0.1927621E+04  0.7818609E-02  0.8641228E-01
        2   -1    0    0  501    0  0.00000000000E+00  0.00000000000E+00  0.93890726599E+03  0.93890726600E+03  0.25500000920E-02 0. -1.
       -2   -1    0    0    0  501  0.00000000000E+00  0.00000000000E+00 -0.98937466225E+03  0.98937466226E+03  0.25500000920E-02 0.  1.
    10030    2    1    2    0    0  0.00000000000E+00  0.00000000000E+00 -0.50467396260E+02  0.19282819283E+04  0.19276213935E+04 0.  0.
        1    1    3    3  502    0 -0.49269334476E+03  0.10302995748E+03  0.79697809127E+03  0.94262186592E+03  0.50400001928E-02 0. -1.
       -1    1    3    3    0  502  0.49269334476E+03 -0.10302995748E+03 -0.84744548753E+03  0.98566006233E+03  0.50400001928E-02 0.  1.
</event>
<event>
 5   0  0.4829134E-04  0.1906129E+04  0.7818609E-02  0.8651812E-01
       -2   -1    0    0    0  501  0.00000000000E+00  0.00000000000E+00  0.64409230948E+03  0.64409230949E+03  0.25500000920E-02 0. -1.
        2   -1    0    0  501    0  0.00000000000E+00  0.00000000000E+00 -0.14102512927E+04  0.14102512927E+04  0.25500000920E-02 0.  1.
    10030    2    1    2    0    0  0.00000000000E+00  0.00000000000E+00 -0.76615898321E+03  0.20543436022E+04  0.19061290744E+04 0.  0.
        2    1    3    3  502    0 -0.29665801950E+03  0.81008250067E+03 -0.81966063782E+03  0.11899929410E+04  0.25500000920E-02 0.  1.
       -2    1    3    3    0  502  0.29665801950E+03 -0.81008250067E+03  0.53501654611E+02  0.86435066118E+03  0.25500000920E-02 0. -1.
</event>
<event>
 5   0  0.2317458E-04  0.1895390E+04  0.7818609E-02  0.8657155E-01
       -1   -1    0    0    0  501  0.00000000000E+00  0.00000000000E+00  0.76872209889E+03  0.76872209891E+03  0.50400001928E-02 0. -1.
        1   -1    0    0  501    0  0.00000000000E+00  0.00000000000E+00 -0.11683360552E+04  0.11683360552E+04  0.50400001928E-02 0.  1.
    10030    2    1    2    0    0  0.00000000000E+00  0.00000000000E+00 -0.39961395629E+03  0.19370581541E+04  0.18953899278E+04 0.  0.
        3    1    3    3  502    0  0.81991491835E+03 -0.21532219692E+01  0.28588882781E+03  0.86833031835E+03  0.10100000352E+00 0.  1.
       -3    1    3    3    0  502 -0.81991491835E+03  0.21532219692E+01 -0.68550278410E+03  0.10687278358E+04  0.10100000352E+00 0. -1.
</event>
<event>
 5   0  0.4802635E-04  0.1863635E+04  0.7818609E-02  0.8673172E-01
       -2   -1    0    0    0  501  0.00000000000E+00  0.00000000000E+00  0.73991974591E+03  0.73991974591E+03  0.25500000920E-02 0. -1.
        2   -1    0    0  501    0  0.00000000000E+00  0.00000000000E+00 -0.11734841189E+04  0.11734841189E+04  0.25500000920E-02 0.  1.
    10030    2    1    2    0    0  0.00000000000E+00  0.00000000000E+00 -0.43356437303E+03  0.19134038649E+04  0.18636352338E+04 0.  0.
        3    1    3    3  502    0  0.32318671965E+03 -0.69605581802E+03  0.32585911466E+03  0.83374308414E+03  0.10100000352E+00 0. -1.
       -3    1    3    3    0  502 -0.32318671965E+03  0.69605581802E+03 -0.75942348769E+03  0.10796607807E+04  0.10100000352E+00 0.  1.
</event>
<event>
 5   0  0.4839293E-04  0.1919343E+04  0.7818609E-02  0.8645288E-01
       -2   -1    0    0    0  501  0.00000000000E+00  0.00000000000E+00  0.77162834880E+03  0.77162834881E+03  0.25500000920E-02 0. -1.
        2   -1    0    0  501    0  0.00000000000E+00  0.00000000000E+00 -0.11935400854E+04  0.11935400854E+04  0.25500000920E-02 0.  1.
    10030    2    1    2    0    0  0.00000000000E+00  0.00000000000E+00 -0.42191173656E+03  0.19651684342E+04  0.19193429764E+04 0.  0.
        5    1    3    3  502    0  0.38692654521E+03 -0.41027511344E+03 -0.10059670540E+04  0.11532691030E+04  0.46999998093E+01 0.  1.
       -5    1    3    3    0  502 -0.38692654521E+03  0.41027511344E+03  0.58405531748E+03  0.81189933118E+03  0.46999998093E+01 0. -1.
</event>
<event>
 5   0  0.4973411E-04  0.1876741E+04  0.7818609E-02  0.8666521E-01
       -2   -1    0    0    0  501  0.00000000000E+00  0.00000000000E+00  0.10736317695E+04  0.10736317695E+04  0.25500000920E-02 0.  1.
        2   -1    0    0  501    0  0.00000000000E+00  0.00000000000E+00 -0.82015023838E+03  0.82015023839E+03  0.25500000920E-02 0. -1.
    10030    2    1    2    0    0  0.00000000000E+00  0.00000000000E+00  0.25348153109E+03  0.18937820079E+04  0.18767411667E+04 0.  0.
        1    1    3    3  502    0  0.36805114515E+03  0.48750067669E+02 -0.74288550353E+03  0.83049207457E+03  0.50400001928E-02 0. -1.
       -1    1    3    3    0  502 -0.36805114515E+03 -0.48750067669E+02  0.99636703462E+03  0.10632899333E+04  0.50400001928E-02 0.  1.
</event>
<event>
 5   0  0.2317458E-04  0.1942509E+04  0.7818609E-02  0.8633982E-01
       -1   -1    0    0    0  501  0.00000000000E+00  0.00000000000E+00  0.57768224759E+03  0.57768224761E+03  0.50400001928E-02 0. -1.
        1   -1    0    0  501    0  0.00000000000E+00  0.00000000000E+00 -0.16329652389E+04  0.16329652389E+04  0.50400001928E-02 0.  1.
    10030    2    1    2    0    0  0.00000000000E+00  0.00000000000E+00 -0.10552829913E+04  0.22106474866E+04  0.19425087176E+04 0.  0.
        3    1    3    3  502    0 -0.45852340869E+03  0.82599052382E+03 -0.27106275825E+03  0.98284235301E+03  0.10100000352E+00 0. -1.
       -3    1    3    3    0  502  0.45852340869E+03 -0.82599052382E+03 -0.78422023310E+03  0.12278051335E+04  0.10100000352E+00 0.  1.
</event>
<event>
 5   0  0.2510069E-04  0.1884675E+04  0.7818609E-02  0.8662522E-01
        1   -1    0    0  501    0  0.00000000000E+00  0.00000000000E+00  0.67341068899E+03  0.67341068901E+03  0.50400001928E-02 0. -1.
       -1   -1    0    0    0  501  0.00000000000E+00  0.00000000000E+00 -0.13186605462E+04  0.13186605462E+04  0.50400001928E-02 0.  1.
    10030    2    1    2    0    0  0.00000000000E+00  0.00000000000E+00 -0.64524985721E+03  0.19920712352E+04  0.18846751518E+04 0.  0.
        4    1    3    3  502    0  0.20388465662E+03 -0.31931755440E+03 -0.12346163376E+04  0.12914378683E+04  0.12699999809E+01 0.  1.
       -4    1    3    3    0  502 -0.20388465662E+03  0.31931755440E+03  0.58936648038E+03  0.70063336692E+03  0.12699999809E+01 0. -1.
</event>
<event>
 5   0  0.2317458E-04  0.1872746E+04  0.7818609E-02  0.8668542E-01
       -1   -1    0    0    0  501  0.00000000000E+00  0.00000000000E+00  0.21938639680E+04  0.21938639681E+04  0.50400001928E-02 0.  1.
        1   -1    0    0  501    0  0.00000000000E+00  0.00000000000E+00 -0.39965772140E+03  0.39965772144E+03  0.50400001928E-02 0. -1.
    10030    2    1    2    0    0  0.00000000000E+00  0.00000000000E+00  0.17942062466E+04  0.25935216895E+04  0.18727462984E+04 0.  0.
        3    1    3    3  502    0  0.84808380674E+03 -0.68286990664E+02  0.35560874115E+03  0.92215337300E+03  0.10100000352E+00 0. -1.
       -3    1    3    3    0  502 -0.84808380674E+03  0.68286990664E+02  0.14385975055E+04  0.16713683165E+04  0.10100000352E+00 0.  1.
</event>
<event>
 5   0  0.4761944E-04  0.1901055E+04  0.7818609E-02  0.8654332E-01
        2   -1    0    0  501    0  0.00000000000E+00  0.00000000000E+00  0.83784493288E+03  0.83784493289E+03  0.25500000920E-02 0.  1.
       -2   -1    0    0    0  501  0.00000000000E+00  0.00000000000E+00 -0.10783645174E+04  0.10783645174E+04  0.25500000920E-02 0. -1.
    10030    2    1    2    0    0  0.00000000000E+00  0.00000000000E+00 -0.24051958454E+03  0.19162094503E+04  0.19010547038E+04 0.  0.
        4    1    3    3  502    0  0.10174835381E+02 -0.83846632229E+03 -0.57145674432E+03  0.10147382541E+04  0.12699999809E+01 0. -1.
       -4    1    3    3    0  502 -0.10174835381E+02  0.83846632229E+03  0.33093715978E+03  0.90147119617E+03  0.12699999809E+01 0.  1.
</event>
<event>
 5   0  0.4839293E-04  0.1929342E+04  0.7818609E-02  0.8640387E-01
       -2   -1    0    0    0  501  0.00000000000E+00  0.00000000000E+00  0.10563880441E+04  0.10563880441E+04  0.25500000920E-02 0. -1.
        2   -1    0    0  501    0  0.00000000000E+00  0.00000000000E+00 -0.88091722902E+03  0.88091722902E+03  0.25500000920E-02 0.  1.
    10030    2    1    2    0    0  0.00000000000E+00  0.00000000000E+00  0.17547081505E+03  0.19373052731E+04  0.19293423010E+04 0.  0.
        5    1    3    3  502    0 -0.12052914701E+03  0.92750261866E+03  0.32488798907E+03  0.99013265694E+03  0.46999998093E+01 0. -1.
       -5    1    3    3    0  502  0.12052914701E+03 -0.92750261866E+03 -0.14941717401E+03  0.94717261616E+03  0.46999998093E+01 0.  1.
</event>
<event>
 5   0  0.4829134E-04  0.1864819E+04  0.7818609E-02  0.8672569E-01
       -2   -1    0    0    0  501  0.00000000000E+00  0.00000000000E+00  0.69463139606E+03  0.69463139607E+03  0.25500000920E-02 0. -1.
        2   -1    0    0  501    0  0.00000000000E+00  0.00000000000E+00 -0.12515814032E+04  0.12515814032E+04  0.25500000920E-02 0.  1.
    10030    2    1    2    0    0  0.00000000000E+00  0.00000000000E+00 -0.55695000711E+03  0.19462127992E+04  0.18648192807E+04 0.  0.
        2    1    3    3  502    0  0.24568210414E+03 -0.52596803702E+03 -0.10399694672E+04  0.11910241664E+04  0.25500000920E-02 0.  1.
       -2    1    3    3    0  502 -0.24568210414E+03  0.52596803702E+03  0.48301946012E+03  0.75518863281E+03  0.25500000920E-02 0. -1.
</event>
<event>
 5   0  0.4802635E-04  0.1806218E+04  0.7818609E-02  0.8703000E-01
        2   -1    0    0  501    0  0.00000000000E+00  0.00000000000E+00  0.21675720879E+04  0.21675720879E+04  0.25500000920E-02 0. -1.
       -2   -1    0    0    0  501  0.00000000000E+00  0.00000000000E+00 -0.37627638211E+03  0.37627638211E+03  0.25500000920E-02 0.  1.
    10030    2    1    2    0    0  0.00000000000E+00  0.00000000000E+00  0.17912957058E+04  0.25438484700E+04  0.18062183514E+04 0.  0.
        3    1    3    3  502    0  0.50471149427E+03  0.57399085349E+03  0.15731477217E+04  0.17489977007E+04  0.10100000352E+00 0. -1.
       -3    1    3    3    0  502 -0.50471149427E+03 -0.57399085349E+03  0.21814798402E+03  0.79485076931E+03  0.10100000352E+00 0.  1.
</event>
<event>
 5   0  0.4829134E-04  0.1841405E+04  0.7818609E-02  0.8684585E-01
       -2   -1    0    0    0  501  0.00000000000E+00  0.00000000000E+00  0.45396741381E+03  0.45396741381E+03  0.25500000920E-02 0. -1.
        2   -1    0    0  501    0  0.00000000000E+00  0.00000000000E+00 -0.18672993579E+04  0.18672993579E+04  0.25500000920E-02 0.  1.
    10030    2    1    2    0    0  0.00000000000E+00  0.00000000000E+00 -0.14133319441E+04  0.23212667718E+04  0.18414049640E+04 0.  0.
        2    1    3    3  502    0  0.28224393796E+03  0.21466774133E+02 -0.18110876187E+04  0.18330741463E+04  0.25500000920E-02 0.  1.
       -2    1    3    3    0  502 -0.28224393796E+03 -0.21466774133E+02  0.39775567461E+03  0.48819262550E+03  0.25500000920E-02 0. -1.
</event>
<event>
 5   0  0.4802635E-04  0.1833574E+04  0.7818609E-02  0.8688646E-01
        2   -1    0    0  501    0  0.00000000000E+00  0.00000000000E+00  0.20558212577E+04  0.20558212577E+04  0.25500000920E-02 0.  1.
       -2   -1    0    0    0  501  0.00000000000E+00  0.00000000000E+00 -0.40883806228E+03  0.40883806229E+03  0.25500000920E-02 0. -1.
    10030    2    1    2    0    0  0.00000000000E+00  0.00000000000E+00  0.16469831955E+04  0.24646593200E+04  0.18335735376E+04 0.  0.
        3    1    3    3  502    0  0.33350009759E+03  0.74375180732E+03  0.25940053280E+03  0.85538161811E+03  0.10100000352E+00 0.  1.
       -3    1    3    3    0  502 -0.33350009759E+03 -0.74375180732E+03  0.13875826627E+04  0.16092777019E+04  0.10100000352E+00 0. -1.
</event>
<event>
 5   0  0.4802635E-04  0.1887568E+04  0.7818609E-02  0.8661070E-01
       -2   -1    0    0    0  501  0.00000000000E+00  0.00000000000E+00  0.39403822611E+03  0.39403822612E+03  0.25500000920E-02 0.  1.
        2   -1    0    0  501    0  0.00000000000E+00  0.00000000000E+00 -0.22605112675E+04  0.22605112675E+04  0.25500000920E-02 0. -1.
    10030    2    1    2    0    0  0.00000000000E+00  0.00000000000E+00 -0.18664730414E+04  0.26545494936E+04  0.18875675882E+04 0.  0.
        3    1    3    3  502    0 -0.66572446244E+02  0.35336999376E+03 -0.21603989539E+04  0.21901200637E+04  0.10100000352E+00 0. -1.
       -3    1    3    3    0  502  0.66572446244E+02 -0.35336999376E+03  0.29392591256E+03  0.46442942990E+03  0.10100000352E+00 0.  1.
</event>
<event>
 5   0  0.4761944E-04  0.1888849E+04  0.7818609E-02  0.8660427E-01
       -2   -1    0    0    0  501  0.00000000000E+00  0.00000000000E+00  0.54556146151E+03  0.54556146151E+03  0.25500000920E-02 0. -1.
        2   -1    0    0  501    0  0.00000000000E+00  0.00000000000E+00 -0.16348990302E+04  0.16348990302E+04  0.25500000920E-02 0.  1.
    10030    2    1    2    0    0  0.00000000000E+00  0.00000000000E+00 -0.10893375687E+04  0.21804604917E+04  0.18888492839E+04 0.  0.
        4    1    3    3  502    0 -0.62995703634E+03 -0.69381141451E+03 -0.67986575112E+03  0.11577733798E+04  0.12699999809E+01 0.  1.
       -4    1    3    3    0  502  0.62995703634E+03  0.69381141451E+03 -0.40947181754E+03  0.10226871119E+04  0.12699999809E+01 0. -1.
</event>
<event>
 5   0  0.2355414E-04  0.1921448E+04  0.7818609E-02  0.8644253E-01
       -1   -1    0    0    0  501  0.00000000000E+00  0.00000000000E+00  0.10973824359E+04  0.10973824359E+04  0.50400001928E-02 0. -1.
        1   -1    0    0  501    0  0.00000000000E+00  0.00000000000E+00 -0.84108407767E+03  0.84108407769E+03  0.50400001928E-02 0.  1.
    10030    2    1    2    0    0  0.00000000000E+00  0.00000000000E+00  0.25629835825E+03  0.19384665136E+04  0.19214483017E+04 0.  0.
        5    1    3    3  502    0  0.23538853514E+02 -0.41686017117E+02  0.10961667641E+04  0.10972217034E+04  0.46999998093E+01 0. -1.
       -5    1    3    3    0  502 -0.23538853514E+02  0.41686017117E+02 -0.83986840584E+03  0.84124481025E+03  0.46999998093E+01 0.  1.
</event>
<event>
 5   0  0.2376359E-04  0.1880855E+04  0.7818609E-02  0.8664445E-01
        1   -1    0    0  501    0  0.00000000000E+00  0.00000000000E+00  0.11479382633E+04  0.11479382633E+04  0.50400001928E-02 0.  1.
       -1   -1    0    0    0  501  0.00000000000E+00  0.00000000000E+00 -0.77042786818E+03  0.77042786819E+03  0.50400001928E-02 0. -1.
    10030    2    1    2    0    0  0.00000000000E+00  0.00000000000E+00  0.37751039510E+03  0.19183661315E+04  0.18808547302E+04 0.  0.
        2    1    3    3  502    0 -0.21164289207E+03  0.58816082129E+03 -0.52787982345E+03  0.81815828143E+03  0.25500000920E-02 0. -1.
       -2    1    3    3    0  502  0.21164289207E+03 -0.58816082129E+03  0.90539021855E+03  0.11002078500E+04  0.25500000920E-02 0.  1.
</event>
<event>
 5   0  0.2376359E-04  0.1903284E+04  0.7818609E-02  0.8653223E-01
       -1   -1    0    0    0  501  0.00000000000E+00  0.00000000000E+00  0.74334539992E+03  0.74334539994E+03  0.50400001928E-02 0. -1.
        1   -1    0    0  501    0  0.00000000000E+00  0.00000000000E+00 -0.12183070157E+04  0.12183070157E+04  0.50400001928E-02 0.  1.
    10030    2    1    2    0    0  0.00000000000E+00  0.00000000000E+00 -0.47496161574E+03  0.19616524156E+04  0.19032844410E+04 0.  0.
        2    1    3    3  502    0 -0.50016739181E+03  0.18716889074E+03  0.57434417225E+03  0.78426452278E+03  0.25500000920E-02 0. -1.
       -2    1    3    3    0  502  0.50016739181E+03 -0.18716889074E+03 -0.10493057880E+04  0.11773878928E+04  0.25500000920E-02 0.  1.
</event>
<event>
 5   0  0.2317458E-04  0.1937967E+04  0.7818609E-02  0.8636185E-01
        1   -1    0    0  501    0  0.00000000000E+00  0.00000000000E+00  0.10718082805E+04  0.10718082805E+04  0.50400001928E-02 0. -1.
       -1   -1    0    0    0  501  0.00000000000E+00  0.00000000000E+00 -0.87602308092E+03  0.87602308094E+03  0.50400001928E-02 0.  1.
    10030    2    1    2    0    0  0.00000000000E+00  0.00000000000E+00  0.19578519953E+03  0.19478313614E+04  0.19379667614E+04 0.  0.
        3    1    3    3  502    0 -0.97711565884E+02  0.31206016829E+03 -0.81889052441E+03  0.88176572848E+03  0.10100000352E+00 0.  1.
       -3    1    3    3    0  502  0.97711565884E+02 -0.31206016829E+03  0.10146757239E+04  0.10660656329E+04  0.10100000352E+00 0. -1.
</event>
<event>
 5   0  0.4973411E-04  0.1830401E+04  0.7818609E-02  0.8690297E-01
       -2   -1    0    0    0  501  0.00000000000E+00  0.00000000000E+00  0.89761375305E+03  0.89761375305E+03  0.25500000920E-02 0.  1.
        2   -1    0    0  501    0  0.00000000000E+00  0.00000000000E+00 -0.93313210342E+03  0.93313210343E+03  0.25500000920E-02 0. -1.
    10030    2    1    2    0    0  0.00000000000E+00  0.00000000000E+00 -0.35518350379E+02  0.18307458565E+04  0.18304012778E+04 0.  0.
        1    1    3    3  502    0  0.68632907642E+03  0.57675857451E+03 -0.20189748617E+03  0.91894540064E+03  0.50400001928E-02 0.  1.
       -1    1    3    3    0  502 -0.68632907642E+03 -0.57675857451E+03  0.16637913579E+03  0.91180045584E+03  0.50400001928E-02 0. -1.
</event>
<event>
 5   0  0.2317458E-04  0.1278207E+04  0.7818609E-02  0.9047028E-01
        1   -1    0    0  501    0  0.00000000000E+00  0.00000000000E+00  0.17287296856E+04  0.17287296856E+04  0.50400001928E-02 0.  1.
       -1   -1    0    0    0  501  0.00000000000E+00  0.00000000000E+00 -0.23627360752E+03  0.23627360757E+03  0.50400001928E-02 0. -1.
    10030    2    1    2    0    0  0.00000000000E+00  0.00000000000E+00  0.14924560781E+04  0.19650032932E+04  0.12782068679E+04 0.  0.
        3    1    3    3  502    0 -0.66063749313E+02 -0.43438319228E+03  0.14597132866E+04  0.15244067915E+04  0.10100000352E+00 0.  1.
       -3    1    3    3    0  502  0.66063749313E+02  0.43438319228E+03  0.32742791502E+02  0.44059650169E+03  0.10100000352E+00 0. -1.
</event>
<event>
 5   0  0.4802635E-04  0.1905644E+04  0.7818609E-02  0.8652052E-01
        2   -1    0    0  501    0  0.00000000000E+00  0.00000000000E+00  0.15362822841E+04  0.15362822841E+04  0.25500000920E-02 0.  1.
       -2   -1    0    0    0  501  0.00000000000E+00  0.00000000000E+00 -0.59095218403E+03  0.59095218404E+03  0.25500000920E-02 0. -1.
    10030    2    1    2    0    0  0.00000000000E+00  0.00000000000E+00  0.94533010008E+03  0.21272344682E+04  0.19056435880E+04 0.  0.
        3    1    3    3  502    0 -0.75527734049E+03 -0.51437018639E+03  0.17137491093E+03  0.92972572300E+03  0.10100000352E+00 0. -1.
       -3    1    3    3    0  502  0.75527734049E+03  0.51437018639E+03  0.77395518915E+03  0.11975087452E+04  0.10100000352E+00 0.  1.
</event>
<event>
 5   0  0.2261755E-04  0.1672041E+04  0.7818609E-02  0.8777473E-01
        1   -1    0    0  501    0  0.00000000000E+00  0.00000000000E+00  0.87490358920E+03  0.87490358922E+03  0.50400001928E-02 0.  1.
       -1   -1    0    0    0  501  0.00000000000E+00  0.00000000000E+00 -0.79886532505E+03  0.79886532506E+03  0.50400001928E-02 0. -1.
    10030    2    1    2    0    0  0.00000000000E+00  0.00000000000E+00  0.76038264155E+02  0.16737689143E+04  0.16720408371E+04 0.  0.
        1    1    3    3  502    0  0.23183562041E+03 -0.75188480602E+03  0.32089147881E+03  0.84973516911E+03  0.50400001928E-02 0. -1.
       -1    1    3    3    0  502 -0.23183562041E+03  0.75188480602E+03 -0.24485321466E+03  0.82403374517E+03  0.50400001928E-02 0.  1.
</event>
<event>
 5   0  0.4761944E-04  0.2026447E+04  0.7818609E-02  0.8594355E-01
        2   -1    0    0  501    0  0.00000000000E+00  0.00000000000E+00  0.10558983336E+04  0.10558983336E+04  0.25500000920E-02 0.  1.
       -2   -1    0    0    0  501  0.00000000000E+00  0.00000000000E+00 -0.97227338868E+03  0.97227338869E+03  0.25500000920E-02 0. -1.
    10030    2    1    2    0    0  0.00000000000E+00  0.00000000000E+00  0.83624944872E+02  0.20281717222E+04  0.20264469901E+04 0.  0.
        4    1    3    3  502    0 -0.78856005774E+03  0.63341402428E+03  0.10169605637E+03  0.10165549624E+04  0.12699999809E+01 0. -1.
       -4    1    3    3    0  502  0.78856005774E+03 -0.63341402428E+03 -0.18071111502E+02  0.10116167598E+04  0.12699999809E+01 0.  1.
</event>
<event>
 5   0  0.4761944E-04  0.1524818E+04  0.7818609E-02  0.8868115E-01
       -2   -1    0    0    0  501  0.00000000000E+00  0.00000000000E+00  0.20490528618E+03  0.20490528620E+03  0.25500000920E-02 0. -1.
        2   -1    0    0  501    0  0.00000000000E+00  0.00000000000E+00 -0.28367627596E+04  0.28367627596E+04  0.25500000920E-02 0.  1.
    10030    2    1    2    0    0  0.00000000000E+00  0.00000000000E+00 -0.26318574734E+04  0.30416680458E+04  0.15248182647E+04 0.  0.
        4    1    3    3  502    0  0.14742846965E+03  0.71784364589E+03 -0.89640246345E+03  0.11578314398E+04  0.12699999809E+01 0. -1.
       -4    1    3    3    0  502 -0.14742846965E+03 -0.71784364589E+03 -0.17354550100E+04  0.18838366060E+04  0.12699999809E+01 0.  1.
</event>
<event>
 5   0  0.2355414E-04  0.1637549E+04  0.7818609E-02  0.8797807E-01
       -1   -1    0    0    0  501  0.00000000000E+00  0.00000000000E+00  0.56240635572E+03  0.56240635574E+03  0.50400001928E-02 0.  1.
        1   -1    0    0  501    0  0.00000000000E+00  0.00000000000E+00 -0.11920053938E+04  0.11920053938E+04  0.50400001928E-02 0. -1.
    10030    2    1    2    0    0  0.00000000000E+00  0.00000000000E+00 -0.62959903803E+03  0.17544117495E+04  0.16375486674E+04 0.  0.
        5    1    3    3  502    0  0.43649565844E+03  0.59256794554E+03  0.69556321421E+02  0.73927356355E+03  0.46999998093E+01 0.  1.
       -5    1    3    3    0  502 -0.43649565844E+03 -0.59256794554E+03 -0.69915535945E+03  0.10151381859E+04  0.46999998093E+01 0. -1.
</event>
<event>
 5   0  0.2317458E-04  0.1911703E+04  0.7818609E-02  0.8649053E-01
       -1   -1    0    0    0  501  0.00000000000E+00  0.00000000000E+00  0.11949537075E+04  0.11949537075E+04  0.50400001928E-02 0. -1.
        1   -1    0    0  501    0  0.00000000000E+00  0.00000000000E+00 -0.76459187778E+03  0.76459187780E+03  0.50400001928E-02 0.  1.
    10030    2    1    2    0    0  0.00000000000E+00  0.00000000000E+00  0.43036182970E+03  0.19595455853E+04  0.19117028002E+04 0.  0.
        3    1    3    3  502    0  0.61950631038E+03  0.67662147073E+03  0.49031447340E+03  0.10401985273E+04  0.10100000352E+00 0. -1.
       -3    1    3    3    0  502 -0.61950631038E+03 -0.67662147073E+03 -0.59952643706E+02  0.91934705794E+03  0.10100000352E+00 0.  1.
</event>
<event>
 5   0  0.2376359E-04  0.1858009E+04  0.7818609E-02  0.8676045E-01
       -1   -1    0    0    0  501  0.00000000000E+00  0.00000000000E+00  0.56237732874E+03  0.56237732877E+03  0.50400001928E-02 0. -1.
        1   -1    0    0  501    0  0.00000000000E+00  0.00000000000E+00 -0.15346448684E+04  0.15346448684E+04  0.50400001928E-02 0.  1.
    10030    2    1    2    0    0  0.00000000000E+00  0.00000000000E+00 -0.97226753964E+03  0.20970221972E+04  0.18580091299E+04 0.  0.
        2    1    3    3  502    0  0.90950335895E+03  0.27671530226E+02 -0.27472118884E+03  0.95049134932E+03  0.25500000920E-02 0.  1.
       -2    1    3    3    0  502 -0.90950335895E+03 -0.27671530226E+02 -0.69754635079E+03  0.11465308478E+04  0.25500000920E-02 0. -1.
</event>
<event>
 5   0  0.4761944E-04  0.1899579E+04  0.7818609E-02  0.8655066E-01
       -2   -1    0    0    0  501  0.00000000000E+00  0.00000000000E+00  0.37163129565E+03  0.37163129566E+03  0.25500000920E-02 0. -1.
        2   -1    0    0  501    0  0.00000000000E+00  0.00000000000E+00 -0.24274073689E+04  0.24274073689E+04  0.25500000920E-02 0.  1.
    10030    2    1    2    0    0  0.00000000000E+00  0.00000000000E+00 -0.20557760732E+04  0.27990386645E+04  0.18995794751E+04 0.  0.
        4    1    3    3  502    0  0.64480266222E+03  0.15817985838E+03 -0.27089341969E+02  0.66447481980E+03  0.12699999809E+01 0. -1.
       -4    1    3    3    0  502 -0.64480266222E+03 -0.15817985838E+03 -0.20286867312E+04  0.21345638447E+04  0.12699999809E+01 0.  1.
</event>
<event>
 5   0  0.2317458E-04  0.1880530E+04  0.7818609E-02  0.8664609E-01
       -1   -1    0    0    0  501  0.00000000000E+00  0.00000000000E+00  0.84647586526E+03  0.84647586527E+03  0.50400001928E-02 0. -1.
        1   -1    0    0  501    0  0.00000000000E+00  0.00000000000E+00 -0.10444459011E+04  0.10444459011E+04  0.50400001928E-02 0.  1.
    10030    2    1    2    0    0  0.00000000000E+00  0.00000000000E+00 -0.19797003582E+03  0.18909217664E+04  0.18805299762E+04 0.  0.
        3    1    3    3  502    0 -0.31136243472E+03  0.87910006232E+03  0.21404422946E+02  0.93285671185E+03  0.10100000352E+00 0. -1.
       -3    1    3    3    0  502  0.31136243472E+03 -0.87910006232E+03 -0.21937445877E+03  0.95806505451E+03  0.10100000352E+00 0.  1.
</event>
<event>
 5   0  0.4829134E-04  0.1918071E+04  0.7818609E-02  0.8645913E-01
       -2   -1    0    0    0  501  0.00000000000E+00  0.00000000000E+00  0.74391333074E+03  0.74391333075E+03  0.25500000920E-02 0.  1.
        2   -1    0    0  501    0  0.00000000000E+00  0.00000000000E+00 -0.12363659575E+04  0.12363659575E+04  0.25500000920E-02 0. -1.
    10030    2    1    2    0    0  0.00000000000E+00  0.00000000000E+00 -0.49245262671E+03  0.19802792882E+04  0.19180710283E+04 0.  0.
        2    1    3    3  502    0  0.58228919188E+03  0.74258705871E+03 -0.42280815216E+03  0.10340517281E+04  0.25500000920E-02 0. -1.
       -2    1    3    3    0  502 -0.58228919188E+03 -0.74258705871E+03 -0.69644474543E+02  0.94622756015E+03  0.25500000920E-02 0.  1.
</event>
<event>
 5   0  0.4761944E-04  0.1671001E+04  0.7818609E-02  0.8778079E-01
        2   -1    0    0  501    0  0.00000000000E+00  0.00000000000E+00  0.87526376397E+03  0.87526376397E+03  0.25500000920E-02 0.  1.
       -2   -1    0    0    0  501  0.00000000000E+00  0.00000000000E+00 -0.79754376129E+03  0.79754376129E+03  0.25500000920E-02 0. -1.
    10030    2    1    2    0    0  0.00000000000E+00  0.00000000000E+00  0.77720002680E+02  0.16728075253E+04  0.16710010825E+04 0.  0.
        4    1    3    3  502    0  0.96297760193E+02 -0.40792485439E+03 -0.68468243457E+03  0.80278739063E+03  0.12699999809E+01 0. -1.
       -4    1    3    3    0  502 -0.96297760193E+02  0.40792485439E+03  0.76240243725E+03  0.87002013463E+03  0.12699999809E+01 0.  1.
</event>
<event>
 5   0  0.2355414E-04  0.1797411E+04  0.7818609E-02  0.8707677E-01
        1   -1    0    0  501    0  0.00000000000E+00  0.00000000000E+00  0.18601081366E+04  0.18601081366E+04  0.50400001928E-02 0. -1.
       -1   -1    0    0    0  501  0.00000000000E+00  0.00000000000E+00 -0.43420691646E+03  0.43420691649E+03  0.50400001928E-02 0.  1.
    10030    2    1    2    0    0  0.00000000000E+00  0.00000000000E+00  0.14259012202E+04  0.22943150531E+04  0.17974112699E+04 0.  0.
        5    1    3    3  502    0 -0.89465042514E+02  0.40344710920E+03  0.17316196145E+04  0.17802533930E+04  0.46999998093E+01 0. -1.
       -5    1    3    3    0  502  0.89465042514E+02 -0.40344710920E+03 -0.30571839438E+03  0.51406166013E+03  0.46999998093E+01 0.  1.
</event>
<event>
 5   0  0.2376359E-04  0.1898671E+04  0.7818609E-02  0.8655518E-01
       -1   -1    0    0    0  501  0.00000000000E+00  0.00000000000E+00  0.59659535119E+03  0.59659535121E+03  0.50400001928E-02 0. -1.
        1   -1    0    0  501    0  0.00000000000E+00  0.00000000000E+00 -0.15106345636E+04  0.15106345636E+04  0.50400001928E-02 0.  1.
    10030    2    1    2    0    0  0.00000000000E+00  0.00000000000E+00 -0.91403921242E+03  0.21072299148E+04  0.18986706487E+04 0.  0.
        2    1    3    3  502    0  0.25987987502E+03 -0.66939140350E+03  0.23217097660E+03  0.75466930698E+03  0.25500000920E-02 0. -1.
       -2    1    3    3    0  502 -0.25987987502E+03  0.66939140350E+03 -0.11462101890E+04  0.13525606079E+04  0.25500000920E-02 0.  1.
</event>
<event>
 5   0  0.4829134E-04  0.1887231E+04  0.7818609E-02  0.8661238E-01
       -2   -1    0    0    0  501  0.00000000000E+00  0.00000000000E+00  0.94846057188E+03  0.94846057188E+03  0.25500000920E-02 0.  1.
        2   -1    0    0  501    0  0.00000000000E+00  0.00000000000E+00 -0.93879530056E+03  0.93879530057E+03  0.25500000920E-02 0. -1.
    10030    2    1    2    0    0  0.00000000000E+00  0.00000000000E+00  0.96652713142E+01  0.18872558724E+04  0.18872311227E+04 0.  0.
        2    1    3    3  502    0  0.16030065960E+03  0.56388117874E+03 -0.73460389514E+03  0.93984103335E+03  0.25500000920E-02 0. -1.
       -2    1    3    3    0  502 -0.16030065960E+03 -0.56388117874E+03  0.74426916645E+03  0.94741483910E+03  0.25500000920E-02 0.  1.
</event>
<event>
 5   0  0.4802635E-04  0.1372218E+04  0.7818609E-02  0.8974178E-01
        2   -1    0    0  501    0  0.00000000000E+00  0.00000000000E+00  0.65014993456E+03  0.65014993457E+03  0.25500000920E-02 0.  1.
       -2   -1    0    0    0  501  0.00000000000E+00  0.00000000000E+00 -0.72405648780E+03  0.72405648781E+03  0.25500000920E-02 0. -1.
    10030    2    1    2    0    0  0.00000000000E+00  0.00000000000E+00 -0.73906553240E+02  0.13742064224E+04  0.13722175894E+04 0.  0.
        3    1    3    3  502    0 -0.41704243833E+03  0.26243236518E+03  0.44117993421E+03  0.66138860454E+03  0.10100000352E+00 0.  1.
       -3    1    3    3    0  502  0.41704243833E+03 -0.26243236518E+03 -0.51508648746E+03  0.71281781783E+03  0.10100000352E+00 0. -1.
</event>
<event>
 5   0  0.4839293E-04  0.9748242E+03  0.7818609E-02  0.9336596E-01
        2   -1    0    0  501    0  0.00000000000E+00  0.00000000000E+00  0.20459823235E+04  0.20459823235E+04  0.25500000920E-02 0. -1.
       -2   -1    0    0    0  501  0.00000000000E+00  0.00000000000E+00 -0.11611564462E+03  0.11611564465E+03  0.25500000920E-02 0.  1.
    10030    2    1    2    0    0  0.00000000000E+00  0.00000000000E+00  0.19298666789E+04  0.21620979681E+04  0.97482420243E+03 0.  0.
        5    1    3    3  502    0 -0.56358444612E+02  0.64333265063E+02  0.20291578348E+04  0.20309649558E+04  0.46999998093E+01 0. -1.
       -5    1    3    3    0  502  0.56358444612E+02 -0.64333265063E+02 -0.99291155936E+02  0.13113301231E+03  0.46999998093E+01 0.  1.
</event>
<event>
 5   0  0.2376359E-04  0.1922964E+04  0.7818609E-02  0.8643510E-01
       -1   -1    0    0    0  501  0.00000000000E+00  0.00000000000E+00  0.15813754341E+04  0.15813754341E+04  0.50400001928E-02 0. -1.
        1   -1    0    0  501    0  0.00000000000E+00  0.00000000000E+00 -0.58458443987E+03  0.58458443989E+03  0.50400001928E-02 0.  1.
    10030    2    1    2    0    0  0.00000000000E+00  0.00000000000E+00  0.99679099419E+03  0.21659598740E+04  0.19229638295E+04 0.  0.
        2    1    3    3  502    0 -0.77942494972E+03 -0.34027774911E+03 -0.67831700911E+01  0.85049292189E+03  0.25500000920E-02 0. -1.
       -2    1    3    3    0  502  0.77942494972E+03  0.34027774911E+03  0.10035741643E+04  0.13154669521E+04  0.25500000920E-02 0.  1.
</event>
<event>
 5   0  0.4829134E-04  0.1832241E+04  0.7818609E-02  0.8689340E-01
       -2   -1    0    0    0  501  0.00000000000E+00  0.00000000000E+00  0.35200919176E+03  0.35200919177E+03  0.25500000920E-02 0. -1.
        2   -1    0    0  501    0  0.00000000000E+00  0.00000000000E+00 -0.23842460985E+04  0.23842460985E+04  0.25500000920E-02 0.  1.
    10030    2    1    2    0    0  0.00000000000E+00  0.00000000000E+00 -0.20322369068E+04  0.27362552903E+04  0.18322407507E+04 0.  0.
        2    1    3    3  502    0 -0.40665118445E+03  0.12084540982E+03  0.19648322328E+03  0.46751947117E+03  0.25500000920E-02 0. -1.
       -2    1    3    3    0  502  0.40665118445E+03 -0.12084540982E+03 -0.22287201300E+04  0.22687358191E+04  0.25500000920E-02 0.  1.
</event>
<event>
 5   0  0.2376359E-04  0.9706621E+03  0.7818609E-02  0.9341321E-01
        1   -1    0    0  501    0  0.00000000000E+00  0.00000000000E+00  0.10059258396E+04  0.10059258396E+04  0.50400001928E-02 0.  1.
       -1   -1    0    0    0  501  0.00000000000E+00  0.00000000000E+00 -0.23415863364E+03  0.23415863369E+03  0.50400001928E-02 0. -1.
    10030    2    1    2    0    0  0.00000000000E+00  0.00000000000E+00  0.77176720594E+03  0.12400844733E+04  0.97066208369E+03 0.  0.
        2    1    3    3  502    0 -0.58241119155E+02  0.46478882030E+03  0.54811705214E+03  0.72100830668E+03  0.25500000920E-02 0.  1.
       -2    1    3    3    0  502  0.58241119155E+02 -0.46478882030E+03  0.22365015380E+03  0.51907616661E+03  0.25500000920E-02 0. -1.
</event>
<event>
 5   0  0.4839293E-04  0.1894840E+04  0.7818609E-02  0.8657429E-01
        2   -1    0    0  501    0  0.00000000000E+00  0.00000000000E+00  0.22408196051E+04  0.22408196051E+04  0.25500000920E-02 0.  1.
       -2   -1    0    0    0  501  0.00000000000E+00  0.00000000000E+00 -0.40056993957E+03  0.40056993958E+03  0.25500000920E-02 0. -1.
    10030    2    1    2    0    0  0.00000000000E+00  0.00000000000E+00  0.18402496655E+04  0.26413895446E+04  0.18948403350E+04 0.  0.
        5    1    3    3  502    0 -0.84312664839E+03  0.25974633690E+03  0.43873934305E+03  0.98531467355E+03  0.46999998093E+01 0. -1.
       -5    1    3    3    0  502  0.84312664839E+03 -0.25974633690E+03  0.14015103224E+04  0.16560748711E+04  0.46999998093E+01 0.  1.
</event>
<event>
 5   0  0.2261755E-04  0.1814144E+04  0.7818609E-02  0.8698814E-01
       -1   -1    0    0    0  501  0.00000000000E+00  0.00000000000E+00  0.96564314027E+03  0.96564314028E+03  0.50400001928E-02 0. -1.
        1   -1    0    0  501    0  0.00000000000E+00  0.00000000000E+00 -0.85205308104E+03  0.85205308105E+03  0.50400001928E-02 0.  1.
    10030    2    1    2    0    0  0.00000000000E+00  0.00000000000E+00  0.11359005924E+03  0.18176962213E+04  0.18141435587E+04 0.  0.
        1    1    3    3  502    0  0.55614207906E+03 -0.35123724637E+03 -0.56902206753E+03  0.86974003513E+03  0.50400001928E-02 0.  1.
       -1    1    3    3    0  502 -0.55614207906E+03  0.35123724637E+03  0.68261212677E+03  0.94795618621E+03  0.50400001928E-02 0. -1.
</event>
<event>
 5   0  0.2376359E-04  0.1921899E+04  0.7818609E-02  0.8644032E-01
       -1   -1    0    0    0  501  0.00000000000E+00  0.00000000000E+00  0.10311997132E+04  0.10311997132E+04  0.50400001928E-02 0. -1.
        1   -1    0    0  501    0  0.00000000000E+00  0.00000000000E+00 -0.89548490116E+03  0.89548490118E+03  0.50400001928E-02 0.  1.
    10030    2    1    2    0    0  0.00000000000E+00  0.00000000000E+00  0.13571481205E+03  0.19266846144E+04  0.19218988249E+04 0.  0.
        2    1    3    3  502    0 -0.79256091072E+03 -0.14838051323E+03 -0.45618149904E+03  0.92642923852E+03  0.25500000920E-02 0.  1.
       -2    1    3    3    0  502  0.79256091072E+03  0.14838051323E+03  0.59189631109E+03  0.10002553759E+04  0.25500000920E-02 0. -1.
</event>
<event>
 5   0  0.2261755E-04  0.1885743E+04  0.7818609E-02  0.8661986E-01
        1   -1    0    0  501    0  0.00000000000E+00  0.00000000000E+00  0.63644369072E+03  0.63644369074E+03  0.50400001928E-02 0. -1.
       -1   -1    0    0    0  501  0.00000000000E+00  0.00000000000E+00 -0.13968345985E+04  0.13968345985E+04  0.50400001928E-02 0.  1.
    10030    2    1    2    0    0  0.00000000000E+00  0.00000000000E+00 -0.76039090779E+03  0.20332782893E+04  0.18857428958E+04 0.  0.
        1    1    3    3  502    0  0.44374095853E+03 -0.80873097087E+03 -0.59053394549E+03  0.10953000330E+04  0.50400001928E-02 0.  1.
       -1    1    3    3    0  502 -0.44374095853E+03  0.80873097087E+03 -0.16985696230E+03  0.93797825625E+03  0.50400001928E-02 0. -1.
</event>
<event>
 5   0  0.4839293E-04  0.1868455E+04  0.7818609E-02  0.8670720E-01
       -2   -1    0    0    0  501  0.00000000000E+00  0.00000000000E+00  0.99170403294E+03  0.99170403294E+03  0.25500000920E-02 0.  1.
        2   -1    0    0  501    0  0.00000000000E+00  0.00000000000E+00 -0.88008187197E+03  0.88008187198E+03  0.25500000920E-02 0. -1.
    10030    2    1    2    0    0  0.00000000000E+00  0.00000000000E+00  0.11162216096E+03  0.18717859049E+04  0.18684547003E+04 0.  0.
        5    1    3    3  502    0 -0.56745493445E+03 -0.37100300395E+03  0.69969358072E+03  0.97429026910E+03  0.46999998093E+01 0.  1.
       -5    1    3    3    0  502  0.56745493445E+03  0.37100300395E+03 -0.58807141976E+03  0.89749563581E+03  0.46999998093E+01 0. -1.
</event>
<event>
 5   0  0.2355414E-04  0.1932510E+04  0.7818609E-02  0.8638841E-01
        1   -1    0    0  501    0  0.00000000000E+00  0.00000000000E+00  0.11820876520E+04  0.11820876520E+04  0.50400001928E-02 0. -1.
       -1   -1    0    0    0  501  0.00000000000E+00  0.00000000000E+00 -0.78983061434E+03  0.78983061436E+03  0.50400001928E-02 0.  1.
    10030    2    1    2    0    0  0.00000000000E+00  0.00000000000E+00  0.39225703765E+03  0.19719182664E+04  0.19325103016E+04 0.  0.
        5    1    3    3  502    0 -0.79861873349E+03 -0.45009321672E+03 -0.11546912855E+03  0.92397564625E+03  0.46999998093E+01 0.  1.
       -5    1    3    3    0  502  0.79861873349E+03  0.45009321672E+03  0.50772616620E+03  0.10479426201E+04  0.46999998093E+01 0. -1.
</event>
<event>
 5   0  0.2317458E-04  0.1865637E+04  0.7818609E-02  0.8672153E-01
        1   -1    0    0  501    0  0.00000000000E+00  0.00000000000E+00  0.12816701135E+04  0.12816701135E+04  0.50400001928E-02 0.  1.
       -1   -1    0    0    0  501  0.00000000000E+00  0.00000000000E+00 -0.67891925332E+03  0.67891925334E+03  0.50400001928E-02 0. -1.
    10030    2    1    2    0    0  0.00000000000E+00  0.00000000000E+00  0.60275086018E+03  0.19605893669E+04  0.18656371743E+04 0.  0.
        3    1    3    3  502    0 -0.16512410808E+03  0.57376736930E+03  0.10545643104E+04  0.12118501805E+04  0.10100000352E+00 0.  1.
       -3    1    3    3    0  502  0.16512410808E+03 -0.57376736930E+03 -0.45181345020E+03  0.74873918632E+03  0.10100000352E+00 0. -1.
</event>
<event>
 5   0  0.4973411E-04  0.1601763E+04  0.7818609E-02  0.8819466E-01
       -2   -1    0    0    0  501  0.00000000000E+00  0.00000000000E+00  0.12663909449E+04  0.12663909449E+04  0.25500000920E-02 0. -1.
        2   -1    0    0  501    0  0.00000000000E+00  0.00000000000E+00 -0.50648739489E+03  0.50648739490E+03  0.25500000920E-02 0.  1.
    10030    2    1    2    0    0  0.00000000000E+00  0.00000000000E+00  0.75990354998E+03  0.17728783398E+04  0.16017628421E+04 0.  0.
        1    1    3    3  502    0 -0.10479311917E+03 -0.20697827567E+03  0.12283850887E+04  0.12501006082E+04  0.50400001928E-02 0. -1.
       -1    1    3    3    0  502  0.10479311917E+03  0.20697827567E+03 -0.46848153876E+03  0.52277773155E+03  0.50400001928E-02 0.  1.
</event>
<event>
 5   0  0.2317458E-04  0.1864224E+04  0.7818609E-02  0.8672872E-01
       -1   -1    0    0    0  501  0.00000000000E+00  0.00000000000E+00  0.44970181034E+03  0.44970181036E+03  0.50400001928E-02 0. -1.
        1   -1    0    0  501    0  0.00000000000E+00  0.00000000000E+00 -0.19320190876E+04  0.19320190876E+04  0.50400001928E-02 0.  1.
    10030    2    1    2    0    0  0.00000000000E+00  0.00000000000E+00 -0.14823172773E+04  0.23817208980E+04  0.18642236790E+04 0.  0.
        3    1    3    3  502    0 -0.33179917894E+03  0.47690859202E+03 -0.16724010428E+04  0.17704399901E+04  0.10100000352E+00 0.  1.
       -3    1    3    3    0  502  0.33179917894E+03 -0.47690859202E+03  0.19008376550E+03  0.61128090793E+03  0.10100000352E+00 0. -1.
</event>
<event>
 5   0  0.4802635E-04  0.1933187E+04  0.7818609E-02  0.8638511E-01
       -2   -1    0    0    0  501  0.00000000000E+00  0.00000000000E+00  0.92964297701E+03  0.92964297702E+03  0.25500000920E-02 0. -1.
        2   -1    0    0  501    0  0.00000000000E+00  0.00000000000E+00 -0.10050121937E+04  0.10050121937E+04  0.25500000920E-02 0.  1.
    10030    2    1    2    0    0  0.00000000000E+00  0.00000000000E+00 -0.75369216673E+02  0.19346551707E+04  0.19331865173E+04 0.  0.
        3    1    3    3  502    0  0.49094893842E+03  0.65794530811E+03 -0.54834633893E+03  0.98722166012E+03  0.10100000352E+00 0.  1.
       -3    1    3    3    0  502 -0.49094893842E+03 -0.65794530811E+03  0.47297712225E+03  0.94743351058E+03  0.10100000352E+00 0. -1.
</event>
<event>
 5   0  0.2261755E-04  0.1930170E+04  0.7818609E-02  0.8639983E-01
       -1   -1    0    0    0  501  0.00000000000E+00  0.00000000000E+00  0.13960106946E+04  0.13960106946E+04  0.50400001928E-02 0.  1.
        1   -1    0    0  501    0  0.00000000000E+00  0.00000000000E+00 -0.66717899701E+03  0.66717899703E+03  0.50400001928E-02 0. -1.
    10030    2    1    2    0    0  0.00000000000E+00  0.00000000000E+00  0.72883169759E+03  0.20631896916E+04  0.19301699563E+04 0.  0.
        1    1    3    3  502    0  0.23624519810E+03 -0.33252693014E+03 -0.57050575333E+03  0.70132928607E+03  0.50400001928E-02 0. -1.
       -1    1    3    3    0  502 -0.23624519810E+03  0.33252693014E+03  0.12993374509E+04  0.13618604056E+04  0.50400001928E-02 0.  1.
</event>
<event>
 5   0  0.2261755E-04  0.1872349E+04  0.7818609E-02  0.8668744E-01
       -1   -1    0    0    0  501  0.00000000000E+00  0.00000000000E+00  0.65121687482E+03  0.65121687484E+03  0.50400001928E-02 0.  1.
        1   -1    0    0  501    0  0.00000000000E+00  0.00000000000E+00 -0.13458228708E+04  0.13458228708E+04  0.50400001928E-02 0. -1.
    10030    2    1    2    0    0  0.00000000000E+00  0.00000000000E+00 -0.69460599597E+03  0.19970397456E+04  0.18723488607E+04 0.  0.
        1    1    3    3  502    0  0.23794165225E+03  0.90500851535E+03 -0.31778465343E+03  0.98825286678E+03  0.50400001928E-02 0.  1.
       -1    1    3    3    0  502 -0.23794165225E+03 -0.90500851535E+03 -0.37682134254E+03  0.10087868789E+04  0.50400001928E-02 0. -1.
</event>
<event>
 5   0  0.4973411E-04  0.1542123E+04  0.7818609E-02  0.8856915E-01
       -2   -1    0    0    0  501  0.00000000000E+00  0.00000000000E+00  0.88932772372E+03  0.88932772373E+03  0.25500000920E-02 0.  1.
        2   -1    0    0  501    0  0.00000000000E+00  0.00000000000E+00 -0.66852286078E+03  0.66852286078E+03  0.25500000920E-02 0. -1.
    10030    2    1    2    0    0  0.00000000000E+00  0.00000000000E+00  0.22080486295E+03  0.15578505845E+04  0.15421231002E+04 0.  0.
        1    1    3    3  502    0  0.76571056034E+02  0.12606955254E+02  0.88537281122E+03  0.88876716681E+03  0.50400001928E-02 0.  1.
       -1    1    3    3    0  502 -0.76571056034E+02 -0.12606955254E+02 -0.66456794827E+03  0.66908341770E+03  0.50400001928E-02 0. -1.
</event>
<event>
 5   0  0.2317458E-04  0.1867684E+04  0.7818609E-02  0.8671111E-01
       -1   -1    0    0    0  501  0.00000000000E+00  0.00000000000E+00  0.64388482014E+03  0.64388482016E+03  0.50400001928E-02 0. -1.
        1   -1    0    0  501    0  0.00000000000E+00  0.00000000000E+00 -0.13543738550E+04  0.13543738550E+04  0.50400001928E-02 0.  1.
    10030    2    1    2    0    0  0.00000000000E+00  0.00000000000E+00 -0.71048903488E+03  0.19982586752E+04  0.18676838770E+04 0.  0.
        3    1    3    3  502    0  0.25815426875E+03 -0.89047476185E+03 -0.47472951861E+03  0.10416127179E+04  0.10100000352E+00 0.  1.
       -3    1    3    3    0  502 -0.25815426875E+03  0.89047476185E+03 -0.23575951628E+03  0.95664595733E+03  0.10100000352E+00 0. -1.
</event>
<event>
 5   0  0.2261755E-04  0.1867232E+04  0.7818609E-02  0.8671341E-01
       -1   -1    0    0    0  501  0.00000000000E+00  0.00000000000E+00  0.74788862891E+03  0.74788862893E+03  0.50400001928E-02 0.  1.
        1   -1    0    0  501    0  0.00000000000E+00  0.00000000000E+00 -0.11654655374E+04  0.11654655374E+04  0.50400001928E-02 0. -1.
    10030    2    1    2    0    0  0.00000000000E+00  0.00000000000E+00 -0.41757690848E+03  0.19133541663E+04  0.18672315580E+04 0.  0.
        1    1    3    3  502    0 -0.33061545724E+03 -0.35582142647E+03  0.60822862304E+03  0.77836850271E+03  0.50400001928E-02 0.  1.
       -1    1    3    3    0  502  0.33061545724E+03  0.35582142647E+03 -0.10258055315E+04  0.11349856636E+04  0.50400001928E-02 0. -1.
</event>
<event>
 5   0  0.4802635E-04  0.1906658E+04  0.7818609E-02  0.8651549E-01
       -2   -1    0    0    0  501  0.00000000000E+00  0.00000000000E+00  0.45948826790E+03  0.45948826791E+03  0.25500000920E-02 0.  1.
        2   -1    0    0  501    0  0.00000000000E+00  0.00000000000E+00 -0.19779319886E+04  0.19779319886E+04  0.25500000920E-02 0. -1.
    10030    2    1    2    0    0  0.00000000000E+00  0.00000000000E+00 -0.15184437207E+04  0.24374202565E+04  0.19066583789E+04 0.  0.
        3    1    3    3  502    0 -0.47815715956E+03 -0.23827748885E+03  0.25014727506E+03  0.58990177178E+03  0.10100000352E+00 0.  1.
       -3    1    3    3    0  502  0.47815715956E+03  0.23827748885E+03 -0.17685909958E+04  0.18475184847E+04  0.10100000352E+00 0. -1.
</event>
<event>
 5   0  0.4839293E-04  0.1907544E+04  0.7818609E-02  0.8651110E-01
        2   -1    0    0  501    0  0.00000000000E+00  0.00000000000E+00  0.16438577039E+04  0.16438577039E+04  0.25500000920E-02 0.  1.
       -2   -1    0    0    0  501  0.00000000000E+00  0.00000000000E+00 -0.55338197708E+03  0.55338197708E+03  0.25500000920E-02 0. -1.
    10030    2    1    2    0    0  0.00000000000E+00  0.00000000000E+00  0.10904757268E+04  0.21972396810E+04  0.19075442079E+04 0.  0.
        5    1    3    3  502    0  0.16136258508E+03  0.62339891756E+03  0.13556449805E+04  0.15008196085E+04  0.46999998093E+01 0.  1.
       -5    1    3    3    0  502 -0.16136258508E+03 -0.62339891756E+03 -0.26516925363E+03  0.69642007247E+03  0.46999998093E+01 0. -1.
</event>
<event>
 5   0  0.4829134E-04  0.1883990E+04  0.7818609E-02  0.8662867E-01
       -2   -1    0    0    0  501  0.00000000000E+00  0.00000000000E+00  0.11528923920E+04  0.11528923920E+04  0.25500000920E-02 0. -1.
        2   -1    0    0  501    0  0.00000000000E+00  0.00000000000E+00 -0.76967649136E+03  0.76967649137E+03  0.25500000920E-02 0.  1.
    10030    2    1    2    0    0  0.00000000000E+00  0.00000000000E+00  0.38321590061E+03  0.19225688833E+04  0.18839895660E+04 0.  0.
        2    1    3    3  502    0  0.87239439500E+03 -0.92758818467E+02 -0.15845894350E+03  0.89150738393E+03  0.25500000920E-02 0. -1.
       -2    1    3    3    0  502 -0.87239439500E+03  0.92758818467E+02  0.54167484411E+03  0.10310614994E+04  0.25500000920E-02 0.  1.
</event>
<event>
 5   0  0.4829134E-04  0.1883892E+04  0.7818609E-02  0.8662916E-01
       -2   -1    0    0    0  501  0.00000000000E+00  0.00000000000E+00  0.10467906908E+04  0.10467906908E+04  0.25500000920E-02 0. -1.
        2   -1    0    0  501    0  0.00000000000E+00  0.00000000000E+00 -0.84760279303E+03  0.84760279303E+03  0.25500000920E-02 0.  1.
    10030    2    1    2    0    0  0.00000000000E+00  0.00000000000E+00  0.19918789774E+03  0.18943934838E+04  0.18838924738E+04 0.  0.
        2    1    3    3  502    0  0.62552775646E+03 -0.24985188942E+03 -0.56252278354E+03  0.87757781579E+03  0.25500000920E-02 0.  1.
       -2    1    3    3    0  502 -0.62552775646E+03  0.24985188942E+03  0.76171068128E+03  0.10168156680E+04  0.25500000920E-02 0. -1.
</event>
<event>
 5   0  0.4802635E-04  0.1906492E+04  0.7818609E-02  0.8651632E-01
        2   -1    0    0  501    0  0.00000000000E+00  0.00000000000E+00  0.16382576585E+04  0.16382576585E+04  0.25500000920E-02 0.  1.
       -2   -1    0    0    0  501  0.00000000000E+00  0.00000000000E+00 -0.55466114653E+03  0.55466114653E+03  0.25500000920E-02 0. -1.
    10030    2    1    2    0    0  0.00000000000E+00  0.00000000000E+00  0.10835965120E+04  0.21929188050E+04  0.19064919315E+04 0.  0.
        3    1    3    3  502    0 -0.59523825882E+03  0.49440337615E+01 -0.31460356488E+03  0.67328184400E+03  0.10100000352E+00 0. -1.
       -3    1    3    3    0  502  0.59523825882E+03 -0.49440337615E+01  0.13982000769E+04  0.15196369610E+04  0.10100000352E+00 0.  1.
</event>
<event>
 5   0  0.2376359E-04  0.1269566E+04  0.7818609E-02  0.9054054E-01
       -1   -1    0    0    0  501  0.00000000000E+00  0.00000000000E+00  0.85189034691E+03  0.85189034692E+03  0.50400001928E-02 0. -1.
        1   -1    0    0  501    0  0.00000000000E+00  0.00000000000E+00 -0.47300618986E+03  0.47300618989E+03  0.50400001928E-02 0.  1.
    10030    2    1    2    0    0  0.00000000000E+00  0.00000000000E+00  0.37888415705E+03  0.13248965368E+04  0.12695659214E+04 0.  0.
        2    1    3    3  502    0 -0.41511792955E+03  0.47563889499E+03  0.25861949078E+03  0.68223111544E+03  0.25500000920E-02 0. -1.
       -2    1    3    3    0  502  0.41511792955E+03 -0.47563889499E+03  0.12026466627E+03  0.64266542137E+03  0.25500000920E-02 0.  1.
</event>
<event>
 5   0  0.4973411E-04  0.1773870E+04  0.7818609E-02  0.8720320E-01
        2   -1    0    0  501    0  0.00000000000E+00  0.00000000000E+00  0.12255754160E+04  0.12255754160E+04  0.25500000920E-02 0. -1.
       -2   -1    0    0    0  501  0.00000000000E+00  0.00000000000E+00 -0.64186496605E+03  0.64186496605E+03  0.25500000920E-02 0.  1.
    10030    2    1    2    0    0  0.00000000000E+00  0.00000000000E+00  0.58371044997E+03  0.18674403821E+04  0.17738702577E+04 0.  0.
        1    1    3    3  502    0 -0.54271164237E+03 -0.22081741949E+03  0.99282937648E+03  0.11528254119E+04  0.50400001928E-02 0. -1.
       -1    1    3    3    0  502  0.54271164237E+03  0.22081741949E+03 -0.40911892652E+03  0.71461497016E+03  0.50400001928E-02 0.  1.
</event>
<event>
 5   0  0.2317458E-04  0.1922124E+04  0.7818609E-02  0.8643922E-01
       -1   -1    0    0    0  501  0.00000000000E+00  0.00000000000E+00  0.41716930332E+03  0.41716930335E+03  0.50400001928E-02 0.  1.
        1   -1    0    0  501    0  0.00000000000E+00  0.00000000000E+00 -0.22140652722E+04  0.22140652722E+04  0.50400001928E-02 0. -1.
    10030    2    1    2    0    0  0.00000000000E+00  0.00000000000E+00 -0.17968959689E+04  0.26312345755E+04  0.19221238952E+04 0.  0.
        3    1    3    3  502    0  0.12173999293E+03 -0.32428902806E+03  0.32874623465E+03  0.47755428655E+03  0.10100000352E+00 0.  1.
       -3    1    3    3    0  502 -0.12173999293E+03  0.32428902806E+03 -0.21256422035E+04  0.21536802890E+04  0.10100000352E+00 0. -1.
</event>
<event>
 5   0  0.2317458E-04  0.1960866E+04  0.7818609E-02  0.8625139E-01
        1   -1    0    0  501    0  0.00000000000E+00  0.00000000000E+00  0.11181244832E+04  0.11181244832E+04  0.50400001928E-02 0.  1.
       -1   -1    0    0    0  501  0.00000000000E+00  0.00000000000E+00 -0.85969716745E+03  0.85969716746E+03  0.50400001928E-02 0. -1.
    10030    2    1    2    0    0  0.00000000000E+00  0.00000000000E+00  0.25842731570E+03  0.19778216506E+04  0.19608655752E+04 0.  0.
        3    1    3    3  502    0  0.80078115092E+03 -0.91205751150E+02 -0.43389658075E+03  0.91533337845E+03  0.10100000352E+00 0. -1.
       -3    1    3    3    0  502 -0.80078115092E+03  0.91205751150E+02  0.69232389646E+03  0.10624882722E+04  0.10100000352E+00 0.  1.
</event>
<event>
 5   0  0.2510069E-04  0.1851715E+04  0.7818609E-02  0.8679271E-01
       -1   -1    0    0    0  501  0.00000000000E+00  0.00000000000E+00  0.13092591045E+04  0.13092591046E+04  0.50400001928E-02 0. -1.
        1   -1    0    0  501    0  0.00000000000E+00  0.00000000000E+00 -0.65473057174E+03  0.65473057176E+03  0.50400001928E-02 0.  1.
    10030    2    1    2    0    0  0.00000000000E+00  0.00000000000E+00  0.65452853281E+03  0.19639896763E+04  0.18517148399E+04 0.  0.
        4    1    3    3  502    0  0.90766091271E+02  0.39621795472E+03  0.12095573370E+04  0.12760320197E+04  0.12699999809E+01 0. -1.
       -4    1    3    3    0  502 -0.90766091271E+02 -0.39621795472E+03 -0.55502880416E+03  0.68795765662E+03  0.12699999809E+01 0.  1.
</event>
<event>
 5   0  0.4761944E-04  0.1911374E+04  0.7818609E-02  0.8649216E-01
       -2   -1    0    0    0  501  0.00000000000E+00  0.00000000000E+00  0.65057590775E+03  0.65057590775E+03  0.25500000920E-02 0.  1.
        2   -1    0    0  501    0  0.00000000000E+00  0.00000000000E+00 -0.14038904327E+04  0.14038904327E+04  0.25500000920E-02 0. -1.
    10030    2    1    2    0    0  0.00000000000E+00  0.00000000000E+00 -0.75331452492E+03  0.20544663404E+04  0.19113736344E+04 0.  0.
        4    1    3    3  502    0  0.58170202617E+03  0.74266705520E+03 -0.54109413334E+03  0.10875275059E+04  0.12699999809E+01 0.  1.
       -4    1    3    3    0  502 -0.58170202617E+03 -0.74266705520E+03 -0.21222039158E+03  0.96693883448E+03  0.12699999809E+01 0. -1.
</event>
<event>
 5   0  0.2317458E-04  0.1899200E+04  0.7818609E-02  0.8655255E-01
       -1   -1    0    0    0  501  0.00000000000E+00  0.00000000000E+00  0.45987139014E+03  0.45987139017E+03  0.50400001928E-02 0.  1.
        1   -1    0    0  501    0  0.00000000000E+00  0.00000000000E+00 -0.19608528503E+04  0.19608528503E+04  0.50400001928E-02 0. -1.
    10030    2    1    2    0    0  0.00000000000E+00  0.00000000000E+00 -0.15009814601E+04  0.24207242405E+04  0.18991999644E+04 0.  0.
        3    1    3    3  502    0 -0.25671579497E+03 -0.80606140495E+03 -0.13003484100E+04  0.15513039629E+04  0.10100000352E+00 0. -1.
       -3    1    3    3    0  502  0.25671579497E+03  0.80606140495E+03 -0.20063305017E+03  0.86942027752E+03  0.10100000352E+00 0.  1.
</event>
<event>
 5   0  0.4839293E-04  0.1988115E+04  0.7818609E-02  0.8612198E-01
        2   -1    0    0  501    0  0.00000000000E+00  0.00000000000E+00  0.16937983065E+04  0.16937983065E+04  0.25500000920E-02 0. -1.
       -2   -1    0    0    0  501  0.00000000000E+00  0.00000000000E+00 -0.58339302070E+03  0.58339302071E+03  0.25500000920E-02 0.  1.
    10030    2    1    2    0    0  0.00000000000E+00  0.00000000000E+00  0.11104052858E+04  0.22771913272E+04  0.19881147960E+04 0.  0.
        5    1    3    3  502    0 -0.31754392202E+03 -0.55571754620E+03 -0.31595989707E+03  0.71379890734E+03  0.46999998093E+01 0.  1.
       -5    1    3    3    0  502  0.31754392202E+03  0.55571754620E+03  0.14263651828E+04  0.15633924198E+04  0.46999998093E+01 0. -1.
</event>
<event>
 5   0  0.2317458E-04  0.1945925E+04  0.7818609E-02  0.8632328E-01
       -1   -1    0    0    0  501  0.00000000000E+00  0.00000000000E+00  0.10723059489E+04  0.10723059489E+04  0.50400001928E-02 0.  1.
        1   -1    0    0  501    0  0.00000000000E+00  0.00000000000E+00 -0.88282246969E+03  0.88282246971E+03  0.50400001928E-02 0. -1.
    10030    2    1    2    0    0  0.00000000000E+00  0.00000000000E+00  0.18948347918E+03  0.19551284186E+04  0.19459247530E+04 0.  0.
        3    1    3    3  502    0  0.18154286493E+03 -0.86955006779E+03  0.49358355186E+03  0.10162184141E+04  0.10100000352E+00 0.  1.
       -3    1    3    3    0  502 -0.18154286493E+03  0.86955006779E+03 -0.30410007268E+03  0.93891000453E+03  0.10100000352E+00 0. -1.
</event>
<event>
 5   0  0.4973411E-04  0.1885821E+04  0.7818609E-02  0.8661947E-01
       -2   -1    0    0    0  501  0.00000000000E+00  0.00000000000E+00  0.50327309445E+03  0.50327309446E+03  0.25500000920E-02 0. -1.
        2   -1    0    0  501    0  0.00000000000E+00  0.00000000000E+00 -0.17665959468E+04  0.17665959468E+04  0.25500000920E-02 0.  1.
    10030    2    1    2    0    0  0.00000000000E+00  0.00000000000E+00 -0.12633228523E+04  0.22698690412E+04  0.18858209976E+04 0.  0.
        1    1    3    3  502    0  0.93851099274E+02 -0.81084911160E+03 -0.11997995462E+04  0.14511386088E+04  0.50400001928E-02 0.  1.
       -1    1    3    3    0  502 -0.93851099274E+02  0.81084911160E+03 -0.63523306063E+02  0.81873043247E+03  0.50400001928E-02 0. -1.
</event>
<event>
 5   0  0.2317458E-04  0.1861322E+04  0.7818609E-02  0.8674352E-01
        1   -1    0    0  501    0  0.00000000000E+00  0.00000000000E+00  0.15555943859E+04  0.15555943859E+04  0.50400001928E-02 0.  1.
       -1   -1    0    0    0  501  0.00000000000E+00  0.00000000000E+00 -0.55678411329E+03  0.55678411332E+03  0.50400001928E-02 0. -1.
    10030    2    1    2    0    0  0.00000000000E+00  0.00000000000E+00  0.99881027257E+03  0.21123784992E+04  0.18613223695E+04 0.  0.
        3    1    3    3  502    0  0.13069917141E+03  0.74231241503E+03 -0.12014009504E+03  0.76324547005E+03  0.10100000352E+00 0. -1.
       -3    1    3    3    0  502 -0.13069917141E+03 -0.74231241503E+03  0.11189503676E+04  0.13491330291E+04  0.10100000352E+00 0.  1.
</event>
<event>
 5   0  0.4839293E-04  0.1895370E+04  0.7818609E-02  0.8657165E-01
       -2   -1    0    0    0  501  0.00000000000E+00  0.00000000000E+00  0.10225811442E+04  0.10225811442E+04  0.25500000920E-02 0. -1.
        2   -1    0    0  501    0  0.00000000000E+00  0.00000000000E+00 -0.87827400461E+03  0.87827400462E+03  0.25500000920E-02 0.  1.
    10030    2    1    2    0    0  0.00000000000E+00  0.00000000000E+00  0.14430713962E+03  0.19008551489E+04  0.18953695540E+04 0.  0.
        5    1    3    3  502    0 -0.86610855732E+03  0.26566576799E+03 -0.20679170237E+03  0.92925089804E+03  0.46999998093E+01 0.  1.
       -5    1    3    3    0  502  0.86610855732E+03 -0.26566576799E+03  0.35109884199E+03  0.97160425081E+03  0.46999998093E+01 0. -1.
</event>
<event>
 5   0  0.4802635E-04  0.1907579E+04  0.7818609E-02  0.8651093E-01
        2   -1    0    0  501    0  0.00000000000E+00  0.00000000000E+00  0.15668846837E+04  0.15668846837E+04  0.25500000920E-02 0.  1.
       -2   -1    0    0    0  501  0.00000000000E+00  0.00000000000E+00 -0.58058820280E+03  0.58058820281E+03  0.25500000920E-02 0. -1.
    10030    2    1    2    0    0  0.00000000000E+00  0.00000000000E+00  0.98629648085E+03  0.21474728865E+04  0.19075793692E+04 0.  0.
        3    1    3    3  502    0 -0.25522493625E+03  0.89602516601E+03  0.26322366253E+03  0.96813613346E+03  0.10100000352E+00 0.  1.
       -3    1    3    3    0  502  0.25522493625E+03 -0.89602516601E+03  0.72307281833E+03  0.11793367530E+04  0.10100000352E+00 0. -1.
</event>
<event>
 5   0  0.4802635E-04  0.1073088E+04  0.7818609E-02  0.9231826E-01
        2   -1    0    0  501    0  0.00000000000E+00  0.00000000000E+00  0.32278026989E+03  0.32278026990E+03  0.25500000920E-02 0.  1.
       -2   -1    0    0    0  501  0.00000000000E+00  0.00000000000E+00 -0.89187466652E+03  0.89187466652E+03  0.25500000920E-02 0. -1.
    10030    2    1    2    0    0  0.00000000000E+00  0.00000000000E+00 -0.56909439663E+03  0.12146549364E+04  0.10730881522E+04 0.  0.
        3    1    3    3  502    0  0.51300504328E+03 -0.11993124691E+03 -0.16954756972E+03  0.55344743834E+03  0.10100000352E+00 0.  1.
       -3    1    3    3    0  502 -0.51300504328E+03  0.11993124691E+03 -0.39954682691E+03  0.66120749808E+03  0.10100000352E+00 0. -1.
</event>
<event>
 5   0  0.2261755E-04  0.1914196E+04  0.7818609E-02  0.8647822E-01
        1   -1    0    0  501    0  0.00000000000E+00  0.00000000000E+00  0.98436306157E+03  0.98436306159E+03  0.50400001928E-02 0.  1.
       -1   -1    0    0    0  501  0.00000000000E+00  0.00000000000E+00 -0.93058824822E+03  0.93058824824E+03  0.50400001928E-02 0. -1.
    10030    2    1    2    0    0  0.00000000000E+00  0.00000000000E+00  0.53774813350E+02  0.19149513098E+04  0.19141961207E+04 0.  0.
        1    1    3    3  502    0  0.36526971375E+03 -0.69398135164E+03 -0.52196791905E+03  0.94206294309E+03  0.50400001928E-02 0. -1.
       -1    1    3    3    0  502 -0.36526971375E+03  0.69398135164E+03  0.57574273240E+03  0.97288836674E+03  0.50400001928E-02 0.  1.
</event>
<event>
 5   0  0.2510069E-04  0.1923160E+04  0.7818609E-02  0.8643413E-01
        1   -1    0    0  501    0  0.00000000000E+00  0.00000000000E+00  0.15600004045E+04  0.15600004045E+04  0.50400001928E-02 0. -1.
       -1   -1    0    0    0  501  0.00000000000E+00  0.00000000000E+00 -0.59271508546E+03  0.59271508548E+03  0.50400001928E-02 0.  1.
    10030    2    1    2    0    0  0.00000000000E+00  0.00000000000E+00  0.96728531905E+03  0.21527154900E+04  0.19231596638E+04 0.  0.
        4    1    3    3  502    0 -0.84495828023E+03 -0.29305093968E+03  0.87908211474E+03  0.12540415966E+04  0.12699999809E+01 0. -1.
       -4    1    3    3    0  502  0.84495828023E+03  0.29305093968E+03  0.88203204311E+02  0.89867389343E+03  0.12699999809E+01 0.  1.
</event>
<event>
 5   0  0.2261755E-04  0.1921729E+04  0.7818609E-02  0.8644115E-01
       -1   -1    0    0    0  501  0.00000000000E+00  0.00000000000E+00  0.96679905119E+03  0.96679905120E+03  0.50400001928E-02 0. -1.
        1   -1    0    0  501    0  0.00000000000E+00  0.00000000000E+00 -0.95496645877E+03  0.95496645878E+03  0.50400001928E-02 0.  1.
    10030    2    1    2    0    0  0.00000000000E+00  0.00000000000E+00  0.11832592420E+02  0.19217655100E+04  0.19217290821E+04 0.  0.
        1    1    3    3  502    0 -0.31409080108E+03 -0.32718084575E+03  0.85302168114E+03  0.96609850723E+03  0.50400001928E-02 0. -1.
       -1    1    3    3    0  502  0.31409080108E+03  0.32718084575E+03 -0.84118908872E+03  0.95566700275E+03  0.50400001928E-02 0.  1.
</event>
<event>
 5   0  0.1729375E-04  0.2033498E+04  0.7818609E-02  0.8591117E-01
        3   -1    0    0  501    0  0.00000000000E+00  0.00000000000E+00  0.11077220962E+04  0.11077221008E+04  0.10100000352E+00 0.  1.
       -3   -1    0    0    0  501  0.00000000000E+00  0.00000000000E+00 -0.93324722971E+03  0.93324723518E+03  0.10100000352E+00 0. -1.
    10030    2    1    2    0    0  0.00000000000E+00  0.00000000000E+00  0.17447486648E+03  0.20409693360E+04  0.20334980579E+04 0.  0.
        4    1    3    3  502    0  0.12099602783E+03 -0.62534052343E+03  0.88266810215E+03  0.10884830731E+04  0.12699999809E+01 0.  1.
       -4    1    3    3    0  502 -0.12099602783E+03  0.62534052343E+03 -0.70819323567E+03  0.95248626286E+03  0.12699999809E+01 0. -1.
</event>
<event>
 5   0  0.2355414E-04  0.1914531E+04  0.7818609E-02  0.8647657E-01
        1   -1    0    0  501    0  0.00000000000E+00  0.00000000000E+00  0.14306889893E+04  0.14306889893E+04  0.50400001928E-02 0.  1.
       -1   -1    0    0    0  501  0.00000000000E+00  0.00000000000E+00 -0.64050096452E+03  0.64050096454E+03  0.50400001928E-02 0. -1.
    10030    2    1    2    0    0  0.00000000000E+00  0.00000000000E+00  0.79018802474E+03  0.20711899538E+04  0.19145314597E+04 0.  0.
        5    1    3    3  502    0  0.30850681719E+03  0.36020735093E+03 -0.50445573910E+03  0.69240412666E+03  0.46999998093E+01 0. -1.
       -5    1    3    3    0  502 -0.30850681719E+03 -0.36020735093E+03  0.12946437638E+04  0.13787858271E+04  0.46999998093E+01 0.  1.
</event>
<event>
 5   0  0.2510069E-04  0.1937834E+04  0.7818609E-02  0.8636250E-01
       -1   -1    0    0    0  501  0.00000000000E+00  0.00000000000E+00  0.91163158737E+03  0.91163158738E+03  0.50400001928E-02 0. -1.
        1   -1    0    0  501    0  0.00000000000E+00  0.00000000000E+00 -0.10298023451E+04  0.10298023451E+04  0.50400001928E-02 0.  1.
    10030    2    1    2    0    0  0.00000000000E+00  0.00000000000E+00 -0.11817075772E+03  0.19414339325E+04  0.19378341999E+04 0.  0.
        4    1    3    3  502    0  0.56546041051E+03 -0.37720532375E+03 -0.75085293101E+03  0.10128233158E+04  0.12699999809E+01 0.  1.
       -4    1    3    3    0  502 -0.56546041051E+03  0.37720532375E+03  0.63268217329E+03  0.92861061668E+03  0.12699999809E+01 0. -1.
</event>
<event>
 5   0  0.2376359E-04  0.1816322E+04  0.7818609E-02  0.8697667E-01
        1   -1    0    0  501    0  0.00000000000E+00  0.00000000000E+00  0.60225442491E+03  0.60225442493E+03  0.50400001928E-02 0. -1.
       -1   -1    0    0    0  501  0.00000000000E+00  0.00000000000E+00 -0.13694484974E+04  0.13694484974E+04  0.50400001928E-02 0.  1.
    10030    2    1    2    0    0  0.00000000000E+00  0.00000000000E+00 -0.76719407252E+03  0.19717029224E+04  0.18163220169E+04 0.  0.
        2    1    3    3  502    0 -0.26963299437E+03 -0.39190663075E+03 -0.12233808977E+04  0.13126132636E+04  0.25500000920E-02 0.  1.
       -2    1    3    3    0  502  0.26963299437E+03  0.39190663075E+03  0.45618682516E+03  0.65908965880E+03  0.25500000920E-02 0. -1.
</event>
<event>
 5   0  0.4829134E-04  0.1923184E+04  0.7818609E-02  0.8643401E-01
       -2   -1    0    0    0  501  0.00000000000E+00  0.00000000000E+00  0.10318067846E+04  0.10318067846E+04  0.25500000920E-02 0.  1.
        2   -1    0    0  501    0  0.00000000000E+00  0.00000000000E+00 -0.89615579533E+03  0.89615579533E+03  0.25500000920E-02 0. -1.
    10030    2    1    2    0    0  0.00000000000E+00  0.00000000000E+00  0.13565098923E+03  0.19279625799E+04  0.19231844734E+04 0.  0.
        2    1    3    3  502    0 -0.15757897818E+03  0.43752549822E+03  0.91158156853E+03  0.10233477669E+04  0.25500000920E-02 0.  1.
       -2    1    3    3    0  502  0.15757897818E+03 -0.43752549822E+03 -0.77593057930E+03  0.90461481298E+03  0.25500000920E-02 0. -1.
</event>
<event>
 5   0  0.2355414E-04  0.1901182E+04  0.7818609E-02  0.8654268E-01
       -1   -1    0    0    0  501  0.00000000000E+00  0.00000000000E+00  0.15568022152E+04  0.15568022152E+04  0.50400001928E-02 0. -1.
        1   -1    0    0  501    0  0.00000000000E+00  0.00000000000E+00 -0.58043574545E+03  0.58043574548E+03  0.50400001928E-02 0.  1.
    10030    2    1    2    0    0  0.00000000000E+00  0.00000000000E+00  0.97636646976E+03  0.21372379607E+04  0.19011824261E+04 0.  0.
        5    1    3    3  502    0  0.39613197193E+03 -0.50087305349E+03  0.12797462733E+04  0.14302331869E+04  0.46999998093E+01 0. -1.
       -5    1    3    3    0  502 -0.39613197193E+03  0.50087305349E+03 -0.30337980358E+03  0.70700477376E+03  0.46999998093E+01 0.  1.
</event>
<event>
 5   0  0.2317458E-04  0.1403941E+04  0.7818609E-02  0.8950971E-01
       -1   -1    0    0    0  501  0.00000000000E+00  0.00000000000E+00  0.62483886481E+03  0.62483886483E+03  0.50400001928E-02 0.  1.
        1   -1    0    0  501    0  0.00000000000E+00  0.00000000000E+00 -0.78862334897E+03  0.78862334899E+03  0.50400001928E-02 0. -1.
    10030    2    1    2    0    0  0.00000000000E+00  0.00000000000E+00 -0.16378448416E+03  0.14134622138E+04  0.14039409078E+04 0.  0.
        3    1    3    3  502    0 -0.79862661621E+01  0.22980206308E+03 -0.74963208447E+03  0.78410524862E+03  0.10100000352E+00 0. -1.
       -3    1    3    3    0  502  0.79862661621E+01 -0.22980206308E+03  0.58584760032E+03  0.62935696520E+03  0.10100000352E+00 0.  1.
</event>
<event>
 5   0  0.4829134E-04  0.1785623E+04  0.7818609E-02  0.8713983E-01
       -2   -1    0    0    0  501  0.00000000000E+00  0.00000000000E+00  0.11325230020E+04  0.11325230020E+04  0.25500000920E-02 0. -1.
        2   -1    0    0  501    0  0.00000000000E+00  0.00000000000E+00 -0.70383756569E+03  0.70383756570E+03  0.25500000920E-02 0.  1.
    10030    2    1    2    0    0  0.00000000000E+00  0.00000000000E+00  0.42868543626E+03  0.18363605677E+04  0.17856228412E+04 0.  0.
        2    1    3    3  502    0 -0.61268889934E+03 -0.51879592161E+03  0.61605063880E+03  0.10119561676E+04  0.25500000920E-02 0.  1.
       -2    1    3    3    0  502  0.61268889934E+03  0.51879592161E+03 -0.18736520254E+03  0.82440440002E+03  0.25500000920E-02 0. -1.
</event>
<event>
 5   0  0.2376359E-04  0.1875007E+04  0.7818609E-02  0.8667398E-01
        1   -1    0    0  501    0  0.00000000000E+00  0.00000000000E+00  0.95356728050E+03  0.95356728051E+03  0.50400001928E-02 0. -1.
       -1   -1    0    0    0  501  0.00000000000E+00  0.00000000000E+00 -0.92171009022E+03  0.92171009023E+03  0.50400001928E-02 0.  1.
    10030    2    1    2    0    0  0.00000000000E+00  0.00000000000E+00  0.31857190282E+02  0.18752773707E+04  0.18750067564E+04 0.  0.
        2    1    3    3  502    0  0.26006057559E+02 -0.22830410792E+03 -0.89311044791E+03  0.92219594062E+03  0.25500000920E-02 0.  1.
       -2    1    3    3    0  502 -0.26006057559E+02  0.22830410792E+03  0.92496763820E+03  0.95308143012E+03  0.25500000920E-02 0. -1.
</event>
<event>
 5   0  0.2355414E-04  0.1784051E+04  0.7818609E-02  0.8714827E-01
        1   -1    0    0  501    0  0.00000000000E+00  0.00000000000E+00  0.17951914113E+04  0.17951914113E+04  0.50400001928E-02 0.  1.
       -1   -1    0    0    0  501  0.00000000000E+00  0.00000000000E+00 -0.44324501611E+03  0.44324501614E+03  0.50400001928E-02 0. -1.
    10030    2    1    2    0    0  0.00000000000E+00  0.00000000000E+00  0.13519463952E+04  0.22384364275E+04  0.17840511720E+04 0.  0.
        5    1    3    3  502    0 -0.55650115011E+03 -0.47818988377E+03  0.39498169357E+02  0.73480697492E+03  0.46999998093E+01 0. -1.
       -5    1    3    3    0  502  0.55650115011E+03  0.47818988377E+03  0.13124482258E+04  0.15036294525E+04  0.46999998093E+01 0.  1.
</event>
<event>
 5   0  0.4973411E-04  0.1949355E+04  0.7818609E-02  0.8630672E-01
        2   -1    0    0  501    0  0.00000000000E+00  0.00000000000E+00  0.12515476540E+04  0.12515476540E+04  0.25500000920E-02 0. -1.
       -2   -1    0    0    0  501  0.00000000000E+00  0.00000000000E+00 -0.75905684741E+03  0.75905684741E+03  0.25500000920E-02 0.  1.
    10030    2    1    2    0    0  0.00000000000E+00  0.00000000000E+00  0.49249080657E+03  0.20106045014E+04  0.19493545769E+04 0.  0.
        1    1    3    3  502    0 -0.32792417495E+03 -0.38395728223E+03 -0.61363924390E+03  0.79467640003E+03  0.50400001928E-02 0.  1.
       -1    1    3    3    0  502  0.32792417495E+03  0.38395728223E+03  0.11061300505E+04  0.12159281014E+04  0.50400001928E-02 0. -1.
</event>
<event>
 5   0  0.4829134E-04  0.1885715E+04  0.7818609E-02  0.8662000E-01
        2   -1    0    0  501    0  0.00000000000E+00  0.00000000000E+00  0.69147210908E+03  0.69147210908E+03  0.25500000920E-02 0.  1.
       -2   -1    0    0    0  501  0.00000000000E+00  0.00000000000E+00 -0.12856341312E+04  0.12856341312E+04  0.25500000920E-02 0. -1.
    10030    2    1    2    0    0  0.00000000000E+00  0.00000000000E+00 -0.59416202210E+03  0.19771062403E+04  0.18857148715E+04 0.  0.
        2    1    3    3  502    0  0.52095302256E+03 -0.44645415730E+03 -0.97516059123E+03  0.11923303003E+04  0.25500000920E-02 0. -1.
       -2    1    3    3    0  502 -0.52095302256E+03  0.44645415730E+03  0.38099856913E+03  0.78477593998E+03  0.25500000920E-02 0.  1.
</event>
<event>
 5   0  0.4761944E-04  0.2022191E+04  0.7818609E-02  0.8596315E-01
        2   -1    0    0  501    0  0.00000000000E+00  0.00000000000E+00  0.13107488122E+04  0.13107488122E+04  0.25500000920E-02 0. -1.
       -2   -1    0    0    0  501  0.00000000000E+00  0.00000000000E+00 -0.77994658919E+03  0.77994658919E+03  0.25500000920E-02 0.  1.
    10030    2    1    2    0    0  0.00000000000E+00  0.00000000000E+00  0.53080222301E+03  0.20906954014E+04  0.20221909557E+04 0.  0.
        4    1    3    3  502    0 -0.61927237479E+03 -0.64697697609E+03  0.75059099924E+03  0.11685315327E+04  0.12699999809E+01 0. -1.
       -4    1    3    3    0  502  0.61927237479E+03  0.64697697609E+03 -0.21978877623E+03  0.92216386875E+03  0.12699999809E+01 0.  1.
</event>
<event>
 5   0  0.4839293E-04  0.1304553E+04  0.7818609E-02  0.9025963E-01
        2   -1    0    0  501    0  0.00000000000E+00  0.00000000000E+00  0.17113536674E+04  0.17113536674E+04  0.25500000920E-02 0.  1.
       -2   -1    0    0    0  501  0.00000000000E+00  0.00000000000E+00 -0.24861278061E+03  0.24861278063E+03  0.25500000920E-02 0. -1.
    10030    2    1    2    0    0  0.00000000000E+00  0.00000000000E+00  0.14627408867E+04  0.19599664480E+04  0.13045526342E+04 0.  0.
        5    1    3    3  502    0 -0.61287084840E+03 -0.22252138499E+02  0.10650818599E+04  0.12290351064E+04  0.46999998093E+01 0. -1.
       -5    1    3    3    0  502  0.61287084840E+03  0.22252138499E+02  0.39765902683E+03  0.73093134158E+03  0.46999998093E+01 0.  1.
</event>
<event>
 5   0  0.4761944E-04  0.1904257E+04  0.7818609E-02  0.8652740E-01
       -2   -1    0    0    0  501  0.00000000000E+00  0.00000000000E+00  0.90519173484E+03  0.90519173484E+03  0.25500000920E-02 0.  1.
        2   -1    0    0  501    0  0.00000000000E+00  0.00000000000E+00 -0.10014995723E+04  0.10014995723E+04  0.25500000920E-02 0. -1.
    10030    2    1    2    0    0  0.00000000000E+00  0.00000000000E+00 -0.96307837451E+02  0.19066913071E+04  0.19042574776E+04 0.  0.
        4    1    3    3  502    0 -0.90564930579E+02  0.11841840759E+02  0.90079431183E+03  0.90541385066E+03  0.12699999809E+01 0.  1.
       -4    1    3    3    0  502  0.90564930579E+02 -0.11841840759E+02 -0.99710214928E+03  0.10012774565E+04  0.12699999809E+01 0. -1.
</event>
<event>
 5   0  0.4973411E-04  0.1723103E+04  0.7818609E-02  0.8748296E-01
       -2   -1    0    0    0  501  0.00000000000E+00  0.00000000000E+00  0.87403762842E+03  0.87403762842E+03  0.25500000920E-02 0.  1.
        2   -1    0    0  501    0  0.00000000000E+00  0.00000000000E+00 -0.84924384624E+03  0.84924384624E+03  0.25500000920E-02 0. -1.
    10030    2    1    2    0    0  0.00000000000E+00  0.00000000000E+00  0.24793782178E+02  0.17232814747E+04  0.17231031047E+04 0.  0.
        1    1    3    3  502    0  0.42656075578E+03  0.50450854778E+03  0.56543525846E+03  0.86959759929E+03  0.50400001928E-02 0.  1.
       -1    1    3    3    0  502 -0.42656075578E+03 -0.50450854778E+03 -0.54064147628E+03  0.85368387537E+03  0.50400001928E-02 0. -1.
</event>
<event>
 5   0  0.2510069E-04  0.1105814E+04  0.7818609E-02  0.9199544E-01
        1   -1    0    0  501    0  0.00000000000E+00  0.00000000000E+00  0.80874131658E+03  0.80874131660E+03  0.50400001928E-02 0. -1.
       -1   -1    0    0    0  501  0.00000000000E+00  0.00000000000E+00 -0.37800227703E+03  0.37800227706E+03  0.50400001928E-02 0.  1.
    10030    2    1    2    0    0  0.00000000000E+00  0.00000000000E+00  0.43073903955E+03  0.11867435937E+04  0.11058138347E+04 0.  0.
        4    1    3    3  502    0 -0.41774764602E+03  0.92319227941E+02  0.59124277338E+03  0.72979830473E+03  0.12699999809E+01 0. -1.
       -4    1    3    3    0  502  0.41774764602E+03 -0.92319227941E+02 -0.16050373383E+03  0.45694528893E+03  0.12699999809E+01 0.  1.
</event>
<event>
 5   0  0.4829134E-04  0.1297490E+04  0.7818609E-02  0.9031558E-01
        2   -1    0    0  501    0  0.00000000000E+00  0.00000000000E+00  0.14956272497E+04  0.14956272497E+04  0.25500000920E-02 0.  1.
       -2   -1    0    0    0  501  0.00000000000E+00  0.00000000000E+00 -0.28140021119E+03  0.28140021120E+03  0.25500000920E-02 0. -1.
    10030    2    1    2    0    0  0.00000000000E+00  0.00000000000E+00  0.12142270385E+04  0.17770274609E+04  0.12974896130E+04 0.  0.
        2    1    3    3  502    0  0.57236495346E+03  0.30539422804E+03  0.60930034627E+03  0.89000796988E+03  0.25500000920E-02 0. -1.
       -2    1    3    3    0  502 -0.57236495346E+03 -0.30539422804E+03  0.60492669224E+03  0.88701949103E+03  0.25500000920E-02 0.  1.
</event>
<event>
 5   0  0.4802635E-04  0.1016319E+04  0.7818609E-02  0.9290825E-01
        2   -1    0    0  501    0  0.00000000000E+00  0.00000000000E+00  0.18044496719E+04  0.18044496719E+04  0.25500000920E-02 0.  1.
       -2   -1    0    0    0  501  0.00000000000E+00  0.00000000000E+00 -0.14310525201E+03  0.14310525203E+03  0.25500000920E-02 0. -1.
    10030    2    1    2    0    0  0.00000000000E+00  0.00000000000E+00  0.16613444199E+04  0.19475549239E+04  0.10163192905E+04 0.  0.
        3    1    3    3  502    0  0.16199388504E+03 -0.36569108913E+02  0.17509805397E+04  0.17588383038E+04  0.10100000352E+00 0.  1.
       -3    1    3    3    0  502 -0.16199388504E+03  0.36569108913E+02 -0.89636119807E+02  0.18871662007E+03  0.10100000352E+00 0. -1.
</event>
<event>
 5   0  0.1729375E-04  0.1943817E+04  0.7818609E-02  0.8633348E-01
        4   -1    0    0  501    0  0.00000000000E+00  0.00000000000E+00  0.84058036335E+03  0.84058132274E+03  0.12699999809E+01 0. -1.
       -4   -1    0    0    0  501  0.00000000000E+00  0.00000000000E+00 -0.11237524134E+04  0.11237531311E+04  0.12699999809E+01 0.  1.
    10030    2    1    2    0    0  0.00000000000E+00  0.00000000000E+00 -0.28317205009E+03  0.19643344538E+04  0.19438167189E+04 0.  0.
        1    1    3    3  502    0 -0.44301887892E+03 -0.71001035980E+03 -0.64099409331E+03  0.10541602657E+04  0.50400001928E-02 0.  1.
       -1    1    3    3    0  502  0.44301887892E+03  0.71001035980E+03  0.35782204321E+03  0.91017418813E+03  0.50400001928E-02 0. -1.
</event>
<event>
 5   0  0.4973411E-04  0.1868999E+04  0.7818609E-02  0.8670444E-01
       -2   -1    0    0    0  501  0.00000000000E+00  0.00000000000E+00  0.67461819710E+03  0.67461819711E+03  0.25500000920E-02 0. -1.
        2   -1    0    0  501    0  0.00000000000E+00  0.00000000000E+00 -0.12944935611E+04  0.12944935611E+04  0.25500000920E-02 0.  1.
    10030    2    1    2    0    0  0.00000000000E+00  0.00000000000E+00 -0.61987536399E+03  0.19691117582E+04  0.18689985686E+04 0.  0.
        1    1    3    3  502    0 -0.51430249883E+03 -0.75466869000E+03 -0.51868459576E+03  0.10502692997E+04  0.50400001928E-02 0.  1.
       -1    1    3    3    0  502  0.51430249883E+03  0.75466869000E+03 -0.10119076823E+03  0.91884245851E+03  0.50400001928E-02 0. -1.
</event>
<event>
 5   0  0.2261755E-04  0.1889373E+04  0.7818609E-02  0.8660164E-01
        1   -1    0    0  501    0  0.00000000000E+00  0.00000000000E+00  0.10557412440E+04  0.10557412440E+04  0.50400001928E-02 0. -1.
       -1   -1    0    0    0  501  0.00000000000E+00  0.00000000000E+00 -0.84531413442E+03  0.84531413443E+03  0.50400001928E-02 0.  1.
    10030    2    1    2    0    0  0.00000000000E+00  0.00000000000E+00  0.21042710961E+03  0.19010553785E+04  0.18893734368E+04 0.  0.
        1    1    3    3  502    0 -0.53696015390E+03 -0.50062315625E+03  0.70343417571E+03  0.10167445063E+04  0.50400001928E-02 0. -1.
       -1    1    3    3    0  502  0.53696015390E+03  0.50062315625E+03 -0.49300706610E+03  0.88431087220E+03  0.50400001928E-02 0.  1.
</event>
<event>
 5   0  0.4829134E-04  0.1934935E+04  0.7818609E-02  0.8637660E-01
        2   -1    0    0  501    0  0.00000000000E+00  0.00000000000E+00  0.13773732752E+04  0.13773732752E+04  0.25500000920E-02 0. -1.
       -2   -1    0    0    0  501  0.00000000000E+00  0.00000000000E+00 -0.67954924433E+03  0.67954924434E+03  0.25500000920E-02 0.  1.
    10030    2    1    2    0    0  0.00000000000E+00  0.00000000000E+00  0.69782403086E+03  0.20569225195E+04  0.19349345915E+04 0.  0.
        2    1    3    3  502    0 -0.52713827509E+03 -0.73297687157E+03  0.71848356610E+03  0.11538407560E+04  0.25500000920E-02 0.  1.
       -2    1    3    3    0  502  0.52713827509E+03  0.73297687157E+03 -0.20659535240E+02  0.90308176359E+03  0.25500000920E-02 0. -1.
</event>
<event>
 5   0  0.2355414E-04  0.1214941E+04  0.7818609E-02  0.9099878E-01
       -1   -1    0    0    0  501  0.00000000000E+00  0.00000000000E+00  0.24344741952E+03  0.24344741957E+03  0.50400001928E-02 0. -1.
        1   -1    0    0  501    0  0.00000000000E+00  0.00000000000E+00 -0.15158115290E+04  0.15158115290E+04  0.50400001928E-02 0.  1.
    10030    2    1    2    0    0  0.00000000000E+00  0.00000000000E+00 -0.12723641094E+04  0.17592589485E+04  0.12149409949E+04 0.  0.
        5    1    3    3  502    0 -0.15346870437E+03  0.18062773298E+02 -0.14868484444E+04  0.14948643061E+04  0.46999998093E+01 0.  1.
       -5    1    3    3    0  502  0.15346870437E+03 -0.18062773298E+02  0.21448433498E+03  0.26439464244E+03  0.46999998093E+01 0. -1.
</event>
<event>
 5   0  0.4839293E-04  0.1856628E+04  0.7818609E-02  0.8676752E-01
       -2   -1    0    0    0  501  0.00000000000E+00  0.00000000000E+00  0.92491547582E+03  0.92491547582E+03  0.25500000920E-02 0.  1.
        2   -1    0    0  501    0  0.00000000000E+00  0.00000000000E+00 -0.93172525011E+03  0.93172525011E+03  0.25500000920E-02 0. -1.
    10030    2    1    2    0    0  0.00000000000E+00  0.00000000000E+00 -0.68097742902E+01  0.18566407259E+04  0.18566282375E+04 0.  0.
        5    1    3    3  502    0 -0.73755869017E+03  0.43078844489E+03 -0.36696407827E+03  0.92965382291E+03  0.46999998093E+01 0. -1.
       -5    1    3    3    0  502  0.73755869017E+03 -0.43078844489E+03  0.36015430398E+03  0.92698690302E+03  0.46999998093E+01 0.  1.
</event>
<event>
 5   0  0.2510069E-04  0.1322107E+04  0.7818609E-02  0.9012215E-01
        1   -1    0    0  501    0  0.00000000000E+00  0.00000000000E+00  0.97202015390E+03  0.97202015391E+03  0.50400001928E-02 0. -1.
       -1   -1    0    0    0  501  0.00000000000E+00  0.00000000000E+00 -0.44957068746E+03  0.44957068748E+03  0.50400001928E-02 0.  1.
    10030    2    1    2    0    0  0.00000000000E+00  0.00000000000E+00  0.52244946644E+03  0.14215908414E+04  0.13221070590E+04 0.  0.
        4    1    3    3  502    0 -0.14885472236E+03 -0.12393626586E+03  0.94082147745E+03  0.96055431480E+03  0.12699999809E+01 0. -1.
       -4    1    3    3    0  502  0.14885472236E+03  0.12393626586E+03 -0.41837201100E+03  0.46103652659E+03  0.12699999809E+01 0.  1.
</event>
<event>
 5   0  0.4761944E-04  0.1943867E+04  0.7818609E-02  0.8633324E-01
        2   -1    0    0  501    0  0.00000000000E+00  0.00000000000E+00  0.10986927558E+04  0.10986927558E+04  0.25500000920E-02 0.  1.
       -2   -1    0    0    0  501  0.00000000000E+00  0.00000000000E+00 -0.85979877551E+03  0.85979877551E+03  0.25500000920E-02 0. -1.
    10030    2    1    2    0    0  0.00000000000E+00  0.00000000000E+00  0.23889398025E+03  0.19584915313E+04  0.19438669564E+04 0.  0.
        4    1    3    3  502    0 -0.77871094591E+03  0.27599231889E+03 -0.39635244613E+03  0.91632929224E+03  0.12699999809E+01 0. -1.
       -4    1    3    3    0  502  0.77871094591E+03 -0.27599231889E+03  0.63524642638E+03  0.10421622390E+04  0.12699999809E+01 0.  1.
</event>
<event>
 5   0  0.2261755E-04  0.1896420E+04  0.7818609E-02  0.8656640E-01
        1   -1    0    0  501    0  0.00000000000E+00  0.00000000000E+00  0.16945050252E+04  0.16945050252E+04  0.50400001928E-02 0. -1.
       -1   -1    0    0    0  501  0.00000000000E+00  0.00000000000E+00 -0.53059881239E+03  0.53059881241E+03  0.50400001928E-02 0.  1.
    10030    2    1    2    0    0  0.00000000000E+00  0.00000000000E+00  0.11639062128E+04  0.22251038376E+04  0.18964201581E+04 0.  0.
        1    1    3    3  502    0  0.11917153922E+02 -0.52400297276E+02 -0.52881068327E+03  0.53153414611E+03  0.50400001928E-02 0.  1.
       -1    1    3    3    0  502 -0.11917153922E+02  0.52400297276E+02  0.16927168961E+04  0.16935696915E+04  0.50400001928E-02 0. -1.
</event>
<event>
 5   0  0.4973411E-04  0.1897394E+04  0.7818609E-02  0.8656155E-01
       -2   -1    0    0    0  501  0.00000000000E+00  0.00000000000E+00  0.42534688993E+03  0.42534688993E+03  0.25500000920E-02 0. -1.
        2   -1    0    0  501    0  0.00000000000E+00  0.00000000000E+00 -0.21159814843E+04  0.21159814843E+04  0.25500000920E-02 0.  1.
    10030    2    1    2    0    0  0.00000000000E+00  0.00000000000E+00 -0.16906345944E+04  0.25413283742E+04  0.18973941536E+04 0.  0.
        1    1    3    3  502    0  0.68939269571E+03 -0.10213945252E+03 -0.17074560049E+04  0.18442073542E+04  0.50400001928E-02 0.  1.
       -1    1    3    3    0  502 -0.68939269571E+03  0.10213945252E+03  0.16821410539E+02  0.69712102000E+03  0.50400001928E-02 0. -1.
</event>
<event>
 5   0  0.2510069E-04  0.1988777E+04  0.7818609E-02  0.8611886E-01
        1   -1    0    0  501    0  0.00000000000E+00  0.00000000000E+00  0.10655872096E+04  0.10655872096E+04  0.50400001928E-02 0. -1.
       -1   -1    0    0    0  501  0.00000000000E+00  0.00000000000E+00 -0.92794749153E+03  0.92794749154E+03  0.50400001928E-02 0.  1.
    10030    2    1    2    0    0  0.00000000000E+00  0.00000000000E+00  0.13763971804E+03  0.19935347011E+04  0.19887774920E+04 0.  0.
        4    1    3    3  502    0  0.71566016108E+02 -0.66107342007E+03  0.80995818548E+03  0.10479378018E+04  0.12699999809E+01 0. -1.
       -4    1    3    3    0  502 -0.71566016108E+02  0.66107342007E+03 -0.67231846744E+03  0.94559689929E+03  0.12699999809E+01 0.  1.
</event>
<event>
 5   0  0.4802635E-04  0.1900963E+04  0.7818609E-02  0.8654377E-01
       -2   -1    0    0    0  501  0.00000000000E+00  0.00000000000E+00  0.52844643886E+03  0.52844643886E+03  0.25500000920E-02 0.  1.
        2   -1    0    0  501    0  0.00000000000E+00  0.00000000000E+00 -0.17095687628E+04  0.17095687628E+04  0.25500000920E-02 0. -1.
    10030    2    1    2    0    0  0.00000000000E+00  0.00000000000E+00 -0.11811223239E+04  0.22380152017E+04  0.19009634659E+04 0.  0.
        3    1    3    3  502    0  0.11364248423E+03  0.46669874323E+03  0.37503998996E+03  0.60940736411E+03  0.10100000352E+00 0.  1.
       -3    1    3    3    0  502 -0.11364248423E+03 -0.46669874323E+03 -0.15561623139E+04  0.16286078376E+04  0.10100000352E+00 0. -1.
</event>
<event>
 5   0  0.2317458E-04  0.2026549E+04  0.7818609E-02  0.8594308E-01
       -1   -1    0    0    0  501  0.00000000000E+00  0.00000000000E+00  0.95149203841E+03  0.95149203843E+03  0.50400001928E-02 0.  1.
        1   -1    0    0  501    0  0.00000000000E+00  0.00000000000E+00 -0.10790683809E+04  0.10790683809E+04  0.50400001928E-02 0. -1.
    10030    2    1    2    0    0  0.00000000000E+00  0.00000000000E+00 -0.12757634249E+03  0.20305604193E+04  0.20265487641E+04 0.  0.
        3    1    3    3  502    0 -0.69733196154E+03  0.24359902232E+03 -0.75878405140E+03  0.10589455109E+04  0.10100000352E+00 0. -1.
       -3    1    3    3    0  502  0.69733196154E+03 -0.24359902232E+03  0.63120770891E+03  0.97161490841E+03  0.10100000352E+00 0.  1.
</event>
<event>
 5   0  0.4973411E-04  0.1903377E+04  0.7818609E-02  0.8653177E-01
       -2   -1    0    0    0  501  0.00000000000E+00  0.00000000000E+00  0.14578592116E+04  0.14578592116E+04  0.25500000920E-02 0. -1.
        2   -1    0    0  501    0  0.00000000000E+00  0.00000000000E+00 -0.62126102729E+03  0.62126102730E+03  0.25500000920E-02 0.  1.
    10030    2    1    2    0    0  0.00000000000E+00  0.00000000000E+00  0.83659818431E+03  0.20791202389E+04  0.19033771160E+04 0.  0.
        1    1    3    3  502    0  0.23712798101E+03  0.64890190940E+03 -0.29666366346E+03  0.75187279286E+03  0.50400001928E-02 0.  1.
       -1    1    3    3    0  502 -0.23712798101E+03 -0.64890190940E+03  0.11332618478E+04  0.13272474460E+04  0.50400001928E-02 0. -1.
</event>
<event>
 5   0  0.2510069E-04  0.1903489E+04  0.7818609E-02  0.8653122E-01
        1   -1    0    0  501    0  0.00000000000E+00  0.00000000000E+00  0.15424064731E+04  0.15424064731E+04  0.50400001928E-02 0.  1.
       -1   -1    0    0    0  501  0.00000000000E+00  0.00000000000E+00 -0.58727530888E+03  0.58727530890E+03  0.50400001928E-02 0. -1.
    10030    2    1    2    0    0  0.00000000000E+00  0.00000000000E+00  0.95513116417E+03  0.21296817820E+04  0.19034886266E+04 0.  0.
        4    1    3    3  502    0  0.45546249642E+02  0.88488656833E+03  0.88835175752E+02  0.89050098316E+03  0.12699999809E+01 0.  1.
       -4    1    3    3    0  502 -0.45546249642E+02 -0.88488656833E+03  0.86629598842E+03  0.12391807988E+04  0.12699999809E+01 0. -1.
</event>
<event>
 5   0  0.4802635E-04  0.1785022E+04  0.7818609E-02  0.8714305E-01
        2   -1    0    0  501    0  0.00000000000E+00  0.00000000000E+00  0.15681892411E+04  0.15681892411E+04  0.25500000920E-02 0.  1.
       -2   -1    0    0    0  501  0.00000000000E+00  0.00000000000E+00 -0.50795894592E+03  0.50795894593E+03  0.25500000920E-02 0. -1.
    10030    2    1    2    0    0  0.00000000000E+00  0.00000000000E+00  0.10602302952E+04  0.20761481870E+04  0.17850218530E+04 0.  0.
        3    1    3    3  502    0 -0.78198018845E+03  0.37981732308E+03  0.29511970024E+03  0.91806854957E+03  0.10100000352E+00 0.  1.
       -3    1    3    3    0  502  0.78198018845E+03 -0.37981732308E+03  0.76511059493E+03  0.11580796375E+04  0.10100000352E+00 0. -1.
</event>
<event>
 5   0  0.2510069E-04  0.2106173E+04  0.7818609E-02  0.8558529E-01
       -1   -1    0    0    0  501  0.00000000000E+00  0.00000000000E+00  0.71404233725E+03  0.71404233727E+03  0.50400001928E-02 0.  1.
        1   -1    0    0  501    0  0.00000000000E+00  0.00000000000E+00 -0.15531169292E+04  0.15531169292E+04  0.50400001928E-02 0. -1.
    10030    2    1    2    0    0  0.00000000000E+00  0.00000000000E+00 -0.83907459196E+03  0.22671592665E+04  0.21061730624E+04 0.  0.
        4    1    3    3  502    0  0.85339665603E+03 -0.52282454494E+03 -0.66837074441E+02  0.10030454450E+04  0.12699999809E+01 0.  1.
       -4    1    3    3    0  502 -0.85339665603E+03  0.52282454494E+03 -0.77223751751E+03  0.12641138215E+04  0.12699999809E+01 0. -1.
</event>
<event>
 5   0  0.1729375E-04  0.1907340E+04  0.7818609E-02  0.8651212E-01
        3   -1    0    0  501    0  0.00000000000E+00  0.00000000000E+00  0.16737996402E+04  0.16737996433E+04  0.10100000352E+00 0.  1.
       -3   -1    0    0    0  501  0.00000000000E+00  0.00000000000E+00 -0.54336615831E+03  0.54336616769E+03  0.10100000352E+00 0. -1.
    10030    2    1    2    0    0  0.00000000000E+00  0.00000000000E+00  0.11304334819E+04  0.22171658110E+04  0.19073396070E+04 0.  0.
        4    1    3    3  502    0  0.81992435963E+03 -0.45268326168E+03  0.77408858065E+03  0.12150772957E+04  0.12699999809E+01 0.  1.
       -4    1    3    3    0  502 -0.81992435963E+03  0.45268326168E+03  0.35634490129E+03  0.10020885153E+04  0.12699999809E+01 0. -1.
</event>
<event>
 5   0  0.2510069E-04  0.1900857E+04  0.7818609E-02  0.8654430E-01
       -1   -1    0    0    0  501  0.00000000000E+00  0.00000000000E+00  0.12045464061E+04  0.12045464061E+04  0.50400001928E-02 0.  1.
        1   -1    0    0  501    0  0.00000000000E+00  0.00000000000E+00 -0.74992082838E+03  0.74992082840E+03  0.50400001928E-02 0. -1.
    10030    2    1    2    0    0  0.00000000000E+00  0.00000000000E+00  0.45462557770E+03  0.19544672345E+04  0.19008571106E+04 0.  0.
        4    1    3    3  502    0  0.70404830410E+03 -0.28056185124E+03 -0.36237211380E+03  0.84006793097E+03  0.12699999809E+01 0. -1.
       -4    1    3    3    0  502 -0.70404830410E+03  0.28056185124E+03  0.81699769150E+03  0.11143993035E+04  0.12699999809E+01 0.  1.
</event>
<event>
 5   0  0.2355414E-04  0.1888147E+04  0.7818609E-02  0.8660779E-01
       -1   -1    0    0    0  501  0.00000000000E+00  0.00000000000E+00  0.16159066764E+04  0.16159066764E+04  0.50400001928E-02 0.  1.
        1   -1    0    0  501    0  0.00000000000E+00  0.00000000000E+00 -0.55156310792E+03  0.55156310794E+03  0.50400001928E-02 0. -1.
    10030    2    1    2    0    0  0.00000000000E+00  0.00000000000E+00  0.10643435685E+04  0.21674697844E+04  0.18881467195E+04 0.  0.
        5    1    3    3  502    0  0.40679026940E+03  0.56154554654E+03  0.12676037801E+04  0.14448713290E+04  0.46999998093E+01 0.  1.
       -5    1    3    3    0  502 -0.40679026940E+03 -0.56154554654E+03 -0.20326021155E+03  0.72259845538E+03  0.46999998093E+01 0. -1.
</event>
<event>
 5   0  0.4829134E-04  0.1815542E+04  0.7818609E-02  0.8698078E-01
       -2   -1    0    0    0  501  0.00000000000E+00  0.00000000000E+00  0.16707071882E+04  0.16707071882E+04  0.25500000920E-02 0. -1.
        2   -1    0    0  501    0  0.00000000000E+00  0.00000000000E+00 -0.49323315396E+03  0.49323315397E+03  0.25500000920E-02 0.  1.
    10030    2    1    2    0    0  0.00000000000E+00  0.00000000000E+00  0.11774740342E+04  0.21639403422E+04  0.18155419861E+04 0.  0.
        2    1    3    3  502    0  0.83783556268E+03 -0.21588763892E+03  0.91617774852E+03  0.12601418847E+04  0.25500000920E-02 0. -1.
       -2    1    3    3    0  502 -0.83783556268E+03  0.21588763892E+03  0.26129628569E+03  0.90379845743E+03  0.25500000920E-02 0.  1.
</event>
<event>
 5   0  0.4761944E-04  0.1581956E+04  0.7818609E-02  0.8831710E-01
        2   -1    0    0  501    0  0.00000000000E+00  0.00000000000E+00  0.82130397356E+03  0.82130397357E+03  0.25500000920E-02 0. -1.
       -2   -1    0    0    0  501  0.00000000000E+00  0.00000000000E+00 -0.76177196668E+03  0.76177196668E+03  0.25500000920E-02 0.  1.
    10030    2    1    2    0    0  0.00000000000E+00  0.00000000000E+00  0.59532006882E+02  0.15830759403E+04  0.15819561855E+04 0.  0.
        4    1    3    3  502    0 -0.55026540022E+03  0.17911119626E+03 -0.50984837586E+03  0.77124562272E+03  0.12699999809E+01 0.  1.
       -4    1    3    3    0  502  0.55026540022E+03 -0.17911119626E+03  0.56938038274E+03  0.81183031753E+03  0.12699999809E+01 0. -1.
</event>
<event>
 5   0  0.4839293E-04  0.1993028E+04  0.7818609E-02  0.8609887E-01
        2   -1    0    0  501    0  0.00000000000E+00  0.00000000000E+00  0.22280958729E+04  0.22280958729E+04  0.25500000920E-02 0.  1.
       -2   -1    0    0    0  501  0.00000000000E+00  0.00000000000E+00 -0.44568994244E+03  0.44568994245E+03  0.25500000920E-02 0. -1.
    10030    2    1    2    0    0  0.00000000000E+00  0.00000000000E+00  0.17824059305E+04  0.26737858154E+04  0.19930277684E+04 0.  0.
        5    1    3    3  502    0  0.52657340164E+03 -0.55767062138E+03  0.17447005066E+04  0.19058536190E+04  0.46999998093E+01 0.  1.
       -5    1    3    3    0  502 -0.52657340164E+03  0.55767062138E+03  0.37705423881E+02  0.76793219639E+03  0.46999998093E+01 0. -1.
</event>
<event>
 5   0  0.1729375E-04  0.1902163E+04  0.7818609E-02  0.8653780E-01
        4   -1    0    0  501    0  0.00000000000E+00  0.00000000000E+00  0.56915653632E+03  0.56915795324E+03  0.12699999809E+01 0.  1.
       -4   -1    0    0    0  501  0.00000000000E+00  0.00000000000E+00 -0.15892885991E+04  0.15892891065E+04  0.12699999809E+01 0. -1.
    10030    2    1    2    0    0  0.00000000000E+00  0.00000000000E+00 -0.10201320627E+04  0.21584470597E+04  0.19021630541E+04 0.  0.
        2    1    3    3  502    0 -0.38579506193E+03 -0.83104067699E+03 -0.79956670281E+03  0.12160482510E+04  0.25500000920E-02 0. -1.
       -2    1    3    3    0  502  0.38579506193E+03  0.83104067699E+03 -0.22056535993E+03  0.94239880869E+03  0.25500000920E-02 0.  1.
</event>
<event>
 5   0  0.2510069E-04  0.1910045E+04  0.7818609E-02  0.8649872E-01
       -1   -1    0    0    0  501  0.00000000000E+00  0.00000000000E+00  0.53322767897E+03  0.53322767899E+03  0.50400001928E-02 0.  1.
        1   -1    0    0  501    0  0.00000000000E+00  0.00000000000E+00 -0.17104670859E+04  0.17104670859E+04  0.50400001928E-02 0. -1.
    10030    2    1    2    0    0  0.00000000000E+00  0.00000000000E+00 -0.11772394069E+04  0.22436947649E+04  0.19100454384E+04 0.  0.
        4    1    3    3  502    0  0.57769719153E+03 -0.75097439414E+03 -0.72943551257E+03  0.11957317281E+04  0.12699999809E+01 0. -1.
       -4    1    3    3    0  502 -0.57769719153E+03  0.75097439414E+03 -0.44780389436E+03  0.10479630368E+04  0.12699999809E+01 0.  1.
</event>
<event>
 5   0  0.2261755E-04  0.1878478E+04  0.7818609E-02  0.8665644E-01
       -1   -1    0    0    0  501  0.00000000000E+00  0.00000000000E+00  0.35654009396E+03  0.35654009399E+03  0.50400001928E-02 0. -1.
        1   -1    0    0  501    0  0.00000000000E+00  0.00000000000E+00 -0.24742509445E+04  0.24742509445E+04  0.50400001928E-02 0.  1.
    10030    2    1    2    0    0  0.00000000000E+00  0.00000000000E+00 -0.21177108505E+04  0.28307910385E+04  0.18784777500E+04 0.  0.
        1    1    3    3  502    0  0.36402440556E+03 -0.25749164089E+03  0.18687654917E+03  0.48346515658E+03  0.50400001928E-02 0. -1.
       -1    1    3    3    0  502 -0.36402440556E+03  0.25749164089E+03 -0.23045873997E+04  0.23473258819E+04  0.50400001928E-02 0.  1.
</event>
<event>
 5   0  0.4802635E-04  0.1850543E+04  0.7818609E-02  0.8679874E-01
       -2   -1    0    0    0  501  0.00000000000E+00  0.00000000000E+00  0.11912502734E+04  0.11912502734E+04  0.25500000920E-02 0.  1.
        2   -1    0    0  501    0  0.00000000000E+00  0.00000000000E+00 -0.71867937527E+03  0.71867937528E+03  0.25500000920E-02 0. -1.
    10030    2    1    2    0    0  0.00000000000E+00  0.00000000000E+00  0.47257089814E+03  0.19099296487E+04  0.18505426256E+04 0.  0.
        3    1    3    3  502    0  0.13403573969E+03 -0.84126911123E+03 -0.13645213599E+03  0.86273894814E+03  0.10100000352E+00 0. -1.
       -3    1    3    3    0  502 -0.13403573969E+03  0.84126911123E+03  0.60902303413E+03  0.10471907006E+04  0.10100000352E+00 0.  1.
</event>
<event>
 5   0  0.4973411E-04  0.1582783E+04  0.7818609E-02  0.8831195E-01
        2   -1    0    0  501    0  0.00000000000E+00  0.00000000000E+00  0.98113648844E+03  0.98113648844E+03  0.25500000920E-02 0.  1.
       -2   -1    0    0    0  501  0.00000000000E+00  0.00000000000E+00 -0.63834211486E+03  0.63834211486E+03  0.25500000920E-02 0. -1.
    10030    2    1    2    0    0  0.00000000000E+00  0.00000000000E+00  0.34279437358E+03  0.16194786033E+04  0.15827832966E+04 0.  0.
        1    1    3    3  502    0 -0.21353035781E+02  0.33139338345E+03  0.90639894135E+03  0.96531682242E+03  0.50400001928E-02 0.  1.
       -1    1    3    3    0  502  0.21353035781E+02 -0.33139338345E+03 -0.56360456777E+03  0.65416178089E+03  0.50400001928E-02 0. -1.
</event>
<event>
 5   0  0.4839293E-04  0.1894165E+04  0.7818609E-02  0.8657766E-01
        2   -1    0    0  501    0  0.00000000000E+00  0.00000000000E+00  0.18588069032E+04  0.18588069032E+04  0.25500000920E-02 0. -1.
       -2   -1    0    0    0  501  0.00000000000E+00  0.00000000000E+00 -0.48254879872E+03  0.48254879872E+03  0.25500000920E-02 0.  1.
    10030    2    1    2    0    0  0.00000000000E+00  0.00000000000E+00  0.13762581045E+04  0.23413557019E+04  0.18941647639E+04 0.  0.
        5    1    3    3  502    0 -0.43331486518E+03  0.71804141636E+03  0.14425324504E+03  0.85098550910E+03  0.46999998093E+01 0.  1.
       -5    1    3    3    0  502  0.43331486518E+03 -0.71804141636E+03  0.12320048595E+04  0.14903701929E+04  0.46999998093E+01 0. -1.
</event>
<event>
 5   0  0.2317458E-04  0.1825803E+04  0.7818609E-02  0.8692697E-01
        1   -1    0    0  501    0  0.00000000000E+00  0.00000000000E+00  0.15495967795E+04  0.15495967795E+04  0.50400001928E-02 0.  1.
       -1   -1    0    0    0  501  0.00000000000E+00  0.00000000000E+00 -0.53781038561E+03  0.53781038563E+03  0.50400001928E-02 0. -1.
    10030    2    1    2    0    0  0.00000000000E+00  0.00000000000E+00  0.10117863939E+04  0.20874071651E+04  0.18258031017E+04 0.  0.
        3    1    3    3  502    0  0.72624205163E+03 -0.13464083319E+03 -0.10747879876E+03  0.74639625796E+03  0.10100000352E+00 0. -1.
       -3    1    3    3    0  502 -0.72624205163E+03  0.13464083319E+03  0.11192651926E+04  0.13410109072E+04  0.10100000352E+00 0.  1.
</event>
<event>
 5   0  0.4829134E-04  0.1137333E+04  0.7818609E-02  0.9169549E-01
        2   -1    0    0  501    0  0.00000000000E+00  0.00000000000E+00  0.11275867511E+04  0.11275867511E+04  0.25500000920E-02 0.  1.
       -2   -1    0    0    0  501  0.00000000000E+00  0.00000000000E+00 -0.28679106892E+03  0.28679106893E+03  0.25500000920E-02 0. -1.
    10030    2    1    2    0    0  0.00000000000E+00  0.00000000000E+00  0.84079568218E+03  0.14143778200E+04  0.11373333894E+04 0.  0.
        2    1    3    3  502    0  0.99459962271E+02  0.51893406505E+02  0.11136891845E+04  0.11193251580E+04  0.25500000920E-02 0.  1.
       -2    1    3    3    0  502 -0.99459962271E+02 -0.51893406505E+02 -0.27289350232E+03  0.29505266199E+03  0.25500000920E-02 0. -1.
</event>
<event>
 5   0  0.2261755E-04  0.1824927E+04  0.7818609E-02  0.8693155E-01
       -1   -1    0    0    0  501  0.00000000000E+00  0.00000000000E+00  0.80189376389E+03  0.80189376390E+03  0.50400001928E-02 0.  1.
        1   -1    0    0  501    0  0.00000000000E+00  0.00000000000E+00 -0.10382790213E+04  0.10382790213E+04  0.50400001928E-02 0. -1.
    10030    2    1    2    0    0  0.00000000000E+00  0.00000000000E+00 -0.23638525744E+03  0.18401727852E+04  0.18249268176E+04 0.  0.
        1    1    3    3  502    0 -0.27650889044E+03  0.18041905358E+03 -0.97593489077E+03  0.10302704074E+04  0.50400001928E-02 0. -1.
       -1    1    3    3    0  502  0.27650889044E+03 -0.18041905358E+03  0.73954963333E+03  0.80990237781E+03  0.50400001928E-02 0.  1.
</event>
<event>
 5   0  0.4802635E-04  0.1928994E+04  0.7818609E-02  0.8640558E-01
        2   -1    0    0  501    0  0.00000000000E+00  0.00000000000E+00  0.22821862865E+04  0.22821862865E+04  0.25500000920E-02 0. -1.
       -2   -1    0    0    0  501  0.00000000000E+00  0.00000000000E+00 -0.40761529199E+03  0.40761529200E+03  0.25500000920E-02 0.  1.
    10030    2    1    2    0    0  0.00000000000E+00  0.00000000000E+00  0.18745709945E+04  0.26898015785E+04  0.19289935506E+04 0.  0.
        3    1    3    3  502    0  0.54218640106E+03  0.69130953201E+03  0.38235531725E+03  0.95815998736E+03  0.10100000352E+00 0.  1.
       -3    1    3    3    0  502 -0.54218640106E+03 -0.69130953201E+03  0.14922156772E+04  0.17316415911E+04  0.10100000352E+00 0. -1.
</event>
<event>
 5   0  0.4829134E-04  0.1846254E+04  0.7818609E-02  0.8682082E-01
        2   -1    0    0  501    0  0.00000000000E+00  0.00000000000E+00  0.11538306342E+04  0.11538306342E+04  0.25500000920E-02 0. -1.
       -2   -1    0    0    0  501  0.00000000000E+00  0.00000000000E+00 -0.73855120760E+03  0.73855120760E+03  0.25500000920E-02 0.  1.
    10030    2    1    2    0    0  0.00000000000E+00  0.00000000000E+00  0.41527942659E+03  0.18923818418E+04  0.18462535127E+04 0.  0.
        2    1    3    3  502    0 -0.30750533637E+03  0.68607318274E+02  0.10970150466E+04  0.11413625666E+04  0.25500000920E-02 0. -1.
       -2    1    3    3    0  502  0.30750533637E+03 -0.68607318274E+02 -0.68173562003E+03  0.75101927515E+03  0.25500000920E-02 0.  1.
</event>
<event>
 5   0  0.2261755E-04  0.1821436E+04  0.7818609E-02  0.8694983E-01
        1   -1    0    0  501    0  0.00000000000E+00  0.00000000000E+00  0.95167027641E+03  0.95167027642E+03  0.50400001928E-02 0. -1.
       -1   -1    0    0    0  501  0.00000000000E+00  0.00000000000E+00 -0.87152776627E+03  0.87152776628E+03  0.50400001928E-02 0.  1.
    10030    2    1    2    0    0  0.00000000000E+00  0.00000000000E+00  0.80142510141E+02  0.18231980427E+04  0.18214357746E+04 0.  0.
        1    1    3    3  502    0  0.19690887442E+03 -0.56704536194E+03  0.72563793520E+03  0.94173454878E+03  0.50400001928E-02 0. -1.
       -1    1    3    3    0  502 -0.19690887442E+03  0.56704536194E+03 -0.64549542506E+03  0.88146349393E+03  0.50400001928E-02 0.  1.
</event>
<event>
 5   0  0.4839293E-04  0.1553532E+04  0.7818609E-02  0.8849615E-01
        2   -1    0    0  501    0  0.00000000000E+00  0.00000000000E+00  0.16787058702E+04  0.16787058702E+04  0.25500000920E-02 0.  1.
       -2   -1    0    0    0  501  0.00000000000E+00  0.00000000000E+00 -0.35942317604E+03  0.35942317605E+03  0.25500000920E-02 0. -1.
    10030    2    1    2    0    0  0.00000000000E+00  0.00000000000E+00  0.13192826941E+04  0.20381290462E+04  0.15535324850E+04 0.  0.
        5    1    3    3  502    0  0.49118631609E+03 -0.24554626074E+03 -0.61070096362E+02  0.55254738254E+03  0.46999998093E+01 0. -1.
       -5    1    3    3    0  502 -0.49118631609E+03  0.24554626074E+03  0.13803527905E+04  0.14855816637E+04  0.46999998093E+01 0.  1.
</event>
<event>
 5   0  0.4829134E-04  0.1616427E+04  0.7818609E-02  0.8810519E-01
       -2   -1    0    0    0  501  0.00000000000E+00  0.00000000000E+00  0.63449099712E+03  0.63449099713E+03  0.25500000920E-02 0. -1.
        2   -1    0    0  501    0  0.00000000000E+00  0.00000000000E+00 -0.10295006846E+04  0.10295006846E+04  0.25500000920E-02 0.  1.
    10030    2    1    2    0    0  0.00000000000E+00  0.00000000000E+00 -0.39500968752E+03  0.16639916818E+04  0.16164268198E+04 0.  0.
        2    1    3    3  502    0 -0.20310779285E+03  0.45902330994E+03  0.45458081769E+03  0.67719930183E+03  0.25500000920E-02 0. -1.
       -2    1    3    3    0  502  0.20310779285E+03 -0.45902330994E+03 -0.84959050521E+03  0.98679237995E+03  0.25500000920E-02 0.  1.
</event>
<event>
 5   0  0.4839293E-04  0.1882846E+04  0.7818609E-02  0.8663443E-01
        2   -1    0    0  501    0  0.00000000000E+00  0.00000000000E+00  0.84412002514E+03  0.84412002515E+03  0.25500000920E-02 0. -1.
       -2   -1    0    0    0  501  0.00000000000E+00  0.00000000000E+00 -0.10499418024E+04  0.10499418024E+04  0.25500000920E-02 0.  1.
    10030    2    1    2    0    0  0.00000000000E+00  0.00000000000E+00 -0.20582177729E+03  0.18940618276E+04  0.18828456131E+04 0.  0.
        5    1    3    3  502    0 -0.11423439424E+03 -0.28589276607E+03  0.79203514025E+03  0.84977992675E+03  0.46999998093E+01 0. -1.
       -5    1    3    3    0  502  0.11423439424E+03  0.28589276607E+03 -0.99785691754E+03  0.10442819008E+04  0.46999998093E+01 0.  1.
</event>
<event>
 5   0  0.2261755E-04  0.1490339E+04  0.7818609E-02  0.8890903E-01
        1   -1    0    0  501    0  0.00000000000E+00  0.00000000000E+00  0.97856135271E+03  0.97856135273E+03  0.50400001928E-02 0.  1.
       -1   -1    0    0    0  501  0.00000000000E+00  0.00000000000E+00 -0.56744281331E+03  0.56744281333E+03  0.50400001928E-02 0. -1.
    10030    2    1    2    0    0  0.00000000000E+00  0.00000000000E+00  0.41111853941E+03  0.15460041661E+04  0.14903390312E+04 0.  0.
        1    1    3    3  502    0  0.56251292206E+03  0.19960662337E+03  0.66833163348E+03  0.89606404007E+03  0.50400001928E-02 0.  1.
       -1    1    3    3    0  502 -0.56251292206E+03 -0.19960662337E+03 -0.25721309407E+03  0.64994012598E+03  0.50400001928E-02 0. -1.
</event>
<event>
 5   0  0.4761944E-04  0.1892375E+04  0.7818609E-02  0.8658661E-01
        2   -1    0    0  501    0  0.00000000000E+00  0.00000000000E+00  0.13971859115E+04  0.13971859115E+04  0.25500000920E-02 0.  1.
       -2   -1    0    0    0  501  0.00000000000E+00  0.00000000000E+00 -0.64076713332E+03  0.64076713332E+03  0.25500000920E-02 0. -1.
    10030    2    1    2    0    0  0.00000000000E+00  0.00000000000E+00  0.75641877818E+03  0.20379530448E+04  0.18923750276E+04 0.  0.
        4    1    3    3  502    0  0.42040609201E+03 -0.81457350830E+03  0.63076677904E+03  0.11127172260E+04  0.12699999809E+01 0.  1.
       -4    1    3    3    0  502 -0.42040609201E+03  0.81457350830E+03  0.12565199914E+03  0.92523581881E+03  0.12699999809E+01 0. -1.
</event>
<event>
 5   0  0.4802635E-04  0.1787675E+04  0.7818609E-02  0.8712881E-01
       -2   -1    0    0    0  501  0.00000000000E+00  0.00000000000E+00  0.42640517710E+03  0.42640517711E+03  0.25500000920E-02 0.  1.
        2   -1    0    0  501    0  0.00000000000E+00  0.00000000000E+00 -0.18736773573E+04  0.18736773573E+04  0.25500000920E-02 0. -1.
    10030    2    1    2    0    0  0.00000000000E+00  0.00000000000E+00 -0.14472721802E+04  0.23000825344E+04  0.17876752785E+04 0.  0.
        3    1    3    3  502    0  0.70411704603E+02 -0.10174918919E+03  0.41533237780E+03  0.43337247247E+03  0.10100000352E+00 0.  1.
       -3    1    3    3    0  502 -0.70411704603E+02  0.10174918919E+03 -0.18626045580E+04  0.18667100619E+04  0.10100000352E+00 0. -1.
</event>
<event>
 5   0  0.1729375E-04  0.1922252E+04  0.7818609E-02  0.8643859E-01
        4   -1    0    0  501    0  0.00000000000E+00  0.00000000000E+00  0.84897601037E+03  0.84897696028E+03  0.12699999809E+01 0. -1.
       -4   -1    0    0    0  501  0.00000000000E+00  0.00000000000E+00 -0.10880893325E+04  0.10880900736E+04  0.12699999809E+01 0.  1.
    10030    2    1    2    0    0  0.00000000000E+00  0.00000000000E+00 -0.23911332211E+03  0.19370670339E+04  0.19222521981E+04 0.  0.
        2    1    3    3  502    0  0.33901223259E+03  0.87428901104E+03 -0.33201994584E+03  0.99476017869E+03  0.25500000920E-02 0. -1.
       -2    1    3    3    0  502 -0.33901223259E+03 -0.87428901104E+03  0.92906623735E+02  0.94230685523E+03  0.25500000920E-02 0.  1.
</event>
<event>
 5   0  0.4802635E-04  0.1923992E+04  0.7818609E-02  0.8643005E-01
        2   -1    0    0  501    0  0.00000000000E+00  0.00000000000E+00  0.10210589259E+04  0.10210589259E+04  0.25500000920E-02 0.  1.
       -2   -1    0    0    0  501  0.00000000000E+00  0.00000000000E+00 -0.90634972547E+03  0.90634972547E+03  0.25500000920E-02 0. -1.
    10030    2    1    2    0    0  0.00000000000E+00  0.00000000000E+00  0.11470920044E+03  0.19274086514E+04  0.19239921800E+04 0.  0.
        3    1    3    3  502    0 -0.49865814914E+03 -0.17978449041E+03 -0.74684986772E+03  0.91584231602E+03  0.10100000352E+00 0. -1.
       -3    1    3    3    0  502  0.49865814914E+03  0.17978449041E+03  0.86155906816E+03  0.10115663354E+04  0.10100000352E+00 0.  1.
</event>
<event>
 5   0  0.2317458E-04  0.1847724E+04  0.7818609E-02  0.8681324E-01
       -1   -1    0    0    0  501  0.00000000000E+00  0.00000000000E+00  0.57280339662E+03  0.57280339664E+03  0.50400001928E-02 0. -1.
        1   -1    0    0  501    0  0.00000000000E+00  0.00000000000E+00 -0.14900774348E+04  0.14900774348E+04  0.50400001928E-02 0.  1.
    10030    2    1    2    0    0  0.00000000000E+00  0.00000000000E+00 -0.91727403818E+03  0.20628808315E+04  0.18477244556E+04 0.  0.
        3    1    3    3  502    0  0.10513618196E+03 -0.89293289168E+03 -0.69583509833E+03  0.11369121602E+04  0.10100000352E+00 0.  1.
       -3    1    3    3    0  502 -0.10513618196E+03  0.89293289168E+03 -0.22143893985E+03  0.92596867122E+03  0.10100000352E+00 0. -1.
</event>
<event>
 5   0  0.2317458E-04  0.1661938E+04  0.7818609E-02  0.8783375E-01
        1   -1    0    0  501    0  0.00000000000E+00  0.00000000000E+00  0.12040991284E+04  0.12040991285E+04  0.50400001928E-02 0. -1.
       -1   -1    0    0    0  501  0.00000000000E+00  0.00000000000E+00 -0.57346596290E+03  0.57346596292E+03  0.50400001928E-02 0.  1.
    10030    2    1    2    0    0  0.00000000000E+00  0.00000000000E+00  0.63063316555E+03  0.17775650914E+04  0.16619384659E+04 0.  0.
        3    1    3    3  502    0  0.25661766386E+03  0.53216188044E+03 -0.30968498073E+03  0.66704849141E+03  0.10100000352E+00 0.  1.
       -3    1    3    3    0  502 -0.25661766386E+03 -0.53216188044E+03  0.94031814628E+03  0.11105166000E+04  0.10100000352E+00 0. -1.
</event>
<event>
 5   0  0.4761944E-04  0.1945578E+04  0.7818609E-02  0.8632496E-01
       -2   -1    0    0    0  501  0.00000000000E+00  0.00000000000E+00  0.10706014554E+04  0.10706014554E+04  0.25500000920E-02 0. -1.
        2   -1    0    0  501    0  0.00000000000E+00  0.00000000000E+00 -0.88391313907E+03  0.88391313907E+03  0.25500000920E-02 0.  1.
    10030    2    1    2    0    0  0.00000000000E+00  0.00000000000E+00  0.18668831635E+03  0.19545145945E+04  0.19455782618E+04 0.  0.
        4    1    3    3  502    0 -0.87625548329E+02  0.73877936425E+03  0.72299562064E+03  0.10373993764E+04  0.12699999809E+01 0. -1.
       -4    1    3    3    0  502  0.87625548329E+02 -0.73877936425E+03 -0.53630730428E+03  0.91711521811E+03  0.12699999809E+01 0.  1.
</event>
<event>
 5   0  0.2355414E-04  0.9654345E+03  0.7818609E-02  0.9347290E-01
       -1   -1    0    0    0  501  0.00000000000E+00  0.00000000000E+00  0.35495194529E+03  0.35495194532E+03  0.50400001928E-02 0. -1.
        1   -1    0    0  501    0  0.00000000000E+00  0.00000000000E+00 -0.65647176234E+03  0.65647176236E+03  0.50400001928E-02 0.  1.
    10030    2    1    2    0    0  0.00000000000E+00  0.00000000000E+00 -0.30151981706E+03  0.10114237077E+04  0.96543447027E+03 0.  0.
        5    1    3    3  502    0  0.65588675033E+02  0.38681800750E+03  0.14381730742E+03  0.41789418891E+03  0.46999998093E+01 0. -1.
       -5    1    3    3    0  502 -0.65588675033E+02 -0.38681800750E+03 -0.44533712447E+03  0.59352951877E+03  0.46999998093E+01 0.  1.
</event>
<event>
 5   0  0.2317458E-04  0.1857360E+04  0.7818609E-02  0.8676377E-01
        1   -1    0    0  501    0  0.00000000000E+00  0.00000000000E+00  0.56105743812E+03  0.56105743814E+03  0.50400001928E-02 0. -1.
       -1   -1    0    0    0  501  0.00000000000E+00  0.00000000000E+00 -0.15371800121E+04  0.15371800121E+04  0.50400001928E-02 0.  1.
    10030    2    1    2    0    0  0.00000000000E+00  0.00000000000E+00 -0.97612257396E+03  0.20982374502E+04  0.18573597169E+04 0.  0.
        3    1    3    3  502    0  0.63720171889E+03 -0.25734972372E+03 -0.11937244313E+04  0.13774007909E+04  0.10100000352E+00 0.  1.
       -3    1    3    3    0  502 -0.63720171889E+03  0.25734972372E+03  0.21760185732E+03  0.72083665928E+03  0.10100000352E+00 0. -1.
</event>
<event>
 5   0  0.1729375E-04  0.1847029E+04  0.7818609E-02  0.8681682E-01
       -3   -1    0    0    0  501  0.00000000000E+00  0.00000000000E+00  0.19154888477E+04  0.19154888503E+04  0.10100000352E+00 0.  1.
        3   -1    0    0  501    0  0.00000000000E+00  0.00000000000E+00 -0.44525419193E+03  0.44525420339E+03  0.10100000352E+00 0. -1.
    10030    2    1    2    0    0  0.00000000000E+00  0.00000000000E+00  0.14702346558E+04  0.23607430537E+04  0.18470294591E+04 0.  0.
        1    1    3    3  502    0 -0.37855017903E+03 -0.21970120442E+03  0.17745051872E+04  0.18276863836E+04  0.50400001928E-02 0.  1.
       -1    1    3    3    0  502  0.37855017903E+03  0.21970120442E+03 -0.30427053145E+03  0.53305667016E+03  0.50400001928E-02 0. -1.
</event>
<event>
 5   0  0.2317458E-04  0.1888412E+04  0.7818609E-02  0.8660646E-01
        1   -1    0    0  501    0  0.00000000000E+00  0.00000000000E+00  0.99791454377E+03  0.99791454378E+03  0.50400001928E-02 0.  1.
       -1   -1    0    0    0  501  0.00000000000E+00  0.00000000000E+00 -0.89338788299E+03  0.89338788300E+03  0.50400001928E-02 0. -1.
    10030    2    1    2    0    0  0.00000000000E+00  0.00000000000E+00  0.10452666078E+03  0.18913024268E+04  0.18884117789E+04 0.  0.
        3    1    3    3  502    0  0.12062987720E+01 -0.53434137152E+03 -0.72738996897E+03  0.90256209406E+03  0.10100000352E+00 0. -1.
       -3    1    3    3    0  502 -0.12062987720E+01  0.53434137152E+03  0.83191662976E+03  0.98874033272E+03  0.10100000352E+00 0.  1.
</event>
<event>
 5   0  0.4973411E-04  0.1760162E+04  0.7818609E-02  0.8727776E-01
        2   -1    0    0  501    0  0.00000000000E+00  0.00000000000E+00  0.15040506907E+04  0.15040506907E+04  0.25500000920E-02 0. -1.
       -2   -1    0    0    0  501  0.00000000000E+00  0.00000000000E+00 -0.51497130713E+03  0.51497130713E+03  0.25500000920E-02 0.  1.
    10030    2    1    2    0    0  0.00000000000E+00  0.00000000000E+00  0.98907938360E+03  0.20190219979E+04  0.17601624359E+04 0.  0.
        1    1    3    3  502    0  0.44058464298E+03 -0.75971225646E+03  0.42899203717E+03  0.97740048508E+03  0.50400001928E-02 0. -1.
       -1    1    3    3    0  502 -0.44058464298E+03  0.75971225646E+03  0.56008734643E+03  0.10416215128E+04  0.50400001928E-02 0.  1.
</event>
<event>
 5   0  0.2376359E-04  0.1834433E+04  0.7818609E-02  0.8688200E-01
        1   -1    0    0  501    0  0.00000000000E+00  0.00000000000E+00  0.14237927687E+04  0.14237927687E+04  0.50400001928E-02 0. -1.
       -1   -1    0    0    0  501  0.00000000000E+00  0.00000000000E+00 -0.59087692901E+03  0.59087692903E+03  0.50400001928E-02 0.  1.
    10030    2    1    2    0    0  0.00000000000E+00  0.00000000000E+00  0.83291583968E+03  0.20146696977E+04  0.18344332081E+04 0.  0.
        2    1    3    3  502    0 -0.75250041348E+03  0.49021638932E+03  0.21182521962E+03  0.92273447118E+03  0.25500000920E-02 0.  1.
       -2    1    3    3    0  502  0.75250041348E+03 -0.49021638932E+03  0.62109062006E+03  0.10919352265E+04  0.25500000920E-02 0. -1.
</event>
<event>
 5   0  0.2317458E-04  0.1921013E+04  0.7818609E-02  0.8644467E-01
       -1   -1    0    0    0  501  0.00000000000E+00  0.00000000000E+00  0.46198804041E+03  0.46198804044E+03  0.50400001928E-02 0. -1.
        1   -1    0    0  501    0  0.00000000000E+00  0.00000000000E+00 -0.19969632747E+04  0.19969632747E+04  0.50400001928E-02 0.  1.
    10030    2    1    2    0    0  0.00000000000E+00  0.00000000000E+00 -0.15349752343E+04  0.24589513152E+04  0.19210134306E+04 0.  0.
        3    1    3    3  502    0 -0.17832325365E+03 -0.49442054709E+03 -0.17965556621E+04  0.18718608702E+04  0.10100000352E+00 0.  1.
       -3    1    3    3    0  502  0.17832325365E+03  0.49442054709E+03  0.26158042779E+03  0.58709044497E+03  0.10100000352E+00 0. -1.
</event>
<event>
 5   0  0.2376359E-04  0.1147888E+04  0.7818609E-02  0.9159734E-01
       -1   -1    0    0    0  501  0.00000000000E+00  0.00000000000E+00  0.54521976950E+03  0.54521976952E+03  0.50400001928E-02 0. -1.
        1   -1    0    0  501    0  0.00000000000E+00  0.00000000000E+00 -0.60418130259E+03  0.60418130262E+03  0.50400001928E-02 0.  1.
    10030    2    1    2    0    0  0.00000000000E+00  0.00000000000E+00 -0.58961533099E+02  0.11494010721E+04  0.11478877829E+04 0.  0.
        2    1    3    3  502    0  0.10122666015E+02  0.47350689136E+03  0.29513845888E+03  0.55804834418E+03  0.25500000920E-02 0. -1.
       -2    1    3    3    0  502 -0.10122666015E+02 -0.47350689136E+03 -0.35409999198E+03  0.59135272795E+03  0.25500000920E-02 0.  1.
</event>
<event>
 5   0  0.2317458E-04  0.1834762E+04  0.7818609E-02  0.8688029E-01
        1   -1    0    0  501    0  0.00000000000E+00  0.00000000000E+00  0.13864809776E+04  0.13864809776E+04  0.50400001928E-02 0. -1.
       -1   -1    0    0    0  501  0.00000000000E+00  0.00000000000E+00 -0.60699595766E+03  0.60699595768E+03  0.50400001928E-02 0.  1.
    10030    2    1    2    0    0  0.00000000000E+00  0.00000000000E+00  0.77948501990E+03  0.19934769352E+04  0.18347624901E+04 0.  0.
        3    1    3    3  502    0  0.29387475745E+03  0.70059644190E+03  0.94841123571E+03  0.12151878989E+04  0.10100000352E+00 0. -1.
       -3    1    3    3    0  502 -0.29387475745E+03 -0.70059644190E+03 -0.16892621581E+03  0.77828903632E+03  0.10100000352E+00 0.  1.
</event>
<event>
 5   0  0.4839293E-04  0.1914950E+04  0.7818609E-02  0.8647451E-01
        2   -1    0    0  501    0  0.00000000000E+00  0.00000000000E+00  0.11542752636E+04  0.11542752636E+04  0.25500000920E-02 0. -1.
       -2   -1    0    0    0  501  0.00000000000E+00  0.00000000000E+00 -0.79422822805E+03  0.79422822805E+03  0.25500000920E-02 0.  1.
    10030    2    1    2    0    0  0.00000000000E+00  0.00000000000E+00  0.36004703560E+03  0.19485034917E+04  0.19149496049E+04 0.  0.
        5    1    3    3  502    0  0.28518900942E+03 -0.16503327513E+03 -0.73470967174E+03  0.80522614509E+03  0.46999998093E+01 0.  1.
       -5    1    3    3    0  502 -0.28518900942E+03  0.16503327513E+03  0.10947567073E+04  0.11432773466E+04  0.46999998093E+01 0. -1.
</event>
<event>
 5   0  0.4973411E-04  0.1892087E+04  0.7818609E-02  0.8658805E-01
        2   -1    0    0  501    0  0.00000000000E+00  0.00000000000E+00  0.13334632189E+04  0.13334632189E+04  0.25500000920E-02 0. -1.
       -2   -1    0    0    0  501  0.00000000000E+00  0.00000000000E+00 -0.67118325684E+03  0.67118325685E+03  0.25500000920E-02 0.  1.
    10030    2    1    2    0    0  0.00000000000E+00  0.00000000000E+00  0.66227996209E+03  0.20046464758E+04  0.18920868756E+04 0.  0.
        1    1    3    3  502    0  0.79189465136E+03  0.23116400646E+03 -0.15951269858E+03  0.84022511137E+03  0.50400001928E-02 0.  1.
       -1    1    3    3    0  502 -0.79189465136E+03 -0.23116400646E+03  0.82179266068E+03  0.11644213644E+04  0.50400001928E-02 0. -1.
</event>
<event>
 5   0  0.2261755E-04  0.1904599E+04  0.7818609E-02  0.8652571E-01
        1   -1    0    0  501    0  0.00000000000E+00  0.00000000000E+00  0.12771161875E+04  0.12771161875E+04  0.50400001928E-02 0. -1.
       -1   -1    0    0    0  501  0.00000000000E+00  0.00000000000E+00 -0.71009513756E+03  0.71009513758E+03  0.50400001928E-02 0.  1.
    10030    2    1    2    0    0  0.00000000000E+00  0.00000000000E+00  0.56702104996E+03  0.19872113251E+04  0.19045986400E+04 0.  0.
        1    1    3    3  502    0  0.59984345289E+03 -0.25331069011E+03  0.10085592152E+04  0.12004874694E+04  0.50400001928E-02 0. -1.
       -1    1    3    3    0  502 -0.59984345289E+03  0.25331069011E+03 -0.44153816524E+03  0.78672385567E+03  0.50400001928E-02 0.  1.
</event>
<event>
 5   0  0.4829134E-04  0.2034639E+04  0.7818609E-02  0.8590595E-01
        2   -1    0    0  501    0  0.00000000000E+00  0.00000000000E+00  0.68629616941E+03  0.68629616941E+03  0.25500000920E-02 0. -1.
       -2   -1    0    0    0  501  0.00000000000E+00  0.00000000000E+00 -0.15080063308E+04  0.15080063308E+04  0.25500000920E-02 0.  1.
    10030    2    1    2    0    0  0.00000000000E+00  0.00000000000E+00 -0.82171016144E+03  0.21943025003E+04  0.20346390032E+04 0.  0.
        2    1    3    3  502    0 -0.24602256575E+03 -0.89817247648E+03  0.30789760637E+02  0.93176655324E+03  0.25500000920E-02 0.  1.
       -2    1    3    3    0  502  0.24602256575E+03  0.89817247648E+03 -0.85249992208E+03  0.12625359470E+04  0.25500000920E-02 0. -1.
</event>
<event>
 5   0  0.4839293E-04  0.1930767E+04  0.7818609E-02  0.8639692E-01
       -2   -1    0    0    0  501  0.00000000000E+00  0.00000000000E+00  0.81576128467E+03  0.81576128467E+03  0.25500000920E-02 0. -1.
        2   -1    0    0  501    0  0.00000000000E+00  0.00000000000E+00 -0.11424482810E+04  0.11424482810E+04  0.25500000920E-02 0.  1.
    10030    2    1    2    0    0  0.00000000000E+00  0.00000000000E+00 -0.32668699637E+03  0.19582095657E+04  0.19307667673E+04 0.  0.
        5    1    3    3  502    0 -0.52586353085E+03  0.59162924588E+03 -0.72381491134E+03  0.10726079123E+04  0.46999998093E+01 0.  1.
       -5    1    3    3    0  502  0.52586353085E+03 -0.59162924588E+03  0.39712791497E+03  0.88560165341E+03  0.46999998093E+01 0. -1.
</event>
<event>
 5   0  0.2376359E-04  0.1164743E+04  0.7818609E-02  0.9144289E-01
        1   -1    0    0  501    0  0.00000000000E+00  0.00000000000E+00  0.13057363104E+04  0.13057363104E+04  0.50400001928E-02 0. -1.
       -1   -1    0    0    0  501  0.00000000000E+00  0.00000000000E+00 -0.25974344418E+03  0.25974344423E+03  0.50400001928E-02 0.  1.
    10030    2    1    2    0    0  0.00000000000E+00  0.00000000000E+00  0.10459928663E+04  0.15654797547E+04  0.11647427982E+04 0.  0.
        2    1    3    3  502    0 -0.31583410198E+03  0.47743323460E+03  0.66689692167E+03  0.87888860364E+03  0.25500000920E-02 0.  1.
       -2    1    3    3    0  502  0.31583410198E+03 -0.47743323460E+03  0.37909594458E+03  0.68659115103E+03  0.25500000920E-02 0. -1.
</event>
<event>
 5   0  0.4829134E-04  0.1939709E+04  0.7818609E-02  0.8635339E-01
       -2   -1    0    0    0  501  0.00000000000E+00  0.00000000000E+00  0.10378836589E+04  0.10378836589E+04  0.25500000920E-02 0.  1.
        2   -1    0    0  501    0  0.00000000000E+00  0.00000000000E+00 -0.90628437079E+03  0.90628437080E+03  0.25500000920E-02 0. -1.
    10030    2    1    2    0    0  0.00000000000E+00  0.00000000000E+00  0.13159928812E+03  0.19441680297E+04  0.19397089872E+04 0.  0.
        2    1    3    3  502    0  0.20882877816E+03 -0.58411101403E+03 -0.68144931939E+03  0.92150328822E+03  0.25500000920E-02 0. -1.
       -2    1    3    3    0  502 -0.20882877816E+03  0.58411101403E+03  0.81304860751E+03  0.10226647415E+04  0.25500000920E-02 0.  1.
</event>
<event>
 5   0  0.4802635E-04  0.1932392E+04  0.7818609E-02  0.8638899E-01
        2   -1    0    0  501    0  0.00000000000E+00  0.00000000000E+00  0.12756778317E+04  0.12756778317E+04  0.25500000920E-02 0.  1.
       -2   -1    0    0    0  501  0.00000000000E+00  0.00000000000E+00 -0.73179499415E+03  0.73179499415E+03  0.25500000920E-02 0. -1.
    10030    2    1    2    0    0  0.00000000000E+00  0.00000000000E+00  0.54388283758E+03  0.20074728259E+04  0.19323919389E+04 0.  0.
        3    1    3    3  502    0  0.44874759970E+03  0.85235703194E+03  0.35001267272E+03  0.10248881887E+04  0.10100000352E+00 0.  1.
       -3    1    3    3    0  502 -0.44874759970E+03 -0.85235703194E+03  0.19387016486E+03  0.98258463715E+03  0.10100000352E+00 0. -1.
</event>
<event>
 5   0  0.1729375E-04  0.1542565E+04  0.7818609E-02  0.8856631E-01
        3   -1    0    0  501    0  0.00000000000E+00  0.00000000000E+00  0.46391139520E+03  0.46391140620E+03  0.10100000352E+00 0. -1.
       -3   -1    0    0    0  501  0.00000000000E+00  0.00000000000E+00 -0.12823069321E+04  0.12823069361E+04  0.10100000352E+00 0.  1.
    10030    2    1    2    0    0  0.00000000000E+00  0.00000000000E+00 -0.81839553690E+03  0.17462183423E+04  0.15425651507E+04 0.  0.
        4    1    3    3  502    0  0.29479253100E+03 -0.34823088531E+03  0.29475983320E+03  0.54318722186E+03  0.12699999809E+01 0. -1.
       -4    1    3    3    0  502 -0.29479253100E+03  0.34823088531E+03 -0.11131553701E+04  0.12030311204E+04  0.12699999809E+01 0.  1.
</event>
<event>
 5   0  0.2355414E-04  0.1078970E+04  0.7818609E-02  0.9225935E-01
        1   -1    0    0  501    0  0.00000000000E+00  0.00000000000E+00  0.77221045478E+03  0.77221045480E+03  0.50400001928E-02 0. -1.
       -1   -1    0    0    0  501  0.00000000000E+00  0.00000000000E+00 -0.37689716485E+03  0.37689716488E+03  0.50400001928E-02 0.  1.
    10030    2    1    2    0    0  0.00000000000E+00  0.00000000000E+00  0.39531328993E+03  0.11491076197E+04  0.10789697514E+04 0.  0.
        5    1    3    3  502    0 -0.20635274821E+03 -0.31212297753E+02  0.72745347982E+03  0.75681326596E+03  0.46999998093E+01 0. -1.
       -5    1    3    3    0  502  0.20635274821E+03  0.31212297753E+02 -0.33214018989E+03  0.39229435372E+03  0.46999998093E+01 0.  1.
</event>
<event>
 5   0  0.4973411E-04  0.1887361E+04  0.7818609E-02  0.8661173E-01
        2   -1    0    0  501    0  0.00000000000E+00  0.00000000000E+00  0.10445134846E+04  0.10445134847E+04  0.25500000920E-02 0. -1.
       -2   -1    0    0    0  501  0.00000000000E+00  0.00000000000E+00 -0.85258151045E+03  0.85258151045E+03  0.25500000920E-02 0.  1.
    10030    2    1    2    0    0  0.00000000000E+00  0.00000000000E+00  0.19193197420E+03  0.18970949951E+04  0.18873609983E+04 0.  0.
        1    1    3    3  502    0  0.55003589188E+03 -0.65927907566E+03  0.48957787576E+03  0.98836980854E+03  0.50400001928E-02 0. -1.
       -1    1    3    3    0  502 -0.55003589188E+03  0.65927907566E+03 -0.29764590157E+03  0.90872518657E+03  0.50400001928E-02 0.  1.
</event>
<event>
 5   0  0.2510069E-04  0.1926939E+04  0.7818609E-02  0.8641562E-01
        1   -1    0    0  501    0  0.00000000000E+00  0.00000000000E+00  0.82357643200E+03  0.82357643202E+03  0.50400001928E-02 0. -1.
       -1   -1    0    0    0  501  0.00000000000E+00  0.00000000000E+00 -0.11271244710E+04  0.11271244711E+04  0.50400001928E-02 0.  1.
    10030    2    1    2    0    0  0.00000000000E+00  0.00000000000E+00 -0.30354803904E+03  0.19507009031E+04  0.19269386605E+04 0.  0.
        4    1    3    3  502    0 -0.39408324918E+02 -0.89575367805E+03  0.20519866409E+03  0.91980202895E+03  0.12699999809E+01 0.  1.
       -4    1    3    3    0  502  0.39408324918E+02  0.89575367805E+03 -0.50874670314E+03  0.10308988741E+04  0.12699999809E+01 0. -1.
</event>
<event>
 5   0  0.2376359E-04  0.1807818E+04  0.7818609E-02  0.8702153E-01
        1   -1    0    0  501    0  0.00000000000E+00  0.00000000000E+00  0.82916911821E+03  0.82916911823E+03  0.50400001928E-02 0.  1.
       -1   -1    0    0    0  501  0.00000000000E+00  0.00000000000E+00 -0.98538615754E+03  0.98538615756E+03  0.50400001928E-02 0. -1.
    10030    2    1    2    0    0  0.00000000000E+00  0.00000000000E+00 -0.15621703933E+03  0.18145552758E+04  0.18078183220E+04 0.  0.
        2    1    3    3  502    0 -0.33203467823E+03 -0.65950662846E+03 -0.60144942462E+03  0.95233262620E+03  0.25500000920E-02 0. -1.
       -2    1    3    3    0  502  0.33203467823E+03  0.65950662846E+03  0.44523238529E+03  0.86222264959E+03  0.25500000920E-02 0.  1.
</event>
<event>
 5   0  0.4761944E-04  0.1949365E+04  0.7818609E-02  0.8630667E-01
        2   -1    0    0  501    0  0.00000000000E+00  0.00000000000E+00  0.10070215596E+04  0.10070215596E+04  0.25500000920E-02 0. -1.
       -2   -1    0    0    0  501  0.00000000000E+00  0.00000000000E+00 -0.94338208513E+03  0.94338208513E+03  0.25500000920E-02 0.  1.
    10030    2    1    2    0    0  0.00000000000E+00  0.00000000000E+00  0.63639474510E+02  0.19504036448E+04  0.19493651261E+04 0.  0.
        4    1    3    3  502    0 -0.87312658354E+03 -0.33985707636E+03  0.30057337943E+03  0.98397095108E+03  0.12699999809E+01 0. -1.
       -4    1    3    3    0  502  0.87312658354E+03  0.33985707636E+03 -0.23693390492E+03  0.96643269369E+03  0.12699999809E+01 0.  1.
</event>
<event>
 5   0  0.4829134E-04  0.1927453E+04  0.7818609E-02  0.8641311E-01
       -2   -1    0    0    0  501  0.00000000000E+00  0.00000000000E+00  0.78413655589E+03  0.78413655590E+03  0.25500000920E-02 0.  1.
        2   -1    0    0  501    0  0.00000000000E+00  0.00000000000E+00 -0.11844474629E+04  0.11844474629E+04  0.25500000920E-02 0. -1.
    10030    2    1    2    0    0  0.00000000000E+00  0.00000000000E+00 -0.40031090701E+03  0.19685840188E+04  0.19274527794E+04 0.  0.
        2    1    3    3  502    0 -0.77530813088E+03  0.30221281698E+02  0.38366551341E+03  0.86557220951E+03  0.25500000920E-02 0.  1.
       -2    1    3    3    0  502  0.77530813088E+03 -0.30221281698E+02 -0.78397642042E+03  0.11030118093E+04  0.25500000920E-02 0. -1.
</event>
<event>
 5   0  0.4839293E-04  0.1908235E+04  0.7818609E-02  0.8650768E-01
       -2   -1    0    0    0  501  0.00000000000E+00  0.00000000000E+00  0.61308880498E+03  0.61308880499E+03  0.25500000920E-02 0.  1.
        2   -1    0    0  501    0  0.00000000000E+00  0.00000000000E+00 -0.14848423775E+04  0.14848423775E+04  0.25500000920E-02 0. -1.
    10030    2    1    2    0    0  0.00000000000E+00  0.00000000000E+00 -0.87175357250E+03  0.20979311825E+04  0.19082350367E+04 0.  0.
        5    1    3    3  502    0  0.31620050419E+03 -0.59857113042E+03  0.30330565956E+03  0.74181302910E+03  0.46999998093E+01 0.  1.
       -5    1    3    3    0  502 -0.31620050419E+03  0.59857113042E+03 -0.11750592321E+04  0.13561181534E+04  0.46999998093E+01 0. -1.
</event>
<event>
 5   0  0.2376359E-04  0.1100129E+04  0.7818609E-02  0.9205066E-01
       -1   -1    0    0    0  501  0.00000000000E+00  0.00000000000E+00  0.17285253161E+03  0.17285253169E+03  0.50400001928E-02 0. -1.
        1   -1    0    0  501    0  0.00000000000E+00  0.00000000000E+00 -0.17504577223E+04  0.17504577223E+04  0.50400001928E-02 0.  1.
    10030    2    1    2    0    0  0.00000000000E+00  0.00000000000E+00 -0.15776051907E+04  0.19233102540E+04  0.11001291722E+04 0.  0.
        2    1    3    3  502    0 -0.26682686552E+03 -0.46717307592E+03 -0.98908154232E+03  0.11259349699E+04  0.25500000920E-02 0.  1.
       -2    1    3    3    0  502  0.26682686552E+03  0.46717307592E+03 -0.58852364836E+03  0.79737528411E+03  0.25500000920E-02 0. -1.
</event>
<event>
 5   0  0.4761944E-04  0.1848744E+04  0.7818609E-02  0.8680799E-01
        2   -1    0    0  501    0  0.00000000000E+00  0.00000000000E+00  0.14820146076E+04  0.14820146076E+04  0.25500000920E-02 0. -1.
       -2   -1    0    0    0  501  0.00000000000E+00  0.00000000000E+00 -0.57655533461E+03  0.57655533462E+03  0.25500000920E-02 0.  1.
    10030    2    1    2    0    0  0.00000000000E+00  0.00000000000E+00  0.90545927303E+03  0.20585699423E+04  0.18487438200E+04 0.  0.
        4    1    3    3  502    0 -0.41723341019E+03  0.71040994747E+03 -0.14004521210E+02  0.82399256766E+03  0.12699999809E+01 0.  1.
       -4    1    3    3    0  502  0.41723341019E+03 -0.71040994747E+03  0.91946379424E+03  0.12345773746E+04  0.12699999809E+01 0. -1.
</event>
<event>
 5   0  0.4802635E-04  0.1550384E+04  0.7818609E-02  0.8851622E-01
        2   -1    0    0  501    0  0.00000000000E+00  0.00000000000E+00  0.13330554256E+04  0.13330554256E+04  0.25500000920E-02 0.  1.
       -2   -1    0    0    0  501  0.00000000000E+00  0.00000000000E+00 -0.45078607517E+03  0.45078607518E+03  0.25500000920E-02 0. -1.
    10030    2    1    2    0    0  0.00000000000E+00  0.00000000000E+00  0.88226935039E+03  0.17838415007E+04  0.15503842405E+04 0.  0.
        3    1    3    3  502    0 -0.87320868390E+02  0.75256007404E+03  0.63002342164E+03  0.98534314891E+03  0.10100000352E+00 0. -1.
       -3    1    3    3    0  502  0.87320868390E+02 -0.75256007404E+03  0.25224592874E+03  0.79849835182E+03  0.10100000352E+00 0.  1.
</event>
<event>
 5   0  0.2317458E-04  0.1898235E+04  0.7818609E-02  0.8655735E-01
       -1   -1    0    0    0  501  0.00000000000E+00  0.00000000000E+00  0.99532797907E+03  0.99532797908E+03  0.50400001928E-02 0. -1.
        1   -1    0    0  501    0  0.00000000000E+00  0.00000000000E+00 -0.90505241673E+03  0.90505241675E+03  0.50400001928E-02 0.  1.
    10030    2    1    2    0    0  0.00000000000E+00  0.00000000000E+00  0.90275562338E+02  0.19003803958E+04  0.18982349622E+04 0.  0.
        3    1    3    3  502    0 -0.93853083395E+03 -0.12529423222E+03  0.11067329682E+03  0.95330339333E+03  0.10100000352E+00 0.  1.
       -3    1    3    3    0  502  0.93853083395E+03  0.12529423222E+03 -0.20397734484E+02  0.94707700250E+03  0.10100000352E+00 0. -1.
</event>
<event>
 5   0  0.4802635E-04  0.1972681E+04  0.7818609E-02  0.8619501E-01
       -2   -1    0    0    0  501  0.00000000000E+00  0.00000000000E+00  0.11666983753E+04  0.11666983753E+04  0.25500000920E-02 0.  1.
        2   -1    0    0  501    0  0.00000000000E+00  0.00000000000E+00 -0.83386357091E+03  0.83386357091E+03  0.25500000920E-02 0. -1.
    10030    2    1    2    0    0  0.00000000000E+00  0.00000000000E+00  0.33283480438E+03  0.20005619462E+04  0.19726806872E+04 0.  0.
        3    1    3    3  502    0 -0.11604261420E+03 -0.39645940994E+03 -0.74190977450E+03  0.84916198439E+03  0.10100000352E+00 0. -1.
       -3    1    3    3    0  502  0.11604261420E+03  0.39645940994E+03  0.10747445789E+04  0.11513999618E+04  0.10100000352E+00 0.  1.
</event>
<event>
 5   0  0.2376359E-04  0.1886075E+04  0.7818609E-02  0.8661819E-01
       -1   -1    0    0    0  501  0.00000000000E+00  0.00000000000E+00  0.10781249013E+04  0.10781249013E+04  0.50400001928E-02 0.  1.
        1   -1    0    0  501    0  0.00000000000E+00  0.00000000000E+00 -0.82487591627E+03  0.82487591629E+03  0.50400001928E-02 0. -1.
    10030    2    1    2    0    0  0.00000000000E+00  0.00000000000E+00  0.25324898502E+03  0.19030008176E+04  0.18860745116E+04 0.  0.
        2    1    3    3  502    0 -0.82059148011E+03  0.19679527853E+03  0.55137813914E+03  0.10080260965E+04  0.25500000920E-02 0.  1.
       -2    1    3    3    0  502  0.82059148011E+03 -0.19679527853E+03 -0.29812915412E+03  0.89497472110E+03  0.25500000920E-02 0. -1.
</event>
<event>
 5   0  0.2261755E-04  0.1896803E+04  0.7818609E-02  0.8656450E-01
       -1   -1    0    0    0  501  0.00000000000E+00  0.00000000000E+00  0.11979933627E+04  0.11979933627E+04  0.50400001928E-02 0.  1.
        1   -1    0    0  501    0  0.00000000000E+00  0.00000000000E+00 -0.75080970107E+03  0.75080970108E+03  0.50400001928E-02 0. -1.
    10030    2    1    2    0    0  0.00000000000E+00  0.00000000000E+00  0.44718366160E+03  0.19488030638E+04  0.18968026134E+04 0.  0.
        1    1    3    3  502    0  0.35622962524E+03  0.74944440664E+03  0.69541866402E+03  0.10826696554E+04  0.50400001928E-02 0.  1.
       -1    1    3    3    0  502 -0.35622962524E+03 -0.74944440664E+03 -0.24823500242E+03  0.86613340831E+03  0.50400001928E-02 0. -1.
</event>
<event>
 5   0  0.4761944E-04  0.1289577E+04  0.7818609E-02  0.9037871E-01
       -2   -1    0    0    0  501  0.00000000000E+00  0.00000000000E+00  0.23845655382E+03  0.23845655383E+03  0.25500000920E-02 0.  1.
        2   -1    0    0  501    0  0.00000000000E+00  0.00000000000E+00 -0.17435147442E+04  0.17435147442E+04  0.25500000920E-02 0. -1.
    10030    2    1    2    0    0  0.00000000000E+00  0.00000000000E+00 -0.15050581904E+04  0.19819712981E+04  0.12895774772E+04 0.  0.
        4    1    3    3  502    0  0.23005835762E+03 -0.13905078765E+03  0.14822510781E+03  0.30697600060E+03  0.12699999809E+01 0.  1.
       -4    1    3    3    0  502 -0.23005835762E+03  0.13905078765E+03 -0.16532832982E+04  0.16749952975E+04  0.12699999809E+01 0. -1.
</event>
<event>
 5   0  0.4761944E-04  0.1859454E+04  0.7818609E-02  0.8675306E-01
        2   -1    0    0  501    0  0.00000000000E+00  0.00000000000E+00  0.10365700956E+04  0.10365700956E+04  0.25500000920E-02 0. -1.
       -2   -1    0    0    0  501  0.00000000000E+00  0.00000000000E+00 -0.83389684742E+03  0.83389684742E+03  0.25500000920E-02 0.  1.
    10030    2    1    2    0    0  0.00000000000E+00  0.00000000000E+00  0.20267324818E+03  0.18704669430E+04  0.18594542585E+04 0.  0.
        4    1    3    3  502    0  0.53444910042E+03  0.12965986714E+03 -0.65273192102E+03  0.85352685705E+03  0.12699999809E+01 0.  1.
       -4    1    3    3    0  502 -0.53444910042E+03 -0.12965986714E+03  0.85540516920E+03  0.10169400860E+04  0.12699999809E+01 0. -1.
</event>
<event>
 5   0  0.4761944E-04  0.1980762E+04  0.7818609E-02  0.8615668E-01
        2   -1    0    0  501    0  0.00000000000E+00  0.00000000000E+00  0.17561942743E+04  0.17561942743E+04  0.25500000920E-02 0.  1.
       -2   -1    0    0    0  501  0.00000000000E+00  0.00000000000E+00 -0.55851153417E+03  0.55851153417E+03  0.25500000920E-02 0. -1.
    10030    2    1    2    0    0  0.00000000000E+00  0.00000000000E+00  0.11976827401E+04  0.23147058084E+04  0.19807622355E+04 0.  0.
        4    1    3    3  502    0  0.53513599381E+03  0.49701205654E+03  0.13805436056E+04  0.15618238620E+04  0.12699999809E+01 0.  1.
       -4    1    3    3    0  502 -0.53513599381E+03 -0.49701205654E+03 -0.18286086547E+03  0.75288194641E+03  0.12699999809E+01 0. -1.
</event>
<event>
 5   0  0.2261755E-04  0.1950462E+04  0.7818609E-02  0.8630138E-01
        1   -1    0    0  501    0  0.00000000000E+00  0.00000000000E+00  0.16632615885E+04  0.16632615885E+04  0.50400001928E-02 0.  1.
       -1   -1    0    0    0  501  0.00000000000E+00  0.00000000000E+00 -0.57181339323E+03  0.57181339325E+03  0.50400001928E-02 0. -1.
    10030    2    1    2    0    0  0.00000000000E+00  0.00000000000E+00  0.10914481952E+04  0.22350749817E+04  0.19504617430E+04 0.  0.
        1    1    3    3  502    0  0.66861988280E+03 -0.13959521074E+02  0.13591083134E+04  0.15147352322E+04  0.50400001928E-02 0.  1.
       -1    1    3    3    0  502 -0.66861988280E+03  0.13959521074E+02 -0.26766011818E+03  0.72033974956E+03  0.50400001928E-02 0. -1.
</event>
<event>
 5   0  0.4802635E-04  0.2009970E+04  0.7818609E-02  0.8601973E-01
       -2   -1    0    0    0  501  0.00000000000E+00  0.00000000000E+00  0.11867668171E+04  0.11867668171E+04  0.25500000920E-02 0.  1.
        2   -1    0    0  501    0  0.00000000000E+00  0.00000000000E+00 -0.85104772053E+03  0.85104772053E+03  0.25500000920E-02 0. -1.
    10030    2    1    2    0    0  0.00000000000E+00  0.00000000000E+00  0.33571909661E+03  0.20378145377E+04  0.20099703426E+04 0.  0.
        3    1    3    3  502    0 -0.95361610731E+03  0.25784616379E+03  0.35515324965E+03  0.10497629091E+04  0.10100000352E+00 0.  1.
       -3    1    3    3    0  502  0.95361610731E+03 -0.25784616379E+03 -0.19434153037E+02  0.98805162862E+03  0.10100000352E+00 0. -1.
</event>
<event>
 5   0  0.4973411E-04  0.1903981E+04  0.7818609E-02  0.8652877E-01
        2   -1    0    0  501    0  0.00000000000E+00  0.00000000000E+00  0.25727375891E+04  0.25727375891E+04  0.25500000920E-02 0. -1.
       -2   -1    0    0    0  501  0.00000000000E+00  0.00000000000E+00 -0.35226515307E+03  0.35226515308E+03  0.25500000920E-02 0.  1.
    10030    2    1    2    0    0  0.00000000000E+00  0.00000000000E+00  0.22204724360E+04  0.29250027422E+04  0.19039808829E+04 0.  0.
        1    1    3    3  502    0 -0.20062077564E+03 -0.13783594041E+02  0.25397366858E+04  0.25476854430E+04  0.50400001928E-02 0. -1.
       -1    1    3    3    0  502  0.20062077564E+03  0.13783594041E+02 -0.31926424976E+03  0.37731729921E+03  0.50400001928E-02 0.  1.
</event>
<event>
 5   0  0.2376359E-04  0.1841732E+04  0.7818609E-02  0.8684416E-01
       -1   -1    0    0    0  501  0.00000000000E+00  0.00000000000E+00  0.10134721668E+04  0.10134721668E+04  0.50400001928E-02 0.  1.
        1   -1    0    0  501    0  0.00000000000E+00  0.00000000000E+00 -0.83672155563E+03  0.83672155565E+03  0.50400001928E-02 0. -1.
    10030    2    1    2    0    0  0.00000000000E+00  0.00000000000E+00  0.17675061120E+03  0.18501937225E+04  0.18417318025E+04 0.  0.
        2    1    3    3  502    0  0.21200229175E+03 -0.88709309395E+03  0.21590295070E+03  0.93727968780E+03  0.25500000920E-02 0.  1.
       -2    1    3    3    0  502 -0.21200229175E+03  0.88709309395E+03 -0.39152339495E+02  0.91291403469E+03  0.25500000920E-02 0. -1.
</event>
<event>
 5   0  0.2261755E-04  0.1644324E+04  0.7818609E-02  0.8793771E-01
       -1   -1    0    0    0  501  0.00000000000E+00  0.00000000000E+00  0.49577888901E+03  0.49577888904E+03  0.50400001928E-02 0.  1.
        1   -1    0    0  501    0  0.00000000000E+00  0.00000000000E+00 -0.13634113925E+04  0.13634113925E+04  0.50400001928E-02 0. -1.
    10030    2    1    2    0    0  0.00000000000E+00  0.00000000000E+00 -0.86763250349E+03  0.18591902815E+04  0.16443242812E+04 0.  0.
        1    1    3    3  502    0 -0.58717966109E+03  0.71411594264E+02 -0.10794592839E+04  0.12308988244E+04  0.50400001928E-02 0. -1.
       -1    1    3    3    0  502  0.58717966109E+03 -0.71411594264E+02  0.21182678045E+03  0.62829145715E+03  0.50400001928E-02 0.  1.
</event>
<event>
 5   0  0.2376359E-04  0.1824321E+04  0.7818609E-02  0.8693472E-01
       -1   -1    0    0    0  501  0.00000000000E+00  0.00000000000E+00  0.77721289032E+03  0.77721289033E+03  0.50400001928E-02 0.  1.
        1   -1    0    0  501    0  0.00000000000E+00  0.00000000000E+00 -0.10705385170E+04  0.10705385170E+04  0.50400001928E-02 0. -1.
    10030    2    1    2    0    0  0.00000000000E+00  0.00000000000E+00 -0.29332562664E+03  0.18477514073E+04  0.18243205146E+04 0.  0.
        2    1    3    3  502    0  0.44794939958E+03 -0.28004411611E+03  0.60649588270E+03  0.80431376172E+03  0.25500000920E-02 0. -1.
       -2    1    3    3    0  502 -0.44794939958E+03  0.28004411611E+03 -0.89982150933E+03  0.10434376456E+04  0.25500000920E-02 0.  1.
</event>
<event>
 5   0  0.4802635E-04  0.1897708E+04  0.7818609E-02  0.8655998E-01
       -2   -1    0    0    0  501  0.00000000000E+00  0.00000000000E+00  0.13663744771E+04  0.13663744771E+04  0.25500000920E-02 0. -1.
        2   -1    0    0  501    0  0.00000000000E+00  0.00000000000E+00 -0.65891445316E+03  0.65891445317E+03  0.25500000920E-02 0.  1.
    10030    2    1    2    0    0  0.00000000000E+00  0.00000000000E+00  0.70746002391E+03  0.20252889302E+04  0.18977079769E+04 0.  0.
        3    1    3    3  502    0  0.61042385264E+03  0.58825804243E+03  0.80859882052E+03  0.11715361143E+04  0.10100000352E+00 0. -1.
       -3    1    3    3    0  502 -0.61042385264E+03 -0.58825804243E+03 -0.10113879662E+03  0.85375281594E+03  0.10100000352E+00 0.  1.
</event>
<event>
 5   0  0.2376359E-04  0.1905001E+04  0.7818609E-02  0.8652371E-01
       -1   -1    0    0    0  501  0.00000000000E+00  0.00000000000E+00  0.88990209588E+03  0.88990209590E+03  0.50400001928E-02 0. -1.
        1   -1    0    0  501    0  0.00000000000E+00  0.00000000000E+00 -0.10195027278E+04  0.10195027279E+04  0.50400001928E-02 0.  1.
    10030    2    1    2    0    0  0.00000000000E+00  0.00000000000E+00 -0.12960063196E+03  0.19094048237E+04  0.19050014323E+04 0.  0.
        2    1    3    3  502    0 -0.37760010772E+03 -0.50515079019E+03 -0.78024184072E+03  0.10032629228E+04  0.25500000920E-02 0.  1.
       -2    1    3    3    0  502  0.37760010772E+03  0.50515079019E+03  0.65064120876E+03  0.90614190099E+03  0.25500000920E-02 0. -1.
</event>
<event>
 5   0  0.4761944E-04  0.1884531E+04  0.7818609E-02  0.8662595E-01
       -2   -1    0    0    0  501  0.00000000000E+00  0.00000000000E+00  0.51956831453E+03  0.51956831454E+03  0.25500000920E-02 0.  1.
        2   -1    0    0  501    0  0.00000000000E+00  0.00000000000E+00 -0.17088505637E+04  0.17088505637E+04  0.25500000920E-02 0. -1.
    10030    2    1    2    0    0  0.00000000000E+00  0.00000000000E+00 -0.11892822492E+04  0.22284188783E+04  0.18845313552E+04 0.  0.
        4    1    3    3  502    0 -0.45118059172E+03 -0.29369629178E+03  0.31980714552E+03  0.62617861779E+03  0.12699999809E+01 0.  1.
       -4    1    3    3    0  502  0.45118059172E+03  0.29369629178E+03 -0.15090893947E+04  0.16022402605E+04  0.12699999809E+01 0. -1.
</event>
<event>
 5   0  0.2317458E-04  0.1942823E+04  0.7818609E-02  0.8633829E-01
        1   -1    0    0  501    0  0.00000000000E+00  0.00000000000E+00  0.20061038639E+04  0.20061038639E+04  0.50400001928E-02 0. -1.
       -1   -1    0    0    0  501  0.00000000000E+00  0.00000000000E+00 -0.47038466857E+03  0.47038466860E+03  0.50400001928E-02 0.  1.
    10030    2    1    2    0    0  0.00000000000E+00  0.00000000000E+00  0.15357191953E+04  0.24764885325E+04  0.19428232047E+04 0.  0.
        3    1    3    3  502    0  0.67408823551E+03  0.69002266365E+03  0.91383343448E+03  0.13287655105E+04  0.10100000352E+00 0.  1.
       -3    1    3    3    0  502 -0.67408823551E+03 -0.69002266365E+03  0.62188576084E+03  0.11477230221E+04  0.10100000352E+00 0. -1.
</event>
<event>
 5   0  0.2261755E-04  0.1897926E+04  0.7818609E-02  0.8655889E-01
       -1   -1    0    0    0  501  0.00000000000E+00  0.00000000000E+00  0.11295569826E+04  0.11295569826E+04  0.50400001928E-02 0. -1.
        1   -1    0    0  501    0  0.00000000000E+00  0.00000000000E+00 -0.79724267118E+03  0.79724267120E+03  0.50400001928E-02 0.  1.
    10030    2    1    2    0    0  0.00000000000E+00  0.00000000000E+00  0.33231431139E+03  0.19267996538E+04  0.18979262642E+04 0.  0.
        1    1    3    3  502    0 -0.85976084948E+03 -0.38752363922E+03  0.58871957355E+02  0.94489639466E+03  0.50400001928E-02 0.  1.
       -1    1    3    3    0  502  0.85976084948E+03  0.38752363922E+03  0.27344235403E+03  0.98190325912E+03  0.50400001928E-02 0. -1.
</event>
<event>
 5   0  0.4761944E-04  0.1923594E+04  0.7818609E-02  0.8643200E-01
       -2   -1    0    0    0  501  0.00000000000E+00  0.00000000000E+00  0.10216067504E+04  0.10216067504E+04  0.25500000920E-02 0. -1.
        2   -1    0    0  501    0  0.00000000000E+00  0.00000000000E+00 -0.90548908454E+03  0.90548908455E+03  0.25500000920E-02 0.  1.
    10030    2    1    2    0    0  0.00000000000E+00  0.00000000000E+00  0.11611766583E+03  0.19270958349E+04  0.19235943036E+04 0.  0.
        4    1    3    3  502    0  0.91486294129E+03  0.25832833486E+03  0.20442206539E+03  0.97236707249E+03  0.12699999809E+01 0.  1.
       -4    1    3    3    0  502 -0.91486294129E+03 -0.25832833486E+03 -0.88304399563E+02  0.95472876244E+03  0.12699999809E+01 0. -1.
</event>
<event>
 5   0  0.4839293E-04  0.1910389E+04  0.7818609E-02  0.8649702E-01
       -2   -1    0    0    0  501  0.00000000000E+00  0.00000000000E+00  0.47806461639E+03  0.47806461639E+03  0.25500000920E-02 0.  1.
        2   -1    0    0  501    0  0.00000000000E+00  0.00000000000E+00 -0.19085208665E+04  0.19085208665E+04  0.25500000920E-02 0. -1.
    10030    2    1    2    0    0  0.00000000000E+00  0.00000000000E+00 -0.14304562501E+04  0.23865854829E+04  0.19103887520E+04 0.  0.
        5    1    3    3  502    0 -0.18033410463E+02 -0.45089600264E+03  0.33648977308E+03  0.56292083500E+03  0.46999998093E+01 0.  1.
       -5    1    3    3    0  502  0.18033410463E+02  0.45089600264E+03 -0.17669460232E+04  0.18236646479E+04  0.46999998093E+01 0. -1.
</event>
<event>
 5   0  0.2376359E-04  0.1888589E+04  0.7818609E-02  0.8660557E-01
        1   -1    0    0  501    0  0.00000000000E+00  0.00000000000E+00  0.16060182585E+04  0.16060182585E+04  0.50400001928E-02 0.  1.
       -1   -1    0    0    0  501  0.00000000000E+00  0.00000000000E+00 -0.55521922187E+03  0.55521922190E+03  0.50400001928E-02 0. -1.
    10030    2    1    2    0    0  0.00000000000E+00  0.00000000000E+00  0.10507990366E+04  0.21612374804E+04  0.18885891113E+04 0.  0.
        2    1    3    3  502    0  0.56694832144E+03  0.15239000722E+03  0.13717966663E+04  0.14921391380E+04  0.25500000920E-02 0.  1.
       -2    1    3    3    0  502 -0.56694832144E+03 -0.15239000722E+03 -0.32099762970E+03  0.66909834237E+03  0.25500000920E-02 0. -1.
</event>
<event>
 5   0  0.2376359E-04  0.1934968E+04  0.7818609E-02  0.8637644E-01
        1   -1    0    0  501    0  0.00000000000E+00  0.00000000000E+00  0.95733187494E+03  0.95733187495E+03  0.50400001928E-02 0.  1.
       -1   -1    0    0    0  501  0.00000000000E+00  0.00000000000E+00 -0.97774368162E+03  0.97774368164E+03  0.50400001928E-02 0. -1.
    10030    2    1    2    0    0  0.00000000000E+00  0.00000000000E+00 -0.20411806687E+02  0.19350755566E+04  0.19349678984E+04 0.  0.
        2    1    3    3  502    0 -0.52488188174E+03 -0.69882373024E+03  0.40475042592E+03  0.96316068390E+03  0.25500000920E-02 0.  1.
       -2    1    3    3    0  502  0.52488188174E+03  0.69882373024E+03 -0.42516223260E+03  0.97191487269E+03  0.25500000920E-02 0. -1.
</event>
<event>
 5   0  0.2261755E-04  0.1795811E+04  0.7818609E-02  0.8708530E-01
        1   -1    0    0  501    0  0.00000000000E+00  0.00000000000E+00  0.15422258682E+04  0.15422258682E+04  0.50400001928E-02 0.  1.
       -1   -1    0    0    0  501  0.00000000000E+00  0.00000000000E+00 -0.52277341765E+03  0.52277341767E+03  0.50400001928E-02 0. -1.
    10030    2    1    2    0    0  0.00000000000E+00  0.00000000000E+00  0.10194524506E+04  0.20649992859E+04  0.17958114466E+04 0.  0.
        1    1    3    3  502    0  0.62178574909E+03  0.41435537705E+03  0.10822860886E+04  0.13151619953E+04  0.50400001928E-02 0.  1.
       -1    1    3    3    0  502 -0.62178574909E+03 -0.41435537705E+03 -0.62833638050E+02  0.74983729059E+03  0.50400001928E-02 0. -1.
</event>
<event>
 5   0  0.2355414E-04  0.1863006E+04  0.7818609E-02  0.8673493E-01
        1   -1    0    0  501    0  0.00000000000E+00  0.00000000000E+00  0.49196819797E+03  0.49196819800E+03  0.50400001928E-02 0. -1.
       -1   -1    0    0    0  501  0.00000000000E+00  0.00000000000E+00 -0.17637276599E+04  0.17637276599E+04  0.50400001928E-02 0.  1.
    10030    2    1    2    0    0  0.00000000000E+00  0.00000000000E+00 -0.12717594619E+04  0.22556958579E+04  0.18630060854E+04 0.  0.
        5    1    3    3  502    0  0.61470214813E+02 -0.49168346147E+03  0.31913911478E+03  0.58940909237E+03  0.46999998093E+01 0. -1.
       -5    1    3    3    0  502 -0.61470214813E+02  0.49168346147E+03 -0.15908985767E+04  0.16662867655E+04  0.46999998093E+01 0.  1.
</event>
<event>
 5   0  0.2317458E-04  0.1876139E+04  0.7818609E-02  0.8666825E-01
        1   -1    0    0  501    0  0.00000000000E+00  0.00000000000E+00  0.10745793996E+04  0.10745793996E+04  0.50400001928E-02 0.  1.
       -1   -1    0    0    0  501  0.00000000000E+00  0.00000000000E+00 -0.81890138517E+03  0.81890138518E+03  0.50400001928E-02 0. -1.
    10030    2    1    2    0    0  0.00000000000E+00  0.00000000000E+00  0.25567801439E+03  0.18934807848E+04  0.18761391833E+04 0.  0.
        3    1    3    3  502    0  0.67756097541E+03 -0.34977373180E+03  0.67928124659E+03  0.10212020177E+04  0.10100000352E+00 0.  1.
       -3    1    3    3    0  502 -0.67756097541E+03  0.34977373180E+03 -0.42360323220E+03  0.87227876702E+03  0.10100000352E+00 0. -1.
</event>
<event>
 5   0  0.4973411E-04  0.1829285E+04  0.7818609E-02  0.8690879E-01
        2   -1    0    0  501    0  0.00000000000E+00  0.00000000000E+00  0.72985811123E+03  0.72985811123E+03  0.25500000920E-02 0. -1.
       -2   -1    0    0    0  501  0.00000000000E+00  0.00000000000E+00 -0.11462108768E+04  0.11462108768E+04  0.25500000920E-02 0.  1.
    10030    2    1    2    0    0  0.00000000000E+00  0.00000000000E+00 -0.41635276561E+03  0.18760689881E+04  0.18292854404E+04 0.  0.
        1    1    3    3  502    0  0.48052210777E+03  0.24157426953E+02  0.58959042147E+03  0.76098747850E+03  0.50400001928E-02 0. -1.
       -1    1    3    3    0  502 -0.48052210777E+03 -0.24157426953E+02 -0.10059431871E+04  0.11150815096E+04  0.50400001928E-02 0.  1.
</event>
<event>
 5   0  0.2355414E-04  0.1833699E+04  0.7818609E-02  0.8688581E-01
       -1   -1    0    0    0  501  0.00000000000E+00  0.00000000000E+00  0.74510803263E+03  0.74510803265E+03  0.50400001928E-02 0.  1.
        1   -1    0    0  501    0  0.00000000000E+00  0.00000000000E+00 -0.11281754397E+04  0.11281754397E+04  0.50400001928E-02 0. -1.
    10030    2    1    2    0    0  0.00000000000E+00  0.00000000000E+00 -0.38306740705E+03  0.18732834723E+04  0.18336985383E+04 0.  0.
        5    1    3    3  502    0  0.70304730179E+02  0.90268600420E+03 -0.44178021731E+02  0.90650899878E+03  0.46999998093E+01 0.  1.
       -5    1    3    3    0  502 -0.70304730179E+02 -0.90268600420E+03 -0.33888938532E+03  0.96677447357E+03  0.46999998093E+01 0. -1.
</event>
<event>
 5   0  0.2261755E-04  0.1916256E+04  0.7818609E-02  0.8646807E-01
        1   -1    0    0  501    0  0.00000000000E+00  0.00000000000E+00  0.81712681754E+03  0.81712681756E+03  0.50400001928E-02 0.  1.
       -1   -1    0    0    0  501  0.00000000000E+00  0.00000000000E+00 -0.11234603708E+04  0.11234603708E+04  0.50400001928E-02 0. -1.
    10030    2    1    2    0    0  0.00000000000E+00  0.00000000000E+00 -0.30633355329E+03  0.19405871884E+04  0.19162563476E+04 0.  0.
        1    1    3    3  502    0 -0.38158030305E+03  0.38657442250E+03  0.64613692686E+03  0.84411861731E+03  0.50400001928E-02 0.  1.
       -1    1    3    3    0  502  0.38158030305E+03 -0.38657442250E+03 -0.95247048015E+03  0.10964685711E+04  0.50400001928E-02 0. -1.
</event>
<event>
 5   0  0.2317458E-04  0.1883796E+04  0.7818609E-02  0.8662965E-01
        1   -1    0    0  501    0  0.00000000000E+00  0.00000000000E+00  0.88468201602E+03  0.88468201604E+03  0.50400001928E-02 0. -1.
       -1   -1    0    0    0  501  0.00000000000E+00  0.00000000000E+00 -0.10028141756E+04  0.10028141756E+04  0.50400001928E-02 0.  1.
    10030    2    1    2    0    0  0.00000000000E+00  0.00000000000E+00 -0.11813215954E+03  0.18874961916E+04  0.18837958133E+04 0.  0.
        3    1    3    3  502    0 -0.53202538632E+03  0.53037552079E+03 -0.62835682325E+03  0.97937812528E+03  0.10100000352E+00 0.  1.
       -3    1    3    3    0  502  0.53202538632E+03 -0.53037552079E+03  0.51022466371E+03  0.90811806634E+03  0.10100000352E+00 0. -1.
</event>
<event>
 5   0  0.2510069E-04  0.1868938E+04  0.7818609E-02  0.8670474E-01
        1   -1    0    0  501    0  0.00000000000E+00  0.00000000000E+00  0.12828099875E+04  0.12828099875E+04  0.50400001928E-02 0. -1.
       -1   -1    0    0    0  501  0.00000000000E+00  0.00000000000E+00 -0.68071823846E+03  0.68071823848E+03  0.50400001928E-02 0.  1.
    10030    2    1    2    0    0  0.00000000000E+00  0.00000000000E+00  0.60209174906E+03  0.19635282260E+04  0.18689378320E+04 0.  0.
        4    1    3    3  502    0 -0.15986321151E+01  0.21845017003E+03 -0.65351319330E+03  0.68906033054E+03  0.12699999809E+01 0.  1.
       -4    1    3    3    0  502  0.15986321151E+01 -0.21845017003E+03  0.12556049424E+04  0.12744678955E+04  0.12699999809E+01 0. -1.
</event>
<event>
 5   0  0.2317458E-04  0.1401312E+04  0.7818609E-02  0.8952869E-01
        1   -1    0    0  501    0  0.00000000000E+00  0.00000000000E+00  0.11925837115E+04  0.11925837115E+04  0.50400001928E-02 0. -1.
       -1   -1    0    0    0  501  0.00000000000E+00  0.00000000000E+00 -0.41164322766E+03  0.41164322769E+03  0.50400001928E-02 0.  1.
    10030    2    1    2    0    0  0.00000000000E+00  0.00000000000E+00  0.78094048381E+03  0.16042269392E+04  0.14013122540E+04 0.  0.
        3    1    3    3  502    0  0.13860991780E+03  0.37859409018E+03  0.10464863083E+04  0.11214632397E+04  0.10100000352E+00 0. -1.
       -3    1    3    3    0  502 -0.13860991780E+03 -0.37859409018E+03 -0.26554582445E+03  0.48276369946E+03  0.10100000352E+00 0.  1.
</event>
<event>
 5   0  0.4973411E-04  0.1899681E+04  0.7818609E-02  0.8655015E-01
        2   -1    0    0  501    0  0.00000000000E+00  0.00000000000E+00  0.19320077633E+04  0.19320077633E+04  0.25500000920E-02 0. -1.
       -2   -1    0    0    0  501  0.00000000000E+00  0.00000000000E+00 -0.46697369354E+03  0.46697369355E+03  0.25500000920E-02 0.  1.
    10030    2    1    2    0    0  0.00000000000E+00  0.00000000000E+00  0.14650340697E+04  0.23989814568E+04  0.18996808165E+04 0.  0.
        1    1    3    3  502    0  0.37902025184E+03 -0.86706875622E+03  0.83613271029E+03  0.12627677889E+04  0.50400001928E-02 0. -1.
       -1    1    3    3    0  502 -0.37902025184E+03  0.86706875622E+03  0.62890135942E+03  0.11362136679E+04  0.50400001928E-02 0.  1.
</event>
<event>
 5   0  0.4802635E-04  0.1964959E+04  0.7818609E-02  0.8623181E-01
       -2   -1    0    0    0  501  0.00000000000E+00  0.00000000000E+00  0.52645268158E+03  0.52645268159E+03  0.25500000920E-02 0.  1.
        2   -1    0    0  501    0  0.00000000000E+00  0.00000000000E+00 -0.18335275750E+04  0.18335275750E+04  0.25500000920E-02 0. -1.
    10030    2    1    2    0    0  0.00000000000E+00  0.00000000000E+00 -0.13070748935E+04  0.23599802566E+04  0.19649585325E+04 0.  0.
        3    1    3    3  502    0  0.79941732073E+03  0.21058636839E+03 -0.12911614196E+04  0.15331381193E+04  0.10100000352E+00 0. -1.
       -3    1    3    3    0  502 -0.79941732073E+03 -0.21058636839E+03 -0.15913473894E+02  0.82684213734E+03  0.10100000352E+00 0.  1.
</event>
<event>
 5   0  0.2317458E-04  0.1425244E+04  0.7818609E-02  0.8935746E-01
       -1   -1    0    0    0  501  0.00000000000E+00  0.00000000000E+00  0.45388265951E+03  0.45388265954E+03  0.50400001928E-02 0.  1.
        1   -1    0    0  501    0  0.00000000000E+00  0.00000000000E+00 -0.11188576658E+04  0.11188576658E+04  0.50400001928E-02 0. -1.
    10030    2    1    2    0    0  0.00000000000E+00  0.00000000000E+00 -0.66497500626E+03  0.15727403253E+04  0.14252439693E+04 0.  0.
        3    1    3    3  502    0  0.28548875751E+03  0.33400387732E+03  0.28661543411E+03  0.52460541171E+03  0.10100000352E+00 0.  1.
       -3    1    3    3    0  502 -0.28548875751E+03 -0.33400387732E+03 -0.95159044037E+03  0.10481349136E+04  0.10100000352E+00 0. -1.
</event>
<event>
 5   0  0.1729375E-04  0.1930267E+04  0.7818609E-02  0.8639936E-01
        4   -1    0    0  501    0  0.00000000000E+00  0.00000000000E+00  0.71234373754E+03  0.71234486965E+03  0.12699999809E+01 0. -1.
       -4   -1    0    0    0  501  0.00000000000E+00  0.00000000000E+00 -0.13076279769E+04  0.13076285936E+04  0.12699999809E+01 0.  1.
    10030    2    1    2    0    0  0.00000000000E+00  0.00000000000E+00 -0.59528423938E+03  0.20199734633E+04  0.19302666828E+04 0.  0.
        3    1    3    3  502    0  0.36086862396E+03 -0.73058665086E+02 -0.12312460751E+04  0.12851189206E+04  0.10100000352E+00 0.  1.
       -3    1    3    3    0  502 -0.36086862396E+03  0.73058665086E+02  0.63596183572E+03  0.73485454274E+03  0.10100000352E+00 0. -1.
</event>
<event>
 5   0  0.2510069E-04  0.1829230E+04  0.7818609E-02  0.8690908E-01
        1   -1    0    0  501    0  0.00000000000E+00  0.00000000000E+00  0.78724422452E+03  0.78724422454E+03  0.50400001928E-02 0. -1.
       -1   -1    0    0    0  501  0.00000000000E+00  0.00000000000E+00 -0.10625938556E+04  0.10625938556E+04  0.50400001928E-02 0.  1.
    10030    2    1    2    0    0  0.00000000000E+00  0.00000000000E+00 -0.27534963106E+03  0.18498380801E+04  0.18292303035E+04 0.  0.
        4    1    3    3  502    0 -0.80201805590E+03 -0.69321337727E+02  0.30135998605E+03  0.85956841726E+03  0.12699999809E+01 0. -1.
       -4    1    3    3    0  502  0.80201805590E+03  0.69321337727E+02 -0.57670961711E+03  0.99026966288E+03  0.12699999809E+01 0.  1.
</event>
<event>
 5   0  0.2376359E-04  0.1848322E+04  0.7818609E-02  0.8681016E-01
       -1   -1    0    0    0  501  0.00000000000E+00  0.00000000000E+00  0.49843193511E+03  0.49843193513E+03  0.50400001928E-02 0. -1.
        1   -1    0    0  501    0  0.00000000000E+00  0.00000000000E+00 -0.17135217869E+04  0.17135217869E+04  0.50400001928E-02 0.  1.
    10030    2    1    2    0    0  0.00000000000E+00  0.00000000000E+00 -0.12150898518E+04  0.22119537221E+04  0.18483224612E+04 0.  0.
        2    1    3    3  502    0  0.56464508216E+03 -0.71561507527E+03 -0.78961000610E+03  0.12059904504E+04  0.25500000920E-02 0.  1.
       -2    1    3    3    0  502 -0.56464508216E+03  0.71561507527E+03 -0.42547984571E+03  0.10059632716E+04  0.25500000920E-02 0. -1.
</event>
<event>
 5   0  0.2261755E-04  0.1895380E+04  0.7818609E-02  0.8657159E-01
        1   -1    0    0  501    0  0.00000000000E+00  0.00000000000E+00  0.78799672412E+03  0.78799672414E+03  0.50400001928E-02 0. -1.
       -1   -1    0    0    0  501  0.00000000000E+00  0.00000000000E+00 -0.11397464434E+04  0.11397464434E+04  0.50400001928E-02 0.  1.
    10030    2    1    2    0    0  0.00000000000E+00  0.00000000000E+00 -0.35174971929E+03  0.19277431676E+04  0.18953801347E+04 0.  0.
        1    1    3    3  502    0  0.29039609671E+03  0.87143212985E+03 -0.41307929895E+03  0.10071535916E+04  0.50400001928E-02 0.  1.
       -1    1    3    3    0  502 -0.29039609671E+03 -0.87143212985E+03  0.61329579652E+02  0.92058957592E+03  0.50400001928E-02 0. -1.
</event>
<event>
 5   0  0.2355414E-04  0.1930484E+04  0.7818609E-02  0.8639830E-01
        1   -1    0    0  501    0  0.00000000000E+00  0.00000000000E+00  0.81459735011E+03  0.81459735013E+03  0.50400001928E-02 0.  1.
       -1   -1    0    0    0  501  0.00000000000E+00  0.00000000000E+00 -0.11437454811E+04  0.11437454811E+04  0.50400001928E-02 0. -1.
    10030    2    1    2    0    0  0.00000000000E+00  0.00000000000E+00 -0.32914813097E+03  0.19583428312E+04  0.19304839167E+04 0.  0.
        5    1    3    3  502    0  0.14028750219E+03 -0.23013791365E+03 -0.11047857959E+04  0.11371973388E+04  0.46999998093E+01 0. -1.
       -5    1    3    3    0  502 -0.14028750219E+03  0.23013791365E+03  0.77563766489E+03  0.82114549245E+03  0.46999998093E+01 0.  1.
</event>
<event>
 5   0  0.4839293E-04  0.1963666E+04  0.7818609E-02  0.8623799E-01
        2   -1    0    0  501    0  0.00000000000E+00  0.00000000000E+00  0.25407295472E+04  0.25407295472E+04  0.25500000920E-02 0.  1.
       -2   -1    0    0    0  501  0.00000000000E+00  0.00000000000E+00 -0.37941704205E+03  0.37941704206E+03  0.25500000920E-02 0. -1.
    10030    2    1    2    0    0  0.00000000000E+00  0.00000000000E+00  0.21613125052E+04  0.29201465893E+04  0.19636660505E+04 0.  0.
        5    1    3    3  502    0 -0.21427351681E+03 -0.13014533305E+03  0.24923128797E+04  0.25048945144E+04  0.46999998093E+01 0.  1.
       -5    1    3    3    0  502  0.21427351681E+03  0.13014533305E+03 -0.33100037458E+03  0.41525207488E+03  0.46999998093E+01 0. -1.
</event>
<event>
 5   0  0.4761944E-04  0.1844507E+04  0.7818609E-02  0.8682983E-01
        2   -1    0    0  501    0  0.00000000000E+00  0.00000000000E+00  0.14223115808E+04  0.14223115808E+04  0.25500000920E-02 0.  1.
       -2   -1    0    0    0  501  0.00000000000E+00  0.00000000000E+00 -0.59800627916E+03  0.59800627916E+03  0.25500000920E-02 0. -1.
    10030    2    1    2    0    0  0.00000000000E+00  0.00000000000E+00  0.82430530167E+03  0.20203178600E+04  0.18445067159E+04 0.  0.
        4    1    3    3  502    0  0.21201374299E+03 -0.72693379583E+03  0.98879997317E+03  0.12454354943E+04  0.12699999809E+01 0.  1.
       -4    1    3    3    0  502 -0.21201374299E+03  0.72693379583E+03 -0.16449467150E+03  0.77488236565E+03  0.12699999809E+01 0. -1.
</event>
<event>
 5   0  0.2355414E-04  0.1917414E+04  0.7818609E-02  0.8646237E-01
        1   -1    0    0  501    0  0.00000000000E+00  0.00000000000E+00  0.76701455506E+03  0.76701455507E+03  0.50400001928E-02 0.  1.
       -1   -1    0    0    0  501  0.00000000000E+00  0.00000000000E+00 -0.11983069865E+04  0.11983069865E+04  0.50400001928E-02 0. -1.
    10030    2    1    2    0    0  0.00000000000E+00  0.00000000000E+00 -0.43129243142E+03  0.19653215416E+04  0.19174137791E+04 0.  0.
        5    1    3    3  502    0  0.46342469947E+03 -0.30453898889E+03  0.58593602530E+03  0.80675247975E+03  0.46999998093E+01 0.  1.
       -5    1    3    3    0  502 -0.46342469947E+03  0.30453898889E+03 -0.10172284567E+04  0.11585690618E+04  0.46999998093E+01 0. -1.
</event>
<event>
 5   0  0.1729375E-04  0.1919452E+04  0.7818609E-02  0.8645234E-01
       -3   -1    0    0    0  501  0.00000000000E+00  0.00000000000E+00  0.11086680086E+04  0.11086680132E+04  0.10100000352E+00 0. -1.
        3   -1    0    0  501    0  0.00000000000E+00  0.00000000000E+00 -0.83079374754E+03  0.83079375368E+03  0.10100000352E+00 0.  1.
    10030    2    1    2    0    0  0.00000000000E+00  0.00000000000E+00  0.27787426106E+03  0.19394617669E+04  0.19194524845E+04 0.  0.
        1    1    3    3  502    0  0.19828055609E+03 -0.77082934310E+03 -0.40291933202E+03  0.89209699206E+03  0.50400001928E-02 0.  1.
       -1    1    3    3    0  502 -0.19828055609E+03  0.77082934310E+03  0.68079359308E+03  0.10473647748E+04  0.50400001928E-02 0. -1.
</event>
<event>
 5   0  0.4802635E-04  0.1902408E+04  0.7818609E-02  0.8653659E-01
        2   -1    0    0  501    0  0.00000000000E+00  0.00000000000E+00  0.22902722110E+04  0.22902722110E+04  0.25500000920E-02 0.  1.
       -2   -1    0    0    0  501  0.00000000000E+00  0.00000000000E+00 -0.39505727794E+03  0.39505727795E+03  0.25500000920E-02 0. -1.
    10030    2    1    2    0    0  0.00000000000E+00  0.00000000000E+00  0.18952149330E+04  0.26853294889E+04  0.19024076381E+04 0.  0.
        3    1    3    3  502    0  0.57271490066E+01 -0.45616153301E+03 -0.23056359106E+03  0.51115137108E+03  0.10100000352E+00 0. -1.
       -3    1    3    3    0  502 -0.57271490066E+01  0.45616153301E+03  0.21257785241E+04  0.21741781178E+04  0.10100000352E+00 0.  1.
</event>
<event>
 5   0  0.4761944E-04  0.1882610E+04  0.7818609E-02  0.8663561E-01
       -2   -1    0    0    0  501  0.00000000000E+00  0.00000000000E+00  0.12454283899E+04  0.12454283899E+04  0.25500000920E-02 0.  1.
        2   -1    0    0  501    0  0.00000000000E+00  0.00000000000E+00 -0.71144628255E+03  0.71144628255E+03  0.25500000920E-02 0. -1.
    10030    2    1    2    0    0  0.00000000000E+00  0.00000000000E+00  0.53398210732E+03  0.19568746724E+04  0.18826103135E+04 0.  0.
        4    1    3    3  502    0  0.28210148805E+03  0.32022435399E+03  0.11390924386E+04  0.12164119709E+04  0.12699999809E+01 0.  1.
       -4    1    3    3    0  502 -0.28210148805E+03 -0.32022435399E+03 -0.60511033125E+03  0.74046270152E+03  0.12699999809E+01 0. -1.
</event>
<event>
 5   0  0.4761944E-04  0.2115658E+04  0.7818609E-02  0.8554377E-01
       -2   -1    0    0    0  501  0.00000000000E+00  0.00000000000E+00  0.11994733281E+04  0.11994733281E+04  0.25500000920E-02 0. -1.
        2   -1    0    0  501    0  0.00000000000E+00  0.00000000000E+00 -0.93291113152E+03  0.93291113152E+03  0.25500000920E-02 0.  1.
    10030    2    1    2    0    0  0.00000000000E+00  0.00000000000E+00  0.26656219658E+03  0.21323844596E+04  0.21156578360E+04 0.  0.
        4    1    3    3  502    0 -0.17664500406E+03 -0.94099019047E+03 -0.32009117070E+03  0.10095176900E+04  0.12699999809E+01 0. -1.
       -4    1    3    3    0  502  0.17664500406E+03  0.94099019047E+03  0.58665336729E+03  0.11228667696E+04  0.12699999809E+01 0.  1.
</event>
<event>
 5   0  0.2261755E-04  0.1972461E+04  0.7818609E-02  0.8619605E-01
        1   -1    0    0  501    0  0.00000000000E+00  0.00000000000E+00  0.89466557048E+03  0.89466557050E+03  0.50400001928E-02 0. -1.
       -1   -1    0    0    0  501  0.00000000000E+00  0.00000000000E+00 -0.10871666447E+04  0.10871666447E+04  0.50400001928E-02 0.  1.
    10030    2    1    2    0    0  0.00000000000E+00  0.00000000000E+00 -0.19250107418E+03  0.19818322152E+04  0.19724609668E+04 0.  0.
        1    1    3    3  502    0  0.52465293112E+03 -0.53844815996E+03 -0.73761190015E+03  0.10532133850E+04  0.50400001928E-02 0.  1.
       -1    1    3    3    0  502 -0.52465293112E+03  0.53844815996E+03  0.54511082597E+03  0.92861883016E+03  0.50400001928E-02 0. -1.
</event>
<event>
 5   0  0.2317458E-04  0.2201483E+04  0.7818609E-02  0.8517811E-01
       -1   -1    0    0    0  501  0.00000000000E+00  0.00000000000E+00  0.12473816594E+04  0.12473816594E+04  0.50400001928E-02 0.  1.
        1   -1    0    0  501    0  0.00000000000E+00  0.00000000000E+00 -0.97133998852E+03  0.97133998854E+03  0.50400001928E-02 0. -1.
    10030    2    1    2    0    0  0.00000000000E+00  0.00000000000E+00  0.27604167088E+03  0.22187216479E+04  0.22014828519E+04 0.  0.
        3    1    3    3  502    0  0.65812718311E+03 -0.14903159774E+03 -0.73843826672E+03  0.10003163951E+04  0.10100000352E+00 0. -1.
       -3    1    3    3    0  502 -0.65812718311E+03  0.14903159774E+03  0.10144799376E+04  0.12184052529E+04  0.10100000352E+00 0.  1.
</event>
<event>
 5   0  0.2317458E-04  0.1897762E+04  0.7818609E-02  0.8655971E-01
        1   -1    0    0  501    0  0.00000000000E+00  0.00000000000E+00  0.91509820870E+03  0.91509820871E+03  0.50400001928E-02 0. -1.
       -1   -1    0    0    0  501  0.00000000000E+00  0.00000000000E+00 -0.98391081230E+03  0.98391081231E+03  0.50400001928E-02 0.  1.
    10030    2    1    2    0    0  0.00000000000E+00  0.00000000000E+00 -0.68812603598E+02  0.18990090210E+04  0.18977618627E+04 0.  0.
        3    1    3    3  502    0  0.10151711985E+03 -0.36955384413E+03  0.83420749434E+03  0.91802936944E+03  0.10100000352E+00 0. -1.
       -3    1    3    3    0  502 -0.10151711985E+03  0.36955384413E+03 -0.90302009794E+03  0.98097965158E+03  0.10100000352E+00 0.  1.
</event>
<event>
 5   0  0.4761944E-04  0.1832506E+04  0.7818609E-02  0.8689202E-01
       -2   -1    0    0    0  501  0.00000000000E+00  0.00000000000E+00  0.11375161635E+04  0.11375161635E+04  0.25500000920E-02 0.  1.
        2   -1    0    0  501    0  0.00000000000E+00  0.00000000000E+00 -0.73802854073E+03  0.73802854073E+03  0.25500000920E-02 0. -1.
    10030    2    1    2    0    0  0.00000000000E+00  0.00000000000E+00  0.39948762273E+03  0.18755447042E+04  0.18325058190E+04 0.  0.
        4    1    3    3  502    0  0.28562904717E+03 -0.84111301879E+03  0.42965884955E+03  0.98674383853E+03  0.12699999809E+01 0. -1.
       -4    1    3    3    0  502 -0.28562904717E+03  0.84111301879E+03 -0.30171226825E+02  0.88880086566E+03  0.12699999809E+01 0.  1.
</event>
<event>
 5   0  0.2510069E-04  0.1812275E+04  0.7818609E-02  0.8699799E-01
        1   -1    0    0  501    0  0.00000000000E+00  0.00000000000E+00  0.55413938300E+03  0.55413938302E+03  0.50400001928E-02 0. -1.
       -1   -1    0    0    0  501  0.00000000000E+00  0.00000000000E+00 -0.14817300960E+04  0.14817300960E+04  0.50400001928E-02 0.  1.
    10030    2    1    2    0    0  0.00000000000E+00  0.00000000000E+00 -0.92759071303E+03  0.20358694791E+04  0.18122748149E+04 0.  0.
        4    1    3    3  502    0 -0.64324393844E+03  0.63788649940E+03 -0.44073358577E+03  0.10074272465E+04  0.12699999809E+01 0.  1.
       -4    1    3    3    0  502  0.64324393844E+03 -0.63788649940E+03 -0.48685712726E+03  0.10284422326E+04  0.12699999809E+01 0. -1.
</event>
<event>
 5   0  0.4802635E-04  0.1886704E+04  0.7818609E-02  0.8661503E-01
       -2   -1    0    0    0  501  0.00000000000E+00  0.00000000000E+00  0.11088632461E+04  0.11088632461E+04  0.25500000920E-02 0.  1.
        2   -1    0    0  501    0  0.00000000000E+00  0.00000000000E+00 -0.80254498246E+03  0.80254498246E+03  0.25500000920E-02 0. -1.
    10030    2    1    2    0    0  0.00000000000E+00  0.00000000000E+00  0.30631826360E+03  0.19114082285E+04  0.18867036167E+04 0.  0.
        3    1    3    3  502    0  0.16760647917E+03  0.30973503891E+03 -0.73344861636E+03  0.81361822081E+03  0.10100000352E+00 0. -1.
       -3    1    3    3    0  502 -0.16760647917E+03 -0.30973503891E+03  0.10397668800E+04  0.10977900077E+04  0.10100000352E+00 0.  1.
</event>
<event>
 5   0  0.2355414E-04  0.1947235E+04  0.7818609E-02  0.8631695E-01
       -1   -1    0    0    0  501  0.00000000000E+00  0.00000000000E+00  0.89641939176E+03  0.89641939178E+03  0.50400001928E-02 0.  1.
        1   -1    0    0  501    0  0.00000000000E+00  0.00000000000E+00 -0.10574636481E+04  0.10574636481E+04  0.50400001928E-02 0. -1.
    10030    2    1    2    0    0  0.00000000000E+00  0.00000000000E+00 -0.16104425630E+03  0.19538830399E+04  0.19472348808E+04 0.  0.
        5    1    3    3  502    0 -0.16360970625E+02  0.43072544543E+03  0.79545138195E+03  0.90474144470E+03  0.46999998093E+01 0.  1.
       -5    1    3    3    0  502  0.16360970625E+02 -0.43072544543E+03 -0.95649563826E+03  0.10491415952E+04  0.46999998093E+01 0. -1.
</event>
<event>
 5   0  0.4802635E-04  0.1917572E+04  0.7818609E-02  0.8646159E-01
       -2   -1    0    0    0  501  0.00000000000E+00  0.00000000000E+00  0.58999000956E+03  0.58999000956E+03  0.25500000920E-02 0. -1.
        2   -1    0    0  501    0  0.00000000000E+00  0.00000000000E+00 -0.15581118407E+04  0.15581118407E+04  0.25500000920E-02 0.  1.
    10030    2    1    2    0    0  0.00000000000E+00  0.00000000000E+00 -0.96812183116E+03  0.21481018503E+04  0.19175718185E+04 0.  0.
        3    1    3    3  502    0  0.64914452700E+03 -0.49538293819E+02  0.30442401054E+03  0.71869092654E+03  0.10100000352E+00 0. -1.
       -3    1    3    3    0  502 -0.64914452700E+03  0.49538293819E+02 -0.12725458417E+04  0.14294109237E+04  0.10100000352E+00 0.  1.
</event>
<event>
 5   0  0.4973411E-04  0.1997271E+04  0.7818609E-02  0.8607897E-01
       -2   -1    0    0    0  501  0.00000000000E+00  0.00000000000E+00  0.89283480876E+03  0.89283480876E+03  0.25500000920E-02 0.  1.
        2   -1    0    0  501    0  0.00000000000E+00  0.00000000000E+00 -0.11169739938E+04  0.11169739938E+04  0.25500000920E-02 0. -1.
    10030    2    1    2    0    0  0.00000000000E+00  0.00000000000E+00 -0.22413918500E+03  0.20098088025E+04  0.19972714008E+04 0.  0.
        1    1    3    3  502    0 -0.14237231276E+03  0.75300519637E+03  0.53225168182E+03  0.93304799128E+03  0.50400001928E-02 0.  1.
       -1    1    3    3    0  502  0.14237231276E+03 -0.75300519637E+03 -0.75639086682E+03  0.10767608112E+04  0.50400001928E-02 0. -1.
</event>
<event>
 5   0  0.2355414E-04  0.2007017E+04  0.7818609E-02  0.8603347E-01
        1   -1    0    0  501    0  0.00000000000E+00  0.00000000000E+00  0.84158430637E+03  0.84158430639E+03  0.50400001928E-02 0.  1.
       -1   -1    0    0    0  501  0.00000000000E+00  0.00000000000E+00 -0.11965876153E+04  0.11965876153E+04  0.50400001928E-02 0. -1.
    10030    2    1    2    0    0  0.00000000000E+00  0.00000000000E+00 -0.35500330893E+03  0.20381719217E+04  0.20070170485E+04 0.  0.
        5    1    3    3  502    0  0.99661340436E+03 -0.23420585303E+02 -0.29426677879E+03  0.10394237965E+04  0.46999998093E+01 0.  1.
       -5    1    3    3    0  502 -0.99661340436E+03  0.23420585303E+02 -0.60736530139E+02  0.99874812523E+03  0.46999998093E+01 0. -1.
</event>
<event>
 5   0  0.2376359E-04  0.1506274E+04  0.7818609E-02  0.8880291E-01
       -1   -1    0    0    0  501  0.00000000000E+00  0.00000000000E+00  0.27134891026E+03  0.27134891031E+03  0.50400001928E-02 0.  1.
        1   -1    0    0  501    0  0.00000000000E+00  0.00000000000E+00 -0.20903546903E+04  0.20903546903E+04  0.50400001928E-02 0. -1.
    10030    2    1    2    0    0  0.00000000000E+00  0.00000000000E+00 -0.18190057801E+04  0.23617036006E+04  0.15062741681E+04 0.  0.
        2    1    3    3  502    0 -0.62291405670E+03 -0.19879395084E+03 -0.32352673684E+03  0.72952759124E+03  0.25500000920E-02 0.  1.
       -2    1    3    3    0  502  0.62291405670E+03  0.19879395084E+03 -0.14954790432E+04  0.16321760094E+04  0.25500000920E-02 0. -1.
</event>
<event>
 5   0  0.4829134E-04  0.1819837E+04  0.7818609E-02  0.8695821E-01
       -2   -1    0    0    0  501  0.00000000000E+00  0.00000000000E+00  0.39847973175E+03  0.39847973176E+03  0.25500000920E-02 0. -1.
        2   -1    0    0  501    0  0.00000000000E+00  0.00000000000E+00 -0.20777771146E+04  0.20777771146E+04  0.25500000920E-02 0.  1.
    10030    2    1    2    0    0  0.00000000000E+00  0.00000000000E+00 -0.16792973829E+04  0.24762568464E+04  0.18198374293E+04 0.  0.
        2    1    3    3  502    0 -0.10750797162E+03 -0.88438894073E+03 -0.10914716470E+04  0.14089045811E+04  0.25500000920E-02 0.  1.
       -2    1    3    3    0  502  0.10750797162E+03  0.88438894073E+03 -0.58782573591E+03  0.10673522653E+04  0.25500000920E-02 0. -1.
</event>
<event>
 5   0  0.4829134E-04  0.1903179E+04  0.7818609E-02  0.8653276E-01
        2   -1    0    0  501    0  0.00000000000E+00  0.00000000000E+00  0.17566080217E+04  0.17566080217E+04  0.25500000920E-02 0. -1.
       -2   -1    0    0    0  501  0.00000000000E+00  0.00000000000E+00 -0.51549499864E+03  0.51549499865E+03  0.25500000920E-02 0.  1.
    10030    2    1    2    0    0  0.00000000000E+00  0.00000000000E+00  0.12411130231E+04  0.22721030204E+04  0.19031790770E+04 0.  0.
        2    1    3    3  502    0  0.17705360604E+03  0.84080228904E+03  0.11087595752E+04  0.14027274377E+04  0.25500000920E-02 0. -1.
       -2    1    3    3    0  502 -0.17705360604E+03 -0.84080228904E+03  0.13235344785E+03  0.86937558272E+03  0.25500000920E-02 0.  1.
</event>
<event>
 5   0  0.2317458E-04  0.1790545E+04  0.7818609E-02  0.8711344E-01
        1   -1    0    0  501    0  0.00000000000E+00  0.00000000000E+00  0.89911559851E+03  0.89911559852E+03  0.50400001928E-02 0. -1.
       -1   -1    0    0    0  501  0.00000000000E+00  0.00000000000E+00 -0.89144613253E+03  0.89144613255E+03  0.50400001928E-02 0.  1.
    10030    2    1    2    0    0  0.00000000000E+00  0.00000000000E+00  0.76694659708E+01  0.17905617311E+04  0.17905453058E+04 0.  0.
        3    1    3    3  502    0  0.16722872820E+03 -0.31571142920E+03  0.82474052670E+03  0.89879702973E+03  0.10100000352E+00 0. -1.
       -3    1    3    3    0  502 -0.16722872820E+03  0.31571142920E+03 -0.81707106073E+03  0.89176470134E+03  0.10100000352E+00 0.  1.
</event>
<event>
 5   0  0.2376359E-04  0.1875599E+04  0.7818609E-02  0.8667098E-01
        1   -1    0    0  501    0  0.00000000000E+00  0.00000000000E+00  0.15831548137E+04  0.15831548137E+04  0.50400001928E-02 0.  1.
       -1   -1    0    0    0  501  0.00000000000E+00  0.00000000000E+00 -0.55551624735E+03  0.55551624737E+03  0.50400001928E-02 0. -1.
    10030    2    1    2    0    0  0.00000000000E+00  0.00000000000E+00  0.10276385663E+04  0.21386710610E+04  0.18755993400E+04 0.  0.
        2    1    3    3  502    0  0.14605043393E+02 -0.17607069833E+03 -0.53636831585E+03  0.56471689221E+03  0.25500000920E-02 0. -1.
       -2    1    3    3    0  502 -0.14605043393E+02  0.17607069833E+03  0.15640068822E+04  0.15739541688E+04  0.25500000920E-02 0.  1.
</event>
<event>
 5   0  0.4973411E-04  0.1899016E+04  0.7818609E-02  0.8655346E-01
        2   -1    0    0  501    0  0.00000000000E+00  0.00000000000E+00  0.17670791736E+04  0.17670791736E+04  0.25500000920E-02 0.  1.
       -2   -1    0    0    0  501  0.00000000000E+00  0.00000000000E+00 -0.51020091361E+03  0.51020091362E+03  0.25500000920E-02 0. -1.
    10030    2    1    2    0    0  0.00000000000E+00  0.00000000000E+00  0.12568782600E+04  0.22772800873E+04  0.18990159650E+04 0.  0.
        1    1    3    3  502    0 -0.63967773769E+03 -0.69912381080E+03  0.70042744693E+03  0.11783718935E+04  0.50400001928E-02 0.  1.
       -1    1    3    3    0  502  0.63967773769E+03  0.69912381080E+03  0.55645081311E+03  0.10989081938E+04  0.50400001928E-02 0. -1.
</event>
<event>
 5   0  0.2510069E-04  0.1689373E+04  0.7818609E-02  0.8767449E-01
       -1   -1    0    0    0  501  0.00000000000E+00  0.00000000000E+00  0.37179307176E+03  0.37179307180E+03  0.50400001928E-02 0.  1.
        1   -1    0    0  501    0  0.00000000000E+00  0.00000000000E+00 -0.19190660034E+04  0.19190660034E+04  0.50400001928E-02 0. -1.
    10030    2    1    2    0    0  0.00000000000E+00  0.00000000000E+00 -0.15472729316E+04  0.22908590752E+04  0.16893731907E+04 0.  0.
        4    1    3    3  502    0 -0.12906996251E+03 -0.14126199204E+03  0.34201505330E+03  0.39190549269E+03  0.12699999809E+01 0.  1.
       -4    1    3    3    0  502  0.12906996251E+03  0.14126199204E+03 -0.18892879849E+04  0.18989535825E+04  0.12699999809E+01 0. -1.
</event>
<event>
 5   0  0.4973411E-04  0.1891997E+04  0.7818609E-02  0.8658850E-01
        2   -1    0    0  501    0  0.00000000000E+00  0.00000000000E+00  0.10677225571E+04  0.10677225571E+04  0.25500000920E-02 0.  1.
       -2   -1    0    0    0  501  0.00000000000E+00  0.00000000000E+00 -0.83815170804E+03  0.83815170804E+03  0.25500000920E-02 0. -1.
    10030    2    1    2    0    0  0.00000000000E+00  0.00000000000E+00  0.22957084908E+03  0.19058742652E+04  0.18919973414E+04 0.  0.
        1    1    3    3  502    0  0.35573702838E+03  0.48361977220E+03 -0.62165574475E+03  0.86422958895E+03  0.50400001928E-02 0. -1.
       -1    1    3    3    0  502 -0.35573702838E+03 -0.48361977220E+03  0.85122659382E+03  0.10416446762E+04  0.50400001928E-02 0.  1.
</event>
<event>
 5   0  0.2261755E-04  0.1883806E+04  0.7818609E-02  0.8662959E-01
        1   -1    0    0  501    0  0.00000000000E+00  0.00000000000E+00  0.19292396328E+04  0.19292396328E+04  0.50400001928E-02 0.  1.
       -1   -1    0    0    0  501  0.00000000000E+00  0.00000000000E+00 -0.45986057143E+03  0.45986057146E+03  0.50400001928E-02 0. -1.
    10030    2    1    2    0    0  0.00000000000E+00  0.00000000000E+00  0.14693790613E+04  0.23891002042E+04  0.18838059773E+04 0.  0.
        1    1    3    3  502    0 -0.33269752077E+03 -0.45531578317E+03  0.16914945488E+04  0.17830182027E+04  0.50400001928E-02 0.  1.
       -1    1    3    3    0  502  0.33269752077E+03  0.45531578317E+03 -0.22211548746E+03  0.60608200149E+03  0.50400001928E-02 0. -1.
</event>
<event>
 5   0  0.4761944E-04  0.1908863E+04  0.7818609E-02  0.8650457E-01
       -2   -1    0    0    0  501  0.00000000000E+00  0.00000000000E+00  0.52544155543E+03  0.52544155544E+03  0.25500000920E-02 0. -1.
        2   -1    0    0  501    0  0.00000000000E+00  0.00000000000E+00 -0.17336640708E+04  0.17336640709E+04  0.25500000920E-02 0.  1.
    10030    2    1    2    0    0  0.00000000000E+00  0.00000000000E+00 -0.12082225154E+04  0.22591056263E+04  0.19088626415E+04 0.  0.
        4    1    3    3  502    0  0.78874485212E+03  0.26267454295E+03 -0.11589881282E+04  0.14263139386E+04  0.12699999809E+01 0.  1.
       -4    1    3    3    0  502 -0.78874485212E+03 -0.26267454295E+03 -0.49234387203E+02  0.83279168767E+03  0.12699999809E+01 0. -1.
</event>
<event>
 5   0  0.1729375E-04  0.1871919E+04  0.7818609E-02  0.8668962E-01
        3   -1    0    0  501    0  0.00000000000E+00  0.00000000000E+00  0.64630934392E+03  0.64630935181E+03  0.10100000352E+00 0.  1.
       -3   -1    0    0    0  501  0.00000000000E+00  0.00000000000E+00 -0.13554186946E+04  0.13554186983E+04  0.10100000352E+00 0. -1.
    10030    2    1    2    0    0  0.00000000000E+00  0.00000000000E+00 -0.70910935065E+03  0.20017280501E+04  0.18719185654E+04 0.  0.
        1    1    3    3  502    0  0.28572920455E+03 -0.65051121818E+02  0.59598895945E+03  0.66413527734E+03  0.50400001928E-02 0.  1.
       -1    1    3    3    0  502 -0.28572920455E+03  0.65051121818E+02 -0.13050983101E+04  0.13375927728E+04  0.50400001928E-02 0. -1.
</event>
<event>
 5   0  0.4802635E-04  0.1851490E+04  0.7818609E-02  0.8679387E-01
        2   -1    0    0  501    0  0.00000000000E+00  0.00000000000E+00  0.23060056831E+04  0.23060056831E+04  0.25500000920E-02 0. -1.
       -2   -1    0    0    0  501  0.00000000000E+00  0.00000000000E+00 -0.37163992580E+03  0.37163992581E+03  0.25500000920E-02 0.  1.
    10030    2    1    2    0    0  0.00000000000E+00  0.00000000000E+00  0.19343657573E+04  0.26776456089E+04  0.18514899740E+04 0.  0.
        3    1    3    3  502    0  0.11241983403E+03 -0.42749342742E+03 -0.20916121912E+03  0.48901664118E+03  0.10100000352E+00 0.  1.
       -3    1    3    3    0  502 -0.11241983403E+03  0.42749342742E+03  0.21435269764E+04  0.21886289677E+04  0.10100000352E+00 0. -1.
</event>
<event>
 5   0  0.4829134E-04  0.2030181E+04  0.7818609E-02  0.8592639E-01
        2   -1    0    0  501    0  0.00000000000E+00  0.00000000000E+00  0.19887353823E+04  0.19887353823E+04  0.25500000920E-02 0. -1.
       -2   -1    0    0    0  501  0.00000000000E+00  0.00000000000E+00 -0.51812244349E+03  0.51812244349E+03  0.25500000920E-02 0.  1.
    10030    2    1    2    0    0  0.00000000000E+00  0.00000000000E+00  0.14706129388E+04  0.25068578258E+04  0.20301807168E+04 0.  0.
        2    1    3    3  502    0  0.65650807484E+03  0.53023516809E+03  0.38706459731E+02  0.84477829982E+03  0.25500000920E-02 0.  1.
       -2    1    3    3    0  502 -0.65650807484E+03 -0.53023516809E+03  0.14319064791E+04  0.16620795260E+04  0.25500000920E-02 0. -1.
</event>
<event>
 5   0  0.4973411E-04  0.1761083E+04  0.7818609E-02  0.8727273E-01
       -2   -1    0    0    0  501  0.00000000000E+00  0.00000000000E+00  0.73129238297E+03  0.73129238297E+03  0.25500000920E-02 0.  1.
        2   -1    0    0  501    0  0.00000000000E+00  0.00000000000E+00 -0.10602504578E+04  0.10602504578E+04  0.25500000920E-02 0. -1.
    10030    2    1    2    0    0  0.00000000000E+00  0.00000000000E+00 -0.32895807480E+03  0.17915428407E+04  0.17610827167E+04 0.  0.
        1    1    3    3  502    0  0.49209675879E+03 -0.62054909285E+03 -0.55598968117E+03  0.96765950739E+03  0.50400001928E-02 0. -1.
       -1    1    3    3    0  502 -0.49209675879E+03  0.62054909285E+03  0.22703160637E+03  0.82388333335E+03  0.50400001928E-02 0.  1.
</event>
<event>
 5   0  0.2510069E-04  0.1877664E+04  0.7818609E-02  0.8666055E-01
        1   -1    0    0  501    0  0.00000000000E+00  0.00000000000E+00  0.14288684762E+04  0.14288684762E+04  0.50400001928E-02 0. -1.
       -1   -1    0    0    0  501  0.00000000000E+00  0.00000000000E+00 -0.61685577554E+03  0.61685577556E+03  0.50400001928E-02 0.  1.
    10030    2    1    2    0    0  0.00000000000E+00  0.00000000000E+00  0.81201270069E+03  0.20457242518E+04  0.18776642640E+04 0.  0.
        4    1    3    3  502    0  0.62668152380E+03  0.19097678159E+03  0.11386546303E+04  0.13136734158E+04  0.12699999809E+01 0. -1.
       -4    1    3    3    0  502 -0.62668152380E+03 -0.19097678159E+03 -0.32664192963E+03  0.73205083599E+03  0.12699999809E+01 0.  1.
</event>
<event>
 5   0  0.4829134E-04  0.1924892E+04  0.7818609E-02  0.8642564E-01
        2   -1    0    0  501    0  0.00000000000E+00  0.00000000000E+00  0.18016113589E+04  0.18016113589E+04  0.25500000920E-02 0. -1.
       -2   -1    0    0    0  501  0.00000000000E+00  0.00000000000E+00 -0.51415226044E+03  0.51415226044E+03  0.25500000920E-02 0.  1.
    10030    2    1    2    0    0  0.00000000000E+00  0.00000000000E+00  0.12874590984E+04  0.23157636193E+04  0.19248922594E+04 0.  0.
        2    1    3    3  502    0 -0.82204446711E+02 -0.43078587270E+03 -0.38695677960E+03  0.58486715454E+03  0.25500000920E-02 0.  1.
       -2    1    3    3    0  502  0.82204446711E+02  0.43078587270E+03  0.16744158780E+04  0.17308964648E+04  0.25500000920E-02 0. -1.
</event>
<event>
 5   0  0.2317458E-04  0.1870720E+04  0.7818609E-02  0.8669570E-01
       -1   -1    0    0    0  501  0.00000000000E+00  0.00000000000E+00  0.44549013064E+03  0.44549013067E+03  0.50400001928E-02 0. -1.
        1   -1    0    0  501    0  0.00000000000E+00  0.00000000000E+00 -0.19638996273E+04  0.19638996273E+04  0.50400001928E-02 0.  1.
    10030    2    1    2    0    0  0.00000000000E+00  0.00000000000E+00 -0.15184094967E+04  0.24093897580E+04  0.18707195424E+04 0.  0.
        3    1    3    3  502    0 -0.22930708177E+03 -0.32276958595E+02  0.40798780142E+03  0.46912428643E+03  0.10100000352E+00 0. -1.
       -3    1    3    3    0  502  0.22930708177E+03  0.32276958595E+02 -0.19263972981E+04  0.19402654716E+04  0.10100000352E+00 0.  1.
</event>
<event>
 5   0  0.2510069E-04  0.1954642E+04  0.7818609E-02  0.8628126E-01
       -1   -1    0    0    0  501  0.00000000000E+00  0.00000000000E+00  0.11049428897E+04  0.11049428897E+04  0.50400001928E-02 0. -1.
        1   -1    0    0  501    0  0.00000000000E+00  0.00000000000E+00 -0.86443956507E+03  0.86443956508E+03  0.50400001928E-02 0.  1.
    10030    2    1    2    0    0  0.00000000000E+00  0.00000000000E+00  0.24050332459E+03  0.19693824548E+04  0.19546420143E+04 0.  0.
        4    1    3    3  502    0  0.43181332289E+03  0.85291609654E+03  0.32482502795E+03  0.10096739698E+04  0.12699999809E+01 0.  1.
       -4    1    3    3    0  502 -0.43181332289E+03 -0.85291609654E+03 -0.84321703361E+02  0.95970848497E+03  0.12699999809E+01 0. -1.
</event>
<event>
 5   0  0.2376359E-04  0.1925967E+04  0.7818609E-02  0.8642038E-01
       -1   -1    0    0    0  501  0.00000000000E+00  0.00000000000E+00  0.12674554071E+04  0.12674554071E+04  0.50400001928E-02 0. -1.
        1   -1    0    0  501    0  0.00000000000E+00  0.00000000000E+00 -0.73165294646E+03  0.73165294648E+03  0.50400001928E-02 0.  1.
    10030    2    1    2    0    0  0.00000000000E+00  0.00000000000E+00  0.53580246061E+03  0.19991083536E+04  0.19259672719E+04 0.  0.
        2    1    3    3  502    0  0.25324887885E+03 -0.87962435493E+03  0.57836457462E+03  0.10827647859E+04  0.25500000920E-02 0. -1.
       -2    1    3    3    0  502 -0.25324887885E+03  0.87962435493E+03 -0.42562114007E+02  0.91634356765E+03  0.25500000920E-02 0.  1.
</event>
<event>
 5   0  0.2355414E-04  0.1915570E+04  0.7818609E-02  0.8647145E-01
       -1   -1    0    0    0  501  0.00000000000E+00  0.00000000000E+00  0.10605173185E+04  0.10605173185E+04  0.50400001928E-02 0. -1.
        1   -1    0    0  501    0  0.00000000000E+00  0.00000000000E+00 -0.86500398522E+03  0.86500398524E+03  0.50400001928E-02 0.  1.
    10030    2    1    2    0    0  0.00000000000E+00  0.00000000000E+00  0.19551333330E+03  0.19255213038E+04  0.19155695831E+04 0.  0.
        5    1    3    3  502    0 -0.83788820297E+03 -0.10157220568E+03 -0.35731603148E+03  0.91655353907E+03  0.46999998093E+01 0. -1.
       -5    1    3    3    0  502  0.83788820297E+03  0.10157220568E+03  0.55282936478E+03  0.10089677647E+04  0.46999998093E+01 0.  1.
</event>
<event>
 5   0  0.4802635E-04  0.1909791E+04  0.7818609E-02  0.8649998E-01
       -2   -1    0    0    0  501  0.00000000000E+00  0.00000000000E+00  0.66728852534E+03  0.66728852534E+03  0.25500000920E-02 0. -1.
        2   -1    0    0  501    0  0.00000000000E+00  0.00000000000E+00 -0.13664639998E+04  0.13664639998E+04  0.25500000920E-02 0.  1.
    10030    2    1    2    0    0  0.00000000000E+00  0.00000000000E+00 -0.69917547448E+03  0.20337525252E+04  0.19097913471E+04 0.  0.
        3    1    3    3  502    0 -0.30649459153E+03  0.27548737954E+03 -0.12668895169E+04  0.13322316950E+04  0.10100000352E+00 0.  1.
       -3    1    3    3    0  502  0.30649459153E+03 -0.27548737954E+03  0.56771404245E+03  0.70152083014E+03  0.10100000352E+00 0. -1.
</event>
<event>
 5   0  0.4761944E-04  0.1683527E+04  0.7818609E-02  0.8770816E-01
        2   -1    0    0  501    0  0.00000000000E+00  0.00000000000E+00  0.21376255885E+04  0.21376255885E+04  0.25500000920E-02 0.  1.
       -2   -1    0    0    0  501  0.00000000000E+00  0.00000000000E+00 -0.33147322439E+03  0.33147322440E+03  0.25500000920E-02 0. -1.
    10030    2    1    2    0    0  0.00000000000E+00  0.00000000000E+00  0.18061523641E+04  0.24690988129E+04  0.16835268294E+04 0.  0.
        4    1    3    3  502    0  0.10261251233E+03 -0.79204906962E+03  0.12930240628E+04  0.15197973208E+04  0.12699999809E+01 0.  1.
       -4    1    3    3    0  502 -0.10261251233E+03  0.79204906962E+03  0.51312830124E+03  0.94930149205E+03  0.12699999809E+01 0. -1.
</event>
<event>
 5   0  0.4839293E-04  0.1889416E+04  0.7818609E-02  0.8660143E-01
        2   -1    0    0  501    0  0.00000000000E+00  0.00000000000E+00  0.13111151932E+04  0.13111151932E+04  0.25500000920E-02 0. -1.
       -2   -1    0    0    0  501  0.00000000000E+00  0.00000000000E+00 -0.68069807568E+03  0.68069807569E+03  0.25500000920E-02 0.  1.
    10030    2    1    2    0    0  0.00000000000E+00  0.00000000000E+00  0.63041711749E+03  0.19918132689E+04  0.18894164062E+04 0.  0.
        5    1    3    3  502    0  0.78990740745E+03  0.12225126093E+03  0.84603777204E+03  0.11639162706E+04  0.46999998093E+01 0. -1.
       -5    1    3    3    0  502 -0.78990740745E+03 -0.12225126093E+03 -0.21562065455E+03  0.82789699831E+03  0.46999998093E+01 0.  1.
</event>
<event>
 5   0  0.2376359E-04  0.1881747E+04  0.7818609E-02  0.8663996E-01
       -1   -1    0    0    0  501  0.00000000000E+00  0.00000000000E+00  0.10967270615E+04  0.10967270615E+04  0.50400001928E-02 0. -1.
        1   -1    0    0  501    0  0.00000000000E+00  0.00000000000E+00 -0.80716821076E+03  0.80716821078E+03  0.50400001928E-02 0.  1.
    10030    2    1    2    0    0  0.00000000000E+00  0.00000000000E+00  0.28955885076E+03  0.19038952723E+04  0.18817472944E+04 0.  0.
        2    1    3    3  502    0 -0.85917957060E+02  0.62635690132E+03 -0.56022773397E+03  0.84472479370E+03  0.25500000920E-02 0.  1.
       -2    1    3    3    0  502  0.85917957060E+02 -0.62635690132E+03  0.84978658473E+03  0.10591704786E+04  0.25500000920E-02 0. -1.
</event>
<event>
 5   0  0.2376359E-04  0.1860816E+04  0.7818609E-02  0.8674610E-01
       -1   -1    0    0    0  501  0.00000000000E+00  0.00000000000E+00  0.95914790026E+03  0.95914790027E+03  0.50400001928E-02 0. -1.
        1   -1    0    0  501    0  0.00000000000E+00  0.00000000000E+00 -0.90252929293E+03  0.90252929295E+03  0.50400001928E-02 0.  1.
    10030    2    1    2    0    0  0.00000000000E+00  0.00000000000E+00  0.56618607323E+02  0.18616771932E+04  0.18608160320E+04 0.  0.
        2    1    3    3  502    0  0.37427871308E+03  0.15980032319E+03 -0.80876086361E+03  0.90538104292E+03  0.25500000920E-02 0.  1.
       -2    1    3    3    0  502 -0.37427871308E+03 -0.15980032319E+03  0.86537947094E+03  0.95629615030E+03  0.25500000920E-02 0. -1.
</event>
<event>
 5   0  0.1729375E-04  0.1879358E+04  0.7818609E-02  0.8665200E-01
       -3   -1    0    0    0  501  0.00000000000E+00  0.00000000000E+00  0.89540786434E+03  0.89540787004E+03  0.10100000352E+00 0.  1.
        3   -1    0    0  501    0  0.00000000000E+00  0.00000000000E+00 -0.98613906552E+03  0.98613907069E+03  0.10100000352E+00 0. -1.
    10030    2    1    2    0    0  0.00000000000E+00  0.00000000000E+00 -0.90731201175E+02  0.18815469407E+04  0.18793580658E+04 0.  0.
        3    1    3    3  502    0  0.47428779207E+03 -0.42269116284E+03 -0.73854469497E+03  0.97419967436E+03  0.10100000352E+00 0. -1.
       -3    1    3    3    0  502 -0.47428779207E+03  0.42269116284E+03  0.64781349380E+03  0.90734726637E+03  0.10100000352E+00 0.  1.
</event>
<event>
 5   0  0.1729375E-04  0.1892469E+04  0.7818609E-02  0.8658614E-01
        3   -1    0    0  501    0  0.00000000000E+00  0.00000000000E+00  0.62011121444E+03  0.62011122267E+03  0.10100000352E+00 0. -1.
       -3   -1    0    0    0  501  0.00000000000E+00  0.00000000000E+00 -0.14438688459E+04  0.14438688494E+04  0.10100000352E+00 0.  1.
    10030    2    1    2    0    0  0.00000000000E+00  0.00000000000E+00 -0.82375763141E+03  0.20639800721E+04  0.18924685209E+04 0.  0.
        1    1    3    3  502    0  0.67404150262E+03 -0.50533447267E+03 -0.88181745358E+03  0.12195478252E+04  0.50400001928E-02 0.  1.
       -1    1    3    3    0  502 -0.67404150262E+03  0.50533447267E+03  0.58059822167E+02  0.84443224684E+03  0.50400001928E-02 0. -1.
</event>
<event>
 5   0  0.2510069E-04  0.1857235E+04  0.7818609E-02  0.8676441E-01
        1   -1    0    0  501    0  0.00000000000E+00  0.00000000000E+00  0.14639501004E+04  0.14639501004E+04  0.50400001928E-02 0. -1.
       -1   -1    0    0    0  501  0.00000000000E+00  0.00000000000E+00 -0.58904392248E+03  0.58904392251E+03  0.50400001928E-02 0.  1.
    10030    2    1    2    0    0  0.00000000000E+00  0.00000000000E+00  0.87490617789E+03  0.20529940229E+04  0.18572354826E+04 0.  0.
        4    1    3    3  502    0  0.87421927153E+03  0.26086375194E+03  0.24592762406E+03  0.94487630988E+03  0.12699999809E+01 0. -1.
       -4    1    3    3    0  502 -0.87421927153E+03 -0.26086375194E+03  0.62897855383E+03  0.11081177130E+04  0.12699999809E+01 0.  1.
</event>
<event>
 5   0  0.2317458E-04  0.1862876E+04  0.7818609E-02  0.8673559E-01
        1   -1    0    0  501    0  0.00000000000E+00  0.00000000000E+00  0.11434147212E+04  0.11434147213E+04  0.50400001928E-02 0. -1.
       -1   -1    0    0    0  501  0.00000000000E+00  0.00000000000E+00 -0.75875926529E+03  0.75875926531E+03  0.50400001928E-02 0.  1.
    10030    2    1    2    0    0  0.00000000000E+00  0.00000000000E+00  0.38465545595E+03  0.19021739866E+04  0.18628757488E+04 0.  0.
        3    1    3    3  502    0 -0.41366864064E+03 -0.29027628340E+03  0.99126197712E+03  0.11126465667E+04  0.10100000352E+00 0. -1.
       -3    1    3    3    0  502  0.41366864064E+03  0.29027628340E+03 -0.60660652117E+03  0.78952741984E+03  0.10100000352E+00 0.  1.
</event>
<event>
 5   0  0.4761944E-04  0.1773263E+04  0.7818609E-02  0.8720648E-01
        2   -1    0    0  501    0  0.00000000000E+00  0.00000000000E+00  0.11406868649E+04  0.11406868649E+04  0.25500000920E-02 0.  1.
       -2   -1    0    0    0  501  0.00000000000E+00  0.00000000000E+00 -0.68915973666E+03  0.68915973667E+03  0.25500000920E-02 0. -1.
    10030    2    1    2    0    0  0.00000000000E+00  0.00000000000E+00  0.45152712821E+03  0.18298466015E+04  0.17732630481E+04 0.  0.
        4    1    3    3  502    0  0.43895756499E+03 -0.47084767943E+02 -0.56767545470E+03  0.71913681175E+03  0.12699999809E+01 0. -1.
       -4    1    3    3    0  502 -0.43895756499E+03  0.47084767943E+02  0.10192025829E+04  0.11107097898E+04  0.12699999809E+01 0.  1.
</event>
<event>
 5   0  0.4839293E-04  0.1913055E+04  0.7818609E-02  0.8648385E-01
       -2   -1    0    0    0  501  0.00000000000E+00  0.00000000000E+00  0.42474957743E+03  0.42474957744E+03  0.25500000920E-02 0. -1.
        2   -1    0    0  501    0  0.00000000000E+00  0.00000000000E+00 -0.21540817027E+04  0.21540817027E+04  0.25500000920E-02 0.  1.
    10030    2    1    2    0    0  0.00000000000E+00  0.00000000000E+00 -0.17293321253E+04  0.25788312801E+04  0.19130554545E+04 0.  0.
        5    1    3    3  502    0 -0.21837323217E+03  0.79717720453E+03 -0.21573224689E+03  0.85424870869E+03  0.46999998093E+01 0. -1.
       -5    1    3    3    0  502  0.21837323217E+03 -0.79717720453E+03 -0.15135998784E+04  0.17245825714E+04  0.46999998093E+01 0.  1.
</event>
<event>
 5   0  0.2355414E-04  0.1924156E+04  0.7818609E-02  0.8642925E-01
        1   -1    0    0  501    0  0.00000000000E+00  0.00000000000E+00  0.15981984864E+04  0.15981984864E+04  0.50400001928E-02 0. -1.
       -1   -1    0    0    0  501  0.00000000000E+00  0.00000000000E+00 -0.57914838709E+03  0.57914838711E+03  0.50400001928E-02 0.  1.
    10030    2    1    2    0    0  0.00000000000E+00  0.00000000000E+00  0.10190500993E+04  0.21773468735E+04  0.19241559975E+04 0.  0.
        5    1    3    3  502    0  0.29875572796E+03 -0.70364656846E+03 -0.15145888595E+03  0.77931724119E+03  0.46999998093E+01 0.  1.
       -5    1    3    3    0  502 -0.29875572796E+03  0.70364656846E+03  0.11705089852E+04  0.13980296323E+04  0.46999998093E+01 0. -1.
</event>
<event>
 5   0  0.4973411E-04  0.1906223E+04  0.7818609E-02  0.8651765E-01
        2   -1    0    0  501    0  0.00000000000E+00  0.00000000000E+00  0.11744841019E+04  0.11744841019E+04  0.25500000920E-02 0.  1.
       -2   -1    0    0    0  501  0.00000000000E+00  0.00000000000E+00 -0.77346446692E+03  0.77346446693E+03  0.25500000920E-02 0. -1.
    10030    2    1    2    0    0  0.00000000000E+00  0.00000000000E+00  0.40101963496E+03  0.19479485688E+04  0.19062231976E+04 0.  0.
        1    1    3    3  502    0 -0.31903256089E+03 -0.49708831284E+02 -0.71587396187E+03  0.78532049007E+03  0.50400001928E-02 0. -1.
       -1    1    3    3    0  502  0.31903256089E+03  0.49708831284E+02  0.11168935968E+04  0.11626280787E+04  0.50400001928E-02 0.  1.
</event>
<event>
 5   0  0.4829134E-04  0.1948349E+04  0.7818609E-02  0.8631157E-01
       -2   -1    0    0    0  501  0.00000000000E+00  0.00000000000E+00  0.48926569380E+03  0.48926569381E+03  0.25500000920E-02 0.  1.
        2   -1    0    0  501    0  0.00000000000E+00  0.00000000000E+00 -0.19396749055E+04  0.19396749055E+04  0.25500000920E-02 0. -1.
    10030    2    1    2    0    0  0.00000000000E+00  0.00000000000E+00 -0.14504092117E+04  0.24289405993E+04  0.19483494434E+04 0.  0.
        2    1    3    3  502    0  0.44881482609E+03  0.62075411533E+03  0.25124550742E+02  0.76642133508E+03  0.25500000920E-02 0.  1.
       -2    1    3    3    0  502 -0.44881482609E+03 -0.62075411533E+03 -0.14755337624E+04  0.16625192642E+04  0.25500000920E-02 0. -1.
</event>
<event>
 5   0  0.4829134E-04  0.1898540E+04  0.7818609E-02  0.8655584E-01
        2   -1    0    0  501    0  0.00000000000E+00  0.00000000000E+00  0.12411739253E+04  0.12411739253E+04  0.25500000920E-02 0. -1.
       -2   -1    0    0    0  501  0.00000000000E+00  0.00000000000E+00 -0.72601683636E+03  0.72601683636E+03  0.25500000920E-02 0.  1.
    10030    2    1    2    0    0  0.00000000000E+00  0.00000000000E+00  0.51515708895E+03  0.19671907617E+04  0.18985396142E+04 0.  0.
        2    1    3    3  502    0  0.82652002537E+03  0.46225206283E+03  0.32553077128E+03  0.10013903360E+04  0.25500000920E-02 0.  1.
       -2    1    3    3    0  502 -0.82652002537E+03 -0.46225206283E+03  0.18962631767E+03  0.96580042570E+03  0.25500000920E-02 0. -1.
</event>
<event>
 5   0  0.2510069E-04  0.1838382E+04  0.7818609E-02  0.8686150E-01
        1   -1    0    0  501    0  0.00000000000E+00  0.00000000000E+00  0.15972843741E+04  0.15972843741E+04  0.50400001928E-02 0. -1.
       -1   -1    0    0    0  501  0.00000000000E+00  0.00000000000E+00 -0.52896811843E+03  0.52896811845E+03  0.50400001928E-02 0.  1.
    10030    2    1    2    0    0  0.00000000000E+00  0.00000000000E+00  0.10683162557E+04  0.21262524926E+04  0.18383824520E+04 0.  0.
        4    1    3    3  502    0  0.77194765837E+02 -0.78472047349E+03  0.10805354154E+04  0.13376485526E+04  0.12699999809E+01 0. -1.
       -4    1    3    3    0  502 -0.77194765837E+02  0.78472047349E+03 -0.12219159716E+02  0.78860393998E+03  0.12699999809E+01 0.  1.
</event>
<event>
 5   0  0.2261755E-04  0.1926051E+04  0.7818609E-02  0.8641997E-01
        1   -1    0    0  501    0  0.00000000000E+00  0.00000000000E+00  0.90619447471E+03  0.90619447472E+03  0.50400001928E-02 0.  1.
       -1   -1    0    0    0  501  0.00000000000E+00  0.00000000000E+00 -0.10234204114E+04  0.10234204114E+04  0.50400001928E-02 0. -1.
    10030    2    1    2    0    0  0.00000000000E+00  0.00000000000E+00 -0.11722593664E+03  0.19296148861E+04  0.19260508011E+04 0.  0.
        1    1    3    3  502    0  0.72830389575E+03 -0.49292967140E+02  0.57069073800E+03  0.92657664532E+03  0.50400001928E-02 0.  1.
       -1    1    3    3    0  502 -0.72830389575E+03  0.49292967140E+02 -0.68791667464E+03  0.10030382408E+04  0.50400001928E-02 0. -1.
</event>
<event>
 5   0  0.4839293E-04  0.1915586E+04  0.7818609E-02  0.8647137E-01
       -2   -1    0    0    0  501  0.00000000000E+00  0.00000000000E+00  0.87363732227E+03  0.87363732227E+03  0.25500000920E-02 0. -1.
        2   -1    0    0  501    0  0.00000000000E+00  0.00000000000E+00 -0.10500552918E+04  0.10500552918E+04  0.25500000920E-02 0.  1.
    10030    2    1    2    0    0  0.00000000000E+00  0.00000000000E+00 -0.17641796950E+03  0.19236926140E+04  0.19155860652E+04 0.  0.
        5    1    3    3  502    0  0.80112140798E+03  0.48454015035E+03 -0.29098112382E+03  0.98044213090E+03  0.46999998093E+01 0.  1.
       -5    1    3    3    0  502 -0.80112140798E+03 -0.48454015035E+03  0.11456315432E+03  0.94325048314E+03  0.46999998093E+01 0. -1.
</event>
<event>
 5   0  0.2355414E-04  0.1795758E+04  0.7818609E-02  0.8708559E-01
        1   -1    0    0  501    0  0.00000000000E+00  0.00000000000E+00  0.63756675684E+03  0.63756675686E+03  0.50400001928E-02 0. -1.
       -1   -1    0    0    0  501  0.00000000000E+00  0.00000000000E+00 -0.12644739601E+04  0.12644739601E+04  0.50400001928E-02 0.  1.
    10030    2    1    2    0    0  0.00000000000E+00  0.00000000000E+00 -0.62690720330E+03  0.19020407170E+04  0.17957578477E+04 0.  0.
        5    1    3    3  502    0  0.40499290857E+02 -0.50340581002E+03  0.47284942791E+03  0.69185711935E+03  0.46999998093E+01 0. -1.
       -5    1    3    3    0  502 -0.40499290857E+02  0.50340581002E+03 -0.10997566312E+04  0.12101835977E+04  0.46999998093E+01 0.  1.
</event>
<event>
 5   0  0.4829134E-04  0.1837346E+04  0.7818609E-02  0.8686687E-01
       -2   -1    0    0    0  501  0.00000000000E+00  0.00000000000E+00  0.88036839090E+03  0.88036839091E+03  0.25500000920E-02 0.  1.
        2   -1    0    0  501    0  0.00000000000E+00  0.00000000000E+00 -0.95864463018E+03  0.95864463018E+03  0.25500000920E-02 0. -1.
    10030    2    1    2    0    0  0.00000000000E+00  0.00000000000E+00 -0.78276239277E+02  0.18390130211E+04  0.18373463805E+04 0.  0.
        2    1    3    3  502    0 -0.54049896673E+03 -0.20967118400E+03 -0.75242702271E+03  0.94986712910E+03  0.25500000920E-02 0. -1.
       -2    1    3    3    0  502  0.54049896673E+03  0.20967118400E+03  0.67415078344E+03  0.88914589199E+03  0.25500000920E-02 0.  1.
</event>
<event>
 5   0  0.4761944E-04  0.1797822E+04  0.7818609E-02  0.8707459E-01
       -2   -1    0    0    0  501  0.00000000000E+00  0.00000000000E+00  0.80493312797E+03  0.80493312798E+03  0.25500000920E-02 0.  1.
        2   -1    0    0  501    0  0.00000000000E+00  0.00000000000E+00 -0.10038604680E+04  0.10038604680E+04  0.25500000920E-02 0. -1.
    10030    2    1    2    0    0  0.00000000000E+00  0.00000000000E+00 -0.19892734006E+03  0.18087935960E+04  0.17978215113E+04 0.  0.
        4    1    3    3  502    0  0.79953297644E+03 -0.21542447481E+03  0.25249734098E+03  0.86568886147E+03  0.12699999809E+01 0.  1.
       -4    1    3    3    0  502 -0.79953297644E+03  0.21542447481E+03 -0.45142468104E+03  0.94310473454E+03  0.12699999809E+01 0. -1.
</event>
<event>
 5   0  0.2510069E-04  0.1851055E+04  0.7818609E-02  0.8679610E-01
       -1   -1    0    0    0  501  0.00000000000E+00  0.00000000000E+00  0.14572142125E+04  0.14572142125E+04  0.50400001928E-02 0.  1.
        1   -1    0    0  501    0  0.00000000000E+00  0.00000000000E+00 -0.58783503732E+03  0.58783503734E+03  0.50400001928E-02 0. -1.
    10030    2    1    2    0    0  0.00000000000E+00  0.00000000000E+00  0.86937917519E+03  0.20450492499E+04  0.18510554514E+04 0.  0.
        4    1    3    3  502    0 -0.78110080306E+01 -0.18384961817E+03 -0.56741993823E+03  0.59651378286E+03  0.12699999809E+01 0. -1.
       -4    1    3    3    0  502  0.78110080306E+01  0.18384961817E+03  0.14367991134E+04  0.14485354670E+04  0.12699999809E+01 0.  1.
</event>
<event>
 5   0  0.4839293E-04  0.1905929E+04  0.7818609E-02  0.8651911E-01
        2   -1    0    0  501    0  0.00000000000E+00  0.00000000000E+00  0.81494736062E+03  0.81494736062E+03  0.25500000920E-02 0.  1.
       -2   -1    0    0    0  501  0.00000000000E+00  0.00000000000E+00 -0.11143563908E+04  0.11143563908E+04  0.25500000920E-02 0. -1.
    10030    2    1    2    0    0  0.00000000000E+00  0.00000000000E+00 -0.29940903021E+03  0.19293037515E+04  0.19059294840E+04 0.  0.
        5    1    3    3  502    0 -0.68898427039E+03 -0.57379398861E+03  0.17702450823E+03  0.91394673407E+03  0.46999998093E+01 0.  1.
       -5    1    3    3    0  502  0.68898427039E+03  0.57379398861E+03 -0.47643353844E+03  0.10153570174E+04  0.46999998093E+01 0. -1.
</event>
<event>
 5   0  0.4802635E-04  0.1894160E+04  0.7818609E-02  0.8657769E-01
        2   -1    0    0  501    0  0.00000000000E+00  0.00000000000E+00  0.10394656703E+04  0.10394656703E+04  0.25500000920E-02 0. -1.
       -2   -1    0    0    0  501  0.00000000000E+00  0.00000000000E+00 -0.86290545445E+03  0.86290545445E+03  0.25500000920E-02 0.  1.
    10030    2    1    2    0    0  0.00000000000E+00  0.00000000000E+00  0.17656021589E+03  0.19023711248E+04  0.18941600742E+04 0.  0.
        3    1    3    3  502    0 -0.75657025174E+03  0.53667015802E+03 -0.10372178744E+03  0.93336575023E+03  0.10100000352E+00 0. -1.
       -3    1    3    3    0  502  0.75657025174E+03 -0.53667015802E+03  0.28028200333E+03  0.96900537455E+03  0.10100000352E+00 0.  1.
</event>
<event>
 5   0  0.4761944E-04  0.1915799E+04  0.7818609E-02  0.8647032E-01
       -2   -1    0    0    0  501  0.00000000000E+00  0.00000000000E+00  0.73913028092E+03  0.73913028093E+03  0.25500000920E-02 0.  1.
        2   -1    0    0  501    0  0.00000000000E+00  0.00000000000E+00 -0.12414198725E+04  0.12414198725E+04  0.25500000920E-02 0. -1.
    10030    2    1    2    0    0  0.00000000000E+00  0.00000000000E+00 -0.50228959159E+03  0.19805501534E+04  0.19157985480E+04 0.  0.
        4    1    3    3  502    0  0.17842087049E+03  0.81998940607E+03  0.22636815069E+03  0.86917247175E+03  0.12699999809E+01 0.  1.
       -4    1    3    3    0  502 -0.17842087049E+03 -0.81998940607E+03 -0.72865774228E+03  0.11113776817E+04  0.12699999809E+01 0. -1.
</event>
<event>
 5   0  0.2376359E-04  0.1884431E+04  0.7818609E-02  0.8662645E-01
       -1   -1    0    0    0  501  0.00000000000E+00  0.00000000000E+00  0.71872830189E+03  0.71872830191E+03  0.50400001928E-02 0. -1.
        1   -1    0    0  501    0  0.00000000000E+00  0.00000000000E+00 -0.12351962495E+04  0.12351962495E+04  0.50400001928E-02 0.  1.
    10030    2    1    2    0    0  0.00000000000E+00  0.00000000000E+00 -0.51646794764E+03  0.19539245515E+04  0.18844314824E+04 0.  0.
        2    1    3    3  502    0  0.57050786578E+03  0.72273217006E+03 -0.46547849100E+03  0.10317418476E+04  0.25500000920E-02 0.  1.
       -2    1    3    3    0  502 -0.57050786578E+03 -0.72273217006E+03 -0.50989456640E+02  0.92218270383E+03  0.25500000920E-02 0. -1.
</event>
<event>
 5   0  0.4839293E-04  0.1777898E+04  0.7818609E-02  0.8718142E-01
       -2   -1    0    0    0  501  0.00000000000E+00  0.00000000000E+00  0.91043766435E+03  0.91043766435E+03  0.25500000920E-02 0.  1.
        2   -1    0    0  501    0  0.00000000000E+00  0.00000000000E+00 -0.86796706004E+03  0.86796706004E+03  0.25500000920E-02 0. -1.
    10030    2    1    2    0    0  0.00000000000E+00  0.00000000000E+00  0.42470604306E+02  0.17784047244E+04  0.17778975256E+04 0.  0.
        5    1    3    3  502    0  0.72973930321E+03  0.12085057173E+03  0.51441094541E+03  0.90098003424E+03  0.46999998093E+01 0.  1.
       -5    1    3    3    0  502 -0.72973930321E+03 -0.12085057173E+03 -0.47194034110E+03  0.87742469016E+03  0.46999998093E+01 0. -1.
</event>
<event>
 5   0  0.2355414E-04  0.1872528E+04  0.7818609E-02  0.8668653E-01
        1   -1    0    0  501    0  0.00000000000E+00  0.00000000000E+00  0.47432209294E+03  0.47432209296E+03  0.50400001928E-02 0. -1.
       -1   -1    0    0    0  501  0.00000000000E+00  0.00000000000E+00 -0.18480909160E+04  0.18480909160E+04  0.50400001928E-02 0.  1.
    10030    2    1    2    0    0  0.00000000000E+00  0.00000000000E+00 -0.13737688230E+04  0.23224130089E+04  0.18725280785E+04 0.  0.
        5    1    3    3  502    0 -0.77756187718E+03 -0.83820709936E+02 -0.48496312759E+02  0.78358303108E+03  0.46999998093E+01 0. -1.
       -5    1    3    3    0  502  0.77756187718E+03  0.83820709936E+02 -0.13252725103E+04  0.15388299778E+04  0.46999998093E+01 0.  1.
</event>
<event>
 5   0  0.4761944E-04  0.1853897E+04  0.7818609E-02  0.8678151E-01
       -2   -1    0    0    0  501  0.00000000000E+00  0.00000000000E+00  0.91292971332E+03  0.91292971332E+03  0.25500000920E-02 0. -1.
        2   -1    0    0  501    0  0.00000000000E+00  0.00000000000E+00 -0.94118279338E+03  0.94118279338E+03  0.25500000920E-02 0.  1.
    10030    2    1    2    0    0  0.00000000000E+00  0.00000000000E+00 -0.28253080057E+02  0.18541125067E+04  0.18538972331E+04 0.  0.
        4    1    3    3  502    0  0.22927901330E+03  0.11766172331E+03 -0.90463376174E+03  0.94062585700E+03  0.12699999809E+01 0.  1.
       -4    1    3    3    0  502 -0.22927901330E+03 -0.11766172331E+03  0.87638068168E+03  0.91348664971E+03  0.12699999809E+01 0. -1.
</event>
<event>
 5   0  0.2261755E-04  0.1890476E+04  0.7818609E-02  0.8659612E-01
        1   -1    0    0  501    0  0.00000000000E+00  0.00000000000E+00  0.83394702393E+03  0.83394702395E+03  0.50400001928E-02 0.  1.
       -1   -1    0    0    0  501  0.00000000000E+00  0.00000000000E+00 -0.10713807786E+04  0.10713807786E+04  0.50400001928E-02 0. -1.
    10030    2    1    2    0    0  0.00000000000E+00  0.00000000000E+00 -0.23743375466E+03  0.19053278026E+04  0.18904759314E+04 0.  0.
        1    1    3    3  502    0  0.97633139730E+02 -0.49951433080E+03  0.68405052399E+03  0.85262648096E+03  0.50400001928E-02 0.  1.
       -1    1    3    3    0  502 -0.97633139730E+02  0.49951433080E+03 -0.92148427865E+03  0.10527013216E+04  0.50400001928E-02 0. -1.
</event>
<event>
 5   0  0.4839293E-04  0.1907300E+04  0.7818609E-02  0.8651231E-01
       -2   -1    0    0    0  501  0.00000000000E+00  0.00000000000E+00  0.57216084323E+03  0.57216084324E+03  0.25500000920E-02 0. -1.
        2   -1    0    0  501    0  0.00000000000E+00  0.00000000000E+00 -0.15894970213E+04  0.15894970213E+04  0.25500000920E-02 0.  1.
    10030    2    1    2    0    0  0.00000000000E+00  0.00000000000E+00 -0.10173361781E+04  0.21616578646E+04  0.19072996157E+04 0.  0.
        5    1    3    3  502    0 -0.18163563199E+03 -0.52386640345E+03  0.37068984852E+03  0.66697868427E+03  0.46999998093E+01 0. -1.
       -5    1    3    3    0  502  0.18163563199E+03  0.52386640345E+03 -0.13880260266E+04  0.14946791803E+04  0.46999998093E+01 0.  1.
</event>
<event>
 5   0  0.2355414E-04  0.1971779E+04  0.7818609E-02  0.8619930E-01
        1   -1    0    0  501    0  0.00000000000E+00  0.00000000000E+00  0.14965976539E+04  0.14965976539E+04  0.50400001928E-02 0. -1.
       -1   -1    0    0    0  501  0.00000000000E+00  0.00000000000E+00 -0.64945872856E+03  0.64945872858E+03  0.50400001928E-02 0.  1.
    10030    2    1    2    0    0  0.00000000000E+00  0.00000000000E+00  0.84713892538E+03  0.21460563825E+04  0.19717793076E+04 0.  0.
        5    1    3    3  502    0  0.53142065853E+03  0.10848625785E+02  0.13272774810E+04  0.14297598437E+04  0.46999998093E+01 0. -1.
       -5    1    3    3    0  502 -0.53142065853E+03 -0.10848625785E+02 -0.48013855561E+03  0.71629653886E+03  0.46999998093E+01 0.  1.
</event>
<event>
 5   0  0.2355414E-04  0.1036681E+04  0.7818609E-02  0.9269204E-01
       -1   -1    0    0    0  501  0.00000000000E+00  0.00000000000E+00  0.15076845375E+03  0.15076845384E+03  0.50400001928E-02 0.  1.
        1   -1    0    0  501    0  0.00000000000E+00  0.00000000000E+00 -0.17820484661E+04  0.17820484661E+04  0.50400001928E-02 0. -1.
    10030    2    1    2    0    0  0.00000000000E+00  0.00000000000E+00 -0.16312800123E+04  0.19328169199E+04  0.10366806487E+04 0.  0.
        5    1    3    3  502    0 -0.31282262033E+03  0.31120689253E+03 -0.13226373157E+04  0.13943096071E+04  0.46999998093E+01 0.  1.
       -5    1    3    3    0  502  0.31282262033E+03 -0.31120689253E+03 -0.30864269670E+03  0.53850731283E+03  0.46999998093E+01 0. -1.
</event>
<event>
 5   0  0.4839293E-04  0.1853363E+04  0.7818609E-02  0.8678425E-01
        2   -1    0    0  501    0  0.00000000000E+00  0.00000000000E+00  0.81171598026E+03  0.81171598027E+03  0.25500000920E-02 0.  1.
       -2   -1    0    0    0  501  0.00000000000E+00  0.00000000000E+00 -0.10579302415E+04  0.10579302415E+04  0.25500000920E-02 0. -1.
    10030    2    1    2    0    0  0.00000000000E+00  0.00000000000E+00 -0.24621426126E+03  0.18696462218E+04  0.18533633028E+04 0.  0.
        5    1    3    3  502    0 -0.20064761409E+03 -0.90125284066E+03 -0.20254312170E+03  0.94528405994E+03  0.46999998093E+01 0.  1.
       -5    1    3    3    0  502  0.20064761409E+03  0.90125284066E+03 -0.43671139560E+02  0.92436216185E+03  0.46999998093E+01 0. -1.
</event>
<event>
 5   0  0.2261755E-04  0.1887456E+04  0.7818609E-02  0.8661126E-01
       -1   -1    0    0    0  501  0.00000000000E+00  0.00000000000E+00  0.13524530956E+04  0.13524530956E+04  0.50400001928E-02 0. -1.
        1   -1    0    0  501    0  0.00000000000E+00  0.00000000000E+00 -0.65852394820E+03  0.65852394822E+03  0.50400001928E-02 0.  1.
    10030    2    1    2    0    0  0.00000000000E+00  0.00000000000E+00  0.69392914739E+03  0.20109770438E+04  0.18874562271E+04 0.  0.
        1    1    3    3  502    0 -0.24068738601E+03 -0.13148314086E+03  0.13090569677E+04  0.13374783657E+04  0.50400001928E-02 0. -1.
       -1    1    3    3    0  502  0.24068738601E+03  0.13148314086E+03 -0.61512782028E+03  0.67349867811E+03  0.50400001928E-02 0.  1.
</event>
<event>
 5   0  0.2510069E-04  0.1426204E+04  0.7818609E-02  0.8935066E-01
       -1   -1    0    0    0  501  0.00000000000E+00  0.00000000000E+00  0.30721968810E+03  0.30721968814E+03  0.50400001928E-02 0. -1.
        1   -1    0    0  501    0  0.00000000000E+00  0.00000000000E+00 -0.16552135236E+04  0.16552135236E+04  0.50400001928E-02 0.  1.
    10030    2    1    2    0    0  0.00000000000E+00  0.00000000000E+00 -0.13479938355E+04  0.19624332118E+04  0.14262036075E+04 0.  0.
        4    1    3    3  502    0 -0.37348861466E+03 -0.17281213312E+03  0.12733479943E+03  0.43078247722E+03  0.12699999809E+01 0. -1.
       -4    1    3    3    0  502  0.37348861466E+03  0.17281213312E+03 -0.14753286350E+04  0.15316507346E+04  0.12699999809E+01 0.  1.
</event>
<event>
 5   0  0.2355414E-04  0.1947765E+04  0.7818609E-02  0.8631439E-01
       -1   -1    0    0    0  501  0.00000000000E+00  0.00000000000E+00  0.48414029345E+03  0.48414029348E+03  0.50400001928E-02 0.  1.
        1   -1    0    0  501    0  0.00000000000E+00  0.00000000000E+00 -0.19590331397E+04  0.19590331397E+04  0.50400001928E-02 0. -1.
    10030    2    1    2    0    0  0.00000000000E+00  0.00000000000E+00 -0.14748928463E+04  0.24431734332E+04  0.19477647488E+04 0.  0.
        5    1    3    3  502    0 -0.63608645763E+03  0.34970806870E+03  0.76936150961E+02  0.72996094157E+03  0.46999998093E+01 0.  1.
       -5    1    3    3    0  502  0.63608645763E+03 -0.34970806870E+03 -0.15518289972E+04  0.17132124916E+04  0.46999998093E+01 0. -1.
</event>
<event>
 5   0  0.2510069E-04  0.2016850E+04  0.7818609E-02  0.8598783E-01
       -1   -1    0    0    0  501  0.00000000000E+00  0.00000000000E+00  0.76530969180E+03  0.76530969182E+03  0.50400001928E-02 0.  1.
        1   -1    0    0  501    0  0.00000000000E+00  0.00000000000E+00 -0.13287701195E+04  0.13287701195E+04  0.50400001928E-02 0. -1.
    10030    2    1    2    0    0  0.00000000000E+00  0.00000000000E+00 -0.56346042773E+03  0.20940798114E+04  0.20168496728E+04 0.  0.
        4    1    3    3  502    0  0.21100591525E+03 -0.93092788347E+03  0.55944487845E+02  0.95618074605E+03  0.12699999809E+01 0.  1.
       -4    1    3    3    0  502 -0.21100591525E+03  0.93092788347E+03 -0.61940491557E+03  0.11378990653E+04  0.12699999809E+01 0. -1.
</event>
<event>
 5   0  0.2510069E-04  0.1834969E+04  0.7818609E-02  0.8687921E-01
       -1   -1    0    0    0  501  0.00000000000E+00  0.00000000000E+00  0.68272623038E+03  0.68272623040E+03  0.50400001928E-02 0. -1.
        1   -1    0    0  501    0  0.00000000000E+00  0.00000000000E+00 -0.12329649120E+04  0.12329649120E+04  0.50400001928E-02 0.  1.
    10030    2    1    2    0    0  0.00000000000E+00  0.00000000000E+00 -0.55023868160E+03  0.19156911424E+04  0.18349686499E+04 0.  0.
        4    1    3    3  502    0 -0.87507053922E+03 -0.25869344412E+03 -0.37473780611E+03  0.98645870815E+03  0.12699999809E+01 0. -1.
       -4    1    3    3    0  502  0.87507053922E+03  0.25869344412E+03 -0.17550087549E+03  0.92923243424E+03  0.12699999809E+01 0.  1.
</event>
<event>
 5   0  0.2510069E-04  0.1863730E+04  0.7818609E-02  0.8673124E-01
        1   -1    0    0  501    0  0.00000000000E+00  0.00000000000E+00  0.11400652938E+04  0.11400652938E+04  0.50400001928E-02 0.  1.
       -1   -1    0    0    0  501  0.00000000000E+00  0.00000000000E+00 -0.76168655832E+03  0.76168655834E+03  0.50400001928E-02 0. -1.
    10030    2    1    2    0    0  0.00000000000E+00  0.00000000000E+00  0.37837873551E+03  0.19017518522E+04  0.18637300341E+04 0.  0.
        4    1    3    3  502    0 -0.18975771765E+03 -0.66199495851E+03 -0.45141235256E+03  0.82341972374E+03  0.12699999809E+01 0. -1.
       -4    1    3    3    0  502  0.18975771765E+03  0.66199495851E+03  0.82979108808E+03  0.10783321285E+04  0.12699999809E+01 0.  1.
</event>
<event>
 5   0  0.2261755E-04  0.1890872E+04  0.7818609E-02  0.8659414E-01
        1   -1    0    0  501    0  0.00000000000E+00  0.00000000000E+00  0.14112480115E+04  0.14112480115E+04  0.50400001928E-02 0.  1.
       -1   -1    0    0    0  501  0.00000000000E+00  0.00000000000E+00 -0.63337473453E+03  0.63337473455E+03  0.50400001928E-02 0. -1.
    10030    2    1    2    0    0  0.00000000000E+00  0.00000000000E+00  0.77787327697E+03  0.20446227461E+04  0.18908715818E+04 0.  0.
        1    1    3    3  502    0 -0.19326537831E+03 -0.62807966917E+03  0.11239214627E+04  0.13019351104E+04  0.50400001928E-02 0.  1.
       -1    1    3    3    0  502  0.19326537831E+03  0.62807966917E+03 -0.34604818576E+03  0.74268763567E+03  0.50400001928E-02 0. -1.
</event>
<event>
 5   0  0.4829134E-04  0.1598899E+04  0.7818609E-02  0.8821225E-01
       -2   -1    0    0    0  501  0.00000000000E+00  0.00000000000E+00  0.46663531686E+03  0.46663531687E+03  0.25500000920E-02 0.  1.
        2   -1    0    0  501    0  0.00000000000E+00  0.00000000000E+00 -0.13696333492E+04  0.13696333492E+04  0.25500000920E-02 0. -1.
    10030    2    1    2    0    0  0.00000000000E+00  0.00000000000E+00 -0.90299803232E+03  0.18362686661E+04  0.15988987359E+04 0.  0.
        2    1    3    3  502    0 -0.22076360974E+03  0.73388738527E+03 -0.19013444605E+03  0.78960646731E+03  0.25500000920E-02 0.  1.
       -2    1    3    3    0  502  0.22076360974E+03 -0.73388738527E+03 -0.71286358627E+03  0.10466621987E+04  0.25500000920E-02 0. -1.
</event>
<event>
 5   0  0.2261755E-04  0.1933049E+04  0.7818609E-02  0.8638579E-01
       -1   -1    0    0    0  501  0.00000000000E+00  0.00000000000E+00  0.17814203793E+04  0.17814203793E+04  0.50400001928E-02 0. -1.
        1   -1    0    0  501    0  0.00000000000E+00  0.00000000000E+00 -0.52439581595E+03  0.52439581597E+03  0.50400001928E-02 0.  1.
    10030    2    1    2    0    0  0.00000000000E+00  0.00000000000E+00  0.12570245633E+04  0.23058161952E+04  0.19330487768E+04 0.  0.
        1    1    3    3  502    0  0.79411530410E+03  0.42458108164E+03  0.20968952814E+03  0.92458526342E+03  0.50400001928E-02 0.  1.
       -1    1    3    3    0  502 -0.79411530410E+03 -0.42458108164E+03  0.10473350352E+04  0.13812309318E+04  0.50400001928E-02 0. -1.
</event>
<event>
 5   0  0.2261755E-04  0.1892584E+04  0.7818609E-02  0.8658557E-01
       -1   -1    0    0    0  501  0.00000000000E+00  0.00000000000E+00  0.44741204893E+03  0.44741204896E+03  0.50400001928E-02 0. -1.
        1   -1    0    0  501    0  0.00000000000E+00  0.00000000000E+00 -0.20014396970E+04  0.20014396970E+04  0.50400001928E-02 0.  1.
    10030    2    1    2    0    0  0.00000000000E+00  0.00000000000E+00 -0.15540276481E+04  0.24488517459E+04  0.18925836686E+04 0.  0.
        1    1    3    3  502    0 -0.12157842099E+03  0.49956728321E+03  0.25091534191E+03  0.57210776235E+03  0.50400001928E-02 0. -1.
       -1    1    3    3    0  502  0.12157842099E+03 -0.49956728321E+03 -0.18049429900E+04  0.18767439836E+04  0.50400001928E-02 0.  1.
</event>
<event>
 5   0  0.4839293E-04  0.1832173E+04  0.7818609E-02  0.8689375E-01
        2   -1    0    0  501    0  0.00000000000E+00  0.00000000000E+00  0.80210820831E+03  0.80210820831E+03  0.25500000920E-02 0. -1.
       -2   -1    0    0    0  501  0.00000000000E+00  0.00000000000E+00 -0.10462611396E+04  0.10462611396E+04  0.25500000920E-02 0.  1.
    10030    2    1    2    0    0  0.00000000000E+00  0.00000000000E+00 -0.24415293128E+03  0.18483693479E+04  0.18321731884E+04 0.  0.
        5    1    3    3  502    0 -0.79958978654E+03 -0.32907012937E+03  0.18318984407E+03  0.88386174584E+03  0.46999998093E+01 0. -1.
       -5    1    3    3    0  502  0.79958978654E+03  0.32907012937E+03 -0.42734277535E+03  0.96450760206E+03  0.46999998093E+01 0.  1.
</event>
<event>
 5   0  0.1729375E-04  0.1728022E+04  0.7818609E-02  0.8745542E-01
       -4   -1    0    0    0  501  0.00000000000E+00  0.00000000000E+00  0.12552201608E+04  0.12552208033E+04  0.12699999809E+01 0. -1.
        4   -1    0    0  501    0  0.00000000000E+00  0.00000000000E+00 -0.59472675247E+03  0.59472810847E+03  0.12699999809E+01 0.  1.
    10030    2    1    2    0    0  0.00000000000E+00  0.00000000000E+00  0.66049340832E+03  0.18499489117E+04  0.17280218267E+04 0.  0.
        5    1    3    3  502    0  0.44998098607E+03 -0.24568772634E+03 -0.41427086338E+03  0.65915687430E+03  0.46999998093E+01 0.  1.
       -5    1    3    3    0  502 -0.44998098607E+03  0.24568772634E+03  0.10747642717E+04  0.11907920374E+04  0.46999998093E+01 0. -1.
</event>
<event>
 5   0  0.2317458E-04  0.1706727E+04  0.7818609E-02  0.8757537E-01
       -1   -1    0    0    0  501  0.00000000000E+00  0.00000000000E+00  0.37213533490E+03  0.37213533494E+03  0.50400001928E-02 0. -1.
        1   -1    0    0  501    0  0.00000000000E+00  0.00000000000E+00 -0.19568941137E+04  0.19568941137E+04  0.50400001928E-02 0.  1.
    10030    2    1    2    0    0  0.00000000000E+00  0.00000000000E+00 -0.15847587788E+04  0.23290294486E+04  0.17067272148E+04 0.  0.
        3    1    3    3  502    0 -0.34449038800E+03  0.64690742448E+03 -0.19588928128E+03  0.75864053675E+03  0.10100000352E+00 0.  1.
       -3    1    3    3    0  502  0.34449038800E+03 -0.64690742448E+03 -0.13888694975E+04  0.15703889119E+04  0.10100000352E+00 0. -1.
</event>
<event>
 5   0  0.2510069E-04  0.1149927E+04  0.7818609E-02  0.9157851E-01
        1   -1    0    0  501    0  0.00000000000E+00  0.00000000000E+00  0.93181834992E+03  0.93181834993E+03  0.50400001928E-02 0.  1.
       -1   -1    0    0    0  501  0.00000000000E+00  0.00000000000E+00 -0.35477204325E+03  0.35477204329E+03  0.50400001928E-02 0. -1.
    10030    2    1    2    0    0  0.00000000000E+00  0.00000000000E+00  0.57704630667E+03  0.12865903932E+04  0.11499271281E+04 0.  0.
        4    1    3    3  502    0 -0.52154352820E+03 -0.67129070840E+02  0.54868177438E+03  0.75997846443E+03  0.12699999809E+01 0.  1.
       -4    1    3    3    0  502  0.52154352820E+03  0.67129070840E+02  0.28364532290E+02  0.52661192880E+03  0.12699999809E+01 0. -1.
</event>
<event>
 5   0  0.2510069E-04  0.1901801E+04  0.7818609E-02  0.8653960E-01
       -1   -1    0    0    0  501  0.00000000000E+00  0.00000000000E+00  0.10566545376E+04  0.10566545376E+04  0.50400001928E-02 0. -1.
        1   -1    0    0  501    0  0.00000000000E+00  0.00000000000E+00 -0.85573087892E+03  0.85573087893E+03  0.50400001928E-02 0.  1.
    10030    2    1    2    0    0  0.00000000000E+00  0.00000000000E+00  0.20092365870E+03  0.19123854166E+04  0.19018011633E+04 0.  0.
        4    1    3    3  502    0  0.51959813243E+03 -0.69020537715E+03  0.49996957924E+03  0.99816675708E+03  0.12699999809E+01 0. -1.
       -4    1    3    3    0  502 -0.51959813243E+03  0.69020537715E+03 -0.29904592054E+03  0.91421865949E+03  0.12699999809E+01 0.  1.
</event>
<event>
 5   0  0.4761944E-04  0.1956857E+04  0.7818609E-02  0.8627062E-01
        2   -1    0    0  501    0  0.00000000000E+00  0.00000000000E+00  0.25435337493E+04  0.25435337493E+04  0.25500000920E-02 0. -1.
       -2   -1    0    0    0  501  0.00000000000E+00  0.00000000000E+00 -0.37637473553E+03  0.37637473554E+03  0.25500000920E-02 0.  1.
    10030    2    1    2    0    0  0.00000000000E+00  0.00000000000E+00  0.21671590138E+04  0.29199084848E+04  0.19568565019E+04 0.  0.
        4    1    3    3  502    0 -0.62266382029E+03 -0.75115037940E+03  0.97410156213E+03  0.13786996017E+04  0.12699999809E+01 0.  1.
       -4    1    3    3    0  502  0.62266382029E+03  0.75115037940E+03  0.11930574516E+04  0.15412088831E+04  0.12699999809E+01 0. -1.
</event>
<event>
 5   0  0.1729375E-04  0.1867318E+04  0.7818609E-02  0.8671298E-01
       -3   -1    0    0    0  501  0.00000000000E+00  0.00000000000E+00  0.16582336897E+04  0.16582336928E+04  0.10100000352E+00 0.  1.
        3   -1    0    0  501    0  0.00000000000E+00  0.00000000000E+00 -0.52569109340E+03  0.52569110310E+03  0.10100000352E+00 0. -1.
    10030    2    1    2    0    0  0.00000000000E+00  0.00000000000E+00  0.11325425963E+04  0.21839247959E+04  0.18673175364E+04 0.  0.
        3    1    3    3  502    0  0.64707017171E+03  0.14074494475E+03 -0.20351222143E+03  0.69276704675E+03  0.10100000352E+00 0. -1.
       -3    1    3    3    0  502 -0.64707017171E+03 -0.14074494475E+03  0.13360548177E+04  0.14911577491E+04  0.10100000352E+00 0.  1.
</event>
<event>
 5   0  0.2317458E-04  0.1820823E+04  0.7818609E-02  0.8695304E-01
        1   -1    0    0  501    0  0.00000000000E+00  0.00000000000E+00  0.99730918621E+03  0.99730918622E+03  0.50400001928E-02 0.  1.
       -1   -1    0    0    0  501  0.00000000000E+00  0.00000000000E+00 -0.83108525144E+03  0.83108525146E+03  0.50400001928E-02 0. -1.
    10030    2    1    2    0    0  0.00000000000E+00  0.00000000000E+00  0.16622393477E+03  0.18283944377E+04  0.18208228424E+04 0.  0.
        3    1    3    3  502    0  0.41577924964E+03  0.45733917803E+03 -0.58811169043E+03  0.85317458870E+03  0.10100000352E+00 0. -1.
       -3    1    3    3    0  502 -0.41577924964E+03 -0.45733917803E+03  0.75433562519E+03  0.97521984897E+03  0.10100000352E+00 0.  1.
</event>
<event>
 5   0  0.4829134E-04  0.1869308E+04  0.7818609E-02  0.8670286E-01
        2   -1    0    0  501    0  0.00000000000E+00  0.00000000000E+00  0.11128339535E+04  0.11128339535E+04  0.25500000920E-02 0. -1.
       -2   -1    0    0    0  501  0.00000000000E+00  0.00000000000E+00 -0.78500344445E+03  0.78500344446E+03  0.25500000920E-02 0.  1.
    10030    2    1    2    0    0  0.00000000000E+00  0.00000000000E+00  0.32783050900E+03  0.18978373979E+04  0.18693084139E+04 0.  0.
        2    1    3    3  502    0  0.40938953302E+03  0.53582795950E+03  0.82099209744E+03  0.10624214870E+04  0.25500000920E-02 0. -1.
       -2    1    3    3    0  502 -0.40938953302E+03 -0.53582795950E+03 -0.49316158844E+03  0.83541591093E+03  0.25500000920E-02 0.  1.
</event>
<event>
 5   0  0.4839293E-04  0.1909584E+04  0.7818609E-02  0.8650101E-01
       -2   -1    0    0    0  501  0.00000000000E+00  0.00000000000E+00  0.69064290312E+03  0.69064290313E+03  0.25500000920E-02 0.  1.
        2   -1    0    0  501    0  0.00000000000E+00  0.00000000000E+00 -0.13199695483E+04  0.13199695483E+04  0.25500000920E-02 0. -1.
    10030    2    1    2    0    0  0.00000000000E+00  0.00000000000E+00 -0.62932664514E+03  0.20106124514E+04  0.19095838299E+04 0.  0.
        5    1    3    3  502    0 -0.53021201658E+03  0.68326493681E+03  0.11124956220E+03  0.87199444465E+03  0.46999998093E+01 0.  1.
       -5    1    3    3    0  502  0.53021201658E+03 -0.68326493681E+03 -0.74057620734E+03  0.11386180067E+04  0.46999998093E+01 0. -1.
</event>
<event>
 5   0  0.4802635E-04  0.1896580E+04  0.7818609E-02  0.8656560E-01
       -2   -1    0    0    0  501  0.00000000000E+00  0.00000000000E+00  0.85354649731E+03  0.85354649731E+03  0.25500000920E-02 0. -1.
        2   -1    0    0  501    0  0.00000000000E+00  0.00000000000E+00 -0.10535504346E+04  0.10535504346E+04  0.25500000920E-02 0.  1.
    10030    2    1    2    0    0  0.00000000000E+00  0.00000000000E+00 -0.20000393731E+03  0.19070969319E+04  0.18965803787E+04 0.  0.
        3    1    3    3  502    0  0.43823523928E+03 -0.54656257656E+02  0.74382755805E+03  0.86505310690E+03  0.10100000352E+00 0. -1.
       -3    1    3    3    0  502 -0.43823523928E+03  0.54656257656E+02 -0.94383149537E+03  0.10420438250E+04  0.10100000352E+00 0.  1.
</event>
<event>
 5   0  0.2376359E-04  0.1889056E+04  0.7818609E-02  0.8660323E-01
       -1   -1    0    0    0  501  0.00000000000E+00  0.00000000000E+00  0.88281906302E+03  0.88281906303E+03  0.50400001928E-02 0.  1.
        1   -1    0    0  501    0  0.00000000000E+00  0.00000000000E+00 -0.10105499530E+04  0.10105499530E+04  0.50400001928E-02 0. -1.
    10030    2    1    2    0    0  0.00000000000E+00  0.00000000000E+00 -0.12773088999E+03  0.18933690160E+04  0.18890555976E+04 0.  0.
        2    1    3    3  502    0  0.68831121125E+03  0.18074364062E+02 -0.71189707231E+03  0.99040216464E+03  0.25500000920E-02 0. -1.
       -2    1    3    3    0  502 -0.68831121125E+03 -0.18074364062E+02  0.58416618232E+03  0.90296685141E+03  0.25500000920E-02 0.  1.
</event>
<event>
 5   0  0.4802635E-04  0.1884850E+04  0.7818609E-02  0.8662434E-01
        2   -1    0    0  501    0  0.00000000000E+00  0.00000000000E+00  0.16985162964E+04  0.16985162964E+04  0.25500000920E-02 0. -1.
       -2   -1    0    0    0  501  0.00000000000E+00  0.00000000000E+00 -0.52290653604E+03  0.52290653605E+03  0.25500000920E-02 0.  1.
    10030    2    1    2    0    0  0.00000000000E+00  0.00000000000E+00  0.11756097603E+04  0.22214228324E+04  0.18848504163E+04 0.  0.
        3    1    3    3  502    0 -0.76502477325E+03 -0.18516342253E+03 -0.23025994385E+02  0.78745069900E+03  0.10100000352E+00 0.  1.
       -3    1    3    3    0  502  0.76502477325E+03  0.18516342253E+03  0.11986357547E+04  0.14339721334E+04  0.10100000352E+00 0. -1.
</event>
<event>
 5   0  0.2355414E-04  0.1904862E+04  0.7818609E-02  0.8652440E-01
       -1   -1    0    0    0  501  0.00000000000E+00  0.00000000000E+00  0.51453334877E+03  0.51453334880E+03  0.50400001928E-02 0. -1.
        1   -1    0    0  501    0  0.00000000000E+00  0.00000000000E+00 -0.17630054210E+04  0.17630054210E+04  0.50400001928E-02 0.  1.
    10030    2    1    2    0    0  0.00000000000E+00  0.00000000000E+00 -0.12484720722E+04  0.22775387698E+04  0.19048622871E+04 0.  0.
        5    1    3    3  502    0 -0.45381470993E+03 -0.82909335295E+03 -0.48398626236E+03  0.10618890578E+04  0.46999998093E+01 0. -1.
       -5    1    3    3    0  502  0.45381470993E+03  0.82909335295E+03 -0.76448580984E+03  0.12156497120E+04  0.46999998093E+01 0.  1.
</event>
<event>
 5   0  0.2317458E-04  0.2132383E+04  0.7818609E-02  0.8547111E-01
        1   -1    0    0  501    0  0.00000000000E+00  0.00000000000E+00  0.77934208254E+03  0.77934208256E+03  0.50400001928E-02 0.  1.
       -1   -1    0    0    0  501  0.00000000000E+00  0.00000000000E+00 -0.14586198545E+04  0.14586198545E+04  0.50400001928E-02 0. -1.
    10030    2    1    2    0    0  0.00000000000E+00  0.00000000000E+00 -0.67927777195E+03  0.22379619371E+04  0.21323825502E+04 0.  0.
        3    1    3    3  502    0 -0.48364536744E+03  0.41506165718E+03 -0.12366956414E+04  0.13912602705E+04  0.10100000352E+00 0. -1.
       -3    1    3    3    0  502  0.48364536744E+03 -0.41506165718E+03  0.55741786946E+03  0.84670166652E+03  0.10100000352E+00 0.  1.
</event>
<event>
 5   0  0.2261755E-04  0.1823551E+04  0.7818609E-02  0.8693875E-01
       -1   -1    0    0    0  501  0.00000000000E+00  0.00000000000E+00  0.90392832514E+03  0.90392832515E+03  0.50400001928E-02 0. -1.
        1   -1    0    0  501    0  0.00000000000E+00  0.00000000000E+00 -0.91969058140E+03  0.91969058141E+03  0.50400001928E-02 0.  1.
    10030    2    1    2    0    0  0.00000000000E+00  0.00000000000E+00 -0.15762256261E+02  0.18236189066E+04  0.18235507856E+04 0.  0.
        1    1    3    3  502    0  0.38450561543E+03  0.33052482281E+03 -0.76569775767E+03  0.91835956080E+03  0.50400001928E-02 0.  1.
       -1    1    3    3    0  502 -0.38450561543E+03 -0.33052482281E+03  0.74993550141E+03  0.90525934576E+03  0.50400001928E-02 0. -1.
</event>
<event>
 5   0  0.4761944E-04  0.1823442E+04  0.7818609E-02  0.8693932E-01
        2   -1    0    0  501    0  0.00000000000E+00  0.00000000000E+00  0.69499576710E+03  0.69499576711E+03  0.25500000920E-02 0.  1.
       -2   -1    0    0    0  501  0.00000000000E+00  0.00000000000E+00 -0.11960289707E+04  0.11960289707E+04  0.25500000920E-02 0. -1.
    10030    2    1    2    0    0  0.00000000000E+00  0.00000000000E+00 -0.50103320361E+03  0.18910247378E+04  0.18234418795E+04 0.  0.
        4    1    3    3  502    0 -0.76348143872E+03  0.29203758924E+03 -0.66926885873E+03  0.10564621522E+04  0.12699999809E+01 0. -1.
       -4    1    3    3    0  502  0.76348143872E+03 -0.29203758924E+03  0.16823565513E+03  0.83456258565E+03  0.12699999809E+01 0.  1.
</event>
<event>
 5   0  0.2510069E-04  0.1890626E+04  0.7818609E-02  0.8659537E-01
        1   -1    0    0  501    0  0.00000000000E+00  0.00000000000E+00  0.13550717024E+04  0.13550717024E+04  0.50400001928E-02 0. -1.
       -1   -1    0    0    0  501  0.00000000000E+00  0.00000000000E+00 -0.65946082347E+03  0.65946082349E+03  0.50400001928E-02 0.  1.
    10030    2    1    2    0    0  0.00000000000E+00  0.00000000000E+00  0.69561087890E+03  0.20145325259E+04  0.18906260347E+04 0.  0.
        4    1    3    3  502    0 -0.45176642839E+02 -0.93821138760E+03  0.46124163452E+03  0.10464353755E+04  0.12699999809E+01 0. -1.
       -4    1    3    3    0  502  0.45176642839E+02  0.93821138760E+03  0.23436924438E+03  0.96809715033E+03  0.12699999809E+01 0.  1.
</event>
<event>
 5   0  0.1729375E-04  0.1710521E+04  0.7818609E-02  0.8755387E-01
       -4   -1    0    0    0  501  0.00000000000E+00  0.00000000000E+00  0.75443666928E+03  0.75443773822E+03  0.12699999809E+01 0. -1.
        4   -1    0    0  501    0  0.00000000000E+00  0.00000000000E+00 -0.96955628151E+03  0.96955711328E+03  0.12699999809E+01 0.  1.
    10030    2    1    2    0    0  0.00000000000E+00  0.00000000000E+00 -0.21511961224E+03  0.17239948515E+04  0.17105209149E+04 0.  0.
        4    1    3    3  502    0 -0.80898306715E+03  0.17529665350E+03 -0.32439705622E+03  0.88905431929E+03  0.12699999809E+01 0. -1.
       -4    1    3    3    0  502  0.80898306715E+03 -0.17529665350E+03  0.10927744398E+03  0.83494053221E+03  0.12699999809E+01 0.  1.
</event>
<event>
 5   0  0.2317458E-04  0.1750547E+04  0.7818609E-02  0.8733049E-01
        1   -1    0    0  501    0  0.00000000000E+00  0.00000000000E+00  0.44406986381E+03  0.44406986383E+03  0.50400001928E-02 0.  1.
       -1   -1    0    0    0  501  0.00000000000E+00  0.00000000000E+00 -0.17251878939E+04  0.17251878939E+04  0.50400001928E-02 0. -1.
    10030    2    1    2    0    0  0.00000000000E+00  0.00000000000E+00 -0.12811180301E+04  0.21692577577E+04  0.17505472894E+04 0.  0.
        3    1    3    3  502    0  0.17007572315E+03  0.22814753406E+03  0.38514680496E+03  0.47886858372E+03  0.10100000352E+00 0.  1.
       -3    1    3    3    0  502 -0.17007572315E+03 -0.22814753406E+03 -0.16662648350E+04  0.16903891740E+04  0.10100000352E+00 0. -1.
</event>
<event>
 5   0  0.4829134E-04  0.1889465E+04  0.7818609E-02  0.8660118E-01
        2   -1    0    0  501    0  0.00000000000E+00  0.00000000000E+00  0.12766876122E+04  0.12766876122E+04  0.25500000920E-02 0. -1.
       -2   -1    0    0    0  501  0.00000000000E+00  0.00000000000E+00 -0.69908978045E+03  0.69908978046E+03  0.25500000920E-02 0.  1.
    10030    2    1    2    0    0  0.00000000000E+00  0.00000000000E+00  0.57759783172E+03  0.19757773926E+04  0.18894647523E+04 0.  0.
        2    1    3    3  502    0 -0.59075822675E+03  0.44048376176E+03 -0.32939053077E+03  0.80716748486E+03  0.25500000920E-02 0.  1.
       -2    1    3    3    0  502  0.59075822675E+03 -0.44048376176E+03  0.90698836249E+03  0.11686099078E+04  0.25500000920E-02 0. -1.
</event>
<event>
 5   0  0.4761944E-04  0.1408447E+04  0.7818609E-02  0.8947727E-01
       -2   -1    0    0    0  501  0.00000000000E+00  0.00000000000E+00  0.19256068073E+04  0.19256068073E+04  0.25500000920E-02 0.  1.
        2   -1    0    0  501    0  0.00000000000E+00  0.00000000000E+00 -0.25754522494E+03  0.25754522495E+03  0.25500000920E-02 0. -1.
    10030    2    1    2    0    0  0.00000000000E+00  0.00000000000E+00  0.16680615824E+04  0.21831520323E+04  0.14084471426E+04 0.  0.
        4    1    3    3  502    0  0.37399452157E+03  0.81954708013E+02 -0.82122299598E+02  0.39157906139E+03  0.12699999809E+01 0. -1.
       -4    1    3    3    0  502 -0.37399452157E+03 -0.81954708013E+02  0.17501838820E+04  0.17915729709E+04  0.12699999809E+01 0.  1.
</event>
<event>
 5   0  0.4829134E-04  0.1873809E+04  0.7818609E-02  0.8668004E-01
       -2   -1    0    0    0  501  0.00000000000E+00  0.00000000000E+00  0.89468074633E+03  0.89468074634E+03  0.25500000920E-02 0. -1.
        2   -1    0    0  501    0  0.00000000000E+00  0.00000000000E+00 -0.98112136427E+03  0.98112136427E+03  0.25500000920E-02 0.  1.
    10030    2    1    2    0    0  0.00000000000E+00  0.00000000000E+00 -0.86440617940E+02  0.18758021106E+04  0.18738093760E+04 0.  0.
        2    1    3    3  502    0 -0.75326513161E+03  0.27996604036E+03 -0.52539741909E+03  0.96012071649E+03  0.25500000920E-02 0.  1.
       -2    1    3    3    0  502  0.75326513161E+03 -0.27996604036E+03  0.43895680115E+03  0.91568139412E+03  0.25500000920E-02 0. -1.
</event>
<event>
 5   0  0.2510069E-04  0.1883640E+04  0.7818609E-02  0.8663043E-01
        1   -1    0    0  501    0  0.00000000000E+00  0.00000000000E+00  0.95555625505E+03  0.95555625506E+03  0.50400001928E-02 0. -1.
       -1   -1    0    0    0  501  0.00000000000E+00  0.00000000000E+00 -0.92828115818E+03  0.92828115820E+03  0.50400001928E-02 0.  1.
    10030    2    1    2    0    0  0.00000000000E+00  0.00000000000E+00  0.27275096862E+02  0.18838374133E+04  0.18836399520E+04 0.  0.
        4    1    3    3  502    0 -0.30072864929E+03  0.85784846968E+03 -0.23272450209E+03  0.93835175932E+03  0.12699999809E+01 0.  1.
       -4    1    3    3    0  502  0.30072864929E+03 -0.85784846968E+03  0.25999959896E+03  0.94548565394E+03  0.12699999809E+01 0. -1.
</event>
<event>
 5   0  0.4839293E-04  0.1451430E+04  0.7818609E-02  0.8917409E-01
       -2   -1    0    0    0  501  0.00000000000E+00  0.00000000000E+00  0.46727047840E+03  0.46727047841E+03  0.25500000920E-02 0.  1.
        2   -1    0    0  501    0  0.00000000000E+00  0.00000000000E+00 -0.11271043742E+04  0.11271043742E+04  0.25500000920E-02 0. -1.
    10030    2    1    2    0    0  0.00000000000E+00  0.00000000000E+00 -0.65983389576E+03  0.15943748526E+04  0.14514304670E+04 0.  0.
        5    1    3    3  502    0  0.60298757188E+03  0.40378424243E+03 -0.33231955778E+03  0.79818174920E+03  0.46999998093E+01 0. -1.
       -5    1    3    3    0  502 -0.60298757188E+03 -0.40378424243E+03 -0.32751433799E+03  0.79619310337E+03  0.46999998093E+01 0.  1.
</event>
<event>
 5   0  0.2376359E-04  0.1818739E+04  0.7818609E-02  0.8696397E-01
        1   -1    0    0  501    0  0.00000000000E+00  0.00000000000E+00  0.88388280136E+03  0.88388280137E+03  0.50400001928E-02 0.  1.
       -1   -1    0    0    0  501  0.00000000000E+00  0.00000000000E+00 -0.93559145887E+03  0.93559145888E+03  0.50400001928E-02 0. -1.
    10030    2    1    2    0    0  0.00000000000E+00  0.00000000000E+00 -0.51708657510E+02  0.18194742603E+04  0.18187393432E+04 0.  0.
        2    1    3    3  502    0  0.47676896628E+03 -0.73640011002E+03  0.21374073667E+03  0.90292794384E+03  0.25500000920E-02 0.  1.
       -2    1    3    3    0  502 -0.47676896628E+03  0.73640011002E+03 -0.26544939418E+03  0.91654631641E+03  0.25500000920E-02 0. -1.
</event>
<event>
 5   0  0.2261755E-04  0.1912002E+04  0.7818609E-02  0.8648905E-01
        1   -1    0    0  501    0  0.00000000000E+00  0.00000000000E+00  0.85950928867E+03  0.85950928868E+03  0.50400001928E-02 0. -1.
       -1   -1    0    0    0  501  0.00000000000E+00  0.00000000000E+00 -0.10633254933E+04  0.10633254933E+04  0.50400001928E-02 0.  1.
    10030    2    1    2    0    0  0.00000000000E+00  0.00000000000E+00 -0.20381620465E+03  0.19228347820E+04  0.19120022368E+04 0.  0.
        1    1    3    3  502    0  0.10412471404E+03  0.82241977423E+03 -0.58075900125E+03  0.10121745199E+04  0.50400001928E-02 0.  1.
       -1    1    3    3    0  502 -0.10412471404E+03 -0.82241977423E+03  0.37694279659E+03  0.91066026214E+03  0.50400001928E-02 0. -1.
</event>
<event>
 5   0  0.2355414E-04  0.1192342E+04  0.7818609E-02  0.9119586E-01
       -1   -1    0    0    0  501  0.00000000000E+00  0.00000000000E+00  0.12147970865E+04  0.12147970865E+04  0.50400001928E-02 0. -1.
        1   -1    0    0  501    0  0.00000000000E+00  0.00000000000E+00 -0.29257574159E+03  0.29257574163E+03  0.50400001928E-02 0.  1.
    10030    2    1    2    0    0  0.00000000000E+00  0.00000000000E+00  0.92222134491E+03  0.15073728281E+04  0.11923424986E+04 0.  0.
        5    1    3    3  502    0  0.42300404554E+03  0.13981123402E+03 -0.39680522006E+02  0.44729882352E+03  0.46999998093E+01 0.  1.
       -5    1    3    3    0  502 -0.42300404554E+03 -0.13981123402E+03  0.96190186692E+03  0.10600740046E+04  0.46999998093E+01 0. -1.
</event>
<event>
 5   0  0.2510069E-04  0.1859605E+04  0.7818609E-02  0.8675229E-01
       -1   -1    0    0    0  501  0.00000000000E+00  0.00000000000E+00  0.15358775558E+04  0.15358775558E+04  0.50400001928E-02 0. -1.
        1   -1    0    0  501    0  0.00000000000E+00  0.00000000000E+00 -0.56289158102E+03  0.56289158104E+03  0.50400001928E-02 0.  1.
    10030    2    1    2    0    0  0.00000000000E+00  0.00000000000E+00  0.97298597477E+03  0.20987691368E+04  0.18596048458E+04 0.  0.
        4    1    3    3  502    0  0.85249414681E+03  0.32207444754E+03  0.27822627728E+03  0.95283245871E+03  0.12699999809E+01 0.  1.
       -4    1    3    3    0  502 -0.85249414681E+03 -0.32207444754E+03  0.69475969749E+03  0.11459366781E+04  0.12699999809E+01 0. -1.
</event>
<event>
 5   0  0.4973411E-04  0.1675779E+04  0.7818609E-02  0.8775301E-01
        2   -1    0    0  501    0  0.00000000000E+00  0.00000000000E+00  0.23044074934E+04  0.23044074934E+04  0.25500000920E-02 0. -1.
       -2   -1    0    0    0  501  0.00000000000E+00  0.00000000000E+00 -0.30465897722E+03  0.30465897723E+03  0.25500000920E-02 0.  1.
    10030    2    1    2    0    0  0.00000000000E+00  0.00000000000E+00  0.19997485161E+04  0.26090664706E+04  0.16757785415E+04 0.  0.
        1    1    3    3  502    0 -0.42661640492E+01 -0.70831563464E+03  0.30302211828E+03  0.77042302836E+03  0.50400001928E-02 0.  1.
       -1    1    3    3    0  502  0.42661640492E+01  0.70831563464E+03  0.16967263979E+04  0.18386434422E+04  0.50400001928E-02 0. -1.
</event>
<event>
 5   0  0.2261755E-04  0.1846592E+04  0.7818609E-02  0.8681908E-01
       -1   -1    0    0    0  501  0.00000000000E+00  0.00000000000E+00  0.72467531406E+03  0.72467531408E+03  0.50400001928E-02 0. -1.
        1   -1    0    0  501    0  0.00000000000E+00  0.00000000000E+00 -0.11763544690E+04  0.11763544690E+04  0.50400001928E-02 0.  1.
    10030    2    1    2    0    0  0.00000000000E+00  0.00000000000E+00 -0.45167915493E+03  0.19010297831E+04  0.18465915025E+04 0.  0.
        1    1    3    3  502    0  0.82733336842E+03 -0.23961883554E+02  0.19539327671E+03  0.85043118885E+03  0.50400001928E-02 0. -1.
       -1    1    3    3    0  502 -0.82733336842E+03  0.23961883554E+02 -0.64707243163E+03  0.10505985942E+04  0.50400001928E-02 0.  1.
</event>
<event>
 5   0  0.4802635E-04  0.1086551E+04  0.7818609E-02  0.9218400E-01
       -2   -1    0    0    0  501  0.00000000000E+00  0.00000000000E+00  0.22467401426E+03  0.22467401428E+03  0.25500000920E-02 0. -1.
        2   -1    0    0  501    0  0.00000000000E+00  0.00000000000E+00 -0.13136735123E+04  0.13136735123E+04  0.25500000920E-02 0.  1.
    10030    2    1    2    0    0  0.00000000000E+00  0.00000000000E+00 -0.10889994981E+04  0.15383475266E+04  0.10865510599E+04 0.  0.
        3    1    3    3  502    0  0.10487980218E+03  0.43878026489E+03 -0.11595083036E+03  0.46580306893E+03  0.10100000352E+00 0. -1.
       -3    1    3    3    0  502 -0.10487980218E+03 -0.43878026489E+03 -0.97304866769E+03  0.10725444577E+04  0.10100000352E+00 0.  1.
</event>
<event>
 5   0  0.4973411E-04  0.1689631E+04  0.7818609E-02  0.8767301E-01
       -2   -1    0    0    0  501  0.00000000000E+00  0.00000000000E+00  0.77928159700E+03  0.77928159700E+03  0.25500000920E-02 0. -1.
        2   -1    0    0  501    0  0.00000000000E+00  0.00000000000E+00 -0.91586019076E+03  0.91586019076E+03  0.25500000920E-02 0.  1.
    10030    2    1    2    0    0  0.00000000000E+00  0.00000000000E+00 -0.13657859376E+03  0.16951417878E+04  0.16896307195E+04 0.  0.
        1    1    3    3  502    0 -0.78673335331E+03  0.28658589189E+03  0.44470130093E+02  0.83848579901E+03  0.50400001928E-02 0.  1.
       -1    1    3    3    0  502  0.78673335331E+03 -0.28658589189E+03 -0.18104872385E+03  0.85665598876E+03  0.50400001928E-02 0. -1.
</event>
<event>
 5   0  0.4973411E-04  0.1863476E+04  0.7818609E-02  0.8673253E-01
       -2   -1    0    0    0  501  0.00000000000E+00  0.00000000000E+00  0.60291426430E+03  0.60291426431E+03  0.25500000920E-02 0. -1.
        2   -1    0    0  501    0  0.00000000000E+00  0.00000000000E+00 -0.14398995895E+04  0.14398995895E+04  0.25500000920E-02 0.  1.
    10030    2    1    2    0    0  0.00000000000E+00  0.00000000000E+00 -0.83698532520E+03  0.20428138538E+04  0.18634763231E+04 0.  0.
        1    1    3    3  502    0 -0.19419941442E+03 -0.40911772020E+03 -0.13111330023E+04  0.13871411144E+04  0.50400001928E-02 0.  1.
       -1    1    3    3    0  502  0.19419941442E+03  0.40911772020E+03  0.47414767707E+03  0.65567273943E+03  0.50400001928E-02 0. -1.
</event>
<event>
 5   0  0.4839293E-04  0.1873297E+04  0.7818609E-02  0.8668263E-01
        2   -1    0    0  501    0  0.00000000000E+00  0.00000000000E+00  0.16708175903E+04  0.16708175903E+04  0.25500000920E-02 0. -1.
       -2   -1    0    0    0  501  0.00000000000E+00  0.00000000000E+00 -0.52507864418E+03  0.52507864419E+03  0.25500000920E-02 0.  1.
    10030    2    1    2    0    0  0.00000000000E+00  0.00000000000E+00  0.11457389461E+04  0.21958962345E+04  0.18732972375E+04 0.  0.
        5    1    3    3  502    0 -0.45573077255E+03 -0.75666204235E+03  0.93806590127E+03  0.12884943572E+04  0.46999998093E+01 0. -1.
       -5    1    3    3    0  502  0.45573077255E+03  0.75666204235E+03  0.20767304485E+03  0.90740187731E+03  0.46999998093E+01 0.  1.
</event>
<event>
 5   0  0.2355414E-04  0.1826634E+04  0.7818609E-02  0.8692263E-01
       -1   -1    0    0    0  501  0.00000000000E+00  0.00000000000E+00  0.71012950252E+03  0.71012950254E+03  0.50400001928E-02 0. -1.
        1   -1    0    0  501    0  0.00000000000E+00  0.00000000000E+00 -0.11746423923E+04  0.11746423923E+04  0.50400001928E-02 0.  1.
    10030    2    1    2    0    0  0.00000000000E+00  0.00000000000E+00 -0.46451288981E+03  0.18847718949E+04  0.18266343014E+04 0.  0.
        5    1    3    3  502    0  0.30721255721E+03 -0.79957885418E+03 -0.55923388596E+03  0.10229714212E+04  0.46999998093E+01 0. -1.
       -5    1    3    3    0  502 -0.30721255721E+03  0.79957885418E+03  0.94720996142E+02  0.86180047370E+03  0.46999998093E+01 0.  1.
</event>
<event>
 5   0  0.4802635E-04  0.1922060E+04  0.7818609E-02  0.8643953E-01
       -2   -1    0    0    0  501  0.00000000000E+00  0.00000000000E+00  0.13438651057E+04  0.13438651057E+04  0.25500000920E-02 0.  1.
        2   -1    0    0  501    0  0.00000000000E+00  0.00000000000E+00 -0.68725534617E+03  0.68725534618E+03  0.25500000920E-02 0. -1.
    10030    2    1    2    0    0  0.00000000000E+00  0.00000000000E+00  0.65660975954E+03  0.20311204519E+04  0.19220598102E+04 0.  0.
        3    1    3    3  502    0  0.54336974675E+03  0.51883583505E+03 -0.30497976105E+03  0.81083535336E+03  0.10100000352E+00 0. -1.
       -3    1    3    3    0  502 -0.54336974675E+03 -0.51883583505E+03  0.96158952059E+03  0.12202850985E+04  0.10100000352E+00 0.  1.
</event>
<event>
 5   0  0.2376359E-04  0.1785354E+04  0.7818609E-02  0.8714127E-01
       -1   -1    0    0    0  501  0.00000000000E+00  0.00000000000E+00  0.75550527479E+03  0.75550527481E+03  0.50400001928E-02 0. -1.
        1   -1    0    0  501    0  0.00000000000E+00  0.00000000000E+00 -0.10547541074E+04  0.10547541074E+04  0.50400001928E-02 0.  1.
    10030    2    1    2    0    0  0.00000000000E+00  0.00000000000E+00 -0.29924883265E+03  0.18102593823E+04  0.17853540733E+04 0.  0.
        2    1    3    3  502    0 -0.31852676006E+03  0.78687021449E+03  0.13035842619E+03  0.85884652331E+03  0.25500000920E-02 0.  1.
       -2    1    3    3    0  502  0.31852676006E+03 -0.78687021449E+03 -0.42960725883E+03  0.95141285895E+03  0.25500000920E-02 0. -1.
</event>
<event>
 5   0  0.2261755E-04  0.1933746E+04  0.7818609E-02  0.8638239E-01
        1   -1    0    0  501    0  0.00000000000E+00  0.00000000000E+00  0.21586862349E+04  0.21586862349E+04  0.50400001928E-02 0. -1.
       -1   -1    0    0    0  501  0.00000000000E+00  0.00000000000E+00 -0.43306140411E+03  0.43306140414E+03  0.50400001928E-02 0.  1.
    10030    2    1    2    0    0  0.00000000000E+00  0.00000000000E+00  0.17256248308E+04  0.25917476391E+04  0.19337463039E+04 0.  0.
        1    1    3    3  502    0 -0.54896713647E+03 -0.20148883768E+03  0.18948059819E+04  0.19829907659E+04  0.50400001928E-02 0. -1.
       -1    1    3    3    0  502  0.54896713647E+03  0.20148883768E+03 -0.16918115114E+03  0.60875687311E+03  0.50400001928E-02 0.  1.
</event>
<event>
 5   0  0.2317458E-04  0.1650977E+04  0.7818609E-02  0.8789829E-01
       -1   -1    0    0    0  501  0.00000000000E+00  0.00000000000E+00  0.64016178012E+03  0.64016178014E+03  0.50400001928E-02 0.  1.
        1   -1    0    0  501    0  0.00000000000E+00  0.00000000000E+00 -0.10644668623E+04  0.10644668623E+04  0.50400001928E-02 0. -1.
    10030    2    1    2    0    0  0.00000000000E+00  0.00000000000E+00 -0.42430508222E+03  0.17046286425E+04  0.16509766825E+04 0.  0.
        3    1    3    3  502    0 -0.56101042489E+03  0.55550888215E+03 -0.46104255089E+03  0.91426640478E+03  0.10100000352E+00 0. -1.
       -3    1    3    3    0  502  0.56101042489E+03 -0.55550888215E+03  0.36737468677E+02  0.79036223770E+03  0.10100000352E+00 0.  1.
</event>
<event>
 5   0  0.2317458E-04  0.1461507E+04  0.7818609E-02  0.8910462E-01
        1   -1    0    0  501    0  0.00000000000E+00  0.00000000000E+00  0.13374391813E+04  0.13374391814E+04  0.50400001928E-02 0. -1.
       -1   -1    0    0    0  501  0.00000000000E+00  0.00000000000E+00 -0.39927090022E+03  0.39927090025E+03  0.50400001928E-02 0.  1.
    10030    2    1    2    0    0  0.00000000000E+00  0.00000000000E+00  0.93816828112E+03  0.17367100816E+04  0.14615068196E+04 0.  0.
        3    1    3    3  502    0 -0.30620654639E+03  0.39887980238E+03 -0.16097655013E+03  0.52799716447E+03  0.10100000352E+00 0.  1.
       -3    1    3    3    0  502  0.30620654639E+03 -0.39887980238E+03  0.10991448313E+04  0.12087129171E+04  0.10100000352E+00 0. -1.
</event>
<event>
 5   0  0.4829134E-04  0.1914314E+04  0.7818609E-02  0.8647764E-01
        2   -1    0    0  501    0  0.00000000000E+00  0.00000000000E+00  0.22014218827E+04  0.22014218828E+04  0.25500000920E-02 0.  1.
       -2   -1    0    0    0  501  0.00000000000E+00  0.00000000000E+00 -0.41616267204E+03  0.41616267205E+03  0.25500000920E-02 0. -1.
    10030    2    1    2    0    0  0.00000000000E+00  0.00000000000E+00  0.17852592107E+04  0.26175845548E+04  0.19143140944E+04 0.  0.
        2    1    3    3  502    0 -0.27086832218E+03  0.78458600785E+03  0.15444024118E+04  0.17533179008E+04  0.25500000920E-02 0.  1.
       -2    1    3    3    0  502  0.27086832218E+03 -0.78458600785E+03  0.24085679894E+03  0.86426665403E+03  0.25500000920E-02 0. -1.
</event>
<event>
 5   0  0.2355414E-04  0.1947311E+04  0.7818609E-02  0.8631659E-01
       -1   -1    0    0    0  501  0.00000000000E+00  0.00000000000E+00  0.57013000878E+03  0.57013000880E+03  0.50400001928E-02 0. -1.
        1   -1    0    0  501    0  0.00000000000E+00  0.00000000000E+00 -0.16627871227E+04  0.16627871227E+04  0.50400001928E-02 0.  1.
    10030    2    1    2    0    0  0.00000000000E+00  0.00000000000E+00 -0.10926571139E+04  0.22329171315E+04  0.19473107989E+04 0.  0.
        5    1    3    3  502    0 -0.62767072096E+03 -0.42873575623E+03 -0.12440053672E+04  0.14578601875E+04  0.46999998093E+01 0.  1.
       -5    1    3    3    0  502  0.62767072096E+03  0.42873575623E+03  0.15134825334E+03  0.77505694398E+03  0.46999998093E+01 0. -1.
</event>
<event>
 5   0  0.4839293E-04  0.1963269E+04  0.7818609E-02  0.8623989E-01
       -2   -1    0    0    0  501  0.00000000000E+00  0.00000000000E+00  0.13492056590E+04  0.13492056590E+04  0.25500000920E-02 0.  1.
        2   -1    0    0  501    0  0.00000000000E+00  0.00000000000E+00 -0.71420302023E+03  0.71420302024E+03  0.25500000920E-02 0. -1.
    10030    2    1    2    0    0  0.00000000000E+00  0.00000000000E+00  0.63500263872E+03  0.20634086792E+04  0.19632694737E+04 0.  0.
        5    1    3    3  502    0  0.69832023124E+03 -0.11513155312E+03  0.10324006322E+04  0.12517106595E+04  0.46999998093E+01 0. -1.
       -5    1    3    3    0  502 -0.69832023124E+03  0.11513155312E+03 -0.39739799347E+03  0.81169801964E+03  0.46999998093E+01 0.  1.
</event>
<event>
 5   0  0.2376359E-04  0.1923769E+04  0.7818609E-02  0.8643115E-01
        1   -1    0    0  501    0  0.00000000000E+00  0.00000000000E+00  0.11149481567E+04  0.11149481567E+04  0.50400001928E-02 0.  1.
       -1   -1    0    0    0  501  0.00000000000E+00  0.00000000000E+00 -0.82983415806E+03  0.82983415807E+03  0.50400001928E-02 0. -1.
    10030    2    1    2    0    0  0.00000000000E+00  0.00000000000E+00  0.28511399867E+03  0.19447823148E+04  0.19237692844E+04 0.  0.
        2    1    3    3  502    0 -0.20403679356E+03  0.77973429790E+03 -0.38815869612E+03  0.89458580462E+03  0.25500000920E-02 0. -1.
       -2    1    3    3    0  502  0.20403679356E+03 -0.77973429790E+03  0.67327269479E+03  0.10501965102E+04  0.25500000920E-02 0.  1.
</event>
<event>
 5   0  0.2376359E-04  0.1696717E+04  0.7818609E-02  0.8763239E-01
        1   -1    0    0  501    0  0.00000000000E+00  0.00000000000E+00  0.75623980014E+03  0.75623980016E+03  0.50400001928E-02 0.  1.
       -1   -1    0    0    0  501  0.00000000000E+00  0.00000000000E+00 -0.95169875859E+03  0.95169875860E+03  0.50400001928E-02 0. -1.
    10030    2    1    2    0    0  0.00000000000E+00  0.00000000000E+00 -0.19545895844E+03  0.17079385588E+04  0.16967173943E+04 0.  0.
        2    1    3    3  502    0  0.47119715361E+03  0.51763801319E+03 -0.58020783361E+03  0.90918479995E+03  0.25500000920E-02 0. -1.
       -2    1    3    3    0  502 -0.47119715361E+03 -0.51763801319E+03  0.38474887517E+03  0.79875375881E+03  0.25500000920E-02 0.  1.
</event>
<event>
 5   0  0.2261755E-04  0.1838042E+04  0.7818609E-02  0.8686327E-01
        1   -1    0    0  501    0  0.00000000000E+00  0.00000000000E+00  0.88350881925E+03  0.88350881926E+03  0.50400001928E-02 0. -1.
       -1   -1    0    0    0  501  0.00000000000E+00  0.00000000000E+00 -0.95596088836E+03  0.95596088838E+03  0.50400001928E-02 0.  1.
    10030    2    1    2    0    0  0.00000000000E+00  0.00000000000E+00 -0.72452069116E+02  0.18394697076E+04  0.18380423017E+04 0.  0.
        1    1    3    3  502    0  0.45363951861E+03  0.21646249330E+02 -0.83580989444E+03  0.95122844398E+03  0.50400001928E-02 0.  1.
       -1    1    3    3    0  502 -0.45363951861E+03 -0.21646249330E+02  0.76335782533E+03  0.88824126366E+03  0.50400001928E-02 0. -1.
</event>
<event>
 5   0  0.2376359E-04  0.1886210E+04  0.7818609E-02  0.8661751E-01
       -1   -1    0    0    0  501  0.00000000000E+00  0.00000000000E+00  0.45411319074E+03  0.45411319077E+03  0.50400001928E-02 0.  1.
        1   -1    0    0  501    0  0.00000000000E+00  0.00000000000E+00 -0.19586468246E+04  0.19586468246E+04  0.50400001928E-02 0. -1.
    10030    2    1    2    0    0  0.00000000000E+00  0.00000000000E+00 -0.15045336338E+04  0.24127600153E+04  0.18862103372E+04 0.  0.
        2    1    3    3  502    0 -0.93211711586E+03 -0.84860737242E+02 -0.90036042086E+03  0.12987272808E+04  0.25500000920E-02 0. -1.
       -2    1    3    3    0  502  0.93211711586E+03  0.84860737242E+02 -0.60417321296E+03  0.11140327346E+04  0.25500000920E-02 0.  1.
</event>
<event>
 5   0  0.4973411E-04  0.1714469E+04  0.7818609E-02  0.8753155E-01
        2   -1    0    0  501    0  0.00000000000E+00  0.00000000000E+00  0.11390240201E+04  0.11390240201E+04  0.25500000920E-02 0. -1.
       -2   -1    0    0    0  501  0.00000000000E+00  0.00000000000E+00 -0.64515814294E+03  0.64515814294E+03  0.25500000920E-02 0.  1.
    10030    2    1    2    0    0  0.00000000000E+00  0.00000000000E+00  0.49386587718E+03  0.17841821631E+04  0.17144685726E+04 0.  0.
        1    1    3    3  502    0  0.37861665071E+03  0.19773708425E+03 -0.52652471008E+03  0.67799616004E+03  0.50400001928E-02 0.  1.
       -1    1    3    3    0  502 -0.37861665071E+03 -0.19773708425E+03  0.10203905873E+04  0.11061860030E+04  0.50400001928E-02 0. -1.
</event>
<event>
 5   0  0.4973411E-04  0.1834879E+04  0.7818609E-02  0.8687968E-01
        2   -1    0    0  501    0  0.00000000000E+00  0.00000000000E+00  0.11137218987E+04  0.11137218987E+04  0.25500000920E-02 0.  1.
       -2   -1    0    0    0  501  0.00000000000E+00  0.00000000000E+00 -0.75575021441E+03  0.75575021441E+03  0.25500000920E-02 0. -1.
    10030    2    1    2    0    0  0.00000000000E+00  0.00000000000E+00  0.35797168434E+03  0.18694721132E+04  0.18348793571E+04 0.  0.
        1    1    3    3  502    0 -0.23136306927E+03 -0.74803567757E+03 -0.30815937324E+03  0.84145614507E+03  0.50400001928E-02 0. -1.
       -1    1    3    3    0  502  0.23136306927E+03  0.74803567757E+03  0.66613105758E+03  0.10280159681E+04  0.50400001928E-02 0.  1.
</event>
<event>
 5   0  0.1729375E-04  0.1938105E+04  0.7818609E-02  0.8636118E-01
        3   -1    0    0  501    0  0.00000000000E+00  0.00000000000E+00  0.23615170484E+04  0.23615170505E+04  0.10100000352E+00 0.  1.
       -3   -1    0    0    0  501  0.00000000000E+00  0.00000000000E+00 -0.39765248777E+03  0.39765250060E+03  0.10100000352E+00 0. -1.
    10030    2    1    2    0    0  0.00000000000E+00  0.00000000000E+00  0.19638645606E+04  0.27591695511E+04  0.19381054150E+04 0.  0.
        3    1    3    3  502    0  0.68062020483E+03  0.18320800209E+03  0.19286858033E+04  0.20534453908E+04  0.10100000352E+00 0.  1.
       -3    1    3    3    0  502 -0.68062020483E+03 -0.18320800209E+03  0.35178757345E+02  0.70572416030E+03  0.10100000352E+00 0. -1.
</event>
<event>
 5   0  0.2510069E-04  0.1895993E+04  0.7818609E-02  0.8656853E-01
       -1   -1    0    0    0  501  0.00000000000E+00  0.00000000000E+00  0.49185237597E+03  0.49185237599E+03  0.50400001928E-02 0.  1.
        1   -1    0    0  501    0  0.00000000000E+00  0.00000000000E+00 -0.18271692258E+04  0.18271692258E+04  0.50400001928E-02 0. -1.
    10030    2    1    2    0    0  0.00000000000E+00  0.00000000000E+00 -0.13353168498E+04  0.23190216018E+04  0.18959931698E+04 0.  0.
        4    1    3    3  502    0  0.26558975318E+03  0.24016114056E+03 -0.17412742040E+04  0.17777099755E+04  0.12699999809E+01 0. -1.
       -4    1    3    3    0  502 -0.26558975318E+03 -0.24016114056E+03  0.40595735421E+03  0.54131162630E+03  0.12699999809E+01 0.  1.
</event>
<event>
 5   0  0.4839293E-04  0.1864781E+04  0.7818609E-02  0.8672589E-01
        2   -1    0    0  501    0  0.00000000000E+00  0.00000000000E+00  0.60114205096E+03  0.60114205097E+03  0.25500000920E-02 0. -1.
       -2   -1    0    0    0  501  0.00000000000E+00  0.00000000000E+00 -0.14461671578E+04  0.14461671578E+04  0.25500000920E-02 0.  1.
    10030    2    1    2    0    0  0.00000000000E+00  0.00000000000E+00 -0.84502510684E+03  0.20473092088E+04  0.18647808357E+04 0.  0.
        5    1    3    3  502    0 -0.26964002007E+03 -0.31826810981E+02  0.55676559427E+03  0.61945839512E+03  0.46999998093E+01 0. -1.
       -5    1    3    3    0  502  0.26964002007E+03  0.31826810981E+02 -0.14017907011E+04  0.14278508137E+04  0.46999998093E+01 0.  1.
</event>
<event>
 5   0  0.2355414E-04  0.1922344E+04  0.7818609E-02  0.8643814E-01
       -1   -1    0    0    0  501  0.00000000000E+00  0.00000000000E+00  0.10846345751E+04  0.10846345751E+04  0.50400001928E-02 0. -1.
        1   -1    0    0  501    0  0.00000000000E+00  0.00000000000E+00 -0.85176269411E+03  0.85176269412E+03  0.50400001928E-02 0.  1.
    10030    2    1    2    0    0  0.00000000000E+00  0.00000000000E+00  0.23287188095E+03  0.19363972692E+04  0.19223436402E+04 0.  0.
        5    1    3    3  502    0 -0.49592917174E+03 -0.82152994192E+03  0.61521440794E+02  0.96159459572E+03  0.46999998093E+01 0. -1.
       -5    1    3    3    0  502  0.49592917174E+03  0.82152994192E+03  0.17135044015E+03  0.97480267346E+03  0.46999998093E+01 0.  1.
</event>
<event>
 5   0  0.2376359E-04  0.1922278E+04  0.7818609E-02  0.8643846E-01
       -1   -1    0    0    0  501  0.00000000000E+00  0.00000000000E+00  0.14432741553E+04  0.14432741553E+04  0.50400001928E-02 0.  1.
        1   -1    0    0  501    0  0.00000000000E+00  0.00000000000E+00 -0.64006407514E+03  0.64006407516E+03  0.50400001928E-02 0. -1.
    10030    2    1    2    0    0  0.00000000000E+00  0.00000000000E+00  0.80321008013E+03  0.20833382304E+04  0.19222777504E+04 0.  0.
        2    1    3    3  502    0  0.48333817379E+03  0.63230895866E+03  0.98560146623E+03  0.12668230578E+04  0.25500000920E-02 0.  1.
       -2    1    3    3    0  502 -0.48333817379E+03 -0.63230895866E+03 -0.18239138611E+03  0.81651517266E+03  0.25500000920E-02 0. -1.
</event>
<event>
 5   0  0.4839293E-04  0.1858415E+04  0.7818609E-02  0.8675837E-01
       -2   -1    0    0    0  501  0.00000000000E+00  0.00000000000E+00  0.94749605643E+03  0.94749605644E+03  0.25500000920E-02 0. -1.
        2   -1    0    0  501    0  0.00000000000E+00  0.00000000000E+00 -0.91127169058E+03  0.91127169058E+03  0.25500000920E-02 0.  1.
    10030    2    1    2    0    0  0.00000000000E+00  0.00000000000E+00  0.36224365855E+02  0.18587677470E+04  0.18584147365E+04 0.  0.
        5    1    3    3  502    0 -0.44301058492E+02  0.69823654607E+03  0.62970800364E+03  0.94130288319E+03  0.46999998093E+01 0. -1.
       -5    1    3    3    0  502  0.44301058492E+02 -0.69823654607E+03 -0.59348363778E+03  0.91746486383E+03  0.46999998093E+01 0.  1.
</event>
<event>
 5   0  0.4973411E-04  0.1916064E+04  0.7818609E-02  0.8646901E-01
       -2   -1    0    0    0  501  0.00000000000E+00  0.00000000000E+00  0.80754310803E+03  0.80754310803E+03  0.25500000920E-02 0. -1.
        2   -1    0    0  501    0  0.00000000000E+00  0.00000000000E+00 -0.11365656135E+04  0.11365656135E+04  0.25500000920E-02 0.  1.
    10030    2    1    2    0    0  0.00000000000E+00  0.00000000000E+00 -0.32902250549E+03  0.19441087216E+04  0.19160644332E+04 0.  0.
        1    1    3    3  502    0  0.44683666827E+03  0.72976148236E+03 -0.60164282606E+03  0.10460348557E+04  0.50400001928E-02 0.  1.
       -1    1    3    3    0  502 -0.44683666827E+03 -0.72976148236E+03  0.27262032058E+03  0.89807386581E+03  0.50400001928E-02 0. -1.
</event>
<event>
 5   0  0.2376359E-04  0.1805606E+04  0.7818609E-02  0.8703324E-01
       -1   -1    0    0    0  501  0.00000000000E+00  0.00000000000E+00  0.77033437009E+03  0.77033437011E+03  0.50400001928E-02 0. -1.
        1   -1    0    0  501    0  0.00000000000E+00  0.00000000000E+00 -0.10580509307E+04  0.10580509308E+04  0.50400001928E-02 0.  1.
    10030    2    1    2    0    0  0.00000000000E+00  0.00000000000E+00 -0.28771656065E+03  0.18283853009E+04  0.18056057125E+04 0.  0.
        2    1    3    3  502    0  0.29504122076E+02  0.25197377871E+03 -0.10212138019E+04  0.10522542029E+04  0.25500000920E-02 0.  1.
       -2    1    3    3    0  502 -0.29504122076E+02 -0.25197377871E+03  0.73349724121E+03  0.77613109798E+03  0.25500000920E-02 0. -1.
</event>
<event>
 5   0  0.2355414E-04  0.1752670E+04  0.7818609E-02  0.8731882E-01
       -1   -1    0    0    0  501  0.00000000000E+00  0.00000000000E+00  0.70781861271E+03  0.70781861273E+03  0.50400001928E-02 0. -1.
        1   -1    0    0  501    0  0.00000000000E+00  0.00000000000E+00 -0.10849721120E+04  0.10849721120E+04  0.50400001928E-02 0.  1.
    10030    2    1    2    0    0  0.00000000000E+00  0.00000000000E+00 -0.37715349924E+03  0.17927907247E+04  0.17526704826E+04 0.  0.
        5    1    3    3  502    0  0.14210941328E+03 -0.86238854666E+03 -0.25353051957E+03  0.91005983600E+03  0.46999998093E+01 0.  1.
       -5    1    3    3    0  502 -0.14210941328E+03  0.86238854666E+03 -0.12362297967E+03  0.88273088869E+03  0.46999998093E+01 0. -1.
</event>
<event>
 5   0  0.2317458E-04  0.1903699E+04  0.7818609E-02  0.8653017E-01
       -1   -1    0    0    0  501  0.00000000000E+00  0.00000000000E+00  0.68541425774E+03  0.68541425776E+03  0.50400001928E-02 0.  1.
        1   -1    0    0  501    0  0.00000000000E+00  0.00000000000E+00 -0.13218536499E+04  0.13218536499E+04  0.50400001928E-02 0. -1.
    10030    2    1    2    0    0  0.00000000000E+00  0.00000000000E+00 -0.63643939214E+03  0.20072679076E+04  0.19036988610E+04 0.  0.
        3    1    3    3  502    0 -0.76085485247E+03  0.34319504300E+03 -0.80064199674E+03  0.11565943806E+04  0.10100000352E+00 0. -1.
       -3    1    3    3    0  502  0.76085485247E+03 -0.34319504300E+03  0.16420260461E+03  0.85067352705E+03  0.10100000352E+00 0.  1.
</event>
<event>
 5   0  0.2317458E-04  0.1296251E+04  0.7818609E-02  0.9032543E-01
       -1   -1    0    0    0  501  0.00000000000E+00  0.00000000000E+00  0.40406839579E+03  0.40406839582E+03  0.50400001928E-02 0. -1.
        1   -1    0    0  501    0  0.00000000000E+00  0.00000000000E+00 -0.10395936719E+04  0.10395936719E+04  0.50400001928E-02 0.  1.
    10030    2    1    2    0    0  0.00000000000E+00  0.00000000000E+00 -0.63552527607E+03  0.14436620677E+04  0.12962514375E+04 0.  0.
        3    1    3    3  502    0 -0.16980134194E+03 -0.41327376072E+03 -0.84066517283E+03  0.95202186952E+03  0.10100000352E+00 0.  1.
       -3    1    3    3    0  502  0.16980134194E+03  0.41327376072E+03  0.20513989676E+03  0.49164019818E+03  0.10100000352E+00 0. -1.
</event>
<event>
 5   0  0.2355414E-04  0.1878401E+04  0.7818609E-02  0.8665683E-01
        1   -1    0    0  501    0  0.00000000000E+00  0.00000000000E+00  0.13482340937E+04  0.13482340937E+04  0.50400001928E-02 0. -1.
       -1   -1    0    0    0  501  0.00000000000E+00  0.00000000000E+00 -0.65426124558E+03  0.65426124560E+03  0.50400001928E-02 0.  1.
    10030    2    1    2    0    0  0.00000000000E+00  0.00000000000E+00  0.69397284814E+03  0.20024953393E+04  0.18784007214E+04 0.  0.
        5    1    3    3  502    0 -0.17764486351E+03  0.48951851621E+03 -0.48624276278E+03  0.71248872945E+03  0.46999998093E+01 0.  1.
       -5    1    3    3    0  502  0.17764486351E+03 -0.48951851621E+03  0.11802156109E+04  0.12900066099E+04  0.46999998093E+01 0. -1.
</event>
<event>
 5   0  0.2510069E-04  0.1885934E+04  0.7818609E-02  0.8661890E-01
        1   -1    0    0  501    0  0.00000000000E+00  0.00000000000E+00  0.18695327480E+04  0.18695327480E+04  0.50400001928E-02 0.  1.
       -1   -1    0    0    0  501  0.00000000000E+00  0.00000000000E+00 -0.47561993516E+03  0.47561993519E+03  0.50400001928E-02 0. -1.
    10030    2    1    2    0    0  0.00000000000E+00  0.00000000000E+00  0.13939128128E+04  0.23451526832E+04  0.18859342983E+04 0.  0.
        4    1    3    3  502    0 -0.42412639925E+03  0.34966443947E+02  0.17433271741E+04  0.17945186273E+04  0.12699999809E+01 0.  1.
       -4    1    3    3    0  502  0.42412639925E+03 -0.34966443947E+02 -0.34941436129E+03  0.55063405590E+03  0.12699999809E+01 0. -1.
</event>
<event>
 5   0  0.2355414E-04  0.2241425E+04  0.7818609E-02  0.8501381E-01
       -1   -1    0    0    0  501  0.00000000000E+00  0.00000000000E+00  0.16215709125E+04  0.16215709125E+04  0.50400001928E-02 0. -1.
        1   -1    0    0  501    0  0.00000000000E+00  0.00000000000E+00 -0.77455542847E+03  0.77455542849E+03  0.50400001928E-02 0.  1.
    10030    2    1    2    0    0  0.00000000000E+00  0.00000000000E+00  0.84701548400E+03  0.23961263410E+04  0.22414250404E+04 0.  0.
        5    1    3    3  502    0 -0.98423603531E+03 -0.31713418951E+03 -0.38377570540E+02  0.10347896382E+04  0.46999998093E+01 0.  1.
       -5    1    3    3    0  502  0.98423603531E+03  0.31713418951E+03  0.88539305454E+03  0.13613367028E+04  0.46999998093E+01 0. -1.
</event>
<event>
 5   0  0.4761944E-04  0.1793547E+04  0.7818609E-02  0.8709739E-01
        2   -1    0    0  501    0  0.00000000000E+00  0.00000000000E+00  0.64685673089E+03  0.64685673089E+03  0.25500000920E-02 0.  1.
       -2   -1    0    0    0  501  0.00000000000E+00  0.00000000000E+00 -0.12432465953E+04  0.12432465953E+04  0.25500000920E-02 0. -1.
    10030    2    1    2    0    0  0.00000000000E+00  0.00000000000E+00 -0.59638986445E+03  0.18901033262E+04  0.17935466856E+04 0.  0.
        4    1    3    3  502    0 -0.56764501281E+03  0.40291238348E+03 -0.89400040153E+03  0.11330479161E+04  0.12699999809E+01 0. -1.
       -4    1    3    3    0  502  0.56764501281E+03 -0.40291238348E+03  0.29761053708E+03  0.75705541014E+03  0.12699999809E+01 0.  1.
</event>
<event>
 5   0  0.2355414E-04  0.1740659E+04  0.7818609E-02  0.8738509E-01
       -1   -1    0    0    0  501  0.00000000000E+00  0.00000000000E+00  0.74707558765E+03  0.74707558767E+03  0.50400001928E-02 0.  1.
        1   -1    0    0  501    0  0.00000000000E+00  0.00000000000E+00 -0.10139178012E+04  0.10139178013E+04  0.50400001928E-02 0. -1.
    10030    2    1    2    0    0  0.00000000000E+00  0.00000000000E+00 -0.26684221359E+03  0.17609933889E+04  0.17406587687E+04 0.  0.
        5    1    3    3  502    0  0.63292916544E+03 -0.89901525301E+02 -0.73088732452E+03  0.97103037227E+03  0.46999998093E+01 0. -1.
       -5    1    3    3    0  502 -0.63292916544E+03  0.89901525301E+02  0.46404511093E+03  0.78996301666E+03  0.46999998093E+01 0.  1.
</event>
<event>
 5   0  0.4802635E-04  0.1901036E+04  0.7818609E-02  0.8654341E-01
       -2   -1    0    0    0  501  0.00000000000E+00  0.00000000000E+00  0.36888369366E+03  0.36888369367E+03  0.25500000920E-02 0. -1.
        2   -1    0    0  501    0  0.00000000000E+00  0.00000000000E+00 -0.24492383077E+04  0.24492383077E+04  0.25500000920E-02 0.  1.
    10030    2    1    2    0    0  0.00000000000E+00  0.00000000000E+00 -0.20803546140E+04  0.28181220013E+04  0.19010355847E+04 0.  0.
        3    1    3    3  502    0  0.82144060628E+03  0.39978258595E+03 -0.65108023022E+03  0.11218271979E+04  0.10100000352E+00 0. -1.
       -3    1    3    3    0  502 -0.82144060628E+03 -0.39978258595E+03 -0.14292743838E+04  0.16962948034E+04  0.10100000352E+00 0.  1.
</event>
<event>
 5   0  0.4802635E-04  0.1921943E+04  0.7818609E-02  0.8644010E-01
        2   -1    0    0  501    0  0.00000000000E+00  0.00000000000E+00  0.13111584581E+04  0.13111584581E+04  0.25500000920E-02 0.  1.
       -2   -1    0    0    0  501  0.00000000000E+00  0.00000000000E+00 -0.70431349444E+03  0.70431349444E+03  0.25500000920E-02 0. -1.
    10030    2    1    2    0    0  0.00000000000E+00  0.00000000000E+00  0.60684496369E+03  0.20154719526E+04  0.19219433867E+04 0.  0.
        3    1    3    3  502    0 -0.49518738619E+03 -0.80060437356E+03  0.10092266127E+03  0.94676465088E+03  0.10100000352E+00 0. -1.
       -3    1    3    3    0  502  0.49518738619E+03  0.80060437356E+03  0.50592230242E+03  0.10687073017E+04  0.10100000352E+00 0.  1.
</event>
<event>
 5   0  0.2376359E-04  0.1810001E+04  0.7818609E-02  0.8700999E-01
        1   -1    0    0  501    0  0.00000000000E+00  0.00000000000E+00  0.89530321011E+03  0.89530321012E+03  0.50400001928E-02 0. -1.
       -1   -1    0    0    0  501  0.00000000000E+00  0.00000000000E+00 -0.91480316124E+03  0.91480316125E+03  0.50400001928E-02 0.  1.
    10030    2    1    2    0    0  0.00000000000E+00  0.00000000000E+00 -0.19499951132E+02  0.18101063714E+04  0.18100013336E+04 0.  0.
        2    1    3    3  502    0 -0.62180190717E+02 -0.89038221071E+03 -0.15935594851E+03  0.90666486399E+03  0.25500000920E-02 0. -1.
       -2    1    3    3    0  502  0.62180190717E+02  0.89038221071E+03  0.13985599737E+03  0.90344150739E+03  0.25500000920E-02 0.  1.
</event>
<event>
 5   0  0.4839293E-04  0.1961229E+04  0.7818609E-02  0.8624965E-01
       -2   -1    0    0    0  501  0.00000000000E+00  0.00000000000E+00  0.76577804140E+03  0.76577804141E+03  0.25500000920E-02 0. -1.
        2   -1    0    0  501    0  0.00000000000E+00  0.00000000000E+00 -0.12557222434E+04  0.12557222434E+04  0.25500000920E-02 0.  1.
    10030    2    1    2    0    0  0.00000000000E+00  0.00000000000E+00 -0.48994420202E+03  0.20215002848E+04  0.19612287170E+04 0.  0.
        5    1    3    3  502    0  0.71600296332E+03 -0.27836287975E+03  0.38321314463E+03  0.85849900438E+03  0.46999998093E+01 0. -1.
       -5    1    3    3    0  502 -0.71600296332E+03  0.27836287975E+03 -0.87315734666E+03  0.11630012805E+04  0.46999998093E+01 0.  1.
</event>
<event>
 5   0  0.2355414E-04  0.1962683E+04  0.7818609E-02  0.8624269E-01
        1   -1    0    0  501    0  0.00000000000E+00  0.00000000000E+00  0.95167009071E+03  0.95167009073E+03  0.50400001928E-02 0. -1.
       -1   -1    0    0    0  501  0.00000000000E+00  0.00000000000E+00 -0.10119379691E+04  0.10119379692E+04  0.50400001928E-02 0.  1.
    10030    2    1    2    0    0  0.00000000000E+00  0.00000000000E+00 -0.60267878431E+02  0.19636080599E+04  0.19626829585E+04 0.  0.
        5    1    3    3  502    0 -0.90315914229E+03  0.36065453652E+03 -0.16150035252E+03  0.98583598275E+03  0.46999998093E+01 0. -1.
       -5    1    3    3    0  502  0.90315914229E+03 -0.36065453652E+03  0.10123247409E+03  0.97777207714E+03  0.46999998093E+01 0.  1.
</event>
<event>
 5   0  0.2376359E-04  0.1748585E+04  0.7818609E-02  0.8734130E-01
        1   -1    0    0  501    0  0.00000000000E+00  0.00000000000E+00  0.92100084832E+03  0.92100084833E+03  0.50400001928E-02 0.  1.
       -1   -1    0    0    0  501  0.00000000000E+00  0.00000000000E+00 -0.82995270993E+03  0.82995270995E+03  0.50400001928E-02 0. -1.
    10030    2    1    2    0    0  0.00000000000E+00  0.00000000000E+00  0.91048138388E+02  0.17509535583E+04  0.17485847419E+04 0.  0.
        2    1    3    3  502    0  0.36261943522E+03  0.60853132810E+02 -0.74876623218E+03  0.83417433971E+03  0.25500000920E-02 0. -1.
       -2    1    3    3    0  502 -0.36261943522E+03 -0.60853132810E+02  0.83981437057E+03  0.91677921857E+03  0.25500000920E-02 0.  1.
</event>
<event>
 5   0  0.4839293E-04  0.2049193E+04  0.7818609E-02  0.8583961E-01
        2   -1    0    0  501    0  0.00000000000E+00  0.00000000000E+00  0.15619959603E+04  0.15619959603E+04  0.25500000920E-02 0.  1.
       -2   -1    0    0    0  501  0.00000000000E+00  0.00000000000E+00 -0.67208729515E+03  0.67208729515E+03  0.25500000920E-02 0. -1.
    10030    2    1    2    0    0  0.00000000000E+00  0.00000000000E+00  0.88990866515E+03  0.22340832555E+04  0.20491926605E+04 0.  0.
        5    1    3    3  502    0  0.48816531072E+03 -0.82664960428E+03  0.54719472623E+02  0.96159827866E+03  0.46999998093E+01 0. -1.
       -5    1    3    3    0  502 -0.48816531072E+03  0.82664960428E+03  0.83518919253E+03  0.12724849768E+04  0.46999998093E+01 0.  1.
</event>
<event>
 5   0  0.4973411E-04  0.1951655E+04  0.7818609E-02  0.8629563E-01
        2   -1    0    0  501    0  0.00000000000E+00  0.00000000000E+00  0.78906394291E+03  0.78906394292E+03  0.25500000920E-02 0.  1.
       -2   -1    0    0    0  501  0.00000000000E+00  0.00000000000E+00 -0.12067964988E+04  0.12067964988E+04  0.25500000920E-02 0. -1.
    10030    2    1    2    0    0  0.00000000000E+00  0.00000000000E+00 -0.41773255588E+03  0.19958604417E+04  0.19516553012E+04 0.  0.
        1    1    3    3  502    0  0.95329004539E+02  0.32420587958E+02 -0.12014696858E+04  0.12056815996E+04  0.50400001928E-02 0. -1.
       -1    1    3    3    0  502 -0.95329004539E+02 -0.32420587958E+02  0.78373712995E+03  0.79017884211E+03  0.50400001928E-02 0.  1.
</event>
<event>
 5   0  0.2376359E-04  0.1867768E+04  0.7818609E-02  0.8671069E-01
       -1   -1    0    0    0  501  0.00000000000E+00  0.00000000000E+00  0.51836313517E+03  0.51836313519E+03  0.50400001928E-02 0.  1.
        1   -1    0    0  501    0  0.00000000000E+00  0.00000000000E+00 -0.16824869835E+04  0.16824869835E+04  0.50400001928E-02 0. -1.
    10030    2    1    2    0    0  0.00000000000E+00  0.00000000000E+00 -0.11641238483E+04  0.22008501187E+04  0.18677678953E+04 0.  0.
        2    1    3    3  502    0  0.19255946613E+03 -0.75243401987E+03 -0.11930960786E+04  0.14236271826E+04  0.25500000920E-02 0. -1.
       -2    1    3    3    0  502 -0.19255946613E+03  0.75243401987E+03  0.28972230277E+02  0.77722293610E+03  0.25500000920E-02 0.  1.
</event>
<event>
 5   0  0.4973411E-04  0.1042357E+04  0.7818609E-02  0.9263271E-01
        2   -1    0    0  501    0  0.00000000000E+00  0.00000000000E+00  0.87357107817E+03  0.87357107817E+03  0.25500000920E-02 0. -1.
       -2   -1    0    0    0  501  0.00000000000E+00  0.00000000000E+00 -0.31093851298E+03  0.31093851299E+03  0.25500000920E-02 0.  1.
    10030    2    1    2    0    0  0.00000000000E+00  0.00000000000E+00  0.56263256519E+03  0.11845095912E+04  0.10423567375E+04 0.  0.
        1    1    3    3  502    0  0.38392483729E+03  0.11537990388E+03 -0.97143275318E+02  0.41248953789E+03  0.50400001928E-02 0.  1.
       -1    1    3    3    0  502 -0.38392483729E+03 -0.11537990388E+03  0.65977584051E+03  0.77202005327E+03  0.50400001928E-02 0. -1.
</event>
<event>
 5   0  0.2510069E-04  0.1910544E+04  0.7818609E-02  0.8649626E-01
        1   -1    0    0  501    0  0.00000000000E+00  0.00000000000E+00  0.87409780430E+03  0.87409780432E+03  0.50400001928E-02 0. -1.
       -1   -1    0    0    0  501  0.00000000000E+00  0.00000000000E+00 -0.10439842487E+04  0.10439842487E+04  0.50400001928E-02 0.  1.
    10030    2    1    2    0    0  0.00000000000E+00  0.00000000000E+00 -0.16988644443E+03  0.19180820531E+04  0.19105437337E+04 0.  0.
        4    1    3    3  502    0  0.25914260465E+03  0.44709186971E+03  0.72165490732E+03  0.88759982406E+03  0.12699999809E+01 0. -1.
       -4    1    3    3    0  502 -0.25914260465E+03 -0.44709186971E+03 -0.89154135175E+03  0.10304822290E+04  0.12699999809E+01 0.  1.
</event>
<event>
 5   0  0.4802635E-04  0.1782461E+04  0.7818609E-02  0.8715683E-01
        2   -1    0    0  501    0  0.00000000000E+00  0.00000000000E+00  0.13355092274E+04  0.13355092274E+04  0.25500000920E-02 0. -1.
       -2   -1    0    0    0  501  0.00000000000E+00  0.00000000000E+00 -0.59474822034E+03  0.59474822034E+03  0.25500000920E-02 0.  1.
    10030    2    1    2    0    0  0.00000000000E+00  0.00000000000E+00  0.74076100709E+03  0.19302574478E+04  0.17824609238E+04 0.  0.
        3    1    3    3  502    0  0.34782410379E+03  0.51966637444E+03  0.10580601408E+04  0.12290345885E+04  0.10100000352E+00 0.  1.
       -3    1    3    3    0  502 -0.34782410379E+03 -0.51966637444E+03 -0.31729913373E+03  0.70122285928E+03  0.10100000352E+00 0. -1.
</event>
<event>
 5   0  0.2510069E-04  0.1769038E+04  0.7818609E-02  0.8722940E-01
       -1   -1    0    0    0  501  0.00000000000E+00  0.00000000000E+00  0.39886986044E+03  0.39886986047E+03  0.50400001928E-02 0.  1.
        1   -1    0    0  501    0  0.00000000000E+00  0.00000000000E+00 -0.19614766078E+04  0.19614766078E+04  0.50400001928E-02 0. -1.
    10030    2    1    2    0    0  0.00000000000E+00  0.00000000000E+00 -0.15626067473E+04  0.23603464683E+04  0.17690380446E+04 0.  0.
        4    1    3    3  502    0 -0.74397823852E+03  0.20959175883E+03 -0.20751206319E+03  0.80030943642E+03  0.12699999809E+01 0.  1.
       -4    1    3    3    0  502  0.74397823852E+03 -0.20959175883E+03 -0.13550946842E+04  0.15600370318E+04  0.12699999809E+01 0. -1.
</event>
<event>
 5   0  0.4802635E-04  0.1920413E+04  0.7818609E-02  0.8644762E-01
       -2   -1    0    0    0  501  0.00000000000E+00  0.00000000000E+00  0.45584886658E+03  0.45584886659E+03  0.25500000920E-02 0. -1.
        2   -1    0    0  501    0  0.00000000000E+00  0.00000000000E+00 -0.20225926434E+04  0.20225926434E+04  0.25500000920E-02 0.  1.
    10030    2    1    2    0    0  0.00000000000E+00  0.00000000000E+00 -0.15667437768E+04  0.24784415100E+04  0.19204130431E+04 0.  0.
        3    1    3    3  502    0 -0.68368523263E+03  0.40423107623E+03 -0.86976209219E+02  0.79899507600E+03  0.10100000352E+00 0. -1.
       -3    1    3    3    0  502  0.68368523263E+03 -0.40423107623E+03 -0.14797675676E+04  0.16794464340E+04  0.10100000352E+00 0.  1.
</event>
<event>
 5   0  0.4761944E-04  0.1852603E+04  0.7818609E-02  0.8678815E-01
        2   -1    0    0  501    0  0.00000000000E+00  0.00000000000E+00  0.17837476097E+04  0.17837476097E+04  0.25500000920E-02 0.  1.
       -2   -1    0    0    0  501  0.00000000000E+00  0.00000000000E+00 -0.48102904499E+03  0.48102904500E+03  0.25500000920E-02 0. -1.
    10030    2    1    2    0    0  0.00000000000E+00  0.00000000000E+00  0.13027185647E+04  0.22647766547E+04  0.18526029356E+04 0.  0.
        4    1    3    3  502    0  0.53524529488E+03  0.17691276588E+03  0.15499031232E+04  0.16492382958E+04  0.12699999809E+01 0.  1.
       -4    1    3    3    0  502 -0.53524529488E+03 -0.17691276588E+03 -0.24718455842E+03  0.61553835887E+03  0.12699999809E+01 0. -1.
</event>
<event>
 5   0  0.4829134E-04  0.1870893E+04  0.7818609E-02  0.8669482E-01
       -2   -1    0    0    0  501  0.00000000000E+00  0.00000000000E+00  0.73372425022E+03  0.73372425022E+03  0.25500000920E-02 0. -1.
        2   -1    0    0  501    0  0.00000000000E+00  0.00000000000E+00 -0.11926279955E+04  0.11926279955E+04  0.25500000920E-02 0.  1.
    10030    2    1    2    0    0  0.00000000000E+00  0.00000000000E+00 -0.45890374526E+03  0.19263522457E+04  0.18708929224E+04 0.  0.
        2    1    3    3  502    0 -0.15126226520E+03 -0.92313256130E+03 -0.22691235284E+03  0.96257114775E+03  0.25500000920E-02 0.  1.
       -2    1    3    3    0  502  0.15126226520E+03  0.92313256130E+03 -0.23199139242E+03  0.96378109795E+03  0.25500000920E-02 0. -1.
</event>
<event>
 5   0  0.4829134E-04  0.1821806E+04  0.7818609E-02  0.8694788E-01
        2   -1    0    0  501    0  0.00000000000E+00  0.00000000000E+00  0.90390081315E+03  0.90390081316E+03  0.25500000920E-02 0.  1.
       -2   -1    0    0    0  501  0.00000000000E+00  0.00000000000E+00 -0.91795955570E+03  0.91795955571E+03  0.25500000920E-02 0. -1.
    10030    2    1    2    0    0  0.00000000000E+00  0.00000000000E+00 -0.14058742552E+02  0.18218603689E+04  0.18218061245E+04 0.  0.
        2    1    3    3  502    0 -0.28000505710E+03 -0.24816375222E+03 -0.83756978845E+03  0.91733921232E+03  0.25500000920E-02 0. -1.
       -2    1    3    3    0  502  0.28000505710E+03  0.24816375222E+03  0.82351104590E+03  0.90452115655E+03  0.25500000920E-02 0.  1.
</event>
<event>
 5   0  0.2510069E-04  0.1857212E+04  0.7818609E-02  0.8676453E-01
        1   -1    0    0  501    0  0.00000000000E+00  0.00000000000E+00  0.93566476243E+03  0.93566476245E+03  0.50400001928E-02 0. -1.
       -1   -1    0    0    0  501  0.00000000000E+00  0.00000000000E+00 -0.92160096355E+03  0.92160096356E+03  0.50400001928E-02 0.  1.
    10030    2    1    2    0    0  0.00000000000E+00  0.00000000000E+00  0.14063798885E+02  0.18572657260E+04  0.18572124775E+04 0.  0.
        4    1    3    3  502    0  0.20826853158E+03 -0.74550979813E+03  0.52002545018E+03  0.93251741115E+03  0.12699999809E+01 0. -1.
       -4    1    3    3    0  502 -0.20826853158E+03  0.74550979813E+03 -0.50596165129E+03  0.92474831486E+03  0.12699999809E+01 0.  1.
</event>
<event>
 5   0  0.4829134E-04  0.1755397E+04  0.7818609E-02  0.8730385E-01
        2   -1    0    0  501    0  0.00000000000E+00  0.00000000000E+00  0.30037062862E+04  0.30037062862E+04  0.25500000920E-02 0.  1.
       -2   -1    0    0    0  501  0.00000000000E+00  0.00000000000E+00 -0.25646798463E+03  0.25646798465E+03  0.25500000920E-02 0. -1.
    10030    2    1    2    0    0  0.00000000000E+00  0.00000000000E+00  0.27472383016E+04  0.32601742708E+04  0.17553968186E+04 0.  0.
        2    1    3    3  502    0 -0.26095171009E+03 -0.30933966366E+03 -0.72836558296E+02  0.41120796046E+03  0.25500000920E-02 0. -1.
       -2    1    3    3    0  502  0.26095171009E+03  0.30933966366E+03  0.28200748599E+04  0.28489663104E+04  0.25500000920E-02 0.  1.
</event>
<event>
 5   0  0.4839293E-04  0.1109174E+04  0.7818609E-02  0.9196296E-01
       -2   -1    0    0    0  501  0.00000000000E+00  0.00000000000E+00  0.21680191899E+03  0.21680191901E+03  0.25500000920E-02 0.  1.
        2   -1    0    0  501    0  0.00000000000E+00  0.00000000000E+00 -0.14186532676E+04  0.14186532676E+04  0.25500000920E-02 0. -1.
    10030    2    1    2    0    0  0.00000000000E+00  0.00000000000E+00 -0.12018513486E+04  0.16354551867E+04  0.11091740185E+04 0.  0.
        5    1    3    3  502    0 -0.21164192871E+03  0.30950080823E+03  0.15607497268E+01  0.37497677557E+03  0.46999998093E+01 0.  1.
       -5    1    3    3    0  502  0.21164192871E+03 -0.30950080823E+03 -0.12034120984E+04  0.12604784111E+04  0.46999998093E+01 0. -1.
</event>
<event>
 5   0  0.4839293E-04  0.1756298E+04  0.7818609E-02  0.8729891E-01
       -2   -1    0    0    0  501  0.00000000000E+00  0.00000000000E+00  0.97766979390E+03  0.97766979391E+03  0.25500000920E-02 0. -1.
        2   -1    0    0  501    0  0.00000000000E+00  0.00000000000E+00 -0.78875878184E+03  0.78875878184E+03  0.25500000920E-02 0.  1.
    10030    2    1    2    0    0  0.00000000000E+00  0.00000000000E+00  0.18891101207E+03  0.17664285757E+04  0.17562979653E+04 0.  0.
        5    1    3    3  502    0  0.44042284290E+03 -0.59916846088E+03 -0.37530220756E+03  0.83297596728E+03  0.46999998093E+01 0.  1.
       -5    1    3    3    0  502 -0.44042284290E+03  0.59916846088E+03  0.56421321963E+03  0.93345260847E+03  0.46999998093E+01 0. -1.
</event>
<event>
 5   0  0.4802635E-04  0.1214980E+04  0.7818609E-02  0.9099844E-01
       -2   -1    0    0    0  501  0.00000000000E+00  0.00000000000E+00  0.36753126643E+03  0.36753126644E+03  0.25500000920E-02 0.  1.
        2   -1    0    0  501    0  0.00000000000E+00  0.00000000000E+00 -0.10041169405E+04  0.10041169405E+04  0.25500000920E-02 0. -1.
    10030    2    1    2    0    0  0.00000000000E+00  0.00000000000E+00 -0.63658567405E+03  0.13716482069E+04  0.12149804456E+04 0.  0.
        3    1    3    3  502    0  0.45835245647E+02  0.45725482312E+03  0.13025791443E+03  0.47765047627E+03  0.10100000352E+00 0.  1.
       -3    1    3    3    0  502 -0.45835245647E+02 -0.45725482312E+03 -0.76684358847E+03  0.89399773064E+03  0.10100000352E+00 0. -1.
</event>
<event>
 5   0  0.2355414E-04  0.1959189E+04  0.7818609E-02  0.8625943E-01
        1   -1    0    0  501    0  0.00000000000E+00  0.00000000000E+00  0.12555010338E+04  0.12555010338E+04  0.50400001928E-02 0. -1.
       -1   -1    0    0    0  501  0.00000000000E+00  0.00000000000E+00 -0.76432032052E+03  0.76432032054E+03  0.50400001928E-02 0.  1.
    10030    2    1    2    0    0  0.00000000000E+00  0.00000000000E+00  0.49118071323E+03  0.20198213543E+04  0.19591885591E+04 0.  0.
        5    1    3    3  502    0 -0.25955857184E+03  0.67850360058E+03  0.92307695482E+03  0.11746620547E+04  0.46999998093E+01 0. -1.
       -5    1    3    3    0  502  0.25955857184E+03 -0.67850360058E+03 -0.43189624159E+03  0.84515929961E+03  0.46999998093E+01 0.  1.
</event>
<event>
 5   0  0.2261755E-04  0.1872479E+04  0.7818609E-02  0.8668678E-01
        1   -1    0    0  501    0  0.00000000000E+00  0.00000000000E+00  0.98451339234E+03  0.98451339236E+03  0.50400001928E-02 0.  1.
       -1   -1    0    0    0  501  0.00000000000E+00  0.00000000000E+00 -0.89033287426E+03  0.89033287427E+03  0.50400001928E-02 0. -1.
    10030    2    1    2    0    0  0.00000000000E+00  0.00000000000E+00  0.94180518088E+02  0.18748462666E+04  0.18724792532E+04 0.  0.
        1    1    3    3  502    0 -0.83598717329E+03 -0.15415967075E+03  0.43989330214E+03  0.95715509468E+03  0.50400001928E-02 0.  1.
       -1    1    3    3    0  502  0.83598717329E+03  0.15415967075E+03 -0.34571278405E+03  0.91769117195E+03  0.50400001928E-02 0. -1.
</event>
<event>
 5   0  0.4802635E-04  0.1910233E+04  0.7818609E-02  0.8649779E-01
       -2   -1    0    0    0  501  0.00000000000E+00  0.00000000000E+00  0.90877380499E+03  0.90877380499E+03  0.25500000920E-02 0. -1.
        2   -1    0    0  501    0  0.00000000000E+00  0.00000000000E+00 -0.10038226689E+04  0.10038226689E+04  0.25500000920E-02 0.  1.
    10030    2    1    2    0    0  0.00000000000E+00  0.00000000000E+00 -0.95048863902E+02  0.19125964739E+04  0.19102332280E+04 0.  0.
        3    1    3    3  502    0 -0.73902290054E+02  0.27644351257E+03 -0.95989552762E+03  0.10016396549E+04  0.10100000352E+00 0.  1.
       -3    1    3    3    0  502  0.73902290054E+02 -0.27644351257E+03  0.86484666372E+03  0.91095681899E+03  0.10100000352E+00 0. -1.
</event>
<event>
 5   0  0.2376359E-04  0.1884277E+04  0.7818609E-02  0.8662723E-01
       -1   -1    0    0    0  501  0.00000000000E+00  0.00000000000E+00  0.10262999856E+04  0.10262999856E+04  0.50400001928E-02 0. -1.
        1   -1    0    0  501    0  0.00000000000E+00  0.00000000000E+00 -0.86487837948E+03  0.86487837949E+03  0.50400001928E-02 0.  1.
    10030    2    1    2    0    0  0.00000000000E+00  0.00000000000E+00  0.16142160615E+03  0.18911783651E+04  0.18842766978E+04 0.  0.
        2    1    3    3  502    0 -0.43862917132E+03  0.39255771199E+03 -0.65759730998E+03  0.88257086360E+03  0.25500000920E-02 0.  1.
       -2    1    3    3    0  502  0.43862917132E+03 -0.39255771199E+03  0.81901891613E+03  0.10086075015E+04  0.25500000920E-02 0. -1.
</event>
<event>
 5   0  0.4761944E-04  0.1894326E+04  0.7818609E-02  0.8657686E-01
       -2   -1    0    0    0  501  0.00000000000E+00  0.00000000000E+00  0.11849197068E+04  0.11849197068E+04  0.25500000920E-02 0. -1.
        2   -1    0    0  501    0  0.00000000000E+00  0.00000000000E+00 -0.75711267396E+03  0.75711267397E+03  0.25500000920E-02 0.  1.
    10030    2    1    2    0    0  0.00000000000E+00  0.00000000000E+00  0.42780703286E+03  0.19420323808E+04  0.18943259779E+04 0.  0.
        4    1    3    3  502    0 -0.64470831554E+03  0.69264874080E+03  0.25623534852E+03  0.98034139818E+03  0.12699999809E+01 0. -1.
       -4    1    3    3    0  502  0.64470831554E+03 -0.69264874080E+03  0.17157168433E+03  0.96169098260E+03  0.12699999809E+01 0.  1.
</event>
<event>
 5   0  0.2510069E-04  0.1902278E+04  0.7818609E-02  0.8653723E-01
        1   -1    0    0  501    0  0.00000000000E+00  0.00000000000E+00  0.85126289406E+03  0.85126289407E+03  0.50400001928E-02 0. -1.
       -1   -1    0    0    0  501  0.00000000000E+00  0.00000000000E+00 -0.10627328324E+04  0.10627328324E+04  0.50400001928E-02 0.  1.
    10030    2    1    2    0    0  0.00000000000E+00  0.00000000000E+00 -0.21146993830E+03  0.19139957264E+04  0.19022776101E+04 0.  0.
        4    1    3    3  502    0 -0.26008783329E+03 -0.23624528975E+03 -0.99503810468E+03  0.10552535054E+04  0.12699999809E+01 0.  1.
       -4    1    3    3    0  502  0.26008783329E+03  0.23624528975E+03  0.78356816638E+03  0.85874222106E+03  0.12699999809E+01 0. -1.
</event>
<event>
 5   0  0.4761944E-04  0.1885594E+04  0.7818609E-02  0.8662060E-01
       -2   -1    0    0    0  501  0.00000000000E+00  0.00000000000E+00  0.10246156638E+04  0.10246156638E+04  0.25500000920E-02 0. -1.
        2   -1    0    0  501    0  0.00000000000E+00  0.00000000000E+00 -0.86751224892E+03  0.86751224893E+03  0.25500000920E-02 0.  1.
    10030    2    1    2    0    0  0.00000000000E+00  0.00000000000E+00  0.15710341483E+03  0.18921279127E+04  0.18855944832E+04 0.  0.
        4    1    3    3  502    0 -0.27025634914E+03  0.90631390405E+02  0.98033815663E+03  0.10209393015E+04  0.12699999809E+01 0. -1.
       -4    1    3    3    0  502  0.27025634914E+03 -0.90631390405E+02 -0.82323474180E+03  0.87118861115E+03  0.12699999809E+01 0.  1.
</event>
<event>
 5   0  0.4973411E-04  0.1198663E+04  0.7818609E-02  0.9114028E-01
       -2   -1    0    0    0  501  0.00000000000E+00  0.00000000000E+00  0.43060512091E+03  0.43060512091E+03  0.25500000920E-02 0. -1.
        2   -1    0    0  501    0  0.00000000000E+00  0.00000000000E+00 -0.83417066891E+03  0.83417066892E+03  0.25500000920E-02 0.  1.
    10030    2    1    2    0    0  0.00000000000E+00  0.00000000000E+00 -0.40356554801E+03  0.12647757898E+04  0.11986628579E+04 0.  0.
        1    1    3    3  502    0  0.20595557071E+03 -0.11874043653E+02 -0.79552648362E+03  0.82184005511E+03  0.50400001928E-02 0.  1.
       -1    1    3    3    0  502 -0.20595557071E+03  0.11874043653E+02  0.39196093561E+03  0.44293573472E+03  0.50400001928E-02 0. -1.
</event>
<event>
 5   0  0.4829134E-04  0.1935821E+04  0.7818609E-02  0.8637229E-01
       -2   -1    0    0    0  501  0.00000000000E+00  0.00000000000E+00  0.83051419142E+03  0.83051419142E+03  0.25500000920E-02 0. -1.
        2   -1    0    0  501    0  0.00000000000E+00  0.00000000000E+00 -0.11280370562E+04  0.11280370562E+04  0.25500000920E-02 0.  1.
    10030    2    1    2    0    0  0.00000000000E+00  0.00000000000E+00 -0.29752286481E+03  0.19585512476E+04  0.19358210492E+04 0.  0.
        2    1    3    3  502    0  0.45031768156E+03 -0.49687402388E+03  0.55741771869E+03  0.87200018523E+03  0.25500000920E-02 0. -1.
       -2    1    3    3    0  502 -0.45031768156E+03  0.49687402388E+03 -0.85494058349E+03  0.10865510624E+04  0.25500000920E-02 0.  1.
</event>
<event>
 5   0  0.2317458E-04  0.1900292E+04  0.7818609E-02  0.8654711E-01
       -1   -1    0    0    0  501  0.00000000000E+00  0.00000000000E+00  0.50852008442E+03  0.50852008445E+03  0.50400001928E-02 0. -1.
        1   -1    0    0  501    0  0.00000000000E+00  0.00000000000E+00 -0.17753037312E+04  0.17753037312E+04  0.50400001928E-02 0.  1.
    10030    2    1    2    0    0  0.00000000000E+00  0.00000000000E+00 -0.12667836468E+04  0.22838238156E+04  0.19002921915E+04 0.  0.
        3    1    3    3  502    0 -0.28861475125E+03 -0.40973764269E+02 -0.17202323850E+04  0.17447569437E+04  0.10100000352E+00 0.  1.
       -3    1    3    3    0  502  0.28861475125E+03  0.40973764269E+02  0.45344873824E+03  0.53906687193E+03  0.10100000352E+00 0. -1.
</event>
<event>
 5   0  0.2261755E-04  0.1881484E+04  0.7818609E-02  0.8664128E-01
       -1   -1    0    0    0  501  0.00000000000E+00  0.00000000000E+00  0.10354389916E+04  0.10354389916E+04  0.50400001928E-02 0.  1.
        1   -1    0    0  501    0  0.00000000000E+00  0.00000000000E+00 -0.85470588181E+03  0.85470588182E+03  0.50400001928E-02 0. -1.
    10030    2    1    2    0    0  0.00000000000E+00  0.00000000000E+00  0.18073310980E+03  0.18901448734E+04  0.18814843038E+04 0.  0.
        1    1    3    3  502    0 -0.58275399562E+02 -0.93416592505E+03  0.18532040388E+03  0.95415179601E+03  0.50400001928E-02 0. -1.
       -1    1    3    3    0  502  0.58275399562E+02  0.93416592505E+03 -0.45872940861E+01  0.93599307743E+03  0.50400001928E-02 0.  1.
</event>
<event>
 5   0  0.2376359E-04  0.9402064E+03  0.7818609E-02  0.9376672E-01
       -1   -1    0    0    0  501  0.00000000000E+00  0.00000000000E+00  0.54820107620E+03  0.54820107622E+03  0.50400001928E-02 0.  1.
        1   -1    0    0  501    0  0.00000000000E+00  0.00000000000E+00 -0.40313131190E+03  0.40313131193E+03  0.50400001928E-02 0. -1.
    10030    2    1    2    0    0  0.00000000000E+00  0.00000000000E+00  0.14506976430E+03  0.95133238815E+03  0.94020640086E+03 0.  0.
        2    1    3    3  502    0 -0.39634320181E+03 -0.24944719795E+03  0.30998148872E+02  0.46933221009E+03  0.25500000920E-02 0. -1.
       -2    1    3    3    0  502  0.39634320181E+03  0.24944719795E+03  0.11407161543E+03  0.48200017805E+03  0.25500000920E-02 0.  1.
</event>
<event>
 5   0  0.4829134E-04  0.1899570E+04  0.7818609E-02  0.8655071E-01
        2   -1    0    0  501    0  0.00000000000E+00  0.00000000000E+00  0.69851179458E+03  0.69851179459E+03  0.25500000920E-02 0.  1.
       -2   -1    0    0    0  501  0.00000000000E+00  0.00000000000E+00 -0.12914476026E+04  0.12914476026E+04  0.25500000920E-02 0. -1.
    10030    2    1    2    0    0  0.00000000000E+00  0.00000000000E+00 -0.59293580800E+03  0.19899593972E+04  0.18995698276E+04 0.  0.
        2    1    3    3  502    0  0.33653959045E+03 -0.71616874852E+03  0.25382282789E+03  0.83101299644E+03  0.25500000920E-02 0.  1.
       -2    1    3    3    0  502 -0.33653959045E+03  0.71616874852E+03 -0.84675863589E+03  0.11589464007E+04  0.25500000920E-02 0. -1.
</event>
<event>
 5   0  0.4839293E-04  0.1885985E+04  0.7818609E-02  0.8661864E-01
        2   -1    0    0  501    0  0.00000000000E+00  0.00000000000E+00  0.10780047455E+04  0.10780047455E+04  0.25500000920E-02 0. -1.
       -2   -1    0    0    0  501  0.00000000000E+00  0.00000000000E+00 -0.82488994148E+03  0.82488994148E+03  0.25500000920E-02 0.  1.
    10030    2    1    2    0    0  0.00000000000E+00  0.00000000000E+00  0.25311480405E+03  0.19028946870E+04  0.18859854416E+04 0.  0.
        5    1    3    3  502    0 -0.86587183660E+02 -0.17766833964E+03  0.10568598133E+04  0.10751921383E+04  0.46999998093E+01 0. -1.
       -5    1    3    3    0  502  0.86587183660E+02  0.17766833964E+03 -0.80374500924E+03  0.82770254872E+03  0.46999998093E+01 0.  1.
</event>
<event>
 5   0  0.2261755E-04  0.1898343E+04  0.7818609E-02  0.8655682E-01
        1   -1    0    0  501    0  0.00000000000E+00  0.00000000000E+00  0.13985765336E+04  0.13985765336E+04  0.50400001928E-02 0. -1.
       -1   -1    0    0    0  501  0.00000000000E+00  0.00000000000E+00 -0.64417364645E+03  0.64417364647E+03  0.50400001928E-02 0.  1.
    10030    2    1    2    0    0  0.00000000000E+00  0.00000000000E+00  0.75440288718E+03  0.20427501801E+04  0.18983425882E+04 0.  0.
        1    1    3    3  502    0  0.84242461930E+03 -0.13573649255E+03  0.82454462475E+03  0.11865822655E+04  0.50400001928E-02 0.  1.
       -1    1    3    3    0  502 -0.84242461930E+03  0.13573649255E+03 -0.70141737564E+02  0.85616791459E+03  0.50400001928E-02 0. -1.
</event>
<event>
 5   0  0.4973411E-04  0.1846128E+04  0.7818609E-02  0.8682147E-01
       -2   -1    0    0    0  501  0.00000000000E+00  0.00000000000E+00  0.39288086120E+03  0.39288086121E+03  0.25500000920E-02 0.  1.
        2   -1    0    0  501    0  0.00000000000E+00  0.00000000000E+00 -0.21687160718E+04  0.21687160718E+04  0.25500000920E-02 0. -1.
    10030    2    1    2    0    0  0.00000000000E+00  0.00000000000E+00 -0.17758352106E+04  0.25615969330E+04  0.18461278808E+04 0.  0.
        1    1    3    3  502    0  0.74077102015E+03  0.43537894660E+03 -0.13558958705E+04  0.16052258853E+04  0.50400001928E-02 0. -1.
       -1    1    3    3    0  502 -0.74077102015E+03 -0.43537894660E+03 -0.41993934017E+03  0.95637104770E+03  0.50400001928E-02 0.  1.
</event>
<event>
 5   0  0.2261755E-04  0.1917830E+04  0.7818609E-02  0.8646032E-01
       -1   -1    0    0    0  501  0.00000000000E+00  0.00000000000E+00  0.88506316198E+03  0.88506316199E+03  0.50400001928E-02 0.  1.
        1   -1    0    0  501    0  0.00000000000E+00  0.00000000000E+00 -0.10389287383E+04  0.10389287383E+04  0.50400001928E-02 0. -1.
    10030    2    1    2    0    0  0.00000000000E+00  0.00000000000E+00 -0.15386557634E+03  0.19239919003E+04  0.19178295589E+04 0.  0.
        1    1    3    3  502    0  0.50705012766E+03  0.10665490506E+03  0.73253185904E+03  0.89726140297E+03  0.50400001928E-02 0.  1.
       -1    1    3    3    0  502 -0.50705012766E+03 -0.10665490506E+03 -0.88639743537E+03  0.10267304974E+04  0.50400001928E-02 0. -1.
</event>
<event>
 5   0  0.4839293E-04  0.1885727E+04  0.7818609E-02  0.8661994E-01
        2   -1    0    0  501    0  0.00000000000E+00  0.00000000000E+00  0.11129076971E+04  0.11129076971E+04  0.25500000920E-02 0. -1.
       -2   -1    0    0    0  501  0.00000000000E+00  0.00000000000E+00 -0.79880119044E+03  0.79880119045E+03  0.25500000920E-02 0.  1.
    10030    2    1    2    0    0  0.00000000000E+00  0.00000000000E+00  0.31410650665E+03  0.19117088875E+04  0.18857274387E+04 0.  0.
        5    1    3    3  502    0  0.26915418664E+03 -0.33673392978E+03 -0.69303215920E+03  0.81617974695E+03  0.46999998093E+01 0.  1.
       -5    1    3    3    0  502 -0.26915418664E+03  0.33673392978E+03  0.10071386658E+04  0.10955291406E+04  0.46999998093E+01 0. -1.
</event>
<event>
 5   0  0.4973411E-04  0.1863771E+04  0.7818609E-02  0.8673103E-01
        2   -1    0    0  501    0  0.00000000000E+00  0.00000000000E+00  0.25370805995E+04  0.25370805995E+04  0.25500000920E-02 0.  1.
       -2   -1    0    0    0  501  0.00000000000E+00  0.00000000000E+00 -0.34228737759E+03  0.34228737760E+03  0.25500000920E-02 0. -1.
    10030    2    1    2    0    0  0.00000000000E+00  0.00000000000E+00  0.21947932220E+04  0.28793679772E+04  0.18637710859E+04 0.  0.
        1    1    3    3  502    0 -0.83598368994E+03  0.18132254868E+03  0.16685224032E+04  0.18750236282E+04  0.50400001928E-02 0.  1.
       -1    1    3    3    0  502  0.83598368994E+03 -0.18132254868E+03  0.52627081880E+03  0.10043443489E+04  0.50400001928E-02 0. -1.
</event>
<event>
 5   0  0.4839293E-04  0.1944792E+04  0.7818609E-02  0.8632876E-01
        2   -1    0    0  501    0  0.00000000000E+00  0.00000000000E+00  0.15589969062E+04  0.15589969062E+04  0.25500000920E-02 0.  1.
       -2   -1    0    0    0  501  0.00000000000E+00  0.00000000000E+00 -0.60651429505E+03  0.60651429506E+03  0.25500000920E-02 0. -1.
    10030    2    1    2    0    0  0.00000000000E+00  0.00000000000E+00  0.95248261117E+03  0.21655112013E+04  0.19447919267E+04 0.  0.
        5    1    3    3  502    0  0.47229062465E+03 -0.44094347830E+03 -0.33289487581E+03  0.72686358660E+03  0.46999998093E+01 0. -1.
       -5    1    3    3    0  502 -0.47229062465E+03  0.44094347830E+03  0.12853774870E+04  0.14386476147E+04  0.46999998093E+01 0.  1.
</event>
<event>
 5   0  0.4839293E-04  0.1855484E+04  0.7818609E-02  0.8677338E-01
        2   -1    0    0  501    0  0.00000000000E+00  0.00000000000E+00  0.90778372660E+03  0.90778372660E+03  0.25500000920E-02 0.  1.
       -2   -1    0    0    0  501  0.00000000000E+00  0.00000000000E+00 -0.94813881903E+03  0.94813881904E+03  0.25500000920E-02 0. -1.
    10030    2    1    2    0    0  0.00000000000E+00  0.00000000000E+00 -0.40355092434E+02  0.18559225456E+04  0.18554837542E+04 0.  0.
        5    1    3    3  502    0 -0.48093269261E+03 -0.43175789529E+03  0.64554108910E+03  0.91348591816E+03  0.46999998093E+01 0.  1.
       -5    1    3    3    0  502  0.48093269261E+03  0.43175789529E+03 -0.68589618153E+03  0.94243662747E+03  0.46999998093E+01 0. -1.
</event>
<event>
 5   0  0.2376359E-04  0.1906254E+04  0.7818609E-02  0.8651749E-01
       -1   -1    0    0    0  501  0.00000000000E+00  0.00000000000E+00  0.53749425739E+03  0.53749425742E+03  0.50400001928E-02 0. -1.
        1   -1    0    0  501    0  0.00000000000E+00  0.00000000000E+00 -0.16901603283E+04  0.16901603283E+04  0.50400001928E-02 0.  1.
    10030    2    1    2    0    0  0.00000000000E+00  0.00000000000E+00 -0.11526660709E+04  0.22276545857E+04  0.19062544117E+04 0.  0.
        2    1    3    3  502    0 -0.72827614172E+01 -0.60203282247E+03  0.28713323711E+03  0.66703976928E+03  0.25500000920E-02 0. -1.
       -2    1    3    3    0  502  0.72827614172E+01  0.60203282247E+03 -0.14397993080E+04  0.15606148164E+04  0.25500000920E-02 0.  1.
</event>
<event>
 5   0  0.4802635E-04  0.1903149E+04  0.7818609E-02  0.8653290E-01
        2   -1    0    0  501    0  0.00000000000E+00  0.00000000000E+00  0.13381639563E+04  0.13381639563E+04  0.25500000920E-02 0. -1.
       -2   -1    0    0    0  501  0.00000000000E+00  0.00000000000E+00 -0.67666925926E+03  0.67666925926E+03  0.25500000920E-02 0.  1.
    10030    2    1    2    0    0  0.00000000000E+00  0.00000000000E+00  0.66149469706E+03  0.20148332156E+04  0.19031494036E+04 0.  0.
        3    1    3    3  502    0 -0.80175231020E+03  0.49428951825E+03  0.47421952709E+03  0.10545203008E+04  0.10100000352E+00 0.  1.
       -3    1    3    3    0  502  0.80175231020E+03 -0.49428951825E+03  0.18727516997E+03  0.96031291476E+03  0.10100000352E+00 0. -1.
</event>
<event>
 5   0  0.2376359E-04  0.1919727E+04  0.7818609E-02  0.8645099E-01
        1   -1    0    0  501    0  0.00000000000E+00  0.00000000000E+00  0.75465740812E+03  0.75465740813E+03  0.50400001928E-02 0. -1.
       -1   -1    0    0    0  501  0.00000000000E+00  0.00000000000E+00 -0.12208694614E+04  0.12208694614E+04  0.50400001928E-02 0.  1.
    10030    2    1    2    0    0  0.00000000000E+00  0.00000000000E+00 -0.46621205328E+03  0.19755268695E+04  0.19197272550E+04 0.  0.
        2    1    3    3  502    0  0.27280251982E+03  0.76127098817E+03 -0.76522736224E+03  0.11133407601E+04  0.25500000920E-02 0.  1.
       -2    1    3    3    0  502 -0.27280251982E+03 -0.76127098817E+03  0.29901530897E+03  0.86218610940E+03  0.25500000920E-02 0. -1.
</event>
<event>
 5   0  0.4761944E-04  0.1915585E+04  0.7818609E-02  0.8647138E-01
        2   -1    0    0  501    0  0.00000000000E+00  0.00000000000E+00  0.10775388437E+04  0.10775388437E+04  0.25500000920E-02 0.  1.
       -2   -1    0    0    0  501  0.00000000000E+00  0.00000000000E+00 -0.85135323703E+03  0.85135323703E+03  0.25500000920E-02 0. -1.
    10030    2    1    2    0    0  0.00000000000E+00  0.00000000000E+00  0.22618560669E+03  0.19288920808E+04  0.19155846968E+04 0.  0.
        4    1    3    3  502    0 -0.95184333311E+03  0.10402293085E+03  0.89735350545E+02  0.96170710040E+03  0.12699999809E+01 0. -1.
       -4    1    3    3    0  502  0.95184333311E+03 -0.10402293085E+03  0.13645025614E+03  0.96718498035E+03  0.12699999809E+01 0.  1.
</event>
<event>
 5   0  0.2317458E-04  0.1030916E+04  0.7818609E-02  0.9275272E-01
        1   -1    0    0  501    0  0.00000000000E+00  0.00000000000E+00  0.89212039627E+03  0.89212039628E+03  0.50400001928E-02 0.  1.
       -1   -1    0    0    0  501  0.00000000000E+00  0.00000000000E+00 -0.29782621827E+03  0.29782621832E+03  0.50400001928E-02 0. -1.
    10030    2    1    2    0    0  0.00000000000E+00  0.00000000000E+00  0.59429417799E+03  0.11899466146E+04  0.10309157946E+04 0.  0.
        3    1    3    3  502    0  0.50903371468E+03 -0.81107168622E+02  0.29510231470E+03  0.59395208715E+03  0.10100000352E+00 0. -1.
       -3    1    3    3    0  502 -0.50903371468E+03  0.81107168622E+02  0.29919186329E+03  0.59599452745E+03  0.10100000352E+00 0.  1.
</event>
<event>
 5   0  0.4802635E-04  0.1598698E+04  0.7818609E-02  0.8821349E-01
       -2   -1    0    0    0  501  0.00000000000E+00  0.00000000000E+00  0.13611781378E+04  0.13611781378E+04  0.25500000920E-02 0. -1.
        2   -1    0    0  501    0  0.00000000000E+00  0.00000000000E+00 -0.46941575284E+03  0.46941575285E+03  0.25500000920E-02 0.  1.
    10030    2    1    2    0    0  0.00000000000E+00  0.00000000000E+00  0.89176238497E+03  0.18305938907E+04  0.15986975453E+04 0.  0.
        3    1    3    3  502    0 -0.73980751141E+03 -0.29175635925E+03  0.53835105596E+03  0.96034306201E+03  0.10100000352E+00 0.  1.
       -3    1    3    3    0  502  0.73980751141E+03  0.29175635925E+03  0.35341132902E+03  0.87025082866E+03  0.10100000352E+00 0. -1.
</event>
<event>
 5   0  0.2510069E-04  0.1940551E+04  0.7818609E-02  0.8634931E-01
       -1   -1    0    0    0  501  0.00000000000E+00  0.00000000000E+00  0.92897694075E+03  0.92897694077E+03  0.50400001928E-02 0. -1.
        1   -1    0    0  501    0  0.00000000000E+00  0.00000000000E+00 -0.10134097490E+04  0.10134097490E+04  0.50400001928E-02 0.  1.
    10030    2    1    2    0    0  0.00000000000E+00  0.00000000000E+00 -0.84432808210E+02  0.19423866897E+04  0.19405507346E+04 0.  0.
        4    1    3    3  502    0  0.75167628117E+02 -0.24158792061E+03 -0.97980843434E+03  0.10119491472E+04  0.12699999809E+01 0.  1.
       -4    1    3    3    0  502 -0.75167628117E+02  0.24158792061E+03  0.89537562613E+03  0.93043754249E+03  0.12699999809E+01 0. -1.
</event>
<event>
 5   0  0.4973411E-04  0.1880316E+04  0.7818609E-02  0.8664717E-01
        2   -1    0    0  501    0  0.00000000000E+00  0.00000000000E+00  0.15272722755E+04  0.15272722755E+04  0.25500000920E-02 0. -1.
       -2   -1    0    0    0  501  0.00000000000E+00  0.00000000000E+00 -0.57874255456E+03  0.57874255457E+03  0.25500000920E-02 0.  1.
    10030    2    1    2    0    0  0.00000000000E+00  0.00000000000E+00  0.94852972099E+03  0.21060148301E+04  0.18803164183E+04 0.  0.
        1    1    3    3  502    0  0.44219103741E+03 -0.51931496144E+03 -0.25045437314E+03  0.72660053385E+03  0.50400001928E-02 0.  1.
       -1    1    3    3    0  502 -0.44219103741E+03  0.51931496144E+03  0.11989840941E+04  0.13794142963E+04  0.50400001928E-02 0. -1.
</event>
<event>
 5   0  0.2355414E-04  0.1963705E+04  0.7818609E-02  0.8623780E-01
        1   -1    0    0  501    0  0.00000000000E+00  0.00000000000E+00  0.15483385221E+04  0.15483385221E+04  0.50400001928E-02 0. -1.
       -1   -1    0    0    0  501  0.00000000000E+00  0.00000000000E+00 -0.62262524614E+03  0.62262524616E+03  0.50400001928E-02 0.  1.
    10030    2    1    2    0    0  0.00000000000E+00  0.00000000000E+00  0.92571327596E+03  0.21709637683E+04  0.19637053277E+04 0.  0.
        5    1    3    3  502    0 -0.30850391809E+03 -0.92483158711E+03  0.59142548997E+03  0.11403044910E+04  0.46999998093E+01 0. -1.
       -5    1    3    3    0  502  0.30850391809E+03  0.92483158711E+03  0.33428778600E+03  0.10306592773E+04  0.46999998093E+01 0.  1.
</event>
<event>
 5   0  0.2510069E-04  0.1586471E+04  0.7818609E-02  0.8828903E-01
       -1   -1    0    0    0  501  0.00000000000E+00  0.00000000000E+00  0.80619936245E+03  0.80619936246E+03  0.50400001928E-02 0. -1.
        1   -1    0    0  501    0  0.00000000000E+00  0.00000000000E+00 -0.78048017840E+03  0.78048017842E+03  0.50400001928E-02 0.  1.
    10030    2    1    2    0    0  0.00000000000E+00  0.00000000000E+00  0.25719184048E+02  0.15866795409E+04  0.15864710804E+04 0.  0.
        4    1    3    3  502    0  0.59047889618E+03 -0.30752318407E+03  0.44417624306E+03  0.80033117106E+03  0.12699999809E+01 0.  1.
       -4    1    3    3    0  502 -0.59047889618E+03  0.30752318407E+03 -0.41845705901E+03  0.78634836982E+03  0.12699999809E+01 0. -1.
</event>
<event>
 5   0  0.4802635E-04  0.1884906E+04  0.7818609E-02  0.8662407E-01
        2   -1    0    0  501    0  0.00000000000E+00  0.00000000000E+00  0.99196280809E+03  0.99196280810E+03  0.25500000920E-02 0. -1.
       -2   -1    0    0    0  501  0.00000000000E+00  0.00000000000E+00 -0.89541380936E+03  0.89541380936E+03  0.25500000920E-02 0.  1.
    10030    2    1    2    0    0  0.00000000000E+00  0.00000000000E+00  0.96548998735E+02  0.18873766175E+04  0.18849055114E+04 0.  0.
        3    1    3    3  502    0 -0.70498115604E+03 -0.35016641727E+03 -0.47067344759E+03  0.91714145835E+03  0.10100000352E+00 0. -1.
       -3    1    3    3    0  502  0.70498115604E+03  0.35016641727E+03  0.56722244633E+03  0.97023515911E+03  0.10100000352E+00 0.  1.
</event>
<event>
 5   0  0.2355414E-04  0.1878626E+04  0.7818609E-02  0.8665569E-01
        1   -1    0    0  501    0  0.00000000000E+00  0.00000000000E+00  0.73156702924E+03  0.73156702925E+03  0.50400001928E-02 0. -1.
       -1   -1    0    0    0  501  0.00000000000E+00  0.00000000000E+00 -0.12060537142E+04  0.12060537142E+04  0.50400001928E-02 0.  1.
    10030    2    1    2    0    0  0.00000000000E+00  0.00000000000E+00 -0.47448668499E+03  0.19376207435E+04  0.18786262351E+04 0.  0.
        5    1    3    3  502    0  0.58240939423E+03  0.47580328691E+03  0.34318787142E+03  0.82667374182E+03  0.46999998093E+01 0. -1.
       -5    1    3    3    0  502 -0.58240939423E+03 -0.47580328691E+03 -0.81767455641E+03  0.11109470017E+04  0.46999998093E+01 0.  1.
</event>
<event>
 5   0  0.2317458E-04  0.1897039E+04  0.7818609E-02  0.8656332E-01
        1   -1    0    0  501    0  0.00000000000E+00  0.00000000000E+00  0.12275700531E+04  0.12275700531E+04  0.50400001928E-02 0.  1.
       -1   -1    0    0    0  501  0.00000000000E+00  0.00000000000E+00 -0.73290257071E+03  0.73290257072E+03  0.50400001928E-02 0. -1.
    10030    2    1    2    0    0  0.00000000000E+00  0.00000000000E+00  0.49466748235E+03  0.19604726238E+04  0.18970390061E+04 0.  0.
        3    1    3    3  502    0 -0.58959079756E+03 -0.61939830358E+03 -0.17677609923E+03  0.87322469416E+03  0.10100000352E+00 0. -1.
       -3    1    3    3    0  502  0.58959079756E+03  0.61939830358E+03  0.67144358158E+03  0.10872479296E+04  0.10100000352E+00 0.  1.
</event>
<event>
 5   0  0.2376359E-04  0.1908754E+04  0.7818609E-02  0.8650511E-01
        1   -1    0    0  501    0  0.00000000000E+00  0.00000000000E+00  0.13719818848E+04  0.13719818848E+04  0.50400001928E-02 0. -1.
       -1   -1    0    0    0  501  0.00000000000E+00  0.00000000000E+00 -0.66388312261E+03  0.66388312263E+03  0.50400001928E-02 0.  1.
    10030    2    1    2    0    0  0.00000000000E+00  0.00000000000E+00  0.70809876217E+03  0.20358650074E+04  0.19087541674E+04 0.  0.
        2    1    3    3  502    0 -0.21556190221E+03  0.69960402513E+03  0.10071347566E+04  0.12450835890E+04  0.25500000920E-02 0. -1.
       -2    1    3    3    0  502  0.21556190221E+03 -0.69960402513E+03 -0.29903599446E+03  0.79078141838E+03  0.25500000920E-02 0.  1.
</event>
<event>
 5   0  0.4829134E-04  0.1772651E+04  0.7818609E-02  0.8720980E-01
        2   -1    0    0  501    0  0.00000000000E+00  0.00000000000E+00  0.14404819472E+04  0.14404819472E+04  0.25500000920E-02 0.  1.
       -2   -1    0    0    0  501  0.00000000000E+00  0.00000000000E+00 -0.54535435233E+03  0.54535435234E+03  0.25500000920E-02 0. -1.
    10030    2    1    2    0    0  0.00000000000E+00  0.00000000000E+00  0.89512759490E+03  0.19858362996E+04  0.17726512340E+04 0.  0.
        2    1    3    3  502    0 -0.45293090691E+03  0.73464169838E+03  0.67364690723E+03  0.10948264644E+04  0.25500000920E-02 0. -1.
       -2    1    3    3    0  502  0.45293090691E+03 -0.73464169838E+03  0.22148068767E+03  0.89100983521E+03  0.25500000920E-02 0.  1.
</event>
<event>
 5   0  0.2376359E-04  0.1882125E+04  0.7818609E-02  0.8663806E-01
        1   -1    0    0  501    0  0.00000000000E+00  0.00000000000E+00  0.16684318615E+04  0.16684318615E+04  0.50400001928E-02 0. -1.
       -1   -1    0    0    0  501  0.00000000000E+00  0.00000000000E+00 -0.53079676755E+03  0.53079676758E+03  0.50400001928E-02 0.  1.
    10030    2    1    2    0    0  0.00000000000E+00  0.00000000000E+00  0.11376350939E+04  0.21992286290E+04  0.18821245856E+04 0.  0.
        2    1    3    3  502    0  0.19945287735E+03 -0.88652696364E+03  0.85476571447E+03  0.12475319371E+04  0.25500000920E-02 0. -1.
       -2    1    3    3    0  502 -0.19945287735E+03  0.88652696364E+03  0.28286937943E+03  0.95169669190E+03  0.25500000920E-02 0.  1.
</event>
<event>
 5   0  0.2376359E-04  0.1867085E+04  0.7818609E-02  0.8671416E-01
       -1   -1    0    0    0  501  0.00000000000E+00  0.00000000000E+00  0.48849565526E+03  0.48849565528E+03  0.50400001928E-02 0. -1.
        1   -1    0    0  501    0  0.00000000000E+00  0.00000000000E+00 -0.17840526807E+04  0.17840526807E+04  0.50400001928E-02 0.  1.
    10030    2    1    2    0    0  0.00000000000E+00  0.00000000000E+00 -0.12955570254E+04  0.22725483360E+04  0.18670854113E+04 0.  0.
        2    1    3    3  502    0  0.73676033319E+03 -0.39475197472E+03 -0.14172957062E+03  0.84778073893E+03  0.25500000920E-02 0. -1.
       -2    1    3    3    0  502 -0.73676033319E+03  0.39475197472E+03 -0.11538274548E+04  0.14247675970E+04  0.25500000920E-02 0.  1.
</event>
<event>
 5   0  0.2317458E-04  0.2039235E+04  0.7818609E-02  0.8588494E-01
       -1   -1    0    0    0  501  0.00000000000E+00  0.00000000000E+00  0.78060722015E+03  0.78060722017E+03  0.50400001928E-02 0. -1.
        1   -1    0    0  501    0  0.00000000000E+00  0.00000000000E+00 -0.13318090384E+04  0.13318090384E+04  0.50400001928E-02 0.  1.
    10030    2    1    2    0    0  0.00000000000E+00  0.00000000000E+00 -0.55120181828E+03  0.21124162586E+04  0.20392349068E+04 0.  0.
        3    1    3    3  502    0  0.14321991666E+03 -0.95970566074E+03 -0.60000522517E+03  0.11408563364E+04  0.10100000352E+00 0.  1.
       -3    1    3    3    0  502 -0.14321991666E+03  0.95970566074E+03  0.48803406886E+02  0.97155992225E+03  0.10100000352E+00 0. -1.
</event>
<event>
 5   0  0.4973411E-04  0.1859744E+04  0.7818609E-02  0.8675158E-01
        2   -1    0    0  501    0  0.00000000000E+00  0.00000000000E+00  0.17802630784E+04  0.17802630784E+04  0.25500000920E-02 0. -1.
       -2   -1    0    0    0  501  0.00000000000E+00  0.00000000000E+00 -0.48569349481E+03  0.48569349482E+03  0.25500000920E-02 0.  1.
    10030    2    1    2    0    0  0.00000000000E+00  0.00000000000E+00  0.12945695836E+04  0.22659565732E+04  0.18597442795E+04 0.  0.
        1    1    3    3  502    0  0.38543255330E+03  0.31372103630E+03  0.16048783027E+04  0.16800635430E+04  0.50400001928E-02 0. -1.
       -1    1    3    3    0  502 -0.38543255330E+03 -0.31372103630E+03 -0.31030871912E+03  0.58589303029E+03  0.50400001928E-02 0.  1.
</event>
<event>
 5   0  0.4761944E-04  0.1858217E+04  0.7818609E-02  0.8675939E-01
        2   -1    0    0  501    0  0.00000000000E+00  0.00000000000E+00  0.11499808743E+04  0.11499808743E+04  0.25500000920E-02 0. -1.
       -2   -1    0    0    0  501  0.00000000000E+00  0.00000000000E+00 -0.75065807893E+03  0.75065807893E+03  0.25500000920E-02 0.  1.
    10030    2    1    2    0    0  0.00000000000E+00  0.00000000000E+00  0.39932279533E+03  0.19006389532E+04  0.18582168161E+04 0.  0.
        4    1    3    3  502    0  0.51067197274E+03 -0.72814172823E+02  0.99005982696E+03  0.11163815841E+04  0.12699999809E+01 0. -1.
       -4    1    3    3    0  502 -0.51067197274E+03  0.72814172823E+02 -0.59073703163E+03  0.78425736907E+03  0.12699999809E+01 0.  1.
</event>
<event>
 5   0  0.2261755E-04  0.1710391E+04  0.7818609E-02  0.8755460E-01
        1   -1    0    0  501    0  0.00000000000E+00  0.00000000000E+00  0.11104052513E+04  0.11104052513E+04  0.50400001928E-02 0.  1.
       -1   -1    0    0    0  501  0.00000000000E+00  0.00000000000E+00 -0.65864169534E+03  0.65864169536E+03  0.50400001928E-02 0. -1.
    10030    2    1    2    0    0  0.00000000000E+00  0.00000000000E+00  0.45176355599E+03  0.17690469467E+04  0.17103908293E+04 0.  0.
        1    1    3    3  502    0 -0.12091989821E+03 -0.51920757559E+03  0.91751523212E+03  0.10611467050E+04  0.50400001928E-02 0.  1.
       -1    1    3    3    0  502  0.12091989821E+03  0.51920757559E+03 -0.46575167613E+03  0.70790024169E+03  0.50400001928E-02 0. -1.
</event>
<event>
 5   0  0.4973411E-04  0.2063134E+04  0.7818609E-02  0.8577659E-01
        2   -1    0    0  501    0  0.00000000000E+00  0.00000000000E+00  0.17320200888E+04  0.17320200888E+04  0.25500000920E-02 0. -1.
       -2   -1    0    0    0  501  0.00000000000E+00  0.00000000000E+00 -0.61438667150E+03  0.61438667151E+03  0.25500000920E-02 0.  1.
    10030    2    1    2    0    0  0.00000000000E+00  0.00000000000E+00  0.11176334173E+04  0.23464067603E+04  0.20631335946E+04 0.  0.
        1    1    3    3  502    0 -0.10009956173E+04 -0.23698316856E+03  0.64674135857E+03  0.12150833852E+04  0.50400001928E-02 0.  1.
       -1    1    3    3    0  502  0.10009956173E+04  0.23698316856E+03  0.47089205870E+03  0.11313233751E+04  0.50400001928E-02 0. -1.
</event>
<event>
 5   0  0.4761944E-04  0.1935531E+04  0.7818609E-02  0.8637370E-01
       -2   -1    0    0    0  501  0.00000000000E+00  0.00000000000E+00  0.41634580392E+03  0.41634580393E+03  0.25500000920E-02 0.  1.
        2   -1    0    0  501    0  0.00000000000E+00  0.00000000000E+00 -0.22494997021E+04  0.22494997021E+04  0.25500000920E-02 0. -1.
    10030    2    1    2    0    0  0.00000000000E+00  0.00000000000E+00 -0.18331538982E+04  0.26658455061E+04  0.19355306889E+04 0.  0.
        4    1    3    3  502    0 -0.64313825868E+03  0.50965574000E+03 -0.16231735619E+04  0.18188100005E+04  0.12699999809E+01 0. -1.
       -4    1    3    3    0  502  0.64313825868E+03 -0.50965574000E+03 -0.20998033632E+03  0.84703550554E+03  0.12699999809E+01 0.  1.
</event>
<event>
 5   0  0.4839293E-04  0.1930768E+04  0.7818609E-02  0.8639691E-01
       -2   -1    0    0    0  501  0.00000000000E+00  0.00000000000E+00  0.11835028570E+04  0.11835028570E+04  0.25500000920E-02 0. -1.
        2   -1    0    0  501    0  0.00000000000E+00  0.00000000000E+00 -0.78746444366E+03  0.78746444366E+03  0.25500000920E-02 0.  1.
    10030    2    1    2    0    0  0.00000000000E+00  0.00000000000E+00  0.39603841331E+03  0.19709673006E+04  0.19307681568E+04 0.  0.
        5    1    3    3  502    0  0.37382275448E+03  0.13611337000E+03  0.10959198866E+04  0.11659042795E+04  0.46999998093E+01 0. -1.
       -5    1    3    3    0  502 -0.37382275448E+03 -0.13611337000E+03 -0.69988147328E+03  0.80506302107E+03  0.46999998093E+01 0.  1.
</event>
<event>
 5   0  0.4973411E-04  0.1767203E+04  0.7818609E-02  0.8723938E-01
        2   -1    0    0  501    0  0.00000000000E+00  0.00000000000E+00  0.15479562110E+04  0.15479562110E+04  0.25500000920E-02 0. -1.
       -2   -1    0    0    0  501  0.00000000000E+00  0.00000000000E+00 -0.50437574582E+03  0.50437574583E+03  0.25500000920E-02 0.  1.
    10030    2    1    2    0    0  0.00000000000E+00  0.00000000000E+00  0.10435804651E+04  0.20523319568E+04  0.17672029520E+04 0.  0.
        1    1    3    3  502    0 -0.89769976397E+02 -0.29567658519E+03  0.14831622853E+04  0.15150094574E+04  0.50400001928E-02 0. -1.
       -1    1    3    3    0  502  0.89769976397E+02  0.29567658519E+03 -0.43958182013E+03  0.53732249934E+03  0.50400001928E-02 0.  1.
</event>
<event>
 5   0  0.4839293E-04  0.1905479E+04  0.7818609E-02  0.8652134E-01
        2   -1    0    0  501    0  0.00000000000E+00  0.00000000000E+00  0.26665471837E+04  0.26665471837E+04  0.25500000920E-02 0. -1.
       -2   -1    0    0    0  501  0.00000000000E+00  0.00000000000E+00 -0.34040762192E+03  0.34040762193E+03  0.25500000920E-02 0.  1.
    10030    2    1    2    0    0  0.00000000000E+00  0.00000000000E+00  0.23261395617E+04  0.30069548056E+04  0.19054794520E+04 0.  0.
        5    1    3    3  502    0  0.92626993718E+03  0.10803475843E+03  0.85527430253E+03  0.12653709844E+04  0.46999998093E+01 0. -1.
       -5    1    3    3    0  502 -0.92626993718E+03 -0.10803475843E+03  0.14708652592E+04  0.17415838212E+04  0.46999998093E+01 0.  1.
</event>
<event>
 5   0  0.4973411E-04  0.1892292E+04  0.7818609E-02  0.8658703E-01
       -2   -1    0    0    0  501  0.00000000000E+00  0.00000000000E+00  0.49084585485E+03  0.49084585486E+03  0.25500000920E-02 0. -1.
        2   -1    0    0  501    0  0.00000000000E+00  0.00000000000E+00 -0.18237743717E+04  0.18237743717E+04  0.25500000920E-02 0.  1.
    10030    2    1    2    0    0  0.00000000000E+00  0.00000000000E+00 -0.13329285169E+04  0.23146202266E+04  0.18922918280E+04 0.  0.
        1    1    3    3  502    0  0.47428391653E+03  0.64688076150E+03 -0.52684287382E+02  0.80385047567E+03  0.50400001928E-02 0. -1.
       -1    1    3    3    0  502 -0.47428391653E+03 -0.64688076150E+03 -0.12802442295E+04  0.15107697509E+04  0.50400001928E-02 0.  1.
</event>
<event>
 5   0  0.2510069E-04  0.1899165E+04  0.7818609E-02  0.8655272E-01
        1   -1    0    0  501    0  0.00000000000E+00  0.00000000000E+00  0.79867746265E+03  0.79867746266E+03  0.50400001928E-02 0.  1.
       -1   -1    0    0    0  501  0.00000000000E+00  0.00000000000E+00 -0.11290003262E+04  0.11290003262E+04  0.50400001928E-02 0. -1.
    10030    2    1    2    0    0  0.00000000000E+00  0.00000000000E+00 -0.33032286352E+03  0.19276777888E+04  0.18991652017E+04 0.  0.
        4    1    3    3  502    0  0.83264564852E+02 -0.83136694368E+03  0.29283511908E+03  0.88535755639E+03  0.12699999809E+01 0.  1.
       -4    1    3    3    0  502 -0.83264564852E+02  0.83136694368E+03 -0.62315798260E+03  0.10423202325E+04  0.12699999809E+01 0. -1.
</event>
<event>
 5   0  0.2317458E-04  0.1997069E+04  0.7818609E-02  0.8607992E-01
       -1   -1    0    0    0  501  0.00000000000E+00  0.00000000000E+00  0.10069183466E+04  0.10069183466E+04  0.50400001928E-02 0. -1.
        1   -1    0    0  501    0  0.00000000000E+00  0.00000000000E+00 -0.99022043091E+03  0.99022043093E+03  0.50400001928E-02 0.  1.
    10030    2    1    2    0    0  0.00000000000E+00  0.00000000000E+00  0.16697915670E+02  0.19971387775E+04  0.19970689713E+04 0.  0.
        3    1    3    3  502    0  0.51261851470E+03 -0.67075762250E+03 -0.52494032567E+03  0.99411060023E+03  0.10100000352E+00 0.  1.
       -3    1    3    3    0  502 -0.51261851470E+03  0.67075762250E+03  0.54163824134E+03  0.10030281773E+04  0.10100000352E+00 0. -1.
</event>
<event>
 5   0  0.4973411E-04  0.1587924E+04  0.7818609E-02  0.8828002E-01
        2   -1    0    0  501    0  0.00000000000E+00  0.00000000000E+00  0.77637381240E+03  0.77637381240E+03  0.25500000920E-02 0.  1.
       -2   -1    0    0    0  501  0.00000000000E+00  0.00000000000E+00 -0.81194816779E+03  0.81194816779E+03  0.25500000920E-02 0. -1.
    10030    2    1    2    0    0  0.00000000000E+00  0.00000000000E+00 -0.35574355393E+02  0.15883219802E+04  0.15879235429E+04 0.  0.
        1    1    3    3  502    0  0.19304693431E+03  0.66157923380E+03 -0.41212091765E+03  0.80299305865E+03  0.50400001928E-02 0. -1.
       -1    1    3    3    0  502 -0.19304693431E+03 -0.66157923380E+03  0.37654656226E+03  0.78532892155E+03  0.50400001928E-02 0.  1.
</event>
<event>
 5   0  0.2376359E-04  0.1785641E+04  0.7818609E-02  0.8713973E-01
       -1   -1    0    0    0  501  0.00000000000E+00  0.00000000000E+00  0.13193967996E+04  0.13193967997E+04  0.50400001928E-02 0.  1.
        1   -1    0    0  501    0  0.00000000000E+00  0.00000000000E+00 -0.60416107291E+03  0.60416107293E+03  0.50400001928E-02 0. -1.
    10030    2    1    2    0    0  0.00000000000E+00  0.00000000000E+00  0.71523572674E+03  0.19235578726E+04  0.17856407098E+04 0.  0.
        2    1    3    3  502    0  0.75512108959E+03  0.14860953367E+03 -0.12992614805E+03  0.78049564854E+03  0.25500000920E-02 0.  1.
       -2    1    3    3    0  502 -0.75512108959E+03 -0.14860953367E+03  0.84516187479E+03  0.11430622240E+04  0.25500000920E-02 0. -1.
</event>
<event>
 5   0  0.4829134E-04  0.1945330E+04  0.7818609E-02  0.8632616E-01
        2   -1    0    0  501    0  0.00000000000E+00  0.00000000000E+00  0.16308273020E+04  0.16308273020E+04  0.25500000920E-02 0.  1.
       -2   -1    0    0    0  501  0.00000000000E+00  0.00000000000E+00 -0.58012110379E+03  0.58012110379E+03  0.25500000920E-02 0. -1.
    10030    2    1    2    0    0  0.00000000000E+00  0.00000000000E+00  0.10507061982E+04  0.22109484058E+04  0.19453301360E+04 0.  0.
        2    1    3    3  502    0  0.58410900312E+03  0.58118636338E+03 -0.62049122240E+02  0.82632379252E+03  0.25500000920E-02 0. -1.
       -2    1    3    3    0  502 -0.58410900312E+03 -0.58118636338E+03  0.11127553205E+04  0.13846246133E+04  0.25500000920E-02 0.  1.
</event>
<event>
 5   0  0.2510069E-04  0.1829468E+04  0.7818609E-02  0.8690784E-01
        1   -1    0    0  501    0  0.00000000000E+00  0.00000000000E+00  0.11614195337E+04  0.11614195337E+04  0.50400001928E-02 0. -1.
       -1   -1    0    0    0  501  0.00000000000E+00  0.00000000000E+00 -0.72044481596E+03  0.72044481598E+03  0.50400001928E-02 0.  1.
    10030    2    1    2    0    0  0.00000000000E+00  0.00000000000E+00  0.44097471772E+03  0.18818643497E+04  0.18294684280E+04 0.  0.
        4    1    3    3  502    0 -0.17245707168E+03 -0.44799171052E+03  0.10214400070E+04  0.11286183213E+04  0.12699999809E+01 0. -1.
       -4    1    3    3    0  502  0.17245707168E+03  0.44799171052E+03 -0.58046528931E+03  0.75324602838E+03  0.12699999809E+01 0.  1.
</event>
<event>
 5   0  0.4839293E-04  0.1884883E+04  0.7818609E-02  0.8662418E-01
        2   -1    0    0  501    0  0.00000000000E+00  0.00000000000E+00  0.79935697979E+03  0.79935697979E+03  0.25500000920E-02 0.  1.
       -2   -1    0    0    0  501  0.00000000000E+00  0.00000000000E+00 -0.11111381475E+04  0.11111381475E+04  0.25500000920E-02 0. -1.
    10030    2    1    2    0    0  0.00000000000E+00  0.00000000000E+00 -0.31178116769E+03  0.19104951273E+04  0.18848830560E+04 0.  0.
        5    1    3    3  502    0  0.75530185858E+03  0.27336019505E+03 -0.65550549664E+03  0.10367816742E+04  0.46999998093E+01 0. -1.
       -5    1    3    3    0  502 -0.75530185858E+03 -0.27336019505E+03  0.34372432894E+03  0.87371345309E+03  0.46999998093E+01 0.  1.
</event>
<event>
 5   0  0.2261755E-04  0.1892988E+04  0.7818609E-02  0.8658354E-01
        1   -1    0    0  501    0  0.00000000000E+00  0.00000000000E+00  0.11729048909E+04  0.11729048909E+04  0.50400001928E-02 0. -1.
       -1   -1    0    0    0  501  0.00000000000E+00  0.00000000000E+00 -0.76378844457E+03  0.76378844459E+03  0.50400001928E-02 0.  1.
    10030    2    1    2    0    0  0.00000000000E+00  0.00000000000E+00  0.40911644631E+03  0.19366933355E+04  0.18929883278E+04 0.  0.
        1    1    3    3  502    0 -0.58629006707E+03  0.58293037008E+03  0.67596457466E+03  0.10679288203E+04  0.50400001928E-02 0. -1.
       -1    1    3    3    0  502  0.58629006707E+03 -0.58293037008E+03 -0.26684812835E+03  0.86876451513E+03  0.50400001928E-02 0.  1.
</event>
<event>
 5   0  0.4973411E-04  0.1909744E+04  0.7818609E-02  0.8650021E-01
        2   -1    0    0  501    0  0.00000000000E+00  0.00000000000E+00  0.18182302252E+04  0.18182302252E+04  0.25500000920E-02 0. -1.
       -2   -1    0    0    0  501  0.00000000000E+00  0.00000000000E+00 -0.50146585122E+03  0.50146585122E+03  0.25500000920E-02 0.  1.
    10030    2    1    2    0    0  0.00000000000E+00  0.00000000000E+00  0.13167643740E+04  0.23196960764E+04  0.19097438232E+04 0.  0.
        1    1    3    3  502    0 -0.93753704426E+02 -0.89027645841E+03  0.25479493633E+03  0.93075366725E+03  0.50400001928E-02 0.  1.
       -1    1    3    3    0  502  0.93753704426E+02  0.89027645841E+03  0.10619694377E+04  0.13889424092E+04  0.50400001928E-02 0. -1.
</event>
<event>
 5   0  0.2376359E-04  0.1873114E+04  0.7818609E-02  0.8668356E-01
        1   -1    0    0  501    0  0.00000000000E+00  0.00000000000E+00  0.18098058923E+04  0.18098058923E+04  0.50400001928E-02 0.  1.
       -1   -1    0    0    0  501  0.00000000000E+00  0.00000000000E+00 -0.48465891141E+03  0.48465891144E+03  0.50400001928E-02 0. -1.
    10030    2    1    2    0    0  0.00000000000E+00  0.00000000000E+00  0.13251469809E+04  0.22944648037E+04  0.18731135082E+04 0.  0.
        2    1    3    3  502    0 -0.71763772693E+03  0.29397990677E+03  0.19376614289E+02  0.77575997956E+03  0.25500000920E-02 0. -1.
       -2    1    3    3    0  502  0.71763772693E+03 -0.29397990677E+03  0.13057703666E+04  0.15187048242E+04  0.25500000920E-02 0.  1.
</event>
<event>
 5   0  0.2376359E-04  0.1941210E+04  0.7818609E-02  0.8634611E-01
        1   -1    0    0  501    0  0.00000000000E+00  0.00000000000E+00  0.90797916582E+03  0.90797916583E+03  0.50400001928E-02 0. -1.
       -1   -1    0    0    0  501  0.00000000000E+00  0.00000000000E+00 -0.10375500085E+04  0.10375500085E+04  0.50400001928E-02 0.  1.
    10030    2    1    2    0    0  0.00000000000E+00  0.00000000000E+00 -0.12957084271E+03  0.19455291744E+04  0.19412097169E+04 0.  0.
        2    1    3    3  502    0 -0.44260791441E+03 -0.63394493315E+03  0.52327896121E+03  0.93359992257E+03  0.25500000920E-02 0. -1.
       -2    1    3    3    0  502  0.44260791441E+03  0.63394493315E+03 -0.65284980391E+03  0.10119292518E+04  0.25500000920E-02 0.  1.
</event>
<event>
 5   0  0.2355414E-04  0.1930248E+04  0.7818609E-02  0.8639945E-01
        1   -1    0    0  501    0  0.00000000000E+00  0.00000000000E+00  0.15074611748E+04  0.15074611748E+04  0.50400001928E-02 0. -1.
       -1   -1    0    0    0  501  0.00000000000E+00  0.00000000000E+00 -0.61790246020E+03  0.61790246022E+03  0.50400001928E-02 0.  1.
    10030    2    1    2    0    0  0.00000000000E+00  0.00000000000E+00  0.88955871458E+03  0.21253636350E+04  0.19302476200E+04 0.  0.
        5    1    3    3  502    0 -0.45558004330E+02  0.29065503615E+03  0.14568696886E+04  0.14862863995E+04  0.46999998093E+01 0. -1.
       -5    1    3    3    0  502  0.45558004330E+02 -0.29065503615E+03 -0.56731097398E+03  0.63907723555E+03  0.46999998093E+01 0.  1.
</event>
<event>
 5   0  0.2355414E-04  0.1865948E+04  0.7818609E-02  0.8671994E-01
        1   -1    0    0  501    0  0.00000000000E+00  0.00000000000E+00  0.35417039969E+03  0.35417039972E+03  0.50400001928E-02 0.  1.
       -1   -1    0    0    0  501  0.00000000000E+00  0.00000000000E+00 -0.24576879636E+04  0.24576879636E+04  0.50400001928E-02 0. -1.
    10030    2    1    2    0    0  0.00000000000E+00  0.00000000000E+00 -0.21035175639E+04  0.28118583633E+04  0.18659478325E+04 0.  0.
        5    1    3    3  502    0  0.22554355620E+03  0.39009369492E+03  0.17930057122E+03  0.48498842398E+03  0.46999998093E+01 0.  1.
       -5    1    3    3    0  502 -0.22554355620E+03 -0.39009369492E+03 -0.22828181351E+04  0.23268699393E+04  0.46999998093E+01 0. -1.
</event>
<event>
 5   0  0.2510069E-04  0.1884353E+04  0.7818609E-02  0.8662684E-01
       -1   -1    0    0    0  501  0.00000000000E+00  0.00000000000E+00  0.30852650505E+03  0.30852650509E+03  0.50400001928E-02 0.  1.
        1   -1    0    0  501    0  0.00000000000E+00  0.00000000000E+00 -0.28772138914E+04  0.28772138914E+04  0.50400001928E-02 0. -1.
    10030    2    1    2    0    0  0.00000000000E+00  0.00000000000E+00 -0.25686873863E+04  0.31857403965E+04  0.18843532007E+04 0.  0.
        4    1    3    3  502    0 -0.39723470064E+03  0.54451871108E+03 -0.23973357761E+04  0.24902844156E+04  0.12699999809E+01 0. -1.
       -4    1    3    3    0  502  0.39723470064E+03 -0.54451871108E+03 -0.17135161018E+03  0.69545598087E+03  0.12699999809E+01 0.  1.
</event>
<event>
 5   0  0.4761944E-04  0.2134435E+04  0.7818609E-02  0.8546225E-01
        2   -1    0    0  501    0  0.00000000000E+00  0.00000000000E+00  0.18466865703E+04  0.18466865703E+04  0.25500000920E-02 0.  1.
       -2   -1    0    0    0  501  0.00000000000E+00  0.00000000000E+00 -0.61675476776E+03  0.61675476777E+03  0.25500000920E-02 0. -1.
    10030    2    1    2    0    0  0.00000000000E+00  0.00000000000E+00  0.12299318025E+04  0.24634413381E+04  0.21344345826E+04 0.  0.
        4    1    3    3  502    0  0.16090524406E+03 -0.26950758885E+03 -0.56227416937E+03  0.64395550502E+03  0.12699999809E+01 0. -1.
       -4    1    3    3    0  502 -0.16090524406E+03  0.26950758885E+03  0.17922059719E+04  0.18194858330E+04  0.12699999809E+01 0.  1.
</event>
<event>
 5   0  0.4973411E-04  0.1932048E+04  0.7818609E-02  0.8639066E-01
        2   -1    0    0  501    0  0.00000000000E+00  0.00000000000E+00  0.62618448256E+03  0.62618448257E+03  0.25500000920E-02 0. -1.
       -2   -1    0    0    0  501  0.00000000000E+00  0.00000000000E+00 -0.14902995096E+04  0.14902995096E+04  0.25500000920E-02 0.  1.
    10030    2    1    2    0    0  0.00000000000E+00  0.00000000000E+00 -0.86411502706E+03  0.21164839922E+04  0.19320480608E+04 0.  0.
        1    1    3    3  502    0 -0.93243354822E+03  0.20125792278E+03 -0.59914806583E+03  0.11264614854E+04  0.50400001928E-02 0.  1.
       -1    1    3    3    0  502  0.93243354822E+03 -0.20125792278E+03 -0.26496696123E+03  0.99002250677E+03  0.50400001928E-02 0. -1.
</event>
<event>
 5   0  0.4839293E-04  0.1895263E+04  0.7818609E-02  0.8657218E-01
       -2   -1    0    0    0  501  0.00000000000E+00  0.00000000000E+00  0.82041807933E+03  0.82041807934E+03  0.25500000920E-02 0. -1.
        2   -1    0    0  501    0  0.00000000000E+00  0.00000000000E+00 -0.10945705281E+04  0.10945705282E+04  0.25500000920E-02 0.  1.
    10030    2    1    2    0    0  0.00000000000E+00  0.00000000000E+00 -0.27415244882E+03  0.19149886075E+04  0.18952629901E+04 0.  0.
        5    1    3    3  502    0 -0.69773912493E+03 -0.61954694349E+03  0.29886018544E+02  0.93359175540E+03  0.46999998093E+01 0.  1.
       -5    1    3    3    0  502  0.69773912493E+03  0.61954694349E+03 -0.30403846736E+03  0.98139685209E+03  0.46999998093E+01 0. -1.
</event>
<event>
 5   0  0.4829134E-04  0.1893556E+04  0.7818609E-02  0.8658071E-01
       -2   -1    0    0    0  501  0.00000000000E+00  0.00000000000E+00  0.69635372499E+03  0.69635372499E+03  0.25500000920E-02 0.  1.
        2   -1    0    0  501    0  0.00000000000E+00  0.00000000000E+00 -0.12872600026E+04  0.12872600026E+04  0.25500000920E-02 0. -1.
    10030    2    1    2    0    0  0.00000000000E+00  0.00000000000E+00 -0.59090627757E+03  0.19836137275E+04  0.18935557006E+04 0.  0.
        2    1    3    3  502    0 -0.13279771885E+03  0.93013134773E+03 -0.41765785678E+03  0.10282108945E+04  0.25500000920E-02 0.  1.
       -2    1    3    3    0  502  0.13279771885E+03 -0.93013134773E+03 -0.17324842079E+03  0.95540283309E+03  0.25500000920E-02 0. -1.
</event>
<event>
 5   0  0.2376359E-04  0.1964623E+04  0.7818609E-02  0.8623341E-01
        1   -1    0    0  501    0  0.00000000000E+00  0.00000000000E+00  0.10356312286E+04  0.10356312286E+04  0.50400001928E-02 0. -1.
       -1   -1    0    0    0  501  0.00000000000E+00  0.00000000000E+00 -0.93173733763E+03  0.93173733765E+03  0.50400001928E-02 0.  1.
    10030    2    1    2    0    0  0.00000000000E+00  0.00000000000E+00  0.10389389095E+03  0.19673685662E+04  0.19646234079E+04 0.  0.
        2    1    3    3  502    0 -0.22556376219E+03 -0.32731455334E+03  0.95149074588E+03  0.10311878913E+04  0.25500000920E-02 0. -1.
       -2    1    3    3    0  502  0.22556376219E+03  0.32731455334E+03 -0.84759685494E+03  0.93618067495E+03  0.25500000920E-02 0.  1.
</event>
<event>
 5   0  0.2261755E-04  0.1953355E+04  0.7818609E-02  0.8628745E-01
        1   -1    0    0  501    0  0.00000000000E+00  0.00000000000E+00  0.12650001609E+04  0.12650001609E+04  0.50400001928E-02 0.  1.
       -1   -1    0    0    0  501  0.00000000000E+00  0.00000000000E+00 -0.75407033157E+03  0.75407033159E+03  0.50400001928E-02 0. -1.
    10030    2    1    2    0    0  0.00000000000E+00  0.00000000000E+00  0.51092982928E+03  0.20190704925E+04  0.19533551554E+04 0.  0.
        1    1    3    3  502    0 -0.13335722627E+01  0.70322557765E+03  0.95603582963E+03  0.11868161185E+04  0.50400001928E-02 0.  1.
       -1    1    3    3    0  502  0.13335722627E+01 -0.70322557765E+03 -0.44510600034E+03  0.83225437400E+03  0.50400001928E-02 0. -1.
</event>
<event>
 5   0  0.4839293E-04  0.1881890E+04  0.7818609E-02  0.8663924E-01
       -2   -1    0    0    0  501  0.00000000000E+00  0.00000000000E+00  0.59450904825E+03  0.59450904826E+03  0.25500000920E-02 0. -1.
        2   -1    0    0  501    0  0.00000000000E+00  0.00000000000E+00 -0.14892587476E+04  0.14892587476E+04  0.25500000920E-02 0.  1.
    10030    2    1    2    0    0  0.00000000000E+00  0.00000000000E+00 -0.89474969938E+03  0.20837677959E+04  0.18818903269E+04 0.  0.
        5    1    3    3  502    0 -0.84221101683E+03  0.15801038448E+00  0.17200448159E+02  0.84239976689E+03  0.46999998093E+01 0.  1.
       -5    1    3    3    0  502  0.84221101683E+03 -0.15801038448E+00 -0.91195014754E+03  0.12413680290E+04  0.46999998093E+01 0. -1.
</event>
<event>
 5   0  0.4973411E-04  0.1271429E+04  0.7818609E-02  0.9052534E-01
       -2   -1    0    0    0  501  0.00000000000E+00  0.00000000000E+00  0.32701698656E+03  0.32701698657E+03  0.25500000920E-02 0. -1.
        2   -1    0    0  501    0  0.00000000000E+00  0.00000000000E+00 -0.12358160135E+04  0.12358160135E+04  0.25500000920E-02 0.  1.
    10030    2    1    2    0    0  0.00000000000E+00  0.00000000000E+00 -0.90879902696E+03  0.15628330001E+04  0.12714288477E+04 0.  0.
        1    1    3    3  502    0 -0.27077823380E+03  0.19552605561E+03  0.21048156159E+03  0.39478320395E+03  0.50400001928E-02 0. -1.
       -1    1    3    3    0  502  0.27077823380E+03 -0.19552605561E+03 -0.11192805886E+04  0.11680497961E+04  0.50400001928E-02 0.  1.
</event>
<event>
 5   0  0.2355414E-04  0.1834513E+04  0.7818609E-02  0.8688158E-01
       -1   -1    0    0    0  501  0.00000000000E+00  0.00000000000E+00  0.64472387355E+03  0.64472387357E+03  0.50400001928E-02 0. -1.
        1   -1    0    0  501    0  0.00000000000E+00  0.00000000000E+00 -0.13049913905E+04  0.13049913905E+04  0.50400001928E-02 0.  1.
    10030    2    1    2    0    0  0.00000000000E+00  0.00000000000E+00 -0.66026751693E+03  0.19497152640E+04  0.18345125829E+04 0.  0.
        5    1    3    3  502    0 -0.25772971842E+03  0.65431751594E+03 -0.95599512041E+03  0.11868044404E+04  0.46999998093E+01 0.  1.
       -5    1    3    3    0  502  0.25772971842E+03 -0.65431751594E+03  0.29572760349E+03  0.76291082368E+03  0.46999998093E+01 0. -1.
</event>
<event>
 5   0  0.2317458E-04  0.1933198E+04  0.7818609E-02  0.8638506E-01
       -1   -1    0    0    0  501  0.00000000000E+00  0.00000000000E+00  0.40399079422E+03  0.40399079425E+03  0.50400001928E-02 0.  1.
        1   -1    0    0  501    0  0.00000000000E+00  0.00000000000E+00 -0.23127107992E+04  0.23127107992E+04  0.50400001928E-02 0. -1.
    10030    2    1    2    0    0  0.00000000000E+00  0.00000000000E+00 -0.19087200050E+04  0.27167015935E+04  0.19331982543E+04 0.  0.
        3    1    3    3  502    0  0.19323572658E+03  0.91195136180E+03 -0.13135165141E+04  0.16106895962E+04  0.10100000352E+00 0.  1.
       -3    1    3    3    0  502 -0.19323572658E+03 -0.91195136180E+03 -0.59520349089E+03  0.11060119973E+04  0.10100000352E+00 0. -1.
</event>
<event>
 5   0  0.4839293E-04  0.1907939E+04  0.7818609E-02  0.8650914E-01
        2   -1    0    0  501    0  0.00000000000E+00  0.00000000000E+00  0.15177362480E+04  0.15177362480E+04  0.25500000920E-02 0. -1.
       -2   -1    0    0    0  501  0.00000000000E+00  0.00000000000E+00 -0.59961551906E+03  0.59961551907E+03  0.25500000920E-02 0.  1.
    10030    2    1    2    0    0  0.00000000000E+00  0.00000000000E+00  0.91812072895E+03  0.21173517671E+04  0.19079394206E+04 0.  0.
        5    1    3    3  502    0 -0.85059506857E+03  0.43186412126E+03  0.46370656283E+03  0.10606905563E+04  0.46999998093E+01 0. -1.
       -5    1    3    3    0  502  0.85059506857E+03 -0.43186412126E+03  0.45441416612E+03  0.10566612107E+04  0.46999998093E+01 0.  1.
</event>
<event>
 5   0  0.2317458E-04  0.1783738E+04  0.7818609E-02  0.8714996E-01
       -1   -1    0    0    0  501  0.00000000000E+00  0.00000000000E+00  0.67667572786E+03  0.67667572788E+03  0.50400001928E-02 0. -1.
        1   -1    0    0  501    0  0.00000000000E+00  0.00000000000E+00 -0.11754969768E+04  0.11754969768E+04  0.50400001928E-02 0.  1.
    10030    2    1    2    0    0  0.00000000000E+00  0.00000000000E+00 -0.49882124897E+03  0.18521727047E+04  0.17837379543E+04 0.  0.
        3    1    3    3  502    0 -0.14175463610E+03 -0.47253912429E+03  0.52209082599E+03  0.71830804090E+03  0.10100000352E+00 0. -1.
       -3    1    3    3    0  502  0.14175463610E+03  0.47253912429E+03 -0.10209120750E+04  0.11338646638E+04  0.10100000352E+00 0.  1.
</event>
<event>
 5   0  0.4839293E-04  0.1833407E+04  0.7818609E-02  0.8688733E-01
       -2   -1    0    0    0  501  0.00000000000E+00  0.00000000000E+00  0.69013977171E+03  0.69013977172E+03  0.25500000920E-02 0.  1.
        2   -1    0    0  501    0  0.00000000000E+00  0.00000000000E+00 -0.12176447260E+04  0.12176447260E+04  0.25500000920E-02 0. -1.
    10030    2    1    2    0    0  0.00000000000E+00  0.00000000000E+00 -0.52750495432E+03  0.19077844978E+04  0.18334067233E+04 0.  0.
        5    1    3    3  502    0 -0.47132069114E+02  0.84938241305E+03 -0.61915034484E+03  0.10521602326E+04  0.46999998093E+01 0. -1.
       -5    1    3    3    0  502  0.47132069114E+02 -0.84938241305E+03  0.91645390519E+02  0.85562426516E+03  0.46999998093E+01 0.  1.
</event>
<event>
 5   0  0.2376359E-04  0.1896805E+04  0.7818609E-02  0.8656448E-01
        1   -1    0    0  501    0  0.00000000000E+00  0.00000000000E+00  0.19111108603E+04  0.19111108603E+04  0.50400001928E-02 0. -1.
       -1   -1    0    0    0  501  0.00000000000E+00  0.00000000000E+00 -0.47065168842E+03  0.47065168844E+03  0.50400001928E-02 0.  1.
    10030    2    1    2    0    0  0.00000000000E+00  0.00000000000E+00  0.14404591719E+04  0.23817625488E+04  0.18968052649E+04 0.  0.
        2    1    3    3  502    0 -0.46767904087E+03 -0.21847616204E+03 -0.27880770409E+03  0.58667644790E+03  0.25500000920E-02 0.  1.
       -2    1    3    3    0  502  0.46767904087E+03  0.21847616204E+03  0.17192668760E+04  0.17950861009E+04  0.25500000920E-02 0. -1.
</event>
<event>
 5   0  0.4973411E-04  0.1925346E+04  0.7818609E-02  0.8642342E-01
       -2   -1    0    0    0  501  0.00000000000E+00  0.00000000000E+00  0.52293381151E+03  0.52293381152E+03  0.25500000920E-02 0. -1.
        2   -1    0    0  501    0  0.00000000000E+00  0.00000000000E+00 -0.17721929973E+04  0.17721929973E+04  0.25500000920E-02 0.  1.
    10030    2    1    2    0    0  0.00000000000E+00  0.00000000000E+00 -0.12492591858E+04  0.22951268088E+04  0.19253463468E+04 0.  0.
        1    1    3    3  502    0 -0.60769965838E+02 -0.93677707708E+03 -0.87889153706E+03  0.12859605806E+04  0.50400001928E-02 0. -1.
       -1    1    3    3    0  502  0.60769965838E+02  0.93677707708E+03 -0.37036764869E+03  0.10091662282E+04  0.50400001928E-02 0.  1.
</event>
<event>
 5   0  0.2376359E-04  0.1950255E+04  0.7818609E-02  0.8630238E-01
       -1   -1    0    0    0  501  0.00000000000E+00  0.00000000000E+00  0.93313377493E+03  0.93313377494E+03  0.50400001928E-02 0.  1.
        1   -1    0    0  501    0  0.00000000000E+00  0.00000000000E+00 -0.10190110286E+04  0.10190110286E+04  0.50400001928E-02 0. -1.
    10030    2    1    2    0    0  0.00000000000E+00  0.00000000000E+00 -0.85877253630E+02  0.19521448035E+04  0.19502549657E+04 0.  0.
        2    1    3    3  502    0 -0.77628300505E+03  0.48792976389E+03 -0.37519830206E+03  0.99068891399E+03  0.25500000920E-02 0. -1.
       -2    1    3    3    0  502  0.77628300505E+03 -0.48792976389E+03  0.28932104843E+03  0.96145588952E+03  0.25500000920E-02 0.  1.
</event>
<event>
 5   0  0.4761944E-04  0.1780613E+04  0.7818609E-02  0.8716678E-01
       -2   -1    0    0    0  501  0.00000000000E+00  0.00000000000E+00  0.95690652780E+03  0.95690652780E+03  0.25500000920E-02 0.  1.
        2   -1    0    0  501    0  0.00000000000E+00  0.00000000000E+00 -0.82834148592E+03  0.82834148593E+03  0.25500000920E-02 0. -1.
    10030    2    1    2    0    0  0.00000000000E+00  0.00000000000E+00  0.12856504187E+03  0.17852480137E+04  0.17806126756E+04 0.  0.
        4    1    3    3  502    0 -0.37427857733E+03  0.36693625837E+03  0.78582053927E+03  0.94458573141E+03  0.12699999809E+01 0.  1.
       -4    1    3    3    0  502  0.37427857733E+03 -0.36693625837E+03 -0.65725549739E+03  0.84066228231E+03  0.12699999809E+01 0. -1.
</event>
<event>
 5   0  0.2510069E-04  0.1291524E+04  0.7818609E-02  0.9036314E-01
        1   -1    0    0  501    0  0.00000000000E+00  0.00000000000E+00  0.47001077637E+03  0.47001077640E+03  0.50400001928E-02 0.  1.
       -1   -1    0    0    0  501  0.00000000000E+00  0.00000000000E+00 -0.88723222585E+03  0.88723222587E+03  0.50400001928E-02 0. -1.
    10030    2    1    2    0    0  0.00000000000E+00  0.00000000000E+00 -0.41722144948E+03  0.13572430023E+04  0.12915242271E+04 0.  0.
        4    1    3    3  502    0 -0.59258215863E+03  0.17764563327E+02 -0.47764109819E+03  0.76132241923E+03  0.12699999809E+01 0. -1.
       -4    1    3    3    0  502  0.59258215863E+03 -0.17764563327E+02  0.60419648707E+02  0.59592058304E+03  0.12699999809E+01 0.  1.
</event>
<event>
 5   0  0.2376359E-04  0.1898017E+04  0.7818609E-02  0.8655844E-01
        1   -1    0    0  501    0  0.00000000000E+00  0.00000000000E+00  0.10080333444E+04  0.10080333444E+04  0.50400001928E-02 0.  1.
       -1   -1    0    0    0  501  0.00000000000E+00  0.00000000000E+00 -0.89343955569E+03  0.89343955571E+03  0.50400001928E-02 0. -1.
    10030    2    1    2    0    0  0.00000000000E+00  0.00000000000E+00  0.11459378871E+03  0.19014729001E+04  0.18980167158E+04 0.  0.
        2    1    3    3  502    0 -0.47290940025E+03  0.69902305749E+03  0.49206909556E+03  0.97693834532E+03  0.25500000920E-02 0. -1.
       -2    1    3    3    0  502  0.47290940025E+03 -0.69902305749E+03 -0.37747530684E+03  0.92453455481E+03  0.25500000920E-02 0.  1.
</event>
<event>
 5   0  0.2355414E-04  0.1501057E+04  0.7818609E-02  0.8883750E-01
        1   -1    0    0  501    0  0.00000000000E+00  0.00000000000E+00  0.18008277529E+04  0.18008277529E+04  0.50400001928E-02 0.  1.
       -1   -1    0    0    0  501  0.00000000000E+00  0.00000000000E+00 -0.31279664366E+03  0.31279664371E+03  0.50400001928E-02 0. -1.
    10030    2    1    2    0    0  0.00000000000E+00  0.00000000000E+00  0.14880311092E+04  0.21136243966E+04  0.15010567970E+04 0.  0.
        5    1    3    3  502    0  0.12935945633E+03 -0.39381727927E+03  0.16249954344E+04  0.16770385119E+04  0.46999998093E+01 0.  1.
       -5    1    3    3    0  502 -0.12935945633E+03  0.39381727927E+03 -0.13696432518E+03  0.43658588475E+03  0.46999998093E+01 0. -1.
</event>
<event>
 5   0  0.2376359E-04  0.1670251E+04  0.7818609E-02  0.8778516E-01
        1   -1    0    0  501    0  0.00000000000E+00  0.00000000000E+00  0.10724857076E+04  0.10724857076E+04  0.50400001928E-02 0.  1.
       -1   -1    0    0    0  501  0.00000000000E+00  0.00000000000E+00 -0.65029706900E+03  0.65029706902E+03  0.50400001928E-02 0. -1.
    10030    2    1    2    0    0  0.00000000000E+00  0.00000000000E+00  0.42218863859E+03  0.17227827766E+04  0.16702506545E+04 0.  0.
        2    1    3    3  502    0  0.63887164395E+03 -0.12295831356E+03 -0.32897536277E+03  0.72904081753E+03  0.25500000920E-02 0. -1.
       -2    1    3    3    0  502 -0.63887164395E+03  0.12295831356E+03  0.75116400135E+03  0.99374195909E+03  0.25500000920E-02 0.  1.
</event>
<event>
 5   0  0.2317458E-04  0.1081973E+04  0.7818609E-02  0.9222942E-01
        1   -1    0    0  501    0  0.00000000000E+00  0.00000000000E+00  0.20419373653E+04  0.20419373653E+04  0.50400001928E-02 0.  1.
       -1   -1    0    0    0  501  0.00000000000E+00  0.00000000000E+00 -0.14332789979E+03  0.14332789988E+03  0.50400001928E-02 0. -1.
    10030    2    1    2    0    0  0.00000000000E+00  0.00000000000E+00  0.18986094655E+04  0.21852652651E+04  0.10819733715E+04 0.  0.
        3    1    3    3  502    0 -0.30961884485E+03 -0.35619417073E+03  0.41521454903E+03  0.62860261555E+03  0.10100000352E+00 0. -1.
       -3    1    3    3    0  502  0.30961884485E+03  0.35619417073E+03  0.14833949164E+04  0.15566626496E+04  0.10100000352E+00 0.  1.
</event>
<event>
 5   0  0.2355414E-04  0.1403579E+04  0.7818609E-02  0.8951232E-01
       -1   -1    0    0    0  501  0.00000000000E+00  0.00000000000E+00  0.36877579166E+03  0.36877579169E+03  0.50400001928E-02 0.  1.
        1   -1    0    0  501    0  0.00000000000E+00  0.00000000000E+00 -0.13355221376E+04  0.13355221376E+04  0.50400001928E-02 0. -1.
    10030    2    1    2    0    0  0.00000000000E+00  0.00000000000E+00 -0.96674634598E+03  0.17042979293E+04  0.14035786171E+04 0.  0.
        5    1    3    3  502    0  0.14164005580E+03  0.24675363013E+03 -0.12623295833E+04  0.12940043764E+04  0.46999998093E+01 0. -1.
       -5    1    3    3    0  502 -0.14164005580E+03 -0.24675363013E+03  0.29558323730E+03  0.41029355291E+03  0.46999998093E+01 0.  1.
</event>
<event>
 5   0  0.2355414E-04  0.1814385E+04  0.7818609E-02  0.8698687E-01
       -1   -1    0    0    0  501  0.00000000000E+00  0.00000000000E+00  0.65073895345E+03  0.65073895347E+03  0.50400001928E-02 0.  1.
        1   -1    0    0  501    0  0.00000000000E+00  0.00000000000E+00 -0.12647133951E+04  0.12647133951E+04  0.50400001928E-02 0. -1.
    10030    2    1    2    0    0  0.00000000000E+00  0.00000000000E+00 -0.61397444165E+03  0.19154523486E+04  0.18143850431E+04 0.  0.
        5    1    3    3  502    0 -0.32184040656E+03  0.64911120384E+03  0.26936258546E+03  0.77298440780E+03  0.46999998093E+01 0. -1.
       -5    1    3    3    0  502  0.32184040656E+03 -0.64911120384E+03 -0.88333702712E+03  0.11424679408E+04  0.46999998093E+01 0.  1.
</event>
<event>
 5   0  0.2355414E-04  0.1636560E+04  0.7818609E-02  0.8798397E-01
        1   -1    0    0  501    0  0.00000000000E+00  0.00000000000E+00  0.85170014230E+03  0.85170014231E+03  0.50400001928E-02 0. -1.
       -1   -1    0    0    0  501  0.00000000000E+00  0.00000000000E+00 -0.78617139280E+03  0.78617139282E+03  0.50400001928E-02 0.  1.
    10030    2    1    2    0    0  0.00000000000E+00  0.00000000000E+00  0.65528749497E+02  0.16378715351E+04  0.16365601573E+04 0.  0.
        5    1    3    3  502    0  0.22282340078E+03 -0.69325800810E+03  0.40629697124E+03  0.83388023874E+03  0.46999998093E+01 0. -1.
       -5    1    3    3    0  502 -0.22282340078E+03  0.69325800810E+03 -0.34076822174E+03  0.80399129639E+03  0.46999998093E+01 0.  1.
</event>
<event>
 5   0  0.4761944E-04  0.1953540E+04  0.7818609E-02  0.8628656E-01
        2   -1    0    0  501    0  0.00000000000E+00  0.00000000000E+00  0.10728784912E+04  0.10728784912E+04  0.25500000920E-02 0.  1.
       -2   -1    0    0    0  501  0.00000000000E+00  0.00000000000E+00 -0.88927088856E+03  0.88927088856E+03  0.25500000920E-02 0. -1.
    10030    2    1    2    0    0  0.00000000000E+00  0.00000000000E+00  0.18360760267E+03  0.19621493798E+04  0.19535399757E+04 0.  0.
        4    1    3    3  502    0 -0.60693522434E+03 -0.94823389658E+02  0.85456891752E+03  0.10524502313E+04  0.12699999809E+01 0.  1.
       -4    1    3    3    0  502  0.60693522434E+03  0.94823389658E+02 -0.67096131484E+03  0.90969914845E+03  0.12699999809E+01 0. -1.
</event>
<event>
 5   0  0.2510069E-04  0.1919806E+04  0.7818609E-02  0.8645060E-01
       -1   -1    0    0    0  501  0.00000000000E+00  0.00000000000E+00  0.69317988085E+03  0.69317988086E+03  0.50400001928E-02 0. -1.
        1   -1    0    0  501    0  0.00000000000E+00  0.00000000000E+00 -0.13292556749E+04  0.13292556750E+04  0.50400001928E-02 0.  1.
    10030    2    1    2    0    0  0.00000000000E+00  0.00000000000E+00 -0.63607579410E+03  0.20224355558E+04  0.19198055010E+04 0.  0.
        4    1    3    3  502    0 -0.35091125328E+03 -0.52857533515E+03 -0.10768799316E+04  0.12498810314E+04  0.12699999809E+01 0.  1.
       -4    1    3    3    0  502  0.35091125328E+03  0.52857533515E+03  0.44080413755E+03  0.77255452441E+03  0.12699999809E+01 0. -1.
</event>
<event>
 5   0  0.4802635E-04  0.1827860E+04  0.7818609E-02  0.8691622E-01
       -2   -1    0    0    0  501  0.00000000000E+00  0.00000000000E+00  0.74987833537E+03  0.74987833537E+03  0.25500000920E-02 0. -1.
        2   -1    0    0  501    0  0.00000000000E+00  0.00000000000E+00 -0.11138718261E+04  0.11138718261E+04  0.25500000920E-02 0.  1.
    10030    2    1    2    0    0  0.00000000000E+00  0.00000000000E+00 -0.36399349074E+03  0.18637501615E+04  0.18278603347E+04 0.  0.
        3    1    3    3  502    0  0.27159032244E+03  0.22555170863E+03 -0.10415395575E+04  0.10997452143E+04  0.10100000352E+00 0.  1.
       -3    1    3    3    0  502 -0.27159032244E+03 -0.22555170863E+03  0.67754606672E+03  0.76400494714E+03  0.10100000352E+00 0. -1.
</event>
<event>
 5   0  0.4973411E-04  0.2078765E+04  0.7818609E-02  0.8570656E-01
        2   -1    0    0  501    0  0.00000000000E+00  0.00000000000E+00  0.62821539213E+03  0.62821539214E+03  0.25500000920E-02 0.  1.
       -2   -1    0    0    0  501  0.00000000000E+00  0.00000000000E+00 -0.17196591311E+04  0.17196591311E+04  0.25500000920E-02 0. -1.
    10030    2    1    2    0    0  0.00000000000E+00  0.00000000000E+00 -0.10914437390E+04  0.23478745233E+04  0.20787653407E+04 0.  0.
        1    1    3    3  502    0 -0.24036166952E+03 -0.97227510460E+03 -0.23185549769E+03  0.10280318979E+04  0.50400001928E-02 0. -1.
       -1    1    3    3    0  502  0.24036166952E+03  0.97227510460E+03 -0.85958824131E+03  0.13198426254E+04  0.50400001928E-02 0.  1.
</event>
<event>
 5   0  0.2510069E-04  0.1889019E+04  0.7818609E-02  0.8660342E-01
       -1   -1    0    0    0  501  0.00000000000E+00  0.00000000000E+00  0.50210760874E+03  0.50210760876E+03  0.50400001928E-02 0. -1.
        1   -1    0    0  501    0  0.00000000000E+00  0.00000000000E+00 -0.17767062960E+04  0.17767062960E+04  0.50400001928E-02 0.  1.
    10030    2    1    2    0    0  0.00000000000E+00  0.00000000000E+00 -0.12745986872E+04  0.22788139048E+04  0.18890185280E+04 0.  0.
        4    1    3    3  502    0  0.67664754266E+03  0.65872218405E+03 -0.65919129120E+03  0.11516516765E+04  0.12699999809E+01 0. -1.
       -4    1    3    3    0  502 -0.67664754266E+03 -0.65872218405E+03 -0.61540739604E+03  0.11271622282E+04  0.12699999809E+01 0.  1.
</event>
<event>
 5   0  0.4973411E-04  0.1919017E+04  0.7818609E-02  0.8645448E-01
       -2   -1    0    0    0  501  0.00000000000E+00  0.00000000000E+00  0.61310894830E+03  0.61310894830E+03  0.25500000920E-02 0. -1.
        2   -1    0    0  501    0  0.00000000000E+00  0.00000000000E+00 -0.15016201056E+04  0.15016201056E+04  0.25500000920E-02 0.  1.
    10030    2    1    2    0    0  0.00000000000E+00  0.00000000000E+00 -0.88851115728E+03  0.21147290539E+04  0.19190171690E+04 0.  0.
        1    1    3    3  502    0 -0.91458344874E+03 -0.22158347833E+03 -0.65069661322E+03  0.11441014837E+04  0.50400001928E-02 0. -1.
       -1    1    3    3    0  502  0.91458344874E+03  0.22158347833E+03 -0.23781454406E+03  0.97062757016E+03  0.50400001928E-02 0.  1.
</event>
<event>
 5   0  0.4802635E-04  0.1936870E+04  0.7818609E-02  0.8636718E-01
       -2   -1    0    0    0  501  0.00000000000E+00  0.00000000000E+00  0.49261088080E+03  0.49261088081E+03  0.25500000920E-02 0.  1.
        2   -1    0    0  501    0  0.00000000000E+00  0.00000000000E+00 -0.19038687854E+04  0.19038687854E+04  0.25500000920E-02 0. -1.
    10030    2    1    2    0    0  0.00000000000E+00  0.00000000000E+00 -0.14112579046E+04  0.23964796662E+04  0.19368701343E+04 0.  0.
        3    1    3    3  502    0  0.42557930068E+03 -0.21367463901E+03  0.33773566433E+03  0.58381502351E+03  0.10100000352E+00 0.  1.
       -3    1    3    3    0  502 -0.42557930068E+03  0.21367463901E+03 -0.17489935689E+04  0.18126646427E+04  0.10100000352E+00 0. -1.
</event>
<event>
 5   0  0.2376359E-04  0.1925594E+04  0.7818609E-02  0.8642220E-01
       -1   -1    0    0    0  501  0.00000000000E+00  0.00000000000E+00  0.73530904971E+03  0.73530904973E+03  0.50400001928E-02 0.  1.
        1   -1    0    0  501    0  0.00000000000E+00  0.00000000000E+00 -0.12606651159E+04  0.12606651159E+04  0.50400001928E-02 0. -1.
    10030    2    1    2    0    0  0.00000000000E+00  0.00000000000E+00 -0.52535606621E+03  0.19959741657E+04  0.19255944209E+04 0.  0.
        2    1    3    3  502    0 -0.17841375481E+03  0.91522033480E+03 -0.14081666943E+02  0.93255456810E+03  0.25500000920E-02 0.  1.
       -2    1    3    3    0  502  0.17841375481E+03 -0.91522033480E+03 -0.51127439927E+03  0.10634195976E+04  0.25500000920E-02 0. -1.
</event>
<event>
 5   0  0.4802635E-04  0.1911145E+04  0.7818609E-02  0.8649329E-01
       -2   -1    0    0    0  501  0.00000000000E+00  0.00000000000E+00  0.76294548331E+03  0.76294548331E+03  0.25500000920E-02 0.  1.
        2   -1    0    0  501    0  0.00000000000E+00  0.00000000000E+00 -0.11968331102E+04  0.11968331102E+04  0.25500000920E-02 0. -1.
    10030    2    1    2    0    0  0.00000000000E+00  0.00000000000E+00 -0.43388762685E+03  0.19597785935E+04  0.19111445949E+04 0.  0.
        3    1    3    3  502    0 -0.36515427300E+03  0.49660865072E+03  0.53181593783E+03  0.81411669741E+03  0.10100000352E+00 0.  1.
       -3    1    3    3    0  502  0.36515427300E+03 -0.49660865072E+03 -0.96570356468E+03  0.11456618961E+04  0.10100000352E+00 0. -1.
</event>
<event>
 5   0  0.2261755E-04  0.1585533E+04  0.7818609E-02  0.8829485E-01
        1   -1    0    0  501    0  0.00000000000E+00  0.00000000000E+00  0.97587897148E+03  0.97587897150E+03  0.50400001928E-02 0.  1.
       -1   -1    0    0    0  501  0.00000000000E+00  0.00000000000E+00 -0.64401334092E+03  0.64401334094E+03  0.50400001928E-02 0. -1.
    10030    2    1    2    0    0  0.00000000000E+00  0.00000000000E+00  0.33186563056E+03  0.16198923124E+04  0.15855334456E+04 0.  0.
        1    1    3    3  502    0 -0.23598948277E+03  0.14869786582E+03 -0.59222427348E+03  0.65462331260E+03  0.50400001928E-02 0. -1.
       -1    1    3    3    0  502  0.23598948277E+03 -0.14869786582E+03  0.92408990404E+03  0.96526899984E+03  0.50400001928E-02 0.  1.
</event>
<event>
 5   0  0.2376359E-04  0.1909870E+04  0.7818609E-02  0.8649959E-01
        1   -1    0    0  501    0  0.00000000000E+00  0.00000000000E+00  0.10953105151E+04  0.10953105151E+04  0.50400001928E-02 0. -1.
       -1   -1    0    0    0  501  0.00000000000E+00  0.00000000000E+00 -0.83255007665E+03  0.83255007666E+03  0.50400001928E-02 0.  1.
    10030    2    1    2    0    0  0.00000000000E+00  0.00000000000E+00  0.26276043841E+03  0.19278605917E+04  0.19098699990E+04 0.  0.
        2    1    3    3  502    0 -0.68535210699E+03  0.59845889240E+03  0.42400803654E+03  0.10038144109E+04  0.25500000920E-02 0. -1.
       -2    1    3    3    0  502  0.68535210699E+03 -0.59845889240E+03 -0.16124759813E+03  0.92404618085E+03  0.25500000920E-02 0.  1.
</event>
<event>
 5   0  0.2261755E-04  0.1597760E+04  0.7818609E-02  0.8821925E-01
        1   -1    0    0  501    0  0.00000000000E+00  0.00000000000E+00  0.18992280101E+04  0.18992280101E+04  0.50400001928E-02 0. -1.
       -1   -1    0    0    0  501  0.00000000000E+00  0.00000000000E+00 -0.33603608346E+03  0.33603608350E+03  0.50400001928E-02 0.  1.
    10030    2    1    2    0    0  0.00000000000E+00  0.00000000000E+00  0.15631919266E+04  0.22352640936E+04  0.15977598595E+04 0.  0.
        1    1    3    3  502    0  0.35403185860E+02 -0.22010883404E+03  0.18548276057E+04  0.18681773821E+04  0.50400001928E-02 0. -1.
       -1    1    3    3    0  502 -0.35403185860E+02  0.22010883404E+03 -0.29163567905E+03  0.36708671143E+03  0.50400001928E-02 0.  1.
</event>
<event>
 5   0  0.4973411E-04  0.1800426E+04  0.7818609E-02  0.8706073E-01
        2   -1    0    0  501    0  0.00000000000E+00  0.00000000000E+00  0.21186949302E+04  0.21186949303E+04  0.25500000920E-02 0.  1.
       -2   -1    0    0    0  501  0.00000000000E+00  0.00000000000E+00 -0.38249172409E+03  0.38249172410E+03  0.25500000920E-02 0. -1.
    10030    2    1    2    0    0  0.00000000000E+00  0.00000000000E+00  0.17362032062E+04  0.25011866543E+04  0.18004258126E+04 0.  0.
        1    1    3    3  502    0  0.59925818170E+03 -0.67167771954E+03  0.88344285247E+03  0.12612424830E+04  0.50400001928E-02 0.  1.
       -1    1    3    3    0  502 -0.59925818170E+03  0.67167771954E+03  0.85276035370E+03  0.12399441714E+04  0.50400001928E-02 0. -1.
</event>
<event>
 5   0  0.2261755E-04  0.1888289E+04  0.7818609E-02  0.8660708E-01
       -1   -1    0    0    0  501  0.00000000000E+00  0.00000000000E+00  0.62016457733E+03  0.62016457735E+03  0.50400001928E-02 0. -1.
        1   -1    0    0  501    0  0.00000000000E+00  0.00000000000E+00 -0.14373741304E+04  0.14373741304E+04  0.50400001928E-02 0.  1.
    10030    2    1    2    0    0  0.00000000000E+00  0.00000000000E+00 -0.81720955305E+03  0.20575387077E+04  0.18882886644E+04 0.  0.
        1    1    3    3  502    0  0.50995983565E+03  0.62254466454E+03 -0.94660871867E+03  0.12424527997E+04  0.50400001928E-02 0.  1.
       -1    1    3    3    0  502 -0.50995983565E+03 -0.62254466454E+03  0.12939916562E+03  0.81508590799E+03  0.50400001928E-02 0. -1.
</event>
<event>
 5   0  0.2510069E-04  0.1771129E+04  0.7818609E-02  0.8721805E-01
       -1   -1    0    0    0  501  0.00000000000E+00  0.00000000000E+00  0.82349150492E+03  0.82349150494E+03  0.50400001928E-02 0. -1.
        1   -1    0    0  501    0  0.00000000000E+00  0.00000000000E+00 -0.95231618211E+03  0.95231618212E+03  0.50400001928E-02 0.  1.
    10030    2    1    2    0    0  0.00000000000E+00  0.00000000000E+00 -0.12882467719E+03  0.17758076871E+04  0.17711287768E+04 0.  0.
        4    1    3    3  502    0  0.19551191590E+03 -0.83005818808E+03  0.17496755551E+03  0.87053820320E+03  0.12699999809E+01 0. -1.
       -4    1    3    3    0  502 -0.19551191590E+03  0.83005818808E+03 -0.30379223269E+03  0.90526948385E+03  0.12699999809E+01 0.  1.
</event>
<event>
 5   0  0.4829134E-04  0.1869734E+04  0.7818609E-02  0.8670070E-01
        2   -1    0    0  501    0  0.00000000000E+00  0.00000000000E+00  0.17272125836E+04  0.17272125836E+04  0.25500000920E-02 0.  1.
       -2   -1    0    0    0  501  0.00000000000E+00  0.00000000000E+00 -0.50600365004E+03  0.50600365004E+03  0.25500000920E-02 0. -1.
    10030    2    1    2    0    0  0.00000000000E+00  0.00000000000E+00  0.12212089335E+04  0.22332162336E+04  0.18697335336E+04 0.  0.
        2    1    3    3  502    0  0.82583983909E+03  0.39465834229E+03  0.83788417956E+03  0.12408934464E+04  0.25500000920E-02 0.  1.
       -2    1    3    3    0  502 -0.82583983909E+03 -0.39465834229E+03  0.38332475396E+03  0.99232278719E+03  0.25500000920E-02 0. -1.
</event>
<event>
 5   0  0.4829134E-04  0.1907526E+04  0.7818609E-02  0.8651119E-01
       -2   -1    0    0    0  501  0.00000000000E+00  0.00000000000E+00  0.70544325823E+03  0.70544325823E+03  0.25500000920E-02 0. -1.
        2   -1    0    0  501    0  0.00000000000E+00  0.00000000000E+00 -0.12894928601E+04  0.12894928601E+04  0.25500000920E-02 0.  1.
    10030    2    1    2    0    0  0.00000000000E+00  0.00000000000E+00 -0.58404960185E+03  0.19949361183E+04  0.19075261935E+04 0.  0.
        2    1    3    3  502    0  0.77506896855E+03  0.39873051713E+03  0.11294821812E+03  0.87890570101E+03  0.25500000920E-02 0. -1.
       -2    1    3    3    0  502 -0.77506896855E+03 -0.39873051713E+03 -0.69699781996E+03  0.11160304173E+04  0.25500000920E-02 0.  1.
</event>
<event>
 5   0  0.1729375E-04  0.1848512E+04  0.7818609E-02  0.8680918E-01
        4   -1    0    0  501    0  0.00000000000E+00  0.00000000000E+00  0.58674286096E+03  0.58674423541E+03  0.12699999809E+01 0.  1.
       -4   -1    0    0    0  501  0.00000000000E+00  0.00000000000E+00 -0.14559138862E+04  0.14559144401E+04  0.12699999809E+01 0. -1.
    10030    2    1    2    0    0  0.00000000000E+00  0.00000000000E+00 -0.86917102521E+03  0.20426586755E+04  0.18485118862E+04 0.  0.
        1    1    3    3  502    0 -0.72347674400E+03 -0.55468786979E+03 -0.26644743029E+03  0.94978495731E+03  0.50400001928E-02 0.  1.
       -1    1    3    3    0  502  0.72347674400E+03  0.55468786979E+03 -0.60272359492E+03  0.10928737182E+04  0.50400001928E-02 0. -1.
</event>
<event>
 5   0  0.4973411E-04  0.1735355E+04  0.7818609E-02  0.8741453E-01
       -2   -1    0    0    0  501  0.00000000000E+00  0.00000000000E+00  0.41632559461E+03  0.41632559461E+03  0.25500000920E-02 0. -1.
        2   -1    0    0  501    0  0.00000000000E+00  0.00000000000E+00 -0.18083535015E+04  0.18083535015E+04  0.25500000920E-02 0.  1.
    10030    2    1    2    0    0  0.00000000000E+00  0.00000000000E+00 -0.13920279069E+04  0.22246790961E+04  0.17353545422E+04 0.  0.
        1    1    3    3  502    0 -0.73115623516E+03  0.27866903666E+02 -0.98144130150E+02  0.73823998459E+03  0.50400001928E-02 0. -1.
       -1    1    3    3    0  502  0.73115623516E+03 -0.27866903666E+02 -0.12938837767E+04  0.14864391115E+04  0.50400001928E-02 0.  1.
</event>
<event>
 5   0  0.2317458E-04  0.1927274E+04  0.7818609E-02  0.8641398E-01
        1   -1    0    0  501    0  0.00000000000E+00  0.00000000000E+00  0.98374455821E+03  0.98374455823E+03  0.50400001928E-02 0.  1.
       -1   -1    0    0    0  501  0.00000000000E+00  0.00000000000E+00 -0.94394034413E+03  0.94394034414E+03  0.50400001928E-02 0. -1.
    10030    2    1    2    0    0  0.00000000000E+00  0.00000000000E+00  0.39804214084E+02  0.19276849024E+04  0.19272739056E+04 0.  0.
        3    1    3    3  502    0 -0.36886805300E+03 -0.54590331448E+03  0.72327472265E+03  0.97836619111E+03  0.10100000352E+00 0.  1.
       -3    1    3    3    0  502  0.36886805300E+03  0.54590331448E+03 -0.68347050856E+03  0.94931871126E+03  0.10100000352E+00 0. -1.
</event>
<event>
 5   0  0.4761944E-04  0.1948264E+04  0.7818609E-02  0.8631198E-01
       -2   -1    0    0    0  501  0.00000000000E+00  0.00000000000E+00  0.74991861235E+03  0.74991861235E+03  0.25500000920E-02 0.  1.
        2   -1    0    0  501    0  0.00000000000E+00  0.00000000000E+00 -0.12653816701E+04  0.12653816701E+04  0.25500000920E-02 0. -1.
    10030    2    1    2    0    0  0.00000000000E+00  0.00000000000E+00 -0.51546305773E+03  0.20153002824E+04  0.19482641157E+04 0.  0.
        4    1    3    3  502    0  0.68416679553E+03  0.34538431699E+03 -0.87971722178E+03  0.11667384170E+04  0.12699999809E+01 0. -1.
       -4    1    3    3    0  502 -0.68416679553E+03 -0.34538431699E+03  0.36425416405E+03  0.84856186543E+03  0.12699999809E+01 0.  1.
</event>
<event>
 5   0  0.4839293E-04  0.1890650E+04  0.7818609E-02  0.8659524E-01
       -2   -1    0    0    0  501  0.00000000000E+00  0.00000000000E+00  0.63602176955E+03  0.63602176955E+03  0.25500000920E-02 0.  1.
        2   -1    0    0  501    0  0.00000000000E+00  0.00000000000E+00 -0.14050454318E+04  0.14050454318E+04  0.25500000920E-02 0. -1.
    10030    2    1    2    0    0  0.00000000000E+00  0.00000000000E+00 -0.76902366227E+03  0.20410672014E+04  0.18906501335E+04 0.  0.
        5    1    3    3  502    0  0.79579324200E+02 -0.52564482295E+03  0.45932865332E+03  0.70259536754E+03  0.46999998093E+01 0.  1.
       -5    1    3    3    0  502 -0.79579324200E+02  0.52564482295E+03 -0.12283523156E+04  0.13384718338E+04  0.46999998093E+01 0. -1.
</event>
<event>
 5   0  0.4802635E-04  0.1879934E+04  0.7818609E-02  0.8664909E-01
        2   -1    0    0  501    0  0.00000000000E+00  0.00000000000E+00  0.10846851113E+04  0.10846851113E+04  0.25500000920E-02 0. -1.
       -2   -1    0    0    0  501  0.00000000000E+00  0.00000000000E+00 -0.81455709712E+03  0.81455709712E+03  0.25500000920E-02 0.  1.
    10030    2    1    2    0    0  0.00000000000E+00  0.00000000000E+00  0.27012801417E+03  0.18992422084E+04  0.18799339941E+04 0.  0.
        3    1    3    3  502    0 -0.12017043481E+03 -0.87719587006E+03  0.45393913791E+03  0.99497451173E+03  0.10100000352E+00 0. -1.
       -3    1    3    3    0  502  0.12017043481E+03  0.87719587006E+03 -0.18381112374E+03  0.90426769669E+03  0.10100000352E+00 0.  1.
</event>
<event>
 5   0  0.2261755E-04  0.1894946E+04  0.7818609E-02  0.8657376E-01
       -1   -1    0    0    0  501  0.00000000000E+00  0.00000000000E+00  0.46830300880E+03  0.46830300883E+03  0.50400001928E-02 0. -1.
        1   -1    0    0  501    0  0.00000000000E+00  0.00000000000E+00 -0.19169322887E+04  0.19169322888E+04  0.50400001928E-02 0.  1.
    10030    2    1    2    0    0  0.00000000000E+00  0.00000000000E+00 -0.14486292799E+04  0.23852352976E+04  0.18949460768E+04 0.  0.
        1    1    3    3  502    0 -0.63278331941E+03  0.59250810470E+03 -0.12056464404E+04  0.14849457643E+04  0.50400001928E-02 0.  1.
       -1    1    3    3    0  502  0.63278331941E+03 -0.59250810470E+03 -0.24298283950E+03  0.90028953330E+03  0.50400001928E-02 0. -1.
</event>
<event>
 5   0  0.2376359E-04  0.1887492E+04  0.7818609E-02  0.8661108E-01
       -1   -1    0    0    0  501  0.00000000000E+00  0.00000000000E+00  0.75098056497E+03  0.75098056499E+03  0.50400001928E-02 0.  1.
        1   -1    0    0  501    0  0.00000000000E+00  0.00000000000E+00 -0.11859909603E+04  0.11859909603E+04  0.50400001928E-02 0. -1.
    10030    2    1    2    0    0  0.00000000000E+00  0.00000000000E+00 -0.43501039536E+03  0.19369715253E+04  0.18874916280E+04 0.  0.
        2    1    3    3  502    0  0.68806632046E+03  0.22631286394E+03 -0.83834671979E+03  0.11079160601E+04  0.25500000920E-02 0. -1.
       -2    1    3    3    0  502 -0.68806632046E+03 -0.22631286394E+03  0.40333632444E+03  0.82905546519E+03  0.25500000920E-02 0.  1.
</event>
<event>
 5   0  0.2376359E-04  0.1850407E+04  0.7818609E-02  0.8679944E-01
        1   -1    0    0  501    0  0.00000000000E+00  0.00000000000E+00  0.18735147030E+04  0.18735147030E+04  0.50400001928E-02 0. -1.
       -1   -1    0    0    0  501  0.00000000000E+00  0.00000000000E+00 -0.45689593527E+03  0.45689593530E+03  0.50400001928E-02 0.  1.
    10030    2    1    2    0    0  0.00000000000E+00  0.00000000000E+00  0.14166187677E+04  0.23304106383E+04  0.18504067148E+04 0.  0.
        2    1    3    3  502    0  0.73326981923E+02 -0.33026420099E+03 -0.37620537716E+03  0.50594641470E+03  0.25500000920E-02 0.  1.
       -2    1    3    3    0  502 -0.73326981923E+02  0.33026420099E+03  0.17928241449E+04  0.18244642236E+04  0.25500000920E-02 0. -1.
</event>
<event>
 5   0  0.4829134E-04  0.1888514E+04  0.7818609E-02  0.8660595E-01
        2   -1    0    0  501    0  0.00000000000E+00  0.00000000000E+00  0.53033513800E+03  0.53033513801E+03  0.25500000920E-02 0. -1.
       -2   -1    0    0    0  501  0.00000000000E+00  0.00000000000E+00 -0.16812409454E+04  0.16812409454E+04  0.25500000920E-02 0.  1.
    10030    2    1    2    0    0  0.00000000000E+00  0.00000000000E+00 -0.11509058074E+04  0.22115760834E+04  0.18885138589E+04 0.  0.
        2    1    3    3  502    0 -0.93308529082E+03 -0.93511296855E+02 -0.70495313478E+03  0.11731800564E+04  0.25500000920E-02 0. -1.
       -2    1    3    3    0  502  0.93308529082E+03  0.93511296855E+02 -0.44595267261E+03  0.10383960270E+04  0.25500000920E-02 0.  1.
</event>
<event>
 5   0  0.4761944E-04  0.1708918E+04  0.7818609E-02  0.8756294E-01
        2   -1    0    0  501    0  0.00000000000E+00  0.00000000000E+00  0.16445308385E+04  0.16445308385E+04  0.25500000920E-02 0.  1.
       -2   -1    0    0    0  501  0.00000000000E+00  0.00000000000E+00 -0.44395651159E+03  0.44395651160E+03  0.25500000920E-02 0. -1.
    10030    2    1    2    0    0  0.00000000000E+00  0.00000000000E+00  0.12005743269E+04  0.20884873501E+04  0.17089179902E+04 0.  0.
        4    1    3    3  502    0 -0.72047958170E+03 -0.43757719203E+03  0.42948023086E+03  0.94605470679E+03  0.12699999809E+01 0.  1.
       -4    1    3    3    0  502  0.72047958170E+03  0.43757719203E+03  0.77109409605E+03  0.11424326433E+04  0.12699999809E+01 0. -1.
</event>
<event>
 5   0  0.4839293E-04  0.1915646E+04  0.7818609E-02  0.8647108E-01
       -2   -1    0    0    0  501  0.00000000000E+00  0.00000000000E+00  0.63670674771E+03  0.63670674771E+03  0.25500000920E-02 0.  1.
        2   -1    0    0  501    0  0.00000000000E+00  0.00000000000E+00 -0.14408901060E+04  0.14408901060E+04  0.25500000920E-02 0. -1.
    10030    2    1    2    0    0  0.00000000000E+00  0.00000000000E+00 -0.80418335828E+03  0.20775968537E+04  0.19156455342E+04 0.  0.
        5    1    3    3  502    0  0.37511877421E+03 -0.59931530075E+03  0.29868441228E+03  0.76754634559E+03  0.46999998093E+01 0.  1.
       -5    1    3    3    0  502 -0.37511877421E+03  0.59931530075E+03 -0.11028677706E+04  0.13100505081E+04  0.46999998093E+01 0. -1.
</event>
<event>
 5   0  0.2261755E-04  0.1808465E+04  0.7818609E-02  0.8701811E-01
       -1   -1    0    0    0  501  0.00000000000E+00  0.00000000000E+00  0.40893926976E+03  0.40893926979E+03  0.50400001928E-02 0.  1.
        1   -1    0    0  501    0  0.00000000000E+00  0.00000000000E+00 -0.19994084023E+04  0.19994084023E+04  0.50400001928E-02 0. -1.
    10030    2    1    2    0    0  0.00000000000E+00  0.00000000000E+00 -0.15904691326E+04  0.24083476721E+04  0.18084652190E+04 0.  0.
        1    1    3    3  502    0 -0.77116970565E+03 -0.47205867198E+03 -0.80818074949E+03  0.12127234757E+04  0.50400001928E-02 0.  1.
       -1    1    3    3    0  502  0.77116970565E+03  0.47205867198E+03 -0.78228838307E+03  0.11956241964E+04  0.50400001928E-02 0. -1.
</event>
<event>
 5   0  0.2510069E-04  0.1852139E+04  0.7818609E-02  0.8679053E-01
        1   -1    0    0  501    0  0.00000000000E+00  0.00000000000E+00  0.11037568159E+04  0.11037568159E+04  0.50400001928E-02 0. -1.
       -1   -1    0    0    0  501  0.00000000000E+00  0.00000000000E+00 -0.77698737633E+03  0.77698737635E+03  0.50400001928E-02 0.  1.
    10030    2    1    2    0    0  0.00000000000E+00  0.00000000000E+00  0.32676943954E+03  0.18807441922E+04  0.18521394251E+04 0.  0.
        4    1    3    3  502    0 -0.58673340528E+03 -0.69672518586E+03 -0.62930125506E+01  0.91089148003E+03  0.12699999809E+01 0.  1.
       -4    1    3    3    0  502  0.58673340528E+03  0.69672518586E+03  0.33306245209E+03  0.96985271221E+03  0.12699999809E+01 0. -1.
</event>
<event>
 5   0  0.4829134E-04  0.1859375E+04  0.7818609E-02  0.8675347E-01
       -2   -1    0    0    0  501  0.00000000000E+00  0.00000000000E+00  0.74740715314E+03  0.74740715314E+03  0.25500000920E-02 0. -1.
        2   -1    0    0  501    0  0.00000000000E+00  0.00000000000E+00 -0.11564226372E+04  0.11564226372E+04  0.25500000920E-02 0.  1.
    10030    2    1    2    0    0  0.00000000000E+00  0.00000000000E+00 -0.40901548410E+03  0.19038297904E+04  0.18593746810E+04 0.  0.
        2    1    3    3  502    0 -0.35903059229E+03 -0.48067823159E+03 -0.93167322428E+03  0.11081378639E+04  0.25500000920E-02 0.  1.
       -2    1    3    3    0  502  0.35903059229E+03  0.48067823159E+03  0.52265774017E+03  0.79569192650E+03  0.25500000920E-02 0. -1.
</event>
<event>
 5   0  0.4973411E-04  0.1667312E+04  0.7818609E-02  0.8780230E-01
       -2   -1    0    0    0  501  0.00000000000E+00  0.00000000000E+00  0.38804176245E+03  0.38804176246E+03  0.25500000920E-02 0.  1.
        2   -1    0    0  501    0  0.00000000000E+00  0.00000000000E+00 -0.17909986150E+04  0.17909986150E+04  0.25500000920E-02 0. -1.
    10030    2    1    2    0    0  0.00000000000E+00  0.00000000000E+00 -0.14029568526E+04  0.21790403775E+04  0.16673119194E+04 0.  0.
        1    1    3    3  502    0 -0.50013336794E+03 -0.42682042817E+03 -0.13712956357E+04  0.15207763755E+04  0.50400001928E-02 0. -1.
       -1    1    3    3    0  502  0.50013336794E+03  0.42682042817E+03 -0.31661216820E+02  0.65826400198E+03  0.50400001928E-02 0.  1.
</event>
<event>
 5   0  0.4973411E-04  0.1903341E+04  0.7818609E-02  0.8653195E-01
        2   -1    0    0  501    0  0.00000000000E+00  0.00000000000E+00  0.65708662398E+03  0.65708662398E+03  0.25500000920E-02 0. -1.
       -2   -1    0    0    0  501  0.00000000000E+00  0.00000000000E+00 -0.13783210895E+04  0.13783210895E+04  0.25500000920E-02 0.  1.
    10030    2    1    2    0    0  0.00000000000E+00  0.00000000000E+00 -0.72123446548E+03  0.20354077134E+04  0.19033405911E+04 0.  0.
        1    1    3    3  502    0 -0.60327279870E+03 -0.73390718540E+03 -0.42033581932E+03  0.10388647782E+04  0.50400001928E-02 0. -1.
       -1    1    3    3    0  502  0.60327279870E+03  0.73390718540E+03 -0.30089864616E+03  0.99654293521E+03  0.50400001928E-02 0.  1.
</event>
<event>
 5   0  0.2376359E-04  0.9657374E+03  0.7818609E-02  0.9346943E-01
        1   -1    0    0  501    0  0.00000000000E+00  0.00000000000E+00  0.59258189773E+03  0.59258189775E+03  0.50400001928E-02 0.  1.
       -1   -1    0    0    0  501  0.00000000000E+00  0.00000000000E+00 -0.39346826759E+03  0.39346826762E+03  0.50400001928E-02 0. -1.
    10030    2    1    2    0    0  0.00000000000E+00  0.00000000000E+00  0.19911363014E+03  0.98605016538E+03  0.96573738197E+03 0.  0.
        2    1    3    3  502    0  0.36664532289E+03 -0.14506323901E+03 -0.18503514766E+03  0.43555727750E+03  0.25500000920E-02 0. -1.
       -2    1    3    3    0  502 -0.36664532289E+03  0.14506323901E+03  0.38414877780E+03  0.55049288787E+03  0.25500000920E-02 0.  1.
</event>
<event>
 5   0  0.4839293E-04  0.2014533E+04  0.7818609E-02  0.8599856E-01
        2   -1    0    0  501    0  0.00000000000E+00  0.00000000000E+00  0.14226700814E+04  0.14226700814E+04  0.25500000920E-02 0.  1.
       -2   -1    0    0    0  501  0.00000000000E+00  0.00000000000E+00 -0.71315586000E+03  0.71315586001E+03  0.25500000920E-02 0. -1.
    10030    2    1    2    0    0  0.00000000000E+00  0.00000000000E+00  0.70951422142E+03  0.21358259414E+04  0.20145327055E+04 0.  0.
        5    1    3    3  502    0 -0.31492131200E+03  0.53720138885E+03 -0.48461966109E+03  0.78907481955E+03  0.46999998093E+01 0. -1.
       -5    1    3    3    0  502  0.31492131200E+03 -0.53720138885E+03  0.11941338825E+04  0.13467511219E+04  0.46999998093E+01 0.  1.
</event>
<event>
 5   0  0.2510069E-04  0.1873682E+04  0.7818609E-02  0.8668068E-01
       -1   -1    0    0    0  501  0.00000000000E+00  0.00000000000E+00  0.70464977316E+03  0.70464977317E+03  0.50400001928E-02 0. -1.
        1   -1    0    0  501    0  0.00000000000E+00  0.00000000000E+00 -0.12455426102E+04  0.12455426102E+04  0.50400001928E-02 0.  1.
    10030    2    1    2    0    0  0.00000000000E+00  0.00000000000E+00 -0.54089283701E+03  0.19501923834E+04  0.18736822759E+04 0.  0.
        4    1    3    3  502    0  0.63471295933E+03 -0.62226103639E+03  0.37612984446E+02  0.88965481376E+03  0.12699999809E+01 0. -1.
       -4    1    3    3    0  502 -0.63471295933E+03  0.62226103639E+03 -0.57850582146E+03  0.10605375696E+04  0.12699999809E+01 0.  1.
</event>
<event>
 5   0  0.2261755E-04  0.1862420E+04  0.7818609E-02  0.8673792E-01
        1   -1    0    0  501    0  0.00000000000E+00  0.00000000000E+00  0.10983569769E+04  0.10983569769E+04  0.50400001928E-02 0.  1.
       -1   -1    0    0    0  501  0.00000000000E+00  0.00000000000E+00 -0.78949924034E+03  0.78949924036E+03  0.50400001928E-02 0. -1.
    10030    2    1    2    0    0  0.00000000000E+00  0.00000000000E+00  0.30885773653E+03  0.18878562172E+04  0.18624199300E+04 0.  0.
        1    1    3    3  502    0  0.79898554333E+02  0.72497291278E+03  0.74128543586E+03  0.10399392293E+04  0.50400001928E-02 0.  1.
       -1    1    3    3    0  502 -0.79898554333E+02 -0.72497291278E+03 -0.43242769932E+03  0.84791698793E+03  0.50400001928E-02 0. -1.
</event>
<event>
 5   0  0.2261755E-04  0.1974169E+04  0.7818609E-02  0.8618794E-01
       -1   -1    0    0    0  501  0.00000000000E+00  0.00000000000E+00  0.97303797684E+03  0.97303797685E+03  0.50400001928E-02 0. -1.
        1   -1    0    0  501    0  0.00000000000E+00  0.00000000000E+00 -0.10013337482E+04  0.10013337483E+04  0.50400001928E-02 0.  1.
    10030    2    1    2    0    0  0.00000000000E+00  0.00000000000E+00 -0.28295771407E+02  0.19743717251E+04  0.19741689538E+04 0.  0.
        1    1    3    3  502    0  0.79901382696E+03 -0.42282623227E+03 -0.41058568195E+03  0.99286742349E+03  0.50400001928E-02 0.  1.
       -1    1    3    3    0  502 -0.79901382696E+03  0.42282623227E+03  0.38228991054E+03  0.98150430162E+03  0.50400001928E-02 0. -1.
</event>
<event>
 5   0  0.2376359E-04  0.1867596E+04  0.7818609E-02  0.8671156E-01
       -1   -1    0    0    0  501  0.00000000000E+00  0.00000000000E+00  0.94787303932E+03  0.94787303933E+03  0.50400001928E-02 0. -1.
        1   -1    0    0  501    0  0.00000000000E+00  0.00000000000E+00 -0.91993201320E+03  0.91993201321E+03  0.50400001928E-02 0.  1.
    10030    2    1    2    0    0  0.00000000000E+00  0.00000000000E+00  0.27941026123E+02  0.18678050525E+04  0.18675960520E+04 0.  0.
        2    1    3    3  502    0 -0.74934313864E+03 -0.53389803331E+03 -0.14547287164E+03  0.93151736741E+03  0.25500000920E-02 0.  1.
       -2    1    3    3    0  502  0.74934313864E+03  0.53389803331E+03  0.17341389776E+03  0.93628768514E+03  0.25500000920E-02 0. -1.
</event>
<event>
 5   0  0.2317458E-04  0.1876335E+04  0.7818609E-02  0.8666726E-01
        1   -1    0    0  501    0  0.00000000000E+00  0.00000000000E+00  0.15055992354E+04  0.15055992354E+04  0.50400001928E-02 0.  1.
       -1   -1    0    0    0  501  0.00000000000E+00  0.00000000000E+00 -0.58459016649E+03  0.58459016652E+03  0.50400001928E-02 0. -1.
    10030    2    1    2    0    0  0.00000000000E+00  0.00000000000E+00  0.92100906886E+03  0.20901894019E+04  0.18763352661E+04 0.  0.
        3    1    3    3  502    0 -0.43416694398E+03 -0.45316166394E+03 -0.31632952509E+03  0.70279499682E+03  0.10100000352E+00 0. -1.
       -3    1    3    3    0  502  0.43416694398E+03  0.45316166394E+03  0.12373385939E+04  0.13873944051E+04  0.10100000352E+00 0.  1.
</event>
<event>
 5   0  0.4802635E-04  0.1964010E+04  0.7818609E-02  0.8623634E-01
       -2   -1    0    0    0  501  0.00000000000E+00  0.00000000000E+00  0.80728124725E+03  0.80728124725E+03  0.25500000920E-02 0. -1.
        2   -1    0    0  501    0  0.00000000000E+00  0.00000000000E+00 -0.11945451935E+04  0.11945451935E+04  0.25500000920E-02 0.  1.
    10030    2    1    2    0    0  0.00000000000E+00  0.00000000000E+00 -0.38726394629E+03  0.20018264408E+04  0.19640101158E+04 0.  0.
        3    1    3    3  502    0  0.16967143017E+03 -0.88373067268E+03 -0.59435025962E+03  0.10784342990E+04  0.10100000352E+00 0. -1.
       -3    1    3    3    0  502 -0.16967143017E+03  0.88373067268E+03  0.20708631334E+03  0.92339214174E+03  0.10100000352E+00 0.  1.
</event>
<event>
 5   0  0.2317458E-04  0.1892907E+04  0.7818609E-02  0.8658395E-01
       -1   -1    0    0    0  501  0.00000000000E+00  0.00000000000E+00  0.72855042858E+03  0.72855042860E+03  0.50400001928E-02 0. -1.
        1   -1    0    0  501    0  0.00000000000E+00  0.00000000000E+00 -0.12295291831E+04  0.12295291831E+04  0.50400001928E-02 0.  1.
    10030    2    1    2    0    0  0.00000000000E+00  0.00000000000E+00 -0.50097875453E+03  0.19580796117E+04  0.18929067735E+04 0.  0.
        3    1    3    3  502    0  0.62344116979E+03  0.63479206146E+02 -0.98418070881E+03  0.11667562640E+04  0.10100000352E+00 0.  1.
       -3    1    3    3    0  502 -0.62344116979E+03 -0.63479206146E+02  0.48320195429E+03  0.79132334771E+03  0.10100000352E+00 0. -1.
</event>
<event>
 5   0  0.4761944E-04  0.1907007E+04  0.7818609E-02  0.8651376E-01
        2   -1    0    0  501    0  0.00000000000E+00  0.00000000000E+00  0.11626952974E+04  0.11626952974E+04  0.25500000920E-02 0. -1.
       -2   -1    0    0    0  501  0.00000000000E+00  0.00000000000E+00 -0.78194943897E+03  0.78194943897E+03  0.25500000920E-02 0.  1.
    10030    2    1    2    0    0  0.00000000000E+00  0.00000000000E+00  0.38074585847E+03  0.19446447364E+04  0.19070070116E+04 0.  0.
        4    1    3    3  502    0  0.73153192733E+03  0.19955049353E+03  0.77988999103E+03  0.10877450856E+04  0.12699999809E+01 0. -1.
       -4    1    3    3    0  502 -0.73153192733E+03 -0.19955049353E+03 -0.39914413255E+03  0.85689965085E+03  0.12699999809E+01 0.  1.
</event>
<event>
 5   0  0.4802635E-04  0.1897269E+04  0.7818609E-02  0.8656217E-01
        2   -1    0    0  501    0  0.00000000000E+00  0.00000000000E+00  0.10869526263E+04  0.10869526263E+04  0.25500000920E-02 0.  1.
       -2   -1    0    0    0  501  0.00000000000E+00  0.00000000000E+00 -0.82791768831E+03  0.82791768831E+03  0.25500000920E-02 0. -1.
    10030    2    1    2    0    0  0.00000000000E+00  0.00000000000E+00  0.25903493802E+03  0.19148703146E+04  0.18972688852E+04 0.  0.
        3    1    3    3  502    0 -0.61841152775E+01  0.83221404014E+03  0.58903115044E+03  0.10195960760E+04  0.10100000352E+00 0.  1.
       -3    1    3    3    0  502  0.61841152775E+01 -0.83221404014E+03 -0.32999621242E+03  0.89527423860E+03  0.10100000352E+00 0. -1.
</event>
<event>
 5   0  0.4829134E-04  0.1949854E+04  0.7818609E-02  0.8630431E-01
       -2   -1    0    0    0  501  0.00000000000E+00  0.00000000000E+00  0.71177288778E+03  0.71177288779E+03  0.25500000920E-02 0.  1.
        2   -1    0    0  501    0  0.00000000000E+00  0.00000000000E+00 -0.13353728488E+04  0.13353728488E+04  0.25500000920E-02 0. -1.
    10030    2    1    2    0    0  0.00000000000E+00  0.00000000000E+00 -0.62359996098E+03  0.20471457366E+04  0.19498535215E+04 0.  0.
        2    1    3    3  502    0  0.14888973021E+03  0.65981939293E+03 -0.10489387771E+04  0.12481195220E+04  0.25500000920E-02 0. -1.
       -2    1    3    3    0  502 -0.14888973021E+03 -0.65981939293E+03  0.42533881613E+03  0.79902621456E+03  0.25500000920E-02 0.  1.
</event>
<event>
 5   0  0.2355414E-04  0.1933891E+04  0.7818609E-02  0.8638168E-01
        1   -1    0    0  501    0  0.00000000000E+00  0.00000000000E+00  0.12674571151E+04  0.12674571151E+04  0.50400001928E-02 0.  1.
       -1   -1    0    0    0  501  0.00000000000E+00  0.00000000000E+00 -0.73768439861E+03  0.73768439863E+03  0.50400001928E-02 0. -1.
    10030    2    1    2    0    0  0.00000000000E+00  0.00000000000E+00  0.52977271646E+03  0.20051415137E+04  0.19338907309E+04 0.  0.
        5    1    3    3  502    0  0.97918103979E+02 -0.72865341538E+03  0.91606806645E+03  0.11746176174E+04  0.46999998093E+01 0.  1.
       -5    1    3    3    0  502 -0.97918103979E+02  0.72865341538E+03 -0.38629534999E+03  0.83052389626E+03  0.46999998093E+01 0. -1.
</event>
<event>
 5   0  0.2261755E-04  0.1863991E+04  0.7818609E-02  0.8672991E-01
        1   -1    0    0  501    0  0.00000000000E+00  0.00000000000E+00  0.10084496064E+04  0.10084496064E+04  0.50400001928E-02 0. -1.
       -1   -1    0    0    0  501  0.00000000000E+00  0.00000000000E+00 -0.86133773083E+03  0.86133773084E+03  0.50400001928E-02 0.  1.
    10030    2    1    2    0    0  0.00000000000E+00  0.00000000000E+00  0.14711187553E+03  0.18697873372E+04  0.18639910897E+04 0.  0.
        1    1    3    3  502    0  0.26282437588E+03 -0.25012560255E+03  0.93469863186E+03  0.10026469977E+04  0.50400001928E-02 0. -1.
       -1    1    3    3    0  502 -0.26282437588E+03  0.25012560255E+03 -0.78758675633E+03  0.86714033949E+03  0.50400001928E-02 0.  1.
</event>
<event>
 5   0  0.4761944E-04  0.1917734E+04  0.7818609E-02  0.8646079E-01
       -2   -1    0    0    0  501  0.00000000000E+00  0.00000000000E+00  0.15322610286E+04  0.15322610286E+04  0.25500000920E-02 0.  1.
        2   -1    0    0  501    0  0.00000000000E+00  0.00000000000E+00 -0.60004529515E+03  0.60004529516E+03  0.25500000920E-02 0. -1.
    10030    2    1    2    0    0  0.00000000000E+00  0.00000000000E+00  0.93221573346E+03  0.21323063238E+04  0.19177341017E+04 0.  0.
        4    1    3    3  502    0 -0.19664537331E+03 -0.84826863591E+03  0.91252147740E+03  0.12613192067E+04  0.12699999809E+01 0.  1.
       -4    1    3    3    0  502  0.19664537331E+03  0.84826863591E+03  0.19694256057E+02  0.87098711709E+03  0.12699999809E+01 0. -1.
</event>
<event>
 5   0  0.4761944E-04  0.1896125E+04  0.7818609E-02  0.8656788E-01
        2   -1    0    0  501    0  0.00000000000E+00  0.00000000000E+00  0.12839710444E+04  0.12839710444E+04  0.25500000920E-02 0.  1.
       -2   -1    0    0    0  501  0.00000000000E+00  0.00000000000E+00 -0.70003318538E+03  0.70003318539E+03  0.25500000920E-02 0. -1.
    10030    2    1    2    0    0  0.00000000000E+00  0.00000000000E+00  0.58393785901E+03  0.19840042298E+04  0.18961248273E+04 0.  0.
        4    1    3    3  502    0  0.55260842971E+03 -0.25651590014E+03 -0.46808825961E+03  0.76829988630E+03  0.12699999809E+01 0. -1.
       -4    1    3    3    0  502 -0.55260842971E+03  0.25651590014E+03  0.10520261186E+04  0.12157043435E+04  0.12699999809E+01 0.  1.
</event>
<event>
 5   0  0.1729375E-04  0.1749264E+04  0.7818609E-02  0.8733756E-01
        4   -1    0    0  501    0  0.00000000000E+00  0.00000000000E+00  0.94893493618E+03  0.94893578603E+03  0.12699999809E+01 0.  1.
       -4   -1    0    0    0  501  0.00000000000E+00  0.00000000000E+00 -0.80614495475E+03  0.80614595513E+03  0.12699999809E+01 0. -1.
    10030    2    1    2    0    0  0.00000000000E+00  0.00000000000E+00  0.14278998143E+03  0.17550817412E+04  0.17492635420E+04 0.  0.
        2    1    3    3  502    0 -0.20244117348E+02 -0.28746761254E+03 -0.75714418306E+03  0.81013256106E+03  0.25500000920E-02 0. -1.
       -2    1    3    3    0  502  0.20244117348E+02  0.28746761254E+03  0.89993416449E+03  0.94494918010E+03  0.25500000920E-02 0.  1.
</event>
<event>
 5   0  0.4802635E-04  0.1677450E+04  0.7818609E-02  0.8774331E-01
       -2   -1    0    0    0  501  0.00000000000E+00  0.00000000000E+00  0.46190792681E+03  0.46190792682E+03  0.25500000920E-02 0.  1.
        2   -1    0    0  501    0  0.00000000000E+00  0.00000000000E+00 -0.15229433683E+04  0.15229433683E+04  0.25500000920E-02 0. -1.
    10030    2    1    2    0    0  0.00000000000E+00  0.00000000000E+00 -0.10610354415E+04  0.19848512951E+04  0.16774499860E+04 0.  0.
        3    1    3    3  502    0  0.37369348150E+03  0.68846181087E+03 -0.88516500433E+03  0.11820082818E+04  0.10100000352E+00 0. -1.
       -3    1    3    3    0  502 -0.37369348150E+03 -0.68846181087E+03 -0.17587043714E+03  0.80284301330E+03  0.10100000352E+00 0.  1.
</event>
<event>
 5   0  0.4761944E-04  0.1878346E+04  0.7818609E-02  0.8665711E-01
        2   -1    0    0  501    0  0.00000000000E+00  0.00000000000E+00  0.73584261221E+03  0.73584261221E+03  0.25500000920E-02 0. -1.
       -2   -1    0    0    0  501  0.00000000000E+00  0.00000000000E+00 -0.11986878512E+04  0.11986878512E+04  0.25500000920E-02 0.  1.
    10030    2    1    2    0    0  0.00000000000E+00  0.00000000000E+00 -0.46284523902E+03  0.19345304634E+04  0.18783456547E+04 0.  0.
        4    1    3    3  502    0  0.54125159750E+03 -0.68462470658E+03  0.12591331982E+03  0.88177097801E+03  0.12699999809E+01 0. -1.
       -4    1    3    3    0  502 -0.54125159750E+03  0.68462470658E+03 -0.58875855884E+03  0.10527594854E+04  0.12699999809E+01 0.  1.
</event>
<event>
 5   0  0.2355414E-04  0.2069159E+04  0.7818609E-02  0.8574952E-01
        1   -1    0    0  501    0  0.00000000000E+00  0.00000000000E+00  0.15219345739E+04  0.15219345739E+04  0.50400001928E-02 0. -1.
       -1   -1    0    0    0  501  0.00000000000E+00  0.00000000000E+00 -0.70328533258E+03  0.70328533260E+03  0.50400001928E-02 0.  1.
    10030    2    1    2    0    0  0.00000000000E+00  0.00000000000E+00  0.81864924135E+03  0.22252199065E+04  0.20691585372E+04 0.  0.
        5    1    3    3  502    0 -0.13917377583E+03  0.83715039736E+03 -0.22703307623E+03  0.87849657676E+03  0.46999998093E+01 0.  1.
       -5    1    3    3    0  502  0.13917377583E+03 -0.83715039736E+03  0.10456823176E+04  0.13467233298E+04  0.46999998093E+01 0. -1.
</event>
<event>
 5   0  0.2376359E-04  0.1864245E+04  0.7818609E-02  0.8672862E-01
        1   -1    0    0  501    0  0.00000000000E+00  0.00000000000E+00  0.13864818626E+04  0.13864818626E+04  0.50400001928E-02 0.  1.
       -1   -1    0    0    0  501  0.00000000000E+00  0.00000000000E+00 -0.62665947766E+03  0.62665947768E+03  0.50400001928E-02 0. -1.
    10030    2    1    2    0    0  0.00000000000E+00  0.00000000000E+00  0.75982238491E+03  0.20131413403E+04  0.18642446190E+04 0.  0.
        2    1    3    3  502    0  0.85543360735E+03 -0.26105680275E+02  0.77873829382E+03  0.11571004681E+04  0.25500000920E-02 0.  1.
       -2    1    3    3    0  502 -0.85543360735E+03  0.26105680275E+02 -0.18915908906E+02  0.85604087212E+03  0.25500000920E-02 0. -1.
</event>
<event>
 5   0  0.4761944E-04  0.1894366E+04  0.7818609E-02  0.8657666E-01
        2   -1    0    0  501    0  0.00000000000E+00  0.00000000000E+00  0.84058321756E+03  0.84058321757E+03  0.25500000920E-02 0.  1.
       -2   -1    0    0    0  501  0.00000000000E+00  0.00000000000E+00 -0.10673008620E+04  0.10673008620E+04  0.25500000920E-02 0. -1.
    10030    2    1    2    0    0  0.00000000000E+00  0.00000000000E+00 -0.22671764440E+03  0.19078840795E+04  0.18943655325E+04 0.  0.
        4    1    3    3  502    0  0.74162935855E+03 -0.38205107942E+03  0.33836892494E+03  0.90026233677E+03  0.12699999809E+01 0.  1.
       -4    1    3    3    0  502 -0.74162935855E+03  0.38205107942E+03 -0.56508656934E+03  0.10076217428E+04  0.12699999809E+01 0. -1.
</event>
<event>
 5   0  0.4802635E-04  0.1931193E+04  0.7818609E-02  0.8639483E-01
        2   -1    0    0  501    0  0.00000000000E+00  0.00000000000E+00  0.16234381312E+04  0.16234381312E+04  0.25500000920E-02 0.  1.
       -2   -1    0    0    0  501  0.00000000000E+00  0.00000000000E+00 -0.57432233844E+03  0.57432233844E+03  0.25500000920E-02 0. -1.
    10030    2    1    2    0    0  0.00000000000E+00  0.00000000000E+00  0.10491157927E+04  0.21977604696E+04  0.19311931895E+04 0.  0.
        3    1    3    3  502    0 -0.18628915540E+03  0.63939613524E+03  0.13202417385E+04  0.14787052869E+04  0.10100000352E+00 0.  1.
       -3    1    3    3    0  502  0.18628915540E+03 -0.63939613524E+03 -0.27112594575E+03  0.71905518275E+03  0.10100000352E+00 0. -1.
</event>
<event>
 5   0  0.1729375E-04  0.1932767E+04  0.7818609E-02  0.8638716E-01
       -3   -1    0    0    0  501  0.00000000000E+00  0.00000000000E+00  0.99438060120E+03  0.99438060633E+03  0.10100000352E+00 0.  1.
        3   -1    0    0  501    0  0.00000000000E+00  0.00000000000E+00 -0.93917509039E+03  0.93917509582E+03  0.10100000352E+00 0. -1.
    10030    2    1    2    0    0  0.00000000000E+00  0.00000000000E+00  0.55205510806E+02  0.19335557022E+04  0.19327674472E+04 0.  0.
        1    1    3    3  502    0 -0.23055430970E+03 -0.88487952994E+03  0.34034891683E+03  0.97570715763E+03  0.50400001928E-02 0. -1.
       -1    1    3    3    0  502  0.23055430970E+03  0.88487952994E+03 -0.28514340602E+03  0.95784854453E+03  0.50400001928E-02 0.  1.
</event>
<event>
 5   0  0.4829134E-04  0.1887615E+04  0.7818609E-02  0.8661046E-01
       -2   -1    0    0    0  501  0.00000000000E+00  0.00000000000E+00  0.11936697272E+04  0.11936697272E+04  0.25500000920E-02 0.  1.
        2   -1    0    0  501    0  0.00000000000E+00  0.00000000000E+00 -0.74624722347E+03  0.74624722347E+03  0.25500000920E-02 0. -1.
    10030    2    1    2    0    0  0.00000000000E+00  0.00000000000E+00  0.44742250377E+03  0.19399169507E+04  0.18876151299E+04 0.  0.
        2    1    3    3  502    0  0.38104120527E+03  0.61586125792E+03 -0.39828149457E+03  0.82650204964E+03  0.25500000920E-02 0.  1.
       -2    1    3    3    0  502 -0.38104120527E+03 -0.61586125792E+03  0.84570399835E+03  0.11134149011E+04  0.25500000920E-02 0. -1.
</event>
<event>
 5   0  0.4761944E-04  0.1913128E+04  0.7818609E-02  0.8648349E-01
       -2   -1    0    0    0  501  0.00000000000E+00  0.00000000000E+00  0.77916220376E+03  0.77916220377E+03  0.25500000920E-02 0. -1.
        2   -1    0    0  501    0  0.00000000000E+00  0.00000000000E+00 -0.11743568140E+04  0.11743568140E+04  0.25500000920E-02 0.  1.
    10030    2    1    2    0    0  0.00000000000E+00  0.00000000000E+00 -0.39519461022E+03  0.19535190178E+04  0.19131277461E+04 0.  0.
        4    1    3    3  502    0 -0.61788600091E+02 -0.10365910453E+02 -0.11722586191E+04  0.11739323516E+04  0.12699999809E+01 0.  1.
       -4    1    3    3    0  502  0.61788600091E+02  0.10365910453E+02  0.77706400889E+03  0.77958666613E+03  0.12699999809E+01 0. -1.
</event>
<event>
 5   0  0.2261755E-04  0.1847972E+04  0.7818609E-02  0.8681197E-01
        1   -1    0    0  501    0  0.00000000000E+00  0.00000000000E+00  0.66828560190E+03  0.66828560192E+03  0.50400001928E-02 0.  1.
       -1   -1    0    0    0  501  0.00000000000E+00  0.00000000000E+00 -0.12775223743E+04  0.12775223743E+04  0.50400001928E-02 0. -1.
    10030    2    1    2    0    0  0.00000000000E+00  0.00000000000E+00 -0.60923677236E+03  0.19458079762E+04  0.18479716544E+04 0.  0.
        1    1    3    3  502    0  0.69796444127E+03 -0.35910196683E+02 -0.94102256154E+03  0.11721635401E+04  0.50400001928E-02 0. -1.
       -1    1    3    3    0  502 -0.69796444127E+03  0.35910196683E+02  0.33178578918E+03  0.77364443604E+03  0.50400001928E-02 0.  1.
</event>
<event>
 5   0  0.4829134E-04  0.1960690E+04  0.7818609E-02  0.8625223E-01
        2   -1    0    0  501    0  0.00000000000E+00  0.00000000000E+00  0.14604704445E+04  0.14604704445E+04  0.25500000920E-02 0.  1.
       -2   -1    0    0    0  501  0.00000000000E+00  0.00000000000E+00 -0.65805958982E+03  0.65805958982E+03  0.25500000920E-02 0. -1.
    10030    2    1    2    0    0  0.00000000000E+00  0.00000000000E+00  0.80241085470E+03  0.21185300343E+04  0.19606902679E+04 0.  0.
        2    1    3    3  502    0  0.33398318095E+03 -0.32491750955E+02  0.13964857999E+04  0.14362357287E+04  0.25500000920E-02 0.  1.
       -2    1    3    3    0  502 -0.33398318095E+03  0.32491750955E+02 -0.59407494519E+03  0.68229430567E+03  0.25500000920E-02 0. -1.
</event>
<event>
 5   0  0.2355414E-04  0.2004938E+04  0.7818609E-02  0.8604315E-01
       -1   -1    0    0    0  501  0.00000000000E+00  0.00000000000E+00  0.55455215059E+03  0.55455215061E+03  0.50400001928E-02 0. -1.
        1   -1    0    0  501    0  0.00000000000E+00  0.00000000000E+00 -0.18121724840E+04  0.18121724840E+04  0.50400001928E-02 0.  1.
    10030    2    1    2    0    0  0.00000000000E+00  0.00000000000E+00 -0.12576203334E+04  0.23667246346E+04  0.20049380522E+04 0.  0.
        5    1    3    3  502    0  0.67532357503E+03  0.64277657411E+03 -0.19396550676E+03  0.95229636302E+03  0.46999998093E+01 0. -1.
       -5    1    3    3    0  502 -0.67532357503E+03 -0.64277657411E+03 -0.10636548267E+04  0.14144282716E+04  0.46999998093E+01 0.  1.
</event>
<event>
 5   0  0.2317458E-04  0.1923056E+04  0.7818609E-02  0.8643464E-01
       -1   -1    0    0    0  501  0.00000000000E+00  0.00000000000E+00  0.54207698063E+03  0.54207698066E+03  0.50400001928E-02 0. -1.
        1   -1    0    0  501    0  0.00000000000E+00  0.00000000000E+00 -0.17055437144E+04  0.17055437144E+04  0.50400001928E-02 0.  1.
    10030    2    1    2    0    0  0.00000000000E+00  0.00000000000E+00 -0.11634667338E+04  0.22476206951E+04  0.19230558880E+04 0.  0.
        3    1    3    3  502    0 -0.26265772114E+03  0.19516871090E+03 -0.16384616431E+04  0.16708191016E+04  0.10100000352E+00 0.  1.
       -3    1    3    3    0  502  0.26265772114E+03 -0.19516871090E+03  0.47499490930E+03  0.57680159349E+03  0.10100000352E+00 0. -1.
</event>
<event>
 5   0  0.4839293E-04  0.1919468E+04  0.7818609E-02  0.8645226E-01
       -2   -1    0    0    0  501  0.00000000000E+00  0.00000000000E+00  0.39438336029E+03  0.39438336030E+03  0.25500000920E-02 0.  1.
        2   -1    0    0  501    0  0.00000000000E+00  0.00000000000E+00 -0.23355181428E+04  0.23355181428E+04  0.25500000920E-02 0. -1.
    10030    2    1    2    0    0  0.00000000000E+00  0.00000000000E+00 -0.19411347825E+04  0.27299015031E+04  0.19194681484E+04 0.  0.
        5    1    3    3  502    0  0.36689001696E+03  0.63250158450E+03 -0.18546342541E+04  0.19935789037E+04  0.46999998093E+01 0. -1.
       -5    1    3    3    0  502 -0.36689001696E+03 -0.63250158450E+03 -0.86500528422E+02  0.73632259938E+03  0.46999998093E+01 0.  1.
</event>
<event>
 5   0  0.2355414E-04  0.1490264E+04  0.7818609E-02  0.8890953E-01
        1   -1    0    0  501    0  0.00000000000E+00  0.00000000000E+00  0.93704348068E+03  0.93704348069E+03  0.50400001928E-02 0.  1.
       -1   -1    0    0    0  501  0.00000000000E+00  0.00000000000E+00 -0.59252502193E+03  0.59252502195E+03  0.50400001928E-02 0. -1.
    10030    2    1    2    0    0  0.00000000000E+00  0.00000000000E+00  0.34451845875E+03  0.15295685026E+04  0.14902640155E+04 0.  0.
        5    1    3    3  502    0 -0.63393198090E+03 -0.61336164090E+02 -0.22468060038E+03  0.67537792651E+03  0.46999998093E+01 0. -1.
       -5    1    3    3    0  502  0.63393198090E+03  0.61336164090E+02  0.56919905913E+03  0.85419057613E+03  0.46999998093E+01 0.  1.
</event>
<event>
 5   0  0.4802635E-04  0.1684028E+04  0.7818609E-02  0.8770526E-01
        2   -1    0    0  501    0  0.00000000000E+00  0.00000000000E+00  0.13526893127E+04  0.13526893127E+04  0.25500000920E-02 0. -1.
       -2   -1    0    0    0  501  0.00000000000E+00  0.00000000000E+00 -0.52413215523E+03  0.52413215524E+03  0.25500000920E-02 0.  1.
    10030    2    1    2    0    0  0.00000000000E+00  0.00000000000E+00  0.82855715744E+03  0.18768214679E+04  0.16840284615E+04 0.  0.
        3    1    3    3  502    0  0.28369168858E+03  0.16919744674E+03  0.12774666672E+04  0.13194809003E+04  0.10100000352E+00 0. -1.
       -3    1    3    3    0  502 -0.28369168858E+03 -0.16919744674E+03 -0.44890950978E+03  0.55734056763E+03  0.10100000352E+00 0.  1.
</event>
<event>
 5   0  0.2261755E-04  0.1801795E+04  0.7818609E-02  0.8705345E-01
        1   -1    0    0  501    0  0.00000000000E+00  0.00000000000E+00  0.67356721093E+03  0.67356721095E+03  0.50400001928E-02 0. -1.
       -1   -1    0    0    0  501  0.00000000000E+00  0.00000000000E+00 -0.12049522458E+04  0.12049522459E+04  0.50400001928E-02 0.  1.
    10030    2    1    2    0    0  0.00000000000E+00  0.00000000000E+00 -0.53138503491E+03  0.18785194568E+04  0.18017950200E+04 0.  0.
        1    1    3    3  502    0 -0.61612029147E+03 -0.42580399765E+02  0.41813256028E+03  0.74582313050E+03  0.50400001928E-02 0. -1.
       -1    1    3    3    0  502  0.61612029147E+03  0.42580399765E+02 -0.94951759520E+03  0.11326963263E+04  0.50400001928E-02 0.  1.
</event>
<event>
 5   0  0.2355414E-04  0.1714335E+04  0.7818609E-02  0.8753230E-01
        1   -1    0    0  501    0  0.00000000000E+00  0.00000000000E+00  0.14577493585E+04  0.14577493585E+04  0.50400001928E-02 0.  1.
       -1   -1    0    0    0  501  0.00000000000E+00  0.00000000000E+00 -0.50402113482E+03  0.50402113485E+03  0.50400001928E-02 0. -1.
    10030    2    1    2    0    0  0.00000000000E+00  0.00000000000E+00  0.95372822363E+03  0.19617704933E+04  0.17143354234E+04 0.  0.
        5    1    3    3  502    0 -0.82697011235E+02  0.13243366664E+03  0.14413249420E+04  0.14497645154E+04  0.46999998093E+01 0.  1.
       -5    1    3    3    0  502  0.82697011235E+02 -0.13243366664E+03 -0.48759671832E+03  0.51200597794E+03  0.46999998093E+01 0. -1.
</event>
<event>
 5   0  0.4802635E-04  0.1511627E+04  0.7818609E-02  0.8876757E-01
       -2   -1    0    0    0  501  0.00000000000E+00  0.00000000000E+00  0.42586890739E+03  0.42586890740E+03  0.25500000920E-02 0. -1.
        2   -1    0    0  501    0  0.00000000000E+00  0.00000000000E+00 -0.13413855193E+04  0.13413855193E+04  0.25500000920E-02 0.  1.
    10030    2    1    2    0    0  0.00000000000E+00  0.00000000000E+00 -0.91551661189E+03  0.17672544267E+04  0.15116274481E+04 0.  0.
        3    1    3    3  502    0  0.11219012814E+03  0.74697655290E+03 -0.48855223815E+03  0.89957984362E+03  0.10100000352E+00 0.  1.
       -3    1    3    3    0  502 -0.11219012814E+03 -0.74697655290E+03 -0.42696437374E+03  0.86767458306E+03  0.10100000352E+00 0. -1.
</event>
<event>
 5   0  0.4839293E-04  0.1872586E+04  0.7818609E-02  0.8668624E-01
        2   -1    0    0  501    0  0.00000000000E+00  0.00000000000E+00  0.94040501409E+03  0.94040501410E+03  0.25500000920E-02 0.  1.
       -2   -1    0    0    0  501  0.00000000000E+00  0.00000000000E+00 -0.93219923032E+03  0.93219923032E+03  0.25500000920E-02 0. -1.
    10030    2    1    2    0    0  0.00000000000E+00  0.00000000000E+00  0.82057837745E+01  0.18726042444E+04  0.18725862654E+04 0.  0.
        5    1    3    3  502    0  0.28665319395E+03 -0.45442964746E+03  0.77088687206E+03  0.93966218270E+03  0.46999998093E+01 0.  1.
       -5    1    3    3    0  502 -0.28665319395E+03  0.45442964746E+03 -0.76268108829E+03  0.93294206171E+03  0.46999998093E+01 0. -1.
</event>
<event>
 5   0  0.4839293E-04  0.1940437E+04  0.7818609E-02  0.8634986E-01
        2   -1    0    0  501    0  0.00000000000E+00  0.00000000000E+00  0.21931058391E+04  0.21931058391E+04  0.25500000920E-02 0.  1.
       -2   -1    0    0    0  501  0.00000000000E+00  0.00000000000E+00 -0.42921951630E+03  0.42921951631E+03  0.25500000920E-02 0. -1.
    10030    2    1    2    0    0  0.00000000000E+00  0.00000000000E+00  0.17638863228E+04  0.26223253555E+04  0.19404368864E+04 0.  0.
        5    1    3    3  502    0 -0.53937952292E+03  0.55580262648E+03  0.92258445629E+02  0.77998752563E+03  0.46999998093E+01 0. -1.
       -5    1    3    3    0  502  0.53937952292E+03 -0.55580262648E+03  0.16716278772E+04  0.18423378298E+04  0.46999998093E+01 0.  1.
</event>
<event>
 5   0  0.2510069E-04  0.1815760E+04  0.7818609E-02  0.8697963E-01
       -1   -1    0    0    0  501  0.00000000000E+00  0.00000000000E+00  0.60224426382E+03  0.60224426385E+03  0.50400001928E-02 0.  1.
        1   -1    0    0  501    0  0.00000000000E+00  0.00000000000E+00 -0.13686249391E+04  0.13686249391E+04  0.50400001928E-02 0. -1.
    10030    2    1    2    0    0  0.00000000000E+00  0.00000000000E+00 -0.76638067531E+03  0.19708692030E+04  0.18157604676E+04 0.  0.
        4    1    3    3  502    0  0.70440416110E+03  0.13788096585E+03 -0.98660044848E+03  0.12200731293E+04  0.12699999809E+01 0. -1.
       -4    1    3    3    0  502 -0.70440416110E+03 -0.13788096585E+03  0.22021977317E+03  0.75079607372E+03  0.12699999809E+01 0.  1.
</event>
<event>
 5   0  0.1729375E-04  0.1640362E+04  0.7818609E-02  0.8796129E-01
        3   -1    0    0  501    0  0.00000000000E+00  0.00000000000E+00  0.13859259725E+04  0.13859259762E+04  0.10100000352E+00 0.  1.
       -3   -1    0    0    0  501  0.00000000000E+00  0.00000000000E+00 -0.48537719957E+03  0.48537721008E+03  0.10100000352E+00 0. -1.
    10030    2    1    2    0    0  0.00000000000E+00  0.00000000000E+00  0.90054877291E+03  0.18713031862E+04  0.16403620096E+04 0.  0.
        2    1    3    3  502    0  0.55369155336E+03 -0.24864860395E+03 -0.17901857346E+03  0.63280969822E+03  0.25500000920E-02 0. -1.
       -2    1    3    3    0  502 -0.55369155336E+03  0.24864860395E+03  0.10795673464E+04  0.12384934880E+04  0.25500000920E-02 0.  1.
</event>
<event>
 5   0  0.2510069E-04  0.2135402E+04  0.7818609E-02  0.8545807E-01
       -1   -1    0    0    0  501  0.00000000000E+00  0.00000000000E+00  0.77567427376E+03  0.77567427378E+03  0.50400001928E-02 0.  1.
        1   -1    0    0  501    0  0.00000000000E+00  0.00000000000E+00 -0.14696701753E+04  0.14696701753E+04  0.50400001928E-02 0. -1.
    10030    2    1    2    0    0  0.00000000000E+00  0.00000000000E+00 -0.69399590158E+03  0.22453444491E+04  0.21354019256E+04 0.  0.
        4    1    3    3  502    0 -0.26286645499E+03  0.20314528510E+00 -0.14351128199E+04  0.14589891134E+04  0.12699999809E+01 0. -1.
       -4    1    3    3    0  502  0.26286645499E+03 -0.20314528510E+00  0.74111691832E+03  0.78635533568E+03  0.12699999809E+01 0.  1.
</event>
<event>
 5   0  0.2317458E-04  0.1927745E+04  0.7818609E-02  0.8641168E-01
       -1   -1    0    0    0  501  0.00000000000E+00  0.00000000000E+00  0.13375481078E+04  0.13375481078E+04  0.50400001928E-02 0. -1.
        1   -1    0    0  501    0  0.00000000000E+00  0.00000000000E+00 -0.69459194640E+03  0.69459194642E+03  0.50400001928E-02 0.  1.
    10030    2    1    2    0    0  0.00000000000E+00  0.00000000000E+00  0.64295616138E+03  0.20321400542E+04  0.19277449454E+04 0.  0.
        3    1    3    3  502    0 -0.27748612173E+03 -0.67764935568E+03 -0.33923596195E+03  0.80702431505E+03  0.10100000352E+00 0.  1.
       -3    1    3    3    0  502  0.27748612173E+03  0.67764935568E+03  0.98219212332E+03  0.12251157392E+04  0.10100000352E+00 0. -1.
</event>
<event>
 5   0  0.2261755E-04  0.1879488E+04  0.7818609E-02  0.8665134E-01
       -1   -1    0    0    0  501  0.00000000000E+00  0.00000000000E+00  0.95956809462E+03  0.95956809463E+03  0.50400001928E-02 0.  1.
        1   -1    0    0  501    0  0.00000000000E+00  0.00000000000E+00 -0.92032965124E+03  0.92032965125E+03  0.50400001928E-02 0. -1.
    10030    2    1    2    0    0  0.00000000000E+00  0.00000000000E+00  0.39238443380E+02  0.18798977459E+04  0.18794881962E+04 0.  0.
        1    1    3    3  502    0  0.69194611168E+03 -0.62883724843E+03 -0.74705428166E+02  0.93798006775E+03  0.50400001928E-02 0. -1.
       -1    1    3    3    0  502 -0.69194611168E+03  0.62883724843E+03  0.11394387155E+03  0.94191767813E+03  0.50400001928E-02 0.  1.
</event>
<event>
 5   0  0.4802635E-04  0.1871064E+04  0.7818609E-02  0.8669395E-01
       -2   -1    0    0    0  501  0.00000000000E+00  0.00000000000E+00  0.42991918870E+03  0.42991918871E+03  0.25500000920E-02 0. -1.
        2   -1    0    0  501    0  0.00000000000E+00  0.00000000000E+00 -0.20357778066E+04  0.20357778066E+04  0.25500000920E-02 0.  1.
    10030    2    1    2    0    0  0.00000000000E+00  0.00000000000E+00 -0.16058586179E+04  0.24656969953E+04  0.18710638076E+04 0.  0.
        3    1    3    3  502    0 -0.24953136485E+03 -0.73231109267E+03 -0.14960927838E+04  0.16842918590E+04  0.10100000352E+00 0.  1.
       -3    1    3    3    0  502  0.24953136485E+03  0.73231109267E+03 -0.10976583413E+03  0.78140513630E+03  0.10100000352E+00 0. -1.
</event>
<event>
 5   0  0.4839293E-04  0.1560080E+04  0.7818609E-02  0.8845454E-01
       -2   -1    0    0    0  501  0.00000000000E+00  0.00000000000E+00  0.13742002766E+04  0.13742002766E+04  0.25500000920E-02 0. -1.
        2   -1    0    0  501    0  0.00000000000E+00  0.00000000000E+00 -0.44277589857E+03  0.44277589858E+03  0.25500000920E-02 0.  1.
    10030    2    1    2    0    0  0.00000000000E+00  0.00000000000E+00  0.93142437805E+03  0.18169761752E+04  0.15600804624E+04 0.  0.
        5    1    3    3  502    0 -0.86754895903E+02 -0.21852952628E+03  0.13319303163E+04  0.13525317088E+04  0.46999998093E+01 0. -1.
       -5    1    3    3    0  502  0.86754895903E+02  0.21852952628E+03 -0.40050593824E+03  0.46444446641E+03  0.46999998093E+01 0.  1.
</event>
<event>
 5   0  0.4839293E-04  0.1876511E+04  0.7818609E-02  0.8666638E-01
       -2   -1    0    0    0  501  0.00000000000E+00  0.00000000000E+00  0.10118618031E+04  0.10118618031E+04  0.25500000920E-02 0. -1.
        2   -1    0    0  501    0  0.00000000000E+00  0.00000000000E+00 -0.87000336687E+03  0.87000336688E+03  0.25500000920E-02 0.  1.
    10030    2    1    2    0    0  0.00000000000E+00  0.00000000000E+00  0.14185843622E+03  0.18818651700E+04  0.18765107785E+04 0.  0.
        5    1    3    3  502    0  0.79531245721E+03 -0.41503549957E+03  0.34653097932E+03  0.96170794949E+03  0.46999998093E+01 0. -1.
       -5    1    3    3    0  502 -0.79531245721E+03  0.41503549957E+03 -0.20467254310E+03  0.92015722047E+03  0.46999998093E+01 0.  1.
</event>
<event>
 5   0  0.2261755E-04  0.1887474E+04  0.7818609E-02  0.8661117E-01
        1   -1    0    0  501    0  0.00000000000E+00  0.00000000000E+00  0.84253502721E+03  0.84253502722E+03  0.50400001928E-02 0.  1.
       -1   -1    0    0    0  501  0.00000000000E+00  0.00000000000E+00 -0.10570950493E+04  0.10570950493E+04  0.50400001928E-02 0. -1.
    10030    2    1    2    0    0  0.00000000000E+00  0.00000000000E+00 -0.21456002210E+03  0.18996300765E+04  0.18874740858E+04 0.  0.
        1    1    3    3  502    0 -0.16051664928E+03 -0.47728779272E+03 -0.91058736765E+03  0.10405472531E+04  0.50400001928E-02 0. -1.
       -1    1    3    3    0  502  0.16051664928E+03  0.47728779272E+03  0.69602734555E+03  0.85908282345E+03  0.50400001928E-02 0.  1.
</event>
<event>
 5   0  0.4973411E-04  0.1900254E+04  0.7818609E-02  0.8654730E-01
        2   -1    0    0  501    0  0.00000000000E+00  0.00000000000E+00  0.91543576685E+03  0.91543576685E+03  0.25500000920E-02 0.  1.
       -2   -1    0    0    0  501  0.00000000000E+00  0.00000000000E+00 -0.98613245836E+03  0.98613245836E+03  0.25500000920E-02 0. -1.
    10030    2    1    2    0    0  0.00000000000E+00  0.00000000000E+00 -0.70696691510E+02  0.19015682252E+04  0.19002535865E+04 0.  0.
        1    1    3    3  502    0 -0.23073136344E+03 -0.36025361808E+03 -0.88429915437E+03  0.98234648971E+03  0.50400001928E-02 0. -1.
       -1    1    3    3    0  502  0.23073136344E+03  0.36025361808E+03  0.81360246286E+03  0.91922173549E+03  0.50400001928E-02 0.  1.
</event>
<event>
 5   0  0.4973411E-04  0.1197046E+04  0.7818609E-02  0.9115446E-01
        2   -1    0    0  501    0  0.00000000000E+00  0.00000000000E+00  0.14060235054E+04  0.14060235054E+04  0.25500000920E-02 0. -1.
       -2   -1    0    0    0  501  0.00000000000E+00  0.00000000000E+00 -0.25478238096E+03  0.25478238097E+03  0.25500000920E-02 0.  1.
    10030    2    1    2    0    0  0.00000000000E+00  0.00000000000E+00  0.11512411244E+04  0.16608058864E+04  0.11970463924E+04 0.  0.
        1    1    3    3  502    0 -0.68259201546E+02  0.12288129111E+03 -0.23155601775E+03  0.27088248316E+03  0.50400001928E-02 0.  1.
       -1    1    3    3    0  502  0.68259201546E+02 -0.12288129111E+03  0.13827971422E+04  0.13899234032E+04  0.50400001928E-02 0. -1.
</event>
<event>
 5   0  0.2317458E-04  0.1930669E+04  0.7818609E-02  0.8639739E-01
        1   -1    0    0  501    0  0.00000000000E+00  0.00000000000E+00  0.91823901254E+03  0.91823901256E+03  0.50400001928E-02 0.  1.
       -1   -1    0    0    0  501  0.00000000000E+00  0.00000000000E+00 -0.10148455358E+04  0.10148455358E+04  0.50400001928E-02 0. -1.
    10030    2    1    2    0    0  0.00000000000E+00  0.00000000000E+00 -0.96606523220E+02  0.19330845483E+04  0.19306690681E+04 0.  0.
        3    1    3    3  502    0 -0.71049366534E+03  0.42406884886E+03  0.44954625306E+03  0.94166208424E+03  0.10100000352E+00 0.  1.
       -3    1    3    3    0  502  0.71049366534E+03 -0.42406884886E+03 -0.54615277628E+03  0.99142246409E+03  0.10100000352E+00 0. -1.
</event>
<event>
 5   0  0.4761944E-04  0.1927246E+04  0.7818609E-02  0.8641412E-01
        2   -1    0    0  501    0  0.00000000000E+00  0.00000000000E+00  0.13942963037E+04  0.13942963037E+04  0.25500000920E-02 0.  1.
       -2   -1    0    0    0  501  0.00000000000E+00  0.00000000000E+00 -0.66597674138E+03  0.66597674138E+03  0.25500000920E-02 0. -1.
    10030    2    1    2    0    0  0.00000000000E+00  0.00000000000E+00  0.72831956229E+03  0.20602730451E+04  0.19272456085E+04 0.  0.
        4    1    3    3  502    0  0.94638638754E+03  0.14628268074E+03  0.24941265247E+03  0.98957268622E+03  0.12699999809E+01 0. -1.
       -4    1    3    3    0  502 -0.94638638754E+03 -0.14628268074E+03  0.47890690983E+03  0.10707003588E+04  0.12699999809E+01 0.  1.
</event>
<event>
 5   0  0.2376359E-04  0.1917235E+04  0.7818609E-02  0.8646324E-01
        1   -1    0    0  501    0  0.00000000000E+00  0.00000000000E+00  0.12250407541E+04  0.12250407541E+04  0.50400001928E-02 0.  1.
       -1   -1    0    0    0  501  0.00000000000E+00  0.00000000000E+00 -0.75013666706E+03  0.75013666708E+03  0.50400001928E-02 0. -1.
    10030    2    1    2    0    0  0.00000000000E+00  0.00000000000E+00  0.47490408706E+03  0.19751774212E+04  0.19172354976E+04 0.  0.
        2    1    3    3  502    0  0.66617982922E+03 -0.10703725234E+03 -0.46407928187E+03  0.81891520814E+03  0.25500000920E-02 0. -1.
       -2    1    3    3    0  502 -0.66617982922E+03  0.10703725234E+03  0.93898336893E+03  0.11562622131E+04  0.25500000920E-02 0.  1.
</event>
<event>
 5   0  0.4829134E-04  0.9368580E+03  0.7818609E-02  0.9380645E-01
        2   -1    0    0  501    0  0.00000000000E+00  0.00000000000E+00  0.33194578889E+03  0.33194578890E+03  0.25500000920E-02 0. -1.
       -2   -1    0    0    0  501  0.00000000000E+00  0.00000000000E+00 -0.66102885629E+03  0.66102885629E+03  0.25500000920E-02 0.  1.
    10030    2    1    2    0    0  0.00000000000E+00  0.00000000000E+00 -0.32908306740E+03  0.99297464519E+03  0.93685803660E+03 0.  0.
        2    1    3    3  502    0  0.32386480898E+03  0.58702883588E+02  0.18872654902E+03  0.37941027049E+03  0.25500000920E-02 0. -1.
       -2    1    3    3    0  502 -0.32386480898E+03 -0.58702883588E+02 -0.51780961642E+03  0.61356437470E+03  0.25500000920E-02 0.  1.
</event>
<event>
 5   0  0.2261755E-04  0.1912845E+04  0.7818609E-02  0.8648489E-01
       -1   -1    0    0    0  501  0.00000000000E+00  0.00000000000E+00  0.88581048080E+03  0.88581048081E+03  0.50400001928E-02 0. -1.
        1   -1    0    0  501    0  0.00000000000E+00  0.00000000000E+00 -0.10326637737E+04  0.10326637738E+04  0.50400001928E-02 0.  1.
    10030    2    1    2    0    0  0.00000000000E+00  0.00000000000E+00 -0.14685329295E+03  0.19184742546E+04  0.19128454135E+04 0.  0.
        1    1    3    3  502    0 -0.28420753833E+03  0.90813402129E+03 -0.16995469771E+03  0.96662605218E+03  0.50400001928E-02 0. -1.
       -1    1    3    3    0  502  0.28420753833E+03 -0.90813402129E+03  0.23101404765E+02  0.95184820239E+03  0.50400001928E-02 0.  1.
</event>
<event>
 5   0  0.4829134E-04  0.2073467E+04  0.7818609E-02  0.8573022E-01
        2   -1    0    0  501    0  0.00000000000E+00  0.00000000000E+00  0.11287623912E+04  0.11287623912E+04  0.25500000920E-02 0.  1.
       -2   -1    0    0    0  501  0.00000000000E+00  0.00000000000E+00 -0.95220815670E+03  0.95220815670E+03  0.25500000920E-02 0. -1.
    10030    2    1    2    0    0  0.00000000000E+00  0.00000000000E+00  0.17655423449E+03  0.20809705479E+04  0.20734673915E+04 0.  0.
        2    1    3    3  502    0  0.25925937217E+02 -0.98335065837E+03 -0.24026980651E+03  0.10126106120E+04  0.25500000920E-02 0. -1.
       -2    1    3    3    0  502 -0.25925937217E+02  0.98335065837E+03  0.41682404101E+03  0.10683599359E+04  0.25500000920E-02 0.  1.
</event>
<event>
 5   0  0.4839293E-04  0.1583423E+04  0.7818609E-02  0.8830797E-01
       -2   -1    0    0    0  501  0.00000000000E+00  0.00000000000E+00  0.58832444195E+03  0.58832444196E+03  0.25500000920E-02 0. -1.
        2   -1    0    0  501    0  0.00000000000E+00  0.00000000000E+00 -0.10654107607E+04  0.10654107607E+04  0.25500000920E-02 0.  1.
    10030    2    1    2    0    0  0.00000000000E+00  0.00000000000E+00 -0.47708631876E+03  0.16537352027E+04  0.15834231162E+04 0.  0.
        5    1    3    3  502    0 -0.31347181144E+02  0.63581540651E+03 -0.73012549207E+03  0.96868426285E+03  0.46999998093E+01 0.  1.
       -5    1    3    3    0  502  0.31347181144E+02 -0.63581540651E+03  0.25303917331E+03  0.68505093982E+03  0.46999998093E+01 0. -1.
</event>
<event>
 5   0  0.4839293E-04  0.1825939E+04  0.7818609E-02  0.8692626E-01
        2   -1    0    0  501    0  0.00000000000E+00  0.00000000000E+00  0.18690486958E+04  0.18690486958E+04  0.25500000920E-02 0.  1.
       -2   -1    0    0    0  501  0.00000000000E+00  0.00000000000E+00 -0.44595571639E+03  0.44595571640E+03  0.25500000920E-02 0. -1.
    10030    2    1    2    0    0  0.00000000000E+00  0.00000000000E+00  0.14230929794E+04  0.23150044122E+04  0.18259386081E+04 0.  0.
        5    1    3    3  502    0  0.43259934794E+03 -0.74635741462E+03  0.33267701534E+03  0.92460135882E+03  0.46999998093E+01 0. -1.
       -5    1    3    3    0  502 -0.43259934794E+03  0.74635741462E+03  0.10904159641E+04  0.13904030534E+04  0.46999998093E+01 0.  1.
</event>
<event>
 5   0  0.1729375E-04  0.1884454E+04  0.7818609E-02  0.8662633E-01
        4   -1    0    0  501    0  0.00000000000E+00  0.00000000000E+00  0.19729919198E+04  0.19729923285E+04  0.12699999809E+01 0. -1.
       -4   -1    0    0    0  501  0.00000000000E+00  0.00000000000E+00 -0.44997113290E+03  0.44997292512E+03  0.12699999809E+01 0.  1.
    10030    2    1    2    0    0  0.00000000000E+00  0.00000000000E+00  0.15230207869E+04  0.24229652536E+04  0.18844543781E+04 0.  0.
        4    1    3    3  502    0 -0.73352446209E+03  0.59082568263E+03  0.79447563831E+03  0.12322038291E+04  0.12699999809E+01 0. -1.
       -4    1    3    3    0  502  0.73352446209E+03 -0.59082568263E+03  0.72854514857E+03  0.11907614245E+04  0.12699999809E+01 0.  1.
</event>
<event>
 5   0  0.2317458E-04  0.1510265E+04  0.7818609E-02  0.8877655E-01
       -1   -1    0    0    0  501  0.00000000000E+00  0.00000000000E+00  0.75585436390E+03  0.75585436392E+03  0.50400001928E-02 0. -1.
        1   -1    0    0  501    0  0.00000000000E+00  0.00000000000E+00 -0.75441182242E+03  0.75441182244E+03  0.50400001928E-02 0.  1.
    10030    2    1    2    0    0  0.00000000000E+00  0.00000000000E+00  0.14425414774E+01  0.15102661864E+04  0.15102654974E+04 0.  0.
        3    1    3    3  502    0  0.66332051504E+03 -0.32915338558E+03  0.14867200930E+03  0.75527440938E+03  0.10100000352E+00 0. -1.
       -3    1    3    3    0  502 -0.66332051504E+03  0.32915338558E+03 -0.14722946782E+03  0.75499177698E+03  0.10100000352E+00 0.  1.
</event>
<event>
 5   0  0.2317458E-04  0.1945527E+04  0.7818609E-02  0.8632521E-01
        1   -1    0    0  501    0  0.00000000000E+00  0.00000000000E+00  0.10397803621E+04  0.10397803621E+04  0.50400001928E-02 0. -1.
       -1   -1    0    0    0  501  0.00000000000E+00  0.00000000000E+00 -0.91006573219E+03  0.91006573221E+03  0.50400001928E-02 0.  1.
    10030    2    1    2    0    0  0.00000000000E+00  0.00000000000E+00  0.12971462989E+03  0.19498460943E+04  0.19455266398E+04 0.  0.
        3    1    3    3  502    0  0.37633962948E+03 -0.90642280321E+02  0.95926285878E+03  0.10344238890E+04  0.10100000352E+00 0. -1.
       -3    1    3    3    0  502 -0.37633962948E+03  0.90642280321E+02 -0.82954822889E+03  0.91542220530E+03  0.10100000352E+00 0.  1.
</event>
<event>
 5   0  0.2317458E-04  0.1981086E+04  0.7818609E-02  0.8615515E-01
        1   -1    0    0  501    0  0.00000000000E+00  0.00000000000E+00  0.63587526055E+03  0.63587526057E+03  0.50400001928E-02 0. -1.
       -1   -1    0    0    0  501  0.00000000000E+00  0.00000000000E+00 -0.15430317273E+04  0.15430317273E+04  0.50400001928E-02 0.  1.
    10030    2    1    2    0    0  0.00000000000E+00  0.00000000000E+00 -0.90715646675E+03  0.21789069879E+04  0.19810862694E+04 0.  0.
        3    1    3    3  502    0  0.12842104585E+03 -0.87154101256E+03  0.44523580422E+02  0.88207599503E+03  0.10100000352E+00 0. -1.
       -3    1    3    3    0  502 -0.12842104585E+03  0.87154101256E+03 -0.95168004717E+03  0.12968309928E+04  0.10100000352E+00 0.  1.
</event>
<event>
 5   0  0.4973411E-04  0.1898966E+04  0.7818609E-02  0.8655371E-01
       -2   -1    0    0    0  501  0.00000000000E+00  0.00000000000E+00  0.73457995735E+03  0.73457995735E+03  0.25500000920E-02 0.  1.
        2   -1    0    0  501    0  0.00000000000E+00  0.00000000000E+00 -0.12272561667E+04  0.12272561667E+04  0.25500000920E-02 0. -1.
    10030    2    1    2    0    0  0.00000000000E+00  0.00000000000E+00 -0.49267620938E+03  0.19618361241E+04  0.18989658055E+04 0.  0.
        1    1    3    3  502    0 -0.52845554340E+02 -0.81610028884E+03  0.25202841485E+03  0.85576320088E+03  0.50400001928E-02 0.  1.
       -1    1    3    3    0  502  0.52845554340E+02  0.81610028884E+03 -0.74470462423E+03  0.11060729232E+04  0.50400001928E-02 0. -1.
</event>
<event>
 5   0  0.2355414E-04  0.2108505E+04  0.7818609E-02  0.8557506E-01
        1   -1    0    0  501    0  0.00000000000E+00  0.00000000000E+00  0.10129675334E+04  0.10129675334E+04  0.50400001928E-02 0.  1.
       -1   -1    0    0    0  501  0.00000000000E+00  0.00000000000E+00 -0.10972201936E+04  0.10972201936E+04  0.50400001928E-02 0. -1.
    10030    2    1    2    0    0  0.00000000000E+00  0.00000000000E+00 -0.84252660250E+02  0.21101877270E+04  0.21085050943E+04 0.  0.
        5    1    3    3  502    0 -0.34825310478E+03 -0.99489819826E+03 -0.24120495518E+02  0.10543749514E+04  0.46999998093E+01 0. -1.
       -5    1    3    3    0  502  0.34825310478E+03  0.99489819826E+03 -0.60132164732E+02  0.10558127756E+04  0.46999998093E+01 0.  1.
</event>
<event>
 5   0  0.4973411E-04  0.1894935E+04  0.7818609E-02  0.8657381E-01
       -2   -1    0    0    0  501  0.00000000000E+00  0.00000000000E+00  0.34943628560E+03  0.34943628561E+03  0.25500000920E-02 0. -1.
        2   -1    0    0  501    0  0.00000000000E+00  0.00000000000E+00 -0.25689806346E+04  0.25689806346E+04  0.25500000920E-02 0.  1.
    10030    2    1    2    0    0  0.00000000000E+00  0.00000000000E+00 -0.22195443490E+04  0.29184169202E+04  0.18949354087E+04 0.  0.
        1    1    3    3  502    0 -0.68418118105E+03 -0.68388287370E+02 -0.10584190659E+03  0.69568912279E+03  0.50400001928E-02 0. -1.
       -1    1    3    3    0  502  0.68418118105E+03  0.68388287370E+02 -0.21137024424E+04  0.22227277974E+04  0.50400001928E-02 0.  1.
</event>
<event>
 5   0  0.4802635E-04  0.1930224E+04  0.7818609E-02  0.8639956E-01
       -2   -1    0    0    0  501  0.00000000000E+00  0.00000000000E+00  0.61556247895E+03  0.61556247896E+03  0.25500000920E-02 0.  1.
        2   -1    0    0  501    0  0.00000000000E+00  0.00000000000E+00 -0.15131549988E+04  0.15131549988E+04  0.25500000920E-02 0. -1.
    10030    2    1    2    0    0  0.00000000000E+00  0.00000000000E+00 -0.89759251985E+03  0.21287174778E+04  0.19302242793E+04 0.  0.
        3    1    3    3  502    0  0.87029330445E+03  0.34244142758E+03 -0.18604182453E+03  0.95356601122E+03  0.10100000352E+00 0. -1.
       -3    1    3    3    0  502 -0.87029330445E+03 -0.34244142758E+03 -0.71155069532E+03  0.11751514665E+04  0.10100000352E+00 0.  1.
</event>
<event>
 5   0  0.4829134E-04  0.1921479E+04  0.7818609E-02  0.8644238E-01
       -2   -1    0    0    0  501  0.00000000000E+00  0.00000000000E+00  0.60926154048E+03  0.60926154049E+03  0.25500000920E-02 0.  1.
        2   -1    0    0  501    0  0.00000000000E+00  0.00000000000E+00 -0.15149829802E+04  0.15149829802E+04  0.25500000920E-02 0. -1.
    10030    2    1    2    0    0  0.00000000000E+00  0.00000000000E+00 -0.90572143967E+03  0.21242445206E+04  0.19214794969E+04 0.  0.
        2    1    3    3  502    0 -0.81226124850E+03  0.25495426422E+03  0.39378578243E+02  0.85224449842E+03  0.25500000920E-02 0.  1.
       -2    1    3    3    0  502  0.81226124850E+03 -0.25495426422E+03 -0.94510001791E+03  0.12720000222E+04  0.25500000920E-02 0. -1.
</event>
<event>
 5   0  0.2376359E-04  0.1835713E+04  0.7818609E-02  0.8687535E-01
       -1   -1    0    0    0  501  0.00000000000E+00  0.00000000000E+00  0.55421555678E+03  0.55421555680E+03  0.50400001928E-02 0. -1.
        1   -1    0    0  501    0  0.00000000000E+00  0.00000000000E+00 -0.15200954669E+04  0.15200954669E+04  0.50400001928E-02 0.  1.
    10030    2    1    2    0    0  0.00000000000E+00  0.00000000000E+00 -0.96587991015E+03  0.20743110237E+04  0.18357130011E+04 0.  0.
        2    1    3    3  502    0  0.79184291232E+03 -0.31347698621E+03 -0.96135672282E+02  0.85704438985E+03  0.25500000920E-02 0. -1.
       -2    1    3    3    0  502 -0.79184291232E+03  0.31347698621E+03 -0.86974423786E+03  0.12172666339E+04  0.25500000920E-02 0.  1.
</event>
<event>
 5   0  0.4839293E-04  0.1777963E+04  0.7818609E-02  0.8718107E-01
        2   -1    0    0  501    0  0.00000000000E+00  0.00000000000E+00  0.16726342101E+04  0.16726342101E+04  0.25500000920E-02 0. -1.
       -2   -1    0    0    0  501  0.00000000000E+00  0.00000000000E+00 -0.47248089964E+03  0.47248089965E+03  0.25500000920E-02 0.  1.
    10030    2    1    2    0    0  0.00000000000E+00  0.00000000000E+00  0.12001533105E+04  0.21451151098E+04  0.17779625602E+04 0.  0.
        5    1    3    3  502    0  0.63443665294E+01  0.27223730355E+03 -0.42090640068E+03  0.50133590392E+03  0.46999998093E+01 0.  1.
       -5    1    3    3    0  502 -0.63443665294E+01 -0.27223730355E+03  0.16210597112E+04  0.16437792058E+04  0.46999998093E+01 0. -1.
</event>
<event>
 5   0  0.1729375E-04  0.1917040E+04  0.7818609E-02  0.8646421E-01
       -3   -1    0    0    0  501  0.00000000000E+00  0.00000000000E+00  0.13279440149E+04  0.13279440188E+04  0.10100000352E+00 0.  1.
        3   -1    0    0  501    0  0.00000000000E+00  0.00000000000E+00 -0.69186682572E+03  0.69186683309E+03  0.10100000352E+00 0. -1.
    10030    2    1    2    0    0  0.00000000000E+00  0.00000000000E+00  0.63607718923E+03  0.20198108519E+04  0.19170398240E+04 0.  0.
        3    1    3    3  502    0  0.88329703616E+03  0.45041519392E+02  0.70732976640E+03  0.11325006849E+04  0.10100000352E+00 0.  1.
       -3    1    3    3    0  502 -0.88329703616E+03 -0.45041519392E+02 -0.71252577167E+02  0.88731016703E+03  0.10100000352E+00 0. -1.
</event>
<event>
 5   0  0.4839293E-04  0.1847350E+04  0.7818609E-02  0.8681517E-01
        2   -1    0    0  501    0  0.00000000000E+00  0.00000000000E+00  0.13279025212E+04  0.13279025213E+04  0.25500000920E-02 0. -1.
       -2   -1    0    0    0  501  0.00000000000E+00  0.00000000000E+00 -0.64249848321E+03  0.64249848322E+03  0.25500000920E-02 0.  1.
    10030    2    1    2    0    0  0.00000000000E+00  0.00000000000E+00  0.68540403803E+03  0.19704010045E+04  0.18473498378E+04 0.  0.
        5    1    3    3  502    0 -0.74552020133E+03 -0.45040149913E+03  0.14832094849E+02  0.87115094102E+03  0.46999998093E+01 0.  1.
       -5    1    3    3    0  502  0.74552020133E+03  0.45040149913E+03  0.67057194318E+03  0.10992500634E+04  0.46999998093E+01 0. -1.
</event>
<event>
 5   0  0.4973411E-04  0.1762099E+04  0.7818609E-02  0.8726718E-01
       -2   -1    0    0    0  501  0.00000000000E+00  0.00000000000E+00  0.11209281955E+04  0.11209281955E+04  0.25500000920E-02 0. -1.
        2   -1    0    0  501    0  0.00000000000E+00  0.00000000000E+00 -0.69250511470E+03  0.69250511470E+03  0.25500000920E-02 0.  1.
    10030    2    1    2    0    0  0.00000000000E+00  0.00000000000E+00  0.42842308077E+03  0.18134333102E+04  0.17620993259E+04 0.  0.
        1    1    3    3  502    0 -0.51164135682E+03 -0.61835818275E+03  0.58826225054E+03  0.99508602423E+03  0.50400001928E-02 0. -1.
       -1    1    3    3    0  502  0.51164135682E+03  0.61835818275E+03 -0.15983916977E+03  0.81834728594E+03  0.50400001928E-02 0.  1.
</event>
<event>
 5   0  0.4761944E-04  0.2099823E+04  0.7818609E-02  0.8561321E-01
       -2   -1    0    0    0  501  0.00000000000E+00  0.00000000000E+00  0.99503343109E+03  0.99503343110E+03  0.25500000920E-02 0. -1.
        2   -1    0    0  501    0  0.00000000000E+00  0.00000000000E+00 -0.11078161457E+04  0.11078161457E+04  0.25500000920E-02 0.  1.
    10030    2    1    2    0    0  0.00000000000E+00  0.00000000000E+00 -0.11278271461E+03  0.21028495768E+04  0.20998229454E+04 0.  0.
        4    1    3    3  502    0  0.19379870071E+03 -0.46631045696E+02 -0.10886924065E+04  0.11067904769E+04  0.12699999809E+01 0.  1.
       -4    1    3    3    0  502 -0.19379870071E+03  0.46631045696E+02  0.97590969192E+03  0.99605909990E+03  0.12699999809E+01 0. -1.
</event>
<event>
 5   0  0.2376359E-04  0.2398540E+04  0.7818609E-02  0.8440050E-01
        1   -1    0    0  501    0  0.00000000000E+00  0.00000000000E+00  0.10544547473E+04  0.10544547473E+04  0.50400001928E-02 0. -1.
       -1   -1    0    0    0  501  0.00000000000E+00  0.00000000000E+00 -0.13639733089E+04  0.13639733089E+04  0.50400001928E-02 0.  1.
    10030    2    1    2    0    0  0.00000000000E+00  0.00000000000E+00 -0.30951856160E+03  0.24184280562E+04  0.23985396647E+04 0.  0.
        2    1    3    3  502    0 -0.69170739904E+03  0.71371244635E+03 -0.83144524664E+03  0.12958185753E+04  0.25500000920E-02 0.  1.
       -2    1    3    3    0  502  0.69170739904E+03 -0.71371244635E+03  0.52192668504E+03  0.11226094809E+04  0.25500000920E-02 0. -1.
</event>
<event>
 5   0  0.2376359E-04  0.1916705E+04  0.7818609E-02  0.8646586E-01
        1   -1    0    0  501    0  0.00000000000E+00  0.00000000000E+00  0.77437290408E+03  0.77437290409E+03  0.50400001928E-02 0.  1.
       -1   -1    0    0    0  501  0.00000000000E+00  0.00000000000E+00 -0.11860425109E+04  0.11860425109E+04  0.50400001928E-02 0. -1.
    10030    2    1    2    0    0  0.00000000000E+00  0.00000000000E+00 -0.41166960682E+03  0.19604154150E+04  0.19167046549E+04 0.  0.
        2    1    3    3  502    0 -0.35183172705E+03  0.46758148360E+03  0.57043400469E+03  0.81719823891E+03  0.25500000920E-02 0.  1.
       -2    1    3    3    0  502  0.35183172705E+03 -0.46758148360E+03 -0.98210361151E+03  0.11432171761E+04  0.25500000920E-02 0. -1.
</event>
<event>
 5   0  0.4839293E-04  0.1911674E+04  0.7818609E-02  0.8649067E-01
       -2   -1    0    0    0  501  0.00000000000E+00  0.00000000000E+00  0.79249501132E+03  0.79249501132E+03  0.25500000920E-02 0.  1.
        2   -1    0    0  501    0  0.00000000000E+00  0.00000000000E+00 -0.11528451559E+04  0.11528451559E+04  0.25500000920E-02 0. -1.
    10030    2    1    2    0    0  0.00000000000E+00  0.00000000000E+00 -0.36035014460E+03  0.19453401672E+04  0.19116736488E+04 0.  0.
        5    1    3    3  502    0 -0.39013908093E+03 -0.66838254323E+03  0.39064776520E+03  0.86693223093E+03  0.46999998093E+01 0.  1.
       -5    1    3    3    0  502  0.39013908093E+03  0.66838254323E+03 -0.75099790980E+03  0.10784079363E+04  0.46999998093E+01 0. -1.
</event>
<event>
 5   0  0.4802635E-04  0.1888387E+04  0.7818609E-02  0.8660659E-01
        2   -1    0    0  501    0  0.00000000000E+00  0.00000000000E+00  0.57295330290E+03  0.57295330290E+03  0.25500000920E-02 0.  1.
       -2   -1    0    0    0  501  0.00000000000E+00  0.00000000000E+00 -0.15559753976E+04  0.15559753976E+04  0.25500000920E-02 0. -1.
    10030    2    1    2    0    0  0.00000000000E+00  0.00000000000E+00 -0.98302209466E+03  0.21289287005E+04  0.18883868706E+04 0.  0.
        3    1    3    3  502    0  0.45109194703E+03  0.29491625099E+03 -0.13655332080E+04  0.14680396766E+04  0.10100000352E+00 0. -1.
       -3    1    3    3    0  502 -0.45109194703E+03 -0.29491625099E+03  0.38251111336E+03  0.66088902383E+03  0.10100000352E+00 0.  1.
</event>
<event>
 5   0  0.2376359E-04  0.1486126E+04  0.7818609E-02  0.8893732E-01
       -1   -1    0    0    0  501  0.00000000000E+00  0.00000000000E+00  0.56066621955E+03  0.56066621957E+03  0.50400001928E-02 0.  1.
        1   -1    0    0  501    0  0.00000000000E+00  0.00000000000E+00 -0.98479767068E+03  0.98479767069E+03  0.50400001928E-02 0. -1.
    10030    2    1    2    0    0  0.00000000000E+00  0.00000000000E+00 -0.42413145113E+03  0.15454638903E+04  0.14861262222E+04 0.  0.
        2    1    3    3  502    0  0.35031741515E+03 -0.33527014123E+03  0.37345554862E+03  0.61204363060E+03  0.25500000920E-02 0.  1.
       -2    1    3    3    0  502 -0.35031741515E+03  0.33527014123E+03 -0.79758699975E+03  0.93342025966E+03  0.25500000920E-02 0. -1.
</event>
<event>
 5   0  0.4761944E-04  0.1735411E+04  0.7818609E-02  0.8741422E-01
       -2   -1    0    0    0  501  0.00000000000E+00  0.00000000000E+00  0.79251783766E+03  0.79251783766E+03  0.25500000920E-02 0.  1.
        2   -1    0    0  501    0  0.00000000000E+00  0.00000000000E+00 -0.95002640270E+03  0.95002640270E+03  0.25500000920E-02 0. -1.
    10030    2    1    2    0    0  0.00000000000E+00  0.00000000000E+00 -0.15750856504E+03  0.17425442404E+04  0.17354110411E+04 0.  0.
        4    1    3    3  502    0  0.13638072277E+03 -0.22128260244E+03 -0.91001309097E+03  0.94640959966E+03  0.12699999809E+01 0. -1.
       -4    1    3    3    0  502 -0.13638072277E+03  0.22128260244E+03  0.75250452593E+03  0.79613464071E+03  0.12699999809E+01 0.  1.
</event>
<event>
 5   0  0.2510069E-04  0.1840556E+04  0.7818609E-02  0.8685025E-01
        1   -1    0    0  501    0  0.00000000000E+00  0.00000000000E+00  0.61442328226E+03  0.61442328228E+03  0.50400001928E-02 0.  1.
       -1   -1    0    0    0  501  0.00000000000E+00  0.00000000000E+00 -0.13783844527E+04  0.13783844527E+04  0.50400001928E-02 0. -1.
    10030    2    1    2    0    0  0.00000000000E+00  0.00000000000E+00 -0.76396117048E+03  0.19928077350E+04  0.18405558940E+04 0.  0.
        4    1    3    3  502    0 -0.65876540808E+03  0.16280899299E+03  0.29107744891E+03  0.73838088088E+03  0.12699999809E+01 0.  1.
       -4    1    3    3    0  502  0.65876540808E+03 -0.16280899299E+03 -0.10550386194E+04  0.12544268541E+04  0.12699999809E+01 0. -1.
</event>
<event>
 5   0  0.2317458E-04  0.1840020E+04  0.7818609E-02  0.8685302E-01
       -1   -1    0    0    0  501  0.00000000000E+00  0.00000000000E+00  0.10542898784E+04  0.10542898784E+04  0.50400001928E-02 0.  1.
        1   -1    0    0  501    0  0.00000000000E+00  0.00000000000E+00 -0.80283271297E+03  0.80283271299E+03  0.50400001928E-02 0. -1.
    10030    2    1    2    0    0  0.00000000000E+00  0.00000000000E+00  0.25145716539E+03  0.18571225914E+04  0.18400200035E+04 0.  0.
        3    1    3    3  502    0 -0.66028293016E+03  0.32600060071E+03  0.68236948271E+03  0.10039313028E+04  0.10100000352E+00 0.  1.
       -3    1    3    3    0  502  0.66028293016E+03 -0.32600060071E+03 -0.43091231732E+03  0.85319128860E+03  0.10100000352E+00 0. -1.
</event>
<event>
 5   0  0.4802635E-04  0.1918269E+04  0.7818609E-02  0.8645816E-01
       -2   -1    0    0    0  501  0.00000000000E+00  0.00000000000E+00  0.51680407389E+03  0.51680407389E+03  0.25500000920E-02 0. -1.
        2   -1    0    0  501    0  0.00000000000E+00  0.00000000000E+00 -0.17800529018E+04  0.17800529018E+04  0.25500000920E-02 0.  1.
    10030    2    1    2    0    0  0.00000000000E+00  0.00000000000E+00 -0.12632488279E+04  0.22968569757E+04  0.19182685854E+04 0.  0.
        3    1    3    3  502    0  0.21627729145E+03 -0.71227805579E+03  0.92577811345E+02  0.75012436096E+03  0.10100000352E+00 0. -1.
       -3    1    3    3    0  502 -0.21627729145E+03  0.71227805579E+03 -0.13558266392E+04  0.15467326147E+04  0.10100000352E+00 0.  1.
</event>
<event>
 5   0  0.2376359E-04  0.9382277E+03  0.7818609E-02  0.9379017E-01
       -1   -1    0    0    0  501  0.00000000000E+00  0.00000000000E+00  0.23637025058E+03  0.23637025063E+03  0.50400001928E-02 0.  1.
        1   -1    0    0  501    0  0.00000000000E+00  0.00000000000E+00 -0.93102994561E+03  0.93102994562E+03  0.50400001928E-02 0. -1.
    10030    2    1    2    0    0  0.00000000000E+00  0.00000000000E+00 -0.69465969503E+03  0.11674001963E+04  0.93822765164E+03 0.  0.
        2    1    3    3  502    0 -0.21288412612E+03  0.38464177649E+03 -0.14363995245E+03  0.46249473869E+03  0.25500000920E-02 0. -1.
       -2    1    3    3    0  502  0.21288412612E+03 -0.38464177649E+03 -0.55101974258E+03  0.70490545756E+03  0.25500000920E-02 0.  1.
</event>
<event>
 5   0  0.4973411E-04  0.1870200E+04  0.7818609E-02  0.8669834E-01
       -2   -1    0    0    0  501  0.00000000000E+00  0.00000000000E+00  0.62557050636E+03  0.62557050637E+03  0.25500000920E-02 0. -1.
        2   -1    0    0  501    0  0.00000000000E+00  0.00000000000E+00 -0.13977834333E+04  0.13977834333E+04  0.25500000920E-02 0.  1.
    10030    2    1    2    0    0  0.00000000000E+00  0.00000000000E+00 -0.77221292696E+03  0.20233539397E+04  0.18702000857E+04 0.  0.
        1    1    3    3  502    0 -0.62986512674E+03 -0.64735071797E+03 -0.64804730143E+03  0.11116466772E+04  0.50400001928E-02 0. -1.
       -1    1    3    3    0  502  0.62986512674E+03  0.64735071797E+03 -0.12416562553E+03  0.91170726252E+03  0.50400001928E-02 0.  1.
</event>
<event>
 5   0  0.4802635E-04  0.1916563E+04  0.7818609E-02  0.8646656E-01
        2   -1    0    0  501    0  0.00000000000E+00  0.00000000000E+00  0.13360525839E+04  0.13360525839E+04  0.25500000920E-02 0.  1.
       -2   -1    0    0    0  501  0.00000000000E+00  0.00000000000E+00 -0.68732576192E+03  0.68732576192E+03  0.25500000920E-02 0. -1.
    10030    2    1    2    0    0  0.00000000000E+00  0.00000000000E+00  0.64872682194E+03  0.20233783458E+04  0.19165629237E+04 0.  0.
        3    1    3    3  502    0  0.16429047021E+03  0.36462985547E+03  0.12437345846E+04  0.13064539858E+04  0.10100000352E+00 0.  1.
       -3    1    3    3    0  502 -0.16429047021E+03 -0.36462985547E+03 -0.59500776262E+03  0.71692435994E+03  0.10100000352E+00 0. -1.
</event>
<event>
 5   0  0.2261755E-04  0.1929291E+04  0.7818609E-02  0.8640412E-01
        1   -1    0    0  501    0  0.00000000000E+00  0.00000000000E+00  0.14783667167E+04  0.14783667167E+04  0.50400001928E-02 0. -1.
       -1   -1    0    0    0  501  0.00000000000E+00  0.00000000000E+00 -0.62943833099E+03  0.62943833101E+03  0.50400001928E-02 0.  1.
    10030    2    1    2    0    0  0.00000000000E+00  0.00000000000E+00  0.84892838570E+03  0.21078050477E+04  0.19292907285E+04 0.  0.
        1    1    3    3  502    0 -0.43154285703E+03 -0.38527885742E+03 -0.41888827905E+03  0.71423835362E+03  0.50400001928E-02 0.  1.
       -1    1    3    3    0  502  0.43154285703E+03  0.38527885742E+03  0.12678166648E+04  0.13935666941E+04  0.50400001928E-02 0. -1.
</event>
<event>
 5   0  0.2261755E-04  0.1824038E+04  0.7818609E-02  0.8693620E-01
        1   -1    0    0  501    0  0.00000000000E+00  0.00000000000E+00  0.75907166064E+03  0.75907166065E+03  0.50400001928E-02 0. -1.
       -1   -1    0    0    0  501  0.00000000000E+00  0.00000000000E+00 -0.10957841438E+04  0.10957841438E+04  0.50400001928E-02 0.  1.
    10030    2    1    2    0    0  0.00000000000E+00  0.00000000000E+00 -0.33671248317E+03  0.18548558045E+04  0.18240380366E+04 0.  0.
        1    1    3    3  502    0  0.41313617739E+03 -0.60955463813E+03  0.37882449145E+03  0.82809803362E+03  0.50400001928E-02 0. -1.
       -1    1    3    3    0  502 -0.41313617739E+03  0.60955463813E+03 -0.71553697462E+03  0.10267577709E+04  0.50400001928E-02 0.  1.
</event>
<event>
 5   0  0.4973411E-04  0.1235860E+04  0.7818609E-02  0.9082034E-01
        2   -1    0    0  501    0  0.00000000000E+00  0.00000000000E+00  0.16022857621E+04  0.16022857621E+04  0.25500000920E-02 0. -1.
       -2   -1    0    0    0  501  0.00000000000E+00  0.00000000000E+00 -0.23830810001E+03  0.23830810002E+03  0.25500000920E-02 0.  1.
    10030    2    1    2    0    0  0.00000000000E+00  0.00000000000E+00  0.13639776621E+04  0.18405938622E+04  0.12358603087E+04 0.  0.
        1    1    3    3  502    0 -0.11134434302E+03  0.10619605288E+03  0.15732985623E+04  0.15808047098E+04  0.50400001928E-02 0. -1.
       -1    1    3    3    0  502  0.11134434302E+03 -0.10619605288E+03 -0.20932090022E+03  0.25978915232E+03  0.50400001928E-02 0.  1.
</event>
<event>
 5   0  0.2376359E-04  0.1875579E+04  0.7818609E-02  0.8667109E-01
        1   -1    0    0  501    0  0.00000000000E+00  0.00000000000E+00  0.83621598836E+03  0.83621598837E+03  0.50400001928E-02 0. -1.
       -1   -1    0    0    0  501  0.00000000000E+00  0.00000000000E+00 -0.10517012062E+04  0.10517012062E+04  0.50400001928E-02 0.  1.
    10030    2    1    2    0    0  0.00000000000E+00  0.00000000000E+00 -0.21548521786E+03  0.18879171946E+04  0.18755792317E+04 0.  0.
        2    1    3    3  502    0  0.52412092681E+03  0.74161940699E+03 -0.34326314008E+03  0.97084070480E+03  0.25500000920E-02 0.  1.
       -2    1    3    3    0  502 -0.52412092681E+03 -0.74161940699E+03  0.12777792222E+03  0.91707648981E+03  0.25500000920E-02 0. -1.
</event>
<event>
 5   0  0.2261755E-04  0.1782681E+04  0.7818609E-02  0.8715564E-01
        1   -1    0    0  501    0  0.00000000000E+00  0.00000000000E+00  0.16512498558E+04  0.16512498558E+04  0.50400001928E-02 0. -1.
       -1   -1    0    0    0  501  0.00000000000E+00  0.00000000000E+00 -0.48114311384E+03  0.48114311386E+03  0.50400001928E-02 0.  1.
    10030    2    1    2    0    0  0.00000000000E+00  0.00000000000E+00  0.11701067420E+04  0.21323929697E+04  0.17826805630E+04 0.  0.
        1    1    3    3  502    0 -0.67990886180E+03  0.52976136625E+03  0.31342920239E+03  0.91714831432E+03  0.50400001928E-02 0. -1.
       -1    1    3    3    0  502  0.67990886180E+03 -0.52976136625E+03  0.85667753958E+03  0.12152446554E+04  0.50400001928E-02 0.  1.
</event>
<event>
 5   0  0.4802635E-04  0.1904828E+04  0.7818609E-02  0.8652457E-01
        2   -1    0    0  501    0  0.00000000000E+00  0.00000000000E+00  0.11434126735E+04  0.11434126735E+04  0.25500000920E-02 0. -1.
       -2   -1    0    0    0  501  0.00000000000E+00  0.00000000000E+00 -0.79332040547E+03  0.79332040547E+03  0.25500000920E-02 0.  1.
    10030    2    1    2    0    0  0.00000000000E+00  0.00000000000E+00  0.35009226799E+03  0.19367330789E+04  0.19048281873E+04 0.  0.
        3    1    3    3  502    0 -0.32281113317E+03  0.32647568318E+03 -0.67337583993E+03  0.81500210516E+03  0.10100000352E+00 0.  1.
       -3    1    3    3    0  502  0.32281113317E+03 -0.32647568318E+03  0.10234681079E+04  0.11217309738E+04  0.10100000352E+00 0. -1.
</event>
<event>
 5   0  0.2510069E-04  0.1900089E+04  0.7818609E-02  0.8654812E-01
       -1   -1    0    0    0  501  0.00000000000E+00  0.00000000000E+00  0.80947938570E+03  0.80947938571E+03  0.50400001928E-02 0.  1.
        1   -1    0    0  501    0  0.00000000000E+00  0.00000000000E+00 -0.11150184695E+04  0.11150184695E+04  0.50400001928E-02 0. -1.
    10030    2    1    2    0    0  0.00000000000E+00  0.00000000000E+00 -0.30553908377E+03  0.19244978552E+04  0.19000889092E+04 0.  0.
        4    1    3    3  502    0 -0.35538961405E+03  0.22908972429E+03  0.70892330898E+03  0.82544397173E+03  0.12699999809E+01 0.  1.
       -4    1    3    3    0  502  0.35538961405E+03 -0.22908972429E+03 -0.10144623928E+04  0.10990538835E+04  0.12699999809E+01 0. -1.
</event>
<event>
 5   0  0.2261755E-04  0.1878332E+04  0.7818609E-02  0.8665718E-01
       -1   -1    0    0    0  501  0.00000000000E+00  0.00000000000E+00  0.11830823801E+04  0.11830823801E+04  0.50400001928E-02 0.  1.
        1   -1    0    0  501    0  0.00000000000E+00  0.00000000000E+00 -0.74553765060E+03  0.74553765062E+03  0.50400001928E-02 0. -1.
    10030    2    1    2    0    0  0.00000000000E+00  0.00000000000E+00  0.43754472950E+03  0.19286200307E+04  0.18783316620E+04 0.  0.
        1    1    3    3  502    0 -0.25314824154E+03 -0.27841893802E+03  0.11022931777E+04  0.11647537881E+04  0.50400001928E-02 0.  1.
       -1    1    3    3    0  502  0.25314824154E+03  0.27841893802E+03 -0.66474844819E+03  0.76386624264E+03  0.50400001928E-02 0. -1.
</event>
<event>
 5   0  0.2261755E-04  0.1898802E+04  0.7818609E-02  0.8655453E-01
       -1   -1    0    0    0  501  0.00000000000E+00  0.00000000000E+00  0.46999572577E+03  0.46999572580E+03  0.50400001928E-02 0.  1.
        1   -1    0    0  501    0  0.00000000000E+00  0.00000000000E+00 -0.19178103607E+04  0.19178103607E+04  0.50400001928E-02 0. -1.
    10030    2    1    2    0    0  0.00000000000E+00  0.00000000000E+00 -0.14478146350E+04  0.23878060865E+04  0.18988024357E+04 0.  0.
        1    1    3    3  502    0  0.26653724625E+03  0.11027313884E+03 -0.18613735252E+04  0.18835906321E+04  0.50400001928E-02 0. -1.
       -1    1    3    3    0  502 -0.26653724625E+03 -0.11027313884E+03  0.41355889026E+03  0.50421545447E+03  0.50400001928E-02 0.  1.
</event>
<event>
 5   0  0.4829134E-04  0.1844715E+04  0.7818609E-02  0.8682875E-01
        2   -1    0    0  501    0  0.00000000000E+00  0.00000000000E+00  0.15206938520E+04  0.15206938520E+04  0.25500000920E-02 0.  1.
       -2   -1    0    0    0  501  0.00000000000E+00  0.00000000000E+00 -0.55944426828E+03  0.55944426828E+03  0.25500000920E-02 0. -1.
    10030    2    1    2    0    0  0.00000000000E+00  0.00000000000E+00  0.96124958368E+03  0.20801381202E+04  0.18447151100E+04 0.  0.
        2    1    3    3  502    0  0.78370202905E+03  0.46987372437E+03  0.62224452292E+03  0.11055127469E+04  0.25500000920E-02 0.  1.
       -2    1    3    3    0  502 -0.78370202905E+03 -0.46987372437E+03  0.33900506077E+03  0.97462537337E+03  0.25500000920E-02 0. -1.
</event>
<event>
 5   0  0.4761944E-04  0.1898979E+04  0.7818609E-02  0.8655365E-01
        2   -1    0    0  501    0  0.00000000000E+00  0.00000000000E+00  0.15442761226E+04  0.15442761226E+04  0.25500000920E-02 0. -1.
       -2   -1    0    0    0  501  0.00000000000E+00  0.00000000000E+00 -0.58378858553E+03  0.58378858554E+03  0.25500000920E-02 0.  1.
    10030    2    1    2    0    0  0.00000000000E+00  0.00000000000E+00  0.96048753702E+03  0.21280647081E+04  0.18989794873E+04 0.  0.
        4    1    3    3  502    0 -0.43747704244E+03 -0.39870783076E+03  0.13122169675E+04  0.14395378007E+04  0.12699999809E+01 0. -1.
       -4    1    3    3    0  502  0.43747704244E+03  0.39870783076E+03 -0.35172943051E+03  0.68852690736E+03  0.12699999809E+01 0.  1.
</event>
<event>
 5   0  0.4802635E-04  0.1913595E+04  0.7818609E-02  0.8648119E-01
        2   -1    0    0  501    0  0.00000000000E+00  0.00000000000E+00  0.20537834829E+04  0.20537834829E+04  0.25500000920E-02 0.  1.
       -2   -1    0    0    0  501  0.00000000000E+00  0.00000000000E+00 -0.44574389650E+03  0.44574389651E+03  0.25500000920E-02 0. -1.
    10030    2    1    2    0    0  0.00000000000E+00  0.00000000000E+00  0.16080395864E+04  0.24995273794E+04  0.19135949961E+04 0.  0.
        3    1    3    3  502    0  0.41811999606E+03 -0.24408719086E+03  0.18819734688E+04  0.19432516654E+04  0.10100000352E+00 0.  1.
       -3    1    3    3    0  502 -0.41811999606E+03  0.24408719086E+03 -0.27393388237E+03  0.55627571398E+03  0.10100000352E+00 0. -1.
</event>
<event>
 5   0  0.2317458E-04  0.1935547E+04  0.7818609E-02  0.8637362E-01
       -1   -1    0    0    0  501  0.00000000000E+00  0.00000000000E+00  0.13589288076E+04  0.13589288076E+04  0.50400001928E-02 0. -1.
        1   -1    0    0  501    0  0.00000000000E+00  0.00000000000E+00 -0.68920859894E+03  0.68920859896E+03  0.50400001928E-02 0.  1.
    10030    2    1    2    0    0  0.00000000000E+00  0.00000000000E+00  0.66972020863E+03  0.20481374065E+04  0.19355468680E+04 0.  0.
        3    1    3    3  502    0 -0.71026232105E+03 -0.35978386280E+03 -0.24729532212E+03  0.83370976915E+03  0.10100000352E+00 0.  1.
       -3    1    3    3    0  502  0.71026232105E+03  0.35978386280E+03  0.91701553075E+03  0.12144276374E+04  0.10100000352E+00 0. -1.
</event>
<event>
 5   0  0.4839293E-04  0.1919437E+04  0.7818609E-02  0.8645241E-01
       -2   -1    0    0    0  501  0.00000000000E+00  0.00000000000E+00  0.42766773720E+03  0.42766773721E+03  0.25500000920E-02 0. -1.
        2   -1    0    0  501    0  0.00000000000E+00  0.00000000000E+00 -0.21536805647E+04  0.21536805647E+04  0.25500000920E-02 0.  1.
    10030    2    1    2    0    0  0.00000000000E+00  0.00000000000E+00 -0.17260128275E+04  0.25813483020E+04  0.19194370985E+04 0.  0.
        5    1    3    3  502    0 -0.80798634554E+03  0.25323337983E+03 -0.14705266318E+04  0.16968911999E+04  0.46999998093E+01 0. -1.
       -5    1    3    3    0  502  0.80798634554E+03 -0.25323337983E+03 -0.25548619571E+03  0.88445710209E+03  0.46999998093E+01 0.  1.
</event>
<event>
 5   0  0.4829134E-04  0.1905817E+04  0.7818609E-02  0.8651967E-01
       -2   -1    0    0    0  501  0.00000000000E+00  0.00000000000E+00  0.12972623823E+04  0.12972623823E+04  0.25500000920E-02 0. -1.
        2   -1    0    0  501    0  0.00000000000E+00  0.00000000000E+00 -0.69996185926E+03  0.69996185927E+03  0.25500000920E-02 0.  1.
    10030    2    1    2    0    0  0.00000000000E+00  0.00000000000E+00  0.59730052302E+03  0.19972242416E+04  0.19058165589E+04 0.  0.
        2    1    3    3  502    0  0.23279149083E+03  0.58986472889E+03  0.10440322484E+04  0.12215300292E+04  0.25500000920E-02 0. -1.
       -2    1    3    3    0  502 -0.23279149083E+03 -0.58986472889E+03 -0.44673172537E+03  0.77569421234E+03  0.25500000920E-02 0.  1.
</event>
<event>
 5   0  0.2317458E-04  0.1881414E+04  0.7818609E-02  0.8664164E-01
       -1   -1    0    0    0  501  0.00000000000E+00  0.00000000000E+00  0.77173475266E+03  0.77173475268E+03  0.50400001928E-02 0.  1.
        1   -1    0    0  501    0  0.00000000000E+00  0.00000000000E+00 -0.11466759148E+04  0.11466759148E+04  0.50400001928E-02 0. -1.
    10030    2    1    2    0    0  0.00000000000E+00  0.00000000000E+00 -0.37494116210E+03  0.19184106675E+04  0.18814139932E+04 0.  0.
        3    1    3    3  502    0  0.63975190877E+03 -0.68496545311E+03 -0.26948523312E+03  0.97523457578E+03  0.10100000352E+00 0. -1.
       -3    1    3    3    0  502 -0.63975190877E+03  0.68496545311E+03 -0.10545592898E+03  0.94317609167E+03  0.10100000352E+00 0.  1.
</event>
<event>
 5   0  0.4839293E-04  0.1913381E+04  0.7818609E-02  0.8648224E-01
       -2   -1    0    0    0  501  0.00000000000E+00  0.00000000000E+00  0.48472973672E+03  0.48472973672E+03  0.25500000920E-02 0.  1.
        2   -1    0    0  501    0  0.00000000000E+00  0.00000000000E+00 -0.18881796157E+04  0.18881796157E+04  0.25500000920E-02 0. -1.
    10030    2    1    2    0    0  0.00000000000E+00  0.00000000000E+00 -0.14034498789E+04  0.23729093524E+04  0.19133810995E+04 0.  0.
        5    1    3    3  502    0 -0.49970021454E+03  0.44241664549E+03 -0.15517604414E+04  0.16892055382E+04  0.46999998093E+01 0. -1.
       -5    1    3    3    0  502  0.49970021454E+03 -0.44241664549E+03  0.14831056249E+03  0.68370381420E+03  0.46999998093E+01 0.  1.
</event>
<event>
 5   0  0.1729375E-04  0.1896800E+04  0.7818609E-02  0.8656451E-01
       -3   -1    0    0    0  501  0.00000000000E+00  0.00000000000E+00  0.53067350653E+03  0.53067351614E+03  0.10100000352E+00 0. -1.
        3   -1    0    0  501    0  0.00000000000E+00  0.00000000000E+00 -0.16949447631E+04  0.16949447661E+04  0.10100000352E+00 0.  1.
    10030    2    1    2    0    0  0.00000000000E+00  0.00000000000E+00 -0.11642712566E+04  0.22256182822E+04  0.18967997204E+04 0.  0.
        4    1    3    3  502    0  0.30660530793E+03  0.58052618720E+03 -0.13852135359E+04  0.15329173565E+04  0.12699999809E+01 0.  1.
       -4    1    3    3    0  502 -0.30660530793E+03 -0.58052618720E+03  0.22094227932E+03  0.69270092578E+03  0.12699999809E+01 0. -1.
</event>
<event>
 5   0  0.4839293E-04  0.1905252E+04  0.7818609E-02  0.8652247E-01
       -2   -1    0    0    0  501  0.00000000000E+00  0.00000000000E+00  0.13170523546E+04  0.13170523546E+04  0.25500000920E-02 0.  1.
        2   -1    0    0  501    0  0.00000000000E+00  0.00000000000E+00 -0.68903550809E+03  0.68903550809E+03  0.25500000920E-02 0. -1.
    10030    2    1    2    0    0  0.00000000000E+00  0.00000000000E+00  0.62801684653E+03  0.20060878627E+04  0.19052515197E+04 0.  0.
        5    1    3    3  502    0  0.37231638846E+03  0.29374930236E+03 -0.55589258237E+03  0.73071663378E+03  0.46999998093E+01 0. -1.
       -5    1    3    3    0  502 -0.37231638846E+03 -0.29374930236E+03  0.11839094289E+04  0.12753712289E+04  0.46999998093E+01 0.  1.
</event>
<event>
 5   0  0.4973411E-04  0.1897814E+04  0.7818609E-02  0.8655945E-01
        2   -1    0    0  501    0  0.00000000000E+00  0.00000000000E+00  0.46137494563E+03  0.46137494564E+03  0.25500000920E-02 0.  1.
       -2   -1    0    0    0  501  0.00000000000E+00  0.00000000000E+00 -0.19516106942E+04  0.19516106942E+04  0.25500000920E-02 0. -1.
    10030    2    1    2    0    0  0.00000000000E+00  0.00000000000E+00 -0.14902357486E+04  0.24129856398E+04  0.18978137716E+04 0.  0.
        1    1    3    3  502    0 -0.44534446544E+03  0.83307758533E+03 -0.85936733836E+03  0.12770521439E+04  0.50400001928E-02 0. -1.
       -1    1    3    3    0  502  0.44534446544E+03 -0.83307758533E+03 -0.63086841022E+03  0.11359334959E+04  0.50400001928E-02 0.  1.
</event>
<event>
 5   0  0.4761944E-04  0.1899337E+04  0.7818609E-02  0.8655187E-01
       -2   -1    0    0    0  501  0.00000000000E+00  0.00000000000E+00  0.56041702046E+03  0.56041702047E+03  0.25500000920E-02 0.  1.
        2   -1    0    0  501    0  0.00000000000E+00  0.00000000000E+00 -0.16092836432E+04  0.16092836432E+04  0.25500000920E-02 0. -1.
    10030    2    1    2    0    0  0.00000000000E+00  0.00000000000E+00 -0.10488666227E+04  0.21697006637E+04  0.18993366678E+04 0.  0.
        4    1    3    3  502    0 -0.10832588574E+03 -0.63200058157E+03  0.27578765245E+03  0.69801122826E+03  0.12699999809E+01 0.  1.
       -4    1    3    3    0  502  0.10832588574E+03  0.63200058157E+03 -0.13246542752E+04  0.14716894354E+04  0.12699999809E+01 0. -1.
</event>
<event>
 5   0  0.2317458E-04  0.1523942E+04  0.7818609E-02  0.8868686E-01
        1   -1    0    0  501    0  0.00000000000E+00  0.00000000000E+00  0.18349890201E+04  0.18349890201E+04  0.50400001928E-02 0. -1.
       -1   -1    0    0    0  501  0.00000000000E+00  0.00000000000E+00 -0.31640503042E+03  0.31640503046E+03  0.50400001928E-02 0.  1.
    10030    2    1    2    0    0  0.00000000000E+00  0.00000000000E+00  0.15185839897E+04  0.21513940506E+04  0.15239419369E+04 0.  0.
        3    1    3    3  502    0 -0.42858422767E+03  0.10503255091E+03  0.16362516829E+04  0.16947081923E+04  0.10100000352E+00 0.  1.
       -3    1    3    3    0  502  0.42858422767E+03 -0.10503255091E+03 -0.11766769320E+03  0.45668585831E+03  0.10100000352E+00 0. -1.
</event>
<event>
 5   0  0.2510069E-04  0.1909487E+04  0.7818609E-02  0.8650148E-01
        1   -1    0    0  501    0  0.00000000000E+00  0.00000000000E+00  0.11816749846E+04  0.11816749846E+04  0.50400001928E-02 0. -1.
       -1   -1    0    0    0  501  0.00000000000E+00  0.00000000000E+00 -0.77139266014E+03  0.77139266015E+03  0.50400001928E-02 0.  1.
    10030    2    1    2    0    0  0.00000000000E+00  0.00000000000E+00  0.41028232442E+03  0.19530676447E+04  0.19094872713E+04 0.  0.
        4    1    3    3  502    0 -0.28211817499E+03  0.39564518026E+03 -0.63544768871E+03  0.79995071805E+03  0.12699999809E+01 0.  1.
       -4    1    3    3    0  502  0.28211817499E+03 -0.39564518026E+03  0.10457300131E+04  0.11531169267E+04  0.12699999809E+01 0. -1.
</event>
<event>
 5   0  0.4973411E-04  0.1915727E+04  0.7818609E-02  0.8647067E-01
        2   -1    0    0  501    0  0.00000000000E+00  0.00000000000E+00  0.97353400388E+03  0.97353400388E+03  0.25500000920E-02 0.  1.
       -2   -1    0    0    0  501  0.00000000000E+00  0.00000000000E+00 -0.94244562916E+03  0.94244562916E+03  0.25500000920E-02 0. -1.
    10030    2    1    2    0    0  0.00000000000E+00  0.00000000000E+00  0.31088374722E+02  0.19159796330E+04  0.19157273990E+04 0.  0.
        1    1    3    3  502    0 -0.77935220883E+03 -0.10010080674E+03  0.56342360698E+03  0.96687961911E+03  0.50400001928E-02 0.  1.
       -1    1    3    3    0  502  0.77935220883E+03  0.10010080674E+03 -0.53233523226E+03  0.94910001393E+03  0.50400001928E-02 0. -1.
</event>
<event>
 5   0  0.2261755E-04  0.1887060E+04  0.7818609E-02  0.8661325E-01
       -1   -1    0    0    0  501  0.00000000000E+00  0.00000000000E+00  0.96346511978E+03  0.96346511979E+03  0.50400001928E-02 0. -1.
        1   -1    0    0  501    0  0.00000000000E+00  0.00000000000E+00 -0.92400703519E+03  0.92400703520E+03  0.50400001928E-02 0.  1.
    10030    2    1    2    0    0  0.00000000000E+00  0.00000000000E+00  0.39458084585E+02  0.18874721550E+04  0.18870596693E+04 0.  0.
        1    1    3    3  502    0  0.36610631906E+03  0.82376090444E+03  0.29841637052E+03  0.94956210685E+03  0.50400001928E-02 0. -1.
       -1    1    3    3    0  502 -0.36610631906E+03 -0.82376090444E+03 -0.25895828593E+03  0.93791004815E+03  0.50400001928E-02 0.  1.
</event>
<event>
 5   0  0.4761944E-04  0.1932182E+04  0.7818609E-02  0.8639001E-01
        2   -1    0    0  501    0  0.00000000000E+00  0.00000000000E+00  0.86959982422E+03  0.86959982422E+03  0.25500000920E-02 0.  1.
       -2   -1    0    0    0  501  0.00000000000E+00  0.00000000000E+00 -0.10732884588E+04  0.10732884588E+04  0.25500000920E-02 0. -1.
    10030    2    1    2    0    0  0.00000000000E+00  0.00000000000E+00 -0.20368863461E+03  0.19428882831E+04  0.19321816220E+04 0.  0.
        4    1    3    3  502    0  0.29552847527E+03 -0.62177461563E+03 -0.78338254509E+03  0.10428952858E+04  0.12699999809E+01 0. -1.
       -4    1    3    3    0  502 -0.29552847527E+03  0.62177461563E+03  0.57969391048E+03  0.89999299724E+03  0.12699999809E+01 0.  1.
</event>
<event>
 5   0  0.4839293E-04  0.1831000E+04  0.7818609E-02  0.8689985E-01
        2   -1    0    0  501    0  0.00000000000E+00  0.00000000000E+00  0.15775273899E+04  0.15775273899E+04  0.25500000920E-02 0. -1.
       -2   -1    0    0    0  501  0.00000000000E+00  0.00000000000E+00 -0.53130010570E+03  0.53130010570E+03  0.25500000920E-02 0.  1.
    10030    2    1    2    0    0  0.00000000000E+00  0.00000000000E+00  0.10462272842E+04  0.21088274956E+04  0.18310002392E+04 0.  0.
        5    1    3    3  502    0  0.12379120407E+03 -0.66495455301E+03  0.12336788034E+04  0.14069379161E+04  0.46999998093E+01 0. -1.
       -5    1    3    3    0  502 -0.12379120407E+03  0.66495455301E+03 -0.18745151921E+03  0.70188957951E+03  0.46999998093E+01 0.  1.
</event>
<event>
 5   0  0.4839293E-04  0.1905729E+04  0.7818609E-02  0.8652010E-01
       -2   -1    0    0    0  501  0.00000000000E+00  0.00000000000E+00  0.67373725605E+03  0.67373725605E+03  0.25500000920E-02 0.  1.
        2   -1    0    0  501    0  0.00000000000E+00  0.00000000000E+00 -0.13476327300E+04  0.13476327300E+04  0.25500000920E-02 0. -1.
    10030    2    1    2    0    0  0.00000000000E+00  0.00000000000E+00 -0.67389547397E+03  0.20213699861E+04  0.19057286036E+04 0.  0.
        5    1    3    3  502    0 -0.43272493757E+03 -0.73126728592E+03  0.12040820335E+03  0.85820914729E+03  0.46999998093E+01 0.  1.
       -5    1    3    3    0  502  0.43272493757E+03  0.73126728592E+03 -0.79430367732E+03  0.11631608388E+04  0.46999998093E+01 0. -1.
</event>
<event>
 5   0  0.2510069E-04  0.1713912E+04  0.7818609E-02  0.8753470E-01
        1   -1    0    0  501    0  0.00000000000E+00  0.00000000000E+00  0.14649909453E+04  0.14649909453E+04  0.50400001928E-02 0. -1.
       -1   -1    0    0    0  501  0.00000000000E+00  0.00000000000E+00 -0.50128171850E+03  0.50128171852E+03  0.50400001928E-02 0.  1.
    10030    2    1    2    0    0  0.00000000000E+00  0.00000000000E+00  0.96370922675E+03  0.19662726638E+04  0.17139115247E+04 0.  0.
        4    1    3    3  502    0  0.84780313290E+03  0.68740562094E+02  0.36221006595E+03  0.92449616646E+03  0.12699999809E+01 0.  1.
       -4    1    3    3    0  502 -0.84780313290E+03 -0.68740562094E+02  0.60149916080E+03  0.10417764973E+04  0.12699999809E+01 0. -1.
</event>
<event>
 5   0  0.2510069E-04  0.1883404E+04  0.7818609E-02  0.8663162E-01
        1   -1    0    0  501    0  0.00000000000E+00  0.00000000000E+00  0.16140136033E+04  0.16140136034E+04  0.50400001928E-02 0.  1.
       -1   -1    0    0    0  501  0.00000000000E+00  0.00000000000E+00 -0.54943916495E+03  0.54943916497E+03  0.50400001928E-02 0. -1.
    10030    2    1    2    0    0  0.00000000000E+00  0.00000000000E+00  0.10645744384E+04  0.21634527683E+04  0.18834036067E+04 0.  0.
        4    1    3    3  502    0 -0.50630530960E+03  0.68466259033E+03  0.70385810497E+02  0.85443765387E+03  0.12699999809E+01 0. -1.
       -4    1    3    3    0  502  0.50630530960E+03 -0.68466259033E+03  0.99418862790E+03  0.13090151145E+04  0.12699999809E+01 0.  1.
</event>
<event>
 5   0  0.2261755E-04  0.1894851E+04  0.7818609E-02  0.8657424E-01
       -1   -1    0    0    0  501  0.00000000000E+00  0.00000000000E+00  0.41065812097E+03  0.41065812100E+03  0.50400001928E-02 0. -1.
        1   -1    0    0  501    0  0.00000000000E+00  0.00000000000E+00 -0.21857966025E+04  0.21857966025E+04  0.50400001928E-02 0.  1.
    10030    2    1    2    0    0  0.00000000000E+00  0.00000000000E+00 -0.17751384816E+04  0.25964547236E+04  0.18948510503E+04 0.  0.
        1    1    3    3  502    0  0.76152626951E+03  0.56362214486E+03 -0.89413285853E+03  0.13027147616E+04  0.50400001928E-02 0. -1.
       -1    1    3    3    0  502 -0.76152626951E+03 -0.56362214486E+03 -0.88100562304E+03  0.12937399620E+04  0.50400001928E-02 0.  1.
</event>
<event>
 5   0  0.4839293E-04  0.1851947E+04  0.7818609E-02  0.8679152E-01
       -2   -1    0    0    0  501  0.00000000000E+00  0.00000000000E+00  0.13388937621E+04  0.13388937621E+04  0.25500000920E-02 0. -1.
        2   -1    0    0  501    0  0.00000000000E+00  0.00000000000E+00 -0.64039983386E+03  0.64039983386E+03  0.25500000920E-02 0.  1.
    10030    2    1    2    0    0  0.00000000000E+00  0.00000000000E+00  0.69849392828E+03  0.19792935960E+04  0.18519474537E+04 0.  0.
        5    1    3    3  502    0  0.36198582842E+03  0.85200428479E+03  0.37217465510E+03  0.99773799425E+03  0.46999998093E+01 0. -1.
       -5    1    3    3    0  502 -0.36198582842E+03 -0.85200428479E+03  0.32631927318E+03  0.98155560175E+03  0.46999998093E+01 0.  1.
</event>
<event>
 5   0  0.4761944E-04  0.1915921E+04  0.7818609E-02  0.8646972E-01
        2   -1    0    0  501    0  0.00000000000E+00  0.00000000000E+00  0.81884150081E+03  0.81884150081E+03  0.25500000920E-02 0. -1.
       -2   -1    0    0    0  501  0.00000000000E+00  0.00000000000E+00 -0.11207153613E+04  0.11207153613E+04  0.25500000920E-02 0.  1.
    10030    2    1    2    0    0  0.00000000000E+00  0.00000000000E+00 -0.30187386048E+03  0.19395568621E+04  0.19159209257E+04 0.  0.
        4    1    3    3  502    0  0.41287399104E+03  0.46606801817E+03 -0.88793069726E+03  0.10844846085E+04  0.12699999809E+01 0.  1.
       -4    1    3    3    0  502 -0.41287399104E+03 -0.46606801817E+03  0.58605683678E+03  0.85507225360E+03  0.12699999809E+01 0. -1.
</event>
<event>
 5   0  0.4973411E-04  0.1928315E+04  0.7818609E-02  0.8640889E-01
        2   -1    0    0  501    0  0.00000000000E+00  0.00000000000E+00  0.14446660735E+04  0.14446660735E+04  0.25500000920E-02 0. -1.
       -2   -1    0    0    0  501  0.00000000000E+00  0.00000000000E+00 -0.64347000492E+03  0.64347000492E+03  0.25500000920E-02 0.  1.
    10030    2    1    2    0    0  0.00000000000E+00  0.00000000000E+00  0.80119606861E+03  0.20881360785E+04  0.19283145858E+04 0.  0.
        1    1    3    3  502    0 -0.89389437316E+03  0.35694423623E+03  0.46130652824E+03  0.10673612562E+04  0.50400001928E-02 0. -1.
       -1    1    3    3    0  502  0.89389437316E+03 -0.35694423623E+03  0.33988954037E+03  0.10207748223E+04  0.50400001928E-02 0.  1.
</event>
<event>
 5   0  0.4973411E-04  0.1902477E+04  0.7818609E-02  0.8653625E-01
       -2   -1    0    0    0  501  0.00000000000E+00  0.00000000000E+00  0.14627411543E+04  0.14627411543E+04  0.25500000920E-02 0.  1.
        2   -1    0    0  501    0  0.00000000000E+00  0.00000000000E+00 -0.61860182809E+03  0.61860182810E+03  0.25500000920E-02 0. -1.
    10030    2    1    2    0    0  0.00000000000E+00  0.00000000000E+00  0.84413932621E+03  0.20813429824E+04  0.19024766512E+04 0.  0.
        1    1    3    3  502    0 -0.49130799187E+03  0.39358679244E+02 -0.46800743821E+03  0.67967904981E+03  0.50400001928E-02 0. -1.
       -1    1    3    3    0  502  0.49130799187E+03 -0.39358679244E+02  0.13121467644E+04  0.14016639326E+04  0.50400001928E-02 0.  1.
</event>
<event>
 5   0  0.2376359E-04  0.1875020E+04  0.7818609E-02  0.8667391E-01
       -1   -1    0    0    0  501  0.00000000000E+00  0.00000000000E+00  0.12777607086E+04  0.12777607086E+04  0.50400001928E-02 0. -1.
        1   -1    0    0  501    0  0.00000000000E+00  0.00000000000E+00 -0.68786346395E+03  0.68786346397E+03  0.50400001928E-02 0.  1.
    10030    2    1    2    0    0  0.00000000000E+00  0.00000000000E+00  0.58989724463E+03  0.19656241726E+04  0.18750199008E+04 0.  0.
        2    1    3    3  502    0  0.32152729363E+02  0.41855820937E+03 -0.58383027846E+03  0.71908453376E+03  0.25500000920E-02 0.  1.
       -2    1    3    3    0  502 -0.32152729363E+02 -0.41855820937E+03  0.11737275231E+04  0.12465396388E+04  0.25500000920E-02 0. -1.
</event>
<event>
 5   0  0.2355414E-04  0.2108661E+04  0.7818609E-02  0.8557438E-01
       -1   -1    0    0    0  501  0.00000000000E+00  0.00000000000E+00  0.81445942539E+03  0.81445942541E+03  0.50400001928E-02 0.  1.
        1   -1    0    0  501    0  0.00000000000E+00  0.00000000000E+00 -0.13648472328E+04  0.13648472329E+04  0.50400001928E-02 0. -1.
    10030    2    1    2    0    0  0.00000000000E+00  0.00000000000E+00 -0.55038780745E+03  0.21793066583E+04  0.21086608955E+04 0.  0.
        5    1    3    3  502    0 -0.35931152215E+03 -0.99108833187E+03 -0.25952852871E+03  0.10856970106E+04  0.46999998093E+01 0.  1.
       -5    1    3    3    0  502  0.35931152215E+03  0.99108833187E+03 -0.29085927874E+03  0.10936096477E+04  0.46999998093E+01 0. -1.
</event>
<event>
 5   0  0.4839293E-04  0.1942877E+04  0.7818609E-02  0.8633803E-01
        2   -1    0    0  501    0  0.00000000000E+00  0.00000000000E+00  0.81304013174E+03  0.81304013175E+03  0.25500000920E-02 0. -1.
       -2   -1    0    0    0  501  0.00000000000E+00  0.00000000000E+00 -0.11606969475E+04  0.11606969475E+04  0.25500000920E-02 0.  1.
    10030    2    1    2    0    0  0.00000000000E+00  0.00000000000E+00 -0.34765681575E+03  0.19737370792E+04  0.19428774528E+04 0.  0.
        5    1    3    3  502    0  0.19777997572E+02 -0.83904996049E+03 -0.67075546963E+03  0.10743979688E+04  0.46999998093E+01 0.  1.
       -5    1    3    3    0  502 -0.19777997572E+02  0.83904996049E+03  0.32309865388E+03  0.89933911041E+03  0.46999998093E+01 0. -1.
</event>
<event>
 5   0  0.2510069E-04  0.2045159E+04  0.7818609E-02  0.8585794E-01
        1   -1    0    0  501    0  0.00000000000E+00  0.00000000000E+00  0.21329732497E+04  0.21329732497E+04  0.50400001928E-02 0.  1.
       -1   -1    0    0    0  501  0.00000000000E+00  0.00000000000E+00 -0.49023998916E+03  0.49023998919E+03  0.50400001928E-02 0. -1.
    10030    2    1    2    0    0  0.00000000000E+00  0.00000000000E+00  0.16427332605E+04  0.26232132389E+04  0.20451589501E+04 0.  0.
        4    1    3    3  502    0 -0.28115902117E+03  0.94586960544E+03  0.11654108569E+04  0.15270572301E+04  0.12699999809E+01 0.  1.
       -4    1    3    3    0  502  0.28115902117E+03 -0.94586960544E+03  0.47732240357E+03  0.10961560088E+04  0.12699999809E+01 0. -1.
</event>
<event>
 5   0  0.4829134E-04  0.1839040E+04  0.7818609E-02  0.8685810E-01
       -2   -1    0    0    0  501  0.00000000000E+00  0.00000000000E+00  0.32205459946E+03  0.32205459947E+03  0.25500000920E-02 0. -1.
        2   -1    0    0  501    0  0.00000000000E+00  0.00000000000E+00 -0.26253835968E+04  0.26253835968E+04  0.25500000920E-02 0.  1.
    10030    2    1    2    0    0  0.00000000000E+00  0.00000000000E+00 -0.23033289974E+04  0.29474381963E+04  0.18390398176E+04 0.  0.
        2    1    3    3  502    0 -0.38359087385E+03 -0.30995182551E+03  0.92167502916E+02  0.50170403750E+03  0.25500000920E-02 0. -1.
       -2    1    3    3    0  502  0.38359087385E+03  0.30995182551E+03 -0.23954965003E+04  0.24457341588E+04  0.25500000920E-02 0.  1.
</event>
<event>
 5   0  0.2261755E-04  0.1948729E+04  0.7818609E-02  0.8630974E-01
        1   -1    0    0  501    0  0.00000000000E+00  0.00000000000E+00  0.15545459641E+04  0.15545459641E+04  0.50400001928E-02 0.  1.
       -1   -1    0    0    0  501  0.00000000000E+00  0.00000000000E+00 -0.61071618516E+03  0.61071618518E+03  0.50400001928E-02 0. -1.
    10030    2    1    2    0    0  0.00000000000E+00  0.00000000000E+00  0.94382977895E+03  0.21652621493E+04  0.19487292073E+04 0.  0.
        1    1    3    3  502    0 -0.36707048096E+03 -0.71458340467E+03 -0.14072793799E+03  0.81558232741E+03  0.50400001928E-02 0. -1.
       -1    1    3    3    0  502  0.36707048096E+03  0.71458340467E+03  0.10845577169E+04  0.13496798219E+04  0.50400001928E-02 0.  1.
</event>
<event>
 5   0  0.4802635E-04  0.1781687E+04  0.7818609E-02  0.8716099E-01
        2   -1    0    0  501    0  0.00000000000E+00  0.00000000000E+00  0.15975443787E+04  0.15975443787E+04  0.25500000920E-02 0. -1.
       -2   -1    0    0    0  501  0.00000000000E+00  0.00000000000E+00 -0.49676399856E+03  0.49676399856E+03  0.25500000920E-02 0.  1.
    10030    2    1    2    0    0  0.00000000000E+00  0.00000000000E+00  0.11007803802E+04  0.20943083773E+04  0.17816874400E+04 0.  0.
        3    1    3    3  502    0  0.66645436771E+03 -0.43809137845E+03  0.83867375774E+02  0.80194714728E+03  0.10100000352E+00 0.  1.
       -3    1    3    3    0  502 -0.66645436771E+03  0.43809137845E+03  0.10169130044E+04  0.12923612300E+04  0.10100000352E+00 0. -1.
</event>
<event>
 5   0  0.4839293E-04  0.1895580E+04  0.7818609E-02  0.8657060E-01
       -2   -1    0    0    0  501  0.00000000000E+00  0.00000000000E+00  0.74432323983E+03  0.74432323983E+03  0.25500000920E-02 0. -1.
        2   -1    0    0  501    0  0.00000000000E+00  0.00000000000E+00 -0.12068763146E+04  0.12068763146E+04  0.25500000920E-02 0.  1.
    10030    2    1    2    0    0  0.00000000000E+00  0.00000000000E+00 -0.46255307478E+03  0.19511995544E+04  0.18955802157E+04 0.  0.
        5    1    3    3  502    0  0.87829638390E+03 -0.34948554568E+03 -0.16041390843E+03  0.95880102035E+03  0.46999998093E+01 0.  1.
       -5    1    3    3    0  502 -0.87829638390E+03  0.34948554568E+03 -0.30213916635E+03  0.99239853409E+03  0.46999998093E+01 0. -1.
</event>
<event>
 5   0  0.2261755E-04  0.1880477E+04  0.7818609E-02  0.8664636E-01
        1   -1    0    0  501    0  0.00000000000E+00  0.00000000000E+00  0.17577354401E+04  0.17577354401E+04  0.50400001928E-02 0. -1.
       -1   -1    0    0    0  501  0.00000000000E+00  0.00000000000E+00 -0.50294711452E+03  0.50294711455E+03  0.50400001928E-02 0.  1.
    10030    2    1    2    0    0  0.00000000000E+00  0.00000000000E+00  0.12547883255E+04  0.22606825546E+04  0.18804765010E+04 0.  0.
        1    1    3    3  502    0 -0.26568074300E+03  0.23377963252E+03  0.16746139747E+04  0.17115990004E+04  0.50400001928E-02 0. -1.
       -1    1    3    3    0  502  0.26568074300E+03 -0.23377963252E+03 -0.41982564918E+03  0.54908355423E+03  0.50400001928E-02 0.  1.
</event>
<event>
 5   0  0.2510069E-04  0.1891368E+04  0.7818609E-02  0.8659165E-01
       -1   -1    0    0    0  501  0.00000000000E+00  0.00000000000E+00  0.12112671129E+04  0.12112671129E+04  0.50400001928E-02 0. -1.
        1   -1    0    0  501    0  0.00000000000E+00  0.00000000000E+00 -0.73833291763E+03  0.73833291764E+03  0.50400001928E-02 0.  1.
    10030    2    1    2    0    0  0.00000000000E+00  0.00000000000E+00  0.47293419531E+03  0.19496000306E+04  0.18913681625E+04 0.  0.
        4    1    3    3  502    0 -0.14185943067E+03 -0.93328967295E+03  0.29443972104E+03  0.98886302081E+03  0.12699999809E+01 0. -1.
       -4    1    3    3    0  502  0.14185943067E+03  0.93328967295E+03  0.17849447427E+03  0.96073700978E+03  0.12699999809E+01 0.  1.
</event>
<event>
 5   0  0.1729375E-04  0.1903306E+04  0.7818609E-02  0.8653212E-01
       -3   -1    0    0    0  501  0.00000000000E+00  0.00000000000E+00  0.16764583390E+04  0.16764583420E+04  0.10100000352E+00 0. -1.
        3   -1    0    0  501    0  0.00000000000E+00  0.00000000000E+00 -0.54021234812E+03  0.54021235756E+03  0.10100000352E+00 0.  1.
    10030    2    1    2    0    0  0.00000000000E+00  0.00000000000E+00  0.11362459909E+04  0.22166706996E+04  0.19033060812E+04 0.  0.
        4    1    3    3  502    0  0.66787335528E+03 -0.67759955315E+03  0.59271663416E+03  0.11209418337E+04  0.12699999809E+01 0. -1.
       -4    1    3    3    0  502 -0.66787335528E+03  0.67759955315E+03  0.54352935670E+03  0.10957288659E+04  0.12699999809E+01 0.  1.
</event>
<event>
 5   0  0.2355414E-04  0.1864382E+04  0.7818609E-02  0.8672792E-01
        1   -1    0    0  501    0  0.00000000000E+00  0.00000000000E+00  0.18704852780E+04  0.18704852780E+04  0.50400001928E-02 0. -1.
       -1   -1    0    0    0  501  0.00000000000E+00  0.00000000000E+00 -0.46457462338E+03  0.46457462340E+03  0.50400001928E-02 0.  1.
    10030    2    1    2    0    0  0.00000000000E+00  0.00000000000E+00  0.14059106546E+04  0.23350599014E+04  0.18643819282E+04 0.  0.
        5    1    3    3  502    0  0.79083234480E+03 -0.73170115962E+02  0.91699096311E+02  0.79950014241E+03  0.46999998093E+01 0. -1.
       -5    1    3    3    0  502 -0.79083234480E+03  0.73170115962E+02  0.13142115583E+04  0.15355597590E+04  0.46999998093E+01 0.  1.
</event>
<event>
 5   0  0.4839293E-04  0.1871883E+04  0.7818609E-02  0.8668980E-01
       -2   -1    0    0    0  501  0.00000000000E+00  0.00000000000E+00  0.76545328197E+03  0.76545328198E+03  0.25500000920E-02 0.  1.
        2   -1    0    0  501    0  0.00000000000E+00  0.00000000000E+00 -0.11444022782E+04  0.11444022782E+04  0.25500000920E-02 0. -1.
    10030    2    1    2    0    0  0.00000000000E+00  0.00000000000E+00 -0.37894899621E+03  0.19098555602E+04  0.18718829875E+04 0.  0.
        5    1    3    3  502    0  0.99483206355E+02 -0.89441933455E+02 -0.11345849880E+04  0.11424543548E+04  0.46999998093E+01 0. -1.
       -5    1    3    3    0  502 -0.99483206355E+02  0.89441933455E+02  0.75563599182E+03  0.76740120533E+03  0.46999998093E+01 0.  1.
</event>
<event>
 5   0  0.4839293E-04  0.1901257E+04  0.7818609E-02  0.8654231E-01
        2   -1    0    0  501    0  0.00000000000E+00  0.00000000000E+00  0.16106759681E+04  0.16106759681E+04  0.25500000920E-02 0. -1.
       -2   -1    0    0    0  501  0.00000000000E+00  0.00000000000E+00 -0.56106516626E+03  0.56106516627E+03  0.25500000920E-02 0.  1.
    10030    2    1    2    0    0  0.00000000000E+00  0.00000000000E+00  0.10496108018E+04  0.21717411344E+04  0.19012566159E+04 0.  0.
        5    1    3    3  502    0 -0.64969991691E+03 -0.51249798504E+03  0.10592442983E+04  0.13441669317E+04  0.46999998093E+01 0.  1.
       -5    1    3    3    0  502  0.64969991691E+03  0.51249798504E+03 -0.96334964727E+01  0.82757420269E+03  0.46999998093E+01 0. -1.
</event>
<event>
 5   0  0.4802635E-04  0.1861604E+04  0.7818609E-02  0.8674208E-01
       -2   -1    0    0    0  501  0.00000000000E+00  0.00000000000E+00  0.81893052192E+03  0.81893052192E+03  0.25500000920E-02 0. -1.
        2   -1    0    0  501    0  0.00000000000E+00  0.00000000000E+00 -0.10579556412E+04  0.10579556412E+04  0.25500000920E-02 0.  1.
    10030    2    1    2    0    0  0.00000000000E+00  0.00000000000E+00 -0.23902511926E+03  0.18768861631E+04  0.18616037875E+04 0.  0.
        3    1    3    3  502    0 -0.91548181959E+03  0.24043492410E+02 -0.28733353607E+03  0.95981541073E+03  0.10100000352E+00 0. -1.
       -3    1    3    3    0  502  0.91548181959E+03 -0.24043492410E+02  0.48308416810E+02  0.91707075237E+03  0.10100000352E+00 0.  1.
</event>
<event>
 5   0  0.4839293E-04  0.2003887E+04  0.7818609E-02  0.8604806E-01
       -2   -1    0    0    0  501  0.00000000000E+00  0.00000000000E+00  0.98830449405E+03  0.98830449405E+03  0.25500000920E-02 0.  1.
        2   -1    0    0  501    0  0.00000000000E+00  0.00000000000E+00 -0.10157706922E+04  0.10157706922E+04  0.25500000920E-02 0. -1.
    10030    2    1    2    0    0  0.00000000000E+00  0.00000000000E+00 -0.27466198117E+02  0.20040751862E+04  0.20038869629E+04 0.  0.
        5    1    3    3  502    0  0.99420246999E+03  0.27018931392E+02 -0.13498835737E+03  0.10036994175E+04  0.46999998093E+01 0. -1.
       -5    1    3    3    0  502 -0.99420246999E+03 -0.27018931392E+02  0.10752215925E+03  0.10003757688E+04  0.46999998093E+01 0.  1.
</event>
<event>
 5   0  0.2376359E-04  0.1521533E+04  0.7818609E-02  0.8870259E-01
        1   -1    0    0  501    0  0.00000000000E+00  0.00000000000E+00  0.47923090152E+03  0.47923090154E+03  0.50400001928E-02 0. -1.
       -1   -1    0    0    0  501  0.00000000000E+00  0.00000000000E+00 -0.12076970375E+04  0.12076970375E+04  0.50400001928E-02 0.  1.
    10030    2    1    2    0    0  0.00000000000E+00  0.00000000000E+00 -0.72846613594E+03  0.16869279390E+04  0.15215330953E+04 0.  0.
        2    1    3    3  502    0 -0.42792387154E+03 -0.30476602852E+03  0.24582005182E+03  0.58002471486E+03  0.25500000920E-02 0. -1.
       -2    1    3    3    0  502  0.42792387154E+03  0.30476602852E+03 -0.97428618776E+03  0.11069032241E+04  0.25500000920E-02 0.  1.
</event>
<event>
 5   0  0.4802635E-04  0.1877312E+04  0.7818609E-02  0.8666233E-01
       -2   -1    0    0    0  501  0.00000000000E+00  0.00000000000E+00  0.18204733553E+04  0.18204733553E+04  0.25500000920E-02 0. -1.
        2   -1    0    0  501    0  0.00000000000E+00  0.00000000000E+00 -0.48398128945E+03  0.48398128946E+03  0.25500000920E-02 0.  1.
    10030    2    1    2    0    0  0.00000000000E+00  0.00000000000E+00  0.13364920658E+04  0.23044546447E+04  0.18773119527E+04 0.  0.
        3    1    3    3  502    0 -0.23260625160E+03 -0.11327532416E+03 -0.43934836337E+03  0.50986661192E+03  0.10100000352E+00 0.  1.
       -3    1    3    3    0  502  0.23260625160E+03  0.11327532416E+03  0.17758404292E+04  0.17945880328E+04  0.10100000352E+00 0. -1.
</event>
<event>
 5   0  0.4761944E-04  0.1846436E+04  0.7818609E-02  0.8681988E-01
        2   -1    0    0  501    0  0.00000000000E+00  0.00000000000E+00  0.25647609792E+04  0.25647609792E+04  0.25500000920E-02 0.  1.
       -2   -1    0    0    0  501  0.00000000000E+00  0.00000000000E+00 -0.33232390766E+03  0.33232390767E+03  0.25500000920E-02 0. -1.
    10030    2    1    2    0    0  0.00000000000E+00  0.00000000000E+00  0.22324370715E+04  0.28970848869E+04  0.18464359083E+04 0.  0.
        4    1    3    3  502    0  0.48584661590E+03  0.37859805753E+03  0.21952470571E+04  0.22800207626E+04  0.12699999809E+01 0. -1.
       -4    1    3    3    0  502 -0.48584661590E+03 -0.37859805753E+03  0.37190014429E+02  0.61706412424E+03  0.12699999809E+01 0.  1.
</event>
<event>
 5   0  0.4802635E-04  0.1703018E+04  0.7818609E-02  0.8759645E-01
       -2   -1    0    0    0  501  0.00000000000E+00  0.00000000000E+00  0.69678971829E+03  0.69678971829E+03  0.25500000920E-02 0.  1.
        2   -1    0    0  501    0  0.00000000000E+00  0.00000000000E+00 -0.10405828074E+04  0.10405828074E+04  0.25500000920E-02 0. -1.
    10030    2    1    2    0    0  0.00000000000E+00  0.00000000000E+00 -0.34379308908E+03  0.17373725257E+04  0.17030177935E+04 0.  0.
        3    1    3    3  502    0 -0.33093955139E+03 -0.73388518672E+03 -0.45490753037E+03  0.92468877215E+03  0.10100000352E+00 0.  1.
       -3    1    3    3    0  502  0.33093955139E+03  0.73388518672E+03  0.11111444129E+03  0.81268375351E+03  0.10100000352E+00 0. -1.
</event>
<event>
 5   0  0.2376359E-04  0.1878447E+04  0.7818609E-02  0.8665659E-01
       -1   -1    0    0    0  501  0.00000000000E+00  0.00000000000E+00  0.37501313502E+03  0.37501313506E+03  0.50400001928E-02 0.  1.
        1   -1    0    0  501    0  0.00000000000E+00  0.00000000000E+00 -0.23522940151E+04  0.23522940151E+04  0.50400001928E-02 0. -1.
    10030    2    1    2    0    0  0.00000000000E+00  0.00000000000E+00 -0.19772808800E+04  0.27273071501E+04  0.18784473941E+04 0.  0.
        2    1    3    3  502    0 -0.18297303393E+03  0.43979660832E+03  0.18662383418E+03  0.51159421744E+03  0.25500000920E-02 0.  1.
       -2    1    3    3    0  502  0.18297303393E+03 -0.43979660832E+03 -0.21639047142E+04  0.22157129327E+04  0.25500000920E-02 0. -1.
</event>
<event>
 5   0  0.4829134E-04  0.1928310E+04  0.7818609E-02  0.8640892E-01
       -2   -1    0    0    0  501  0.00000000000E+00  0.00000000000E+00  0.11362569552E+04  0.11362569552E+04  0.25500000920E-02 0. -1.
        2   -1    0    0  501    0  0.00000000000E+00  0.00000000000E+00 -0.81812024234E+03  0.81812024235E+03  0.25500000920E-02 0.  1.
    10030    2    1    2    0    0  0.00000000000E+00  0.00000000000E+00  0.31813671289E+03  0.19543771976E+04  0.19283099498E+04 0.  0.
        2    1    3    3  502    0  0.61720544464E+02 -0.32573343340E+02  0.11336936896E+04  0.11358397027E+04  0.25500000920E-02 0. -1.
       -2    1    3    3    0  502 -0.61720544464E+02  0.32573343340E+02 -0.81555697672E+03  0.81853749491E+03  0.25500000920E-02 0.  1.
</event>
<event>
 5   0  0.2510069E-04  0.1965053E+04  0.7818609E-02  0.8623136E-01
        1   -1    0    0  501    0  0.00000000000E+00  0.00000000000E+00  0.17489055495E+04  0.17489055495E+04  0.50400001928E-02 0.  1.
       -1   -1    0    0    0  501  0.00000000000E+00  0.00000000000E+00 -0.55197874651E+03  0.55197874653E+03  0.50400001928E-02 0. -1.
    10030    2    1    2    0    0  0.00000000000E+00  0.00000000000E+00  0.11969268030E+04  0.23008842961E+04  0.19650533764E+04 0.  0.
        4    1    3    3  502    0  0.26969579392E+03  0.76686707480E+03 -0.47696277060E+02  0.81430797578E+03  0.12699999809E+01 0. -1.
       -4    1    3    3    0  502 -0.26969579392E+03 -0.76686707480E+03  0.12446230801E+04  0.14865763203E+04  0.12699999809E+01 0.  1.
</event>
<event>
 5   0  0.2510069E-04  0.1019567E+04  0.7818609E-02  0.9287341E-01
        1   -1    0    0  501    0  0.00000000000E+00  0.00000000000E+00  0.11429352910E+04  0.11429352910E+04  0.50400001928E-02 0.  1.
       -1   -1    0    0    0  501  0.00000000000E+00  0.00000000000E+00 -0.22737855784E+03  0.22737855790E+03  0.50400001928E-02 0. -1.
    10030    2    1    2    0    0  0.00000000000E+00  0.00000000000E+00  0.91555673317E+03  0.13703138489E+04  0.10195665319E+04 0.  0.
        4    1    3    3  502    0 -0.17594064011E+03  0.47682867200E+03  0.40475060236E+03  0.64972713834E+03  0.12699999809E+01 0.  1.
       -4    1    3    3    0  502  0.17594064011E+03 -0.47682867200E+03  0.51080613082E+03  0.72058671058E+03  0.12699999809E+01 0. -1.
</event>
<event>
 5   0  0.4761944E-04  0.1904209E+04  0.7818609E-02  0.8652764E-01
        2   -1    0    0  501    0  0.00000000000E+00  0.00000000000E+00  0.12238141932E+04  0.12238141932E+04  0.25500000920E-02 0. -1.
       -2   -1    0    0    0  501  0.00000000000E+00  0.00000000000E+00 -0.74071943964E+03  0.74071943964E+03  0.25500000920E-02 0.  1.
    10030    2    1    2    0    0  0.00000000000E+00  0.00000000000E+00  0.48309475360E+03  0.19645336329E+04  0.19042089837E+04 0.  0.
        4    1    3    3  502    0  0.67359117994E+03 -0.62065788027E+03 -0.26610093057E+02  0.91632471972E+03  0.12699999809E+01 0.  1.
       -4    1    3    3    0  502 -0.67359117994E+03  0.62065788027E+03  0.50970484665E+03  0.10482089132E+04  0.12699999809E+01 0. -1.
</event>
<event>
 5   0  0.2317458E-04  0.1724551E+04  0.7818609E-02  0.8747485E-01
       -1   -1    0    0    0  501  0.00000000000E+00  0.00000000000E+00  0.20098729911E+04  0.20098729911E+04  0.50400001928E-02 0.  1.
        1   -1    0    0  501    0  0.00000000000E+00  0.00000000000E+00 -0.36993321646E+03  0.36993321649E+03  0.50400001928E-02 0. -1.
    10030    2    1    2    0    0  0.00000000000E+00  0.00000000000E+00  0.16399397746E+04  0.23798062076E+04  0.17245507013E+04 0.  0.
        3    1    3    3  502    0  0.64522883911E+03 -0.55663072358E+03  0.10017933412E+04  0.13151988161E+04  0.10100000352E+00 0.  1.
       -3    1    3    3    0  502 -0.64522883911E+03  0.55663072358E+03  0.63814643342E+03  0.10646073915E+04  0.10100000352E+00 0. -1.
</event>
<event>
 5   0  0.2376359E-04  0.1683050E+04  0.7818609E-02  0.8771091E-01
        1   -1    0    0  501    0  0.00000000000E+00  0.00000000000E+00  0.10609668027E+04  0.10609668027E+04  0.50400001928E-02 0.  1.
       -1   -1    0    0    0  501  0.00000000000E+00  0.00000000000E+00 -0.66747053782E+03  0.66747053784E+03  0.50400001928E-02 0. -1.
    10030    2    1    2    0    0  0.00000000000E+00  0.00000000000E+00  0.39349626486E+03  0.17284373405E+04  0.16830497110E+04 0.  0.
        2    1    3    3  502    0 -0.70281720927E+03  0.46135395144E+03  0.23468459881E+03  0.87285529103E+03  0.25500000920E-02 0. -1.
       -2    1    3    3    0  502  0.70281720927E+03 -0.46135395144E+03  0.15881166605E+03  0.85558204951E+03  0.25500000920E-02 0.  1.
</event>
<event>
 5   0  0.4802635E-04  0.1864229E+04  0.7818609E-02  0.8672870E-01
       -2   -1    0    0    0  501  0.00000000000E+00  0.00000000000E+00  0.18020187918E+04  0.18020187918E+04  0.25500000920E-02 0. -1.
        2   -1    0    0  501    0  0.00000000000E+00  0.00000000000E+00 -0.48214659649E+03  0.48214659650E+03  0.25500000920E-02 0.  1.
    10030    2    1    2    0    0  0.00000000000E+00  0.00000000000E+00  0.13198721953E+04  0.22841653883E+04  0.18642287706E+04 0.  0.
        3    1    3    3  502    0  0.35440753328E+03 -0.37477109304E+03 -0.29134189452E+03  0.59240035578E+03  0.10100000352E+00 0.  1.
       -3    1    3    3    0  502 -0.35440753328E+03  0.37477109304E+03  0.16112140898E+04  0.16917650325E+04  0.10100000352E+00 0. -1.
</event>
<event>
 5   0  0.4802635E-04  0.1893837E+04  0.7818609E-02  0.8657930E-01
        2   -1    0    0  501    0  0.00000000000E+00  0.00000000000E+00  0.12375144877E+04  0.12375144877E+04  0.25500000920E-02 0.  1.
       -2   -1    0    0    0  501  0.00000000000E+00  0.00000000000E+00 -0.72456129904E+03  0.72456129904E+03  0.25500000920E-02 0. -1.
    10030    2    1    2    0    0  0.00000000000E+00  0.00000000000E+00  0.51295318867E+03  0.19620757868E+04  0.18938374849E+04 0.  0.
        3    1    3    3  502    0  0.40195151091E+03  0.85724998801E+03  0.24137270336E+03  0.97708922376E+03  0.10100000352E+00 0. -1.
       -3    1    3    3    0  502 -0.40195151091E+03 -0.85724998801E+03  0.27158048531E+03  0.98498656299E+03  0.10100000352E+00 0.  1.
</event>
<event>
 5   0  0.4761944E-04  0.1704998E+04  0.7818609E-02  0.8758519E-01
        2   -1    0    0  501    0  0.00000000000E+00  0.00000000000E+00  0.15473902325E+04  0.15473902325E+04  0.25500000920E-02 0. -1.
       -2   -1    0    0    0  501  0.00000000000E+00  0.00000000000E+00 -0.46966457091E+03  0.46966457091E+03  0.25500000920E-02 0.  1.
    10030    2    1    2    0    0  0.00000000000E+00  0.00000000000E+00  0.10777256616E+04  0.20170548034E+04  0.17049977942E+04 0.  0.
        4    1    3    3  502    0  0.73875088497E+03  0.38686379910E+03  0.32944307498E+03  0.89663304737E+03  0.12699999809E+01 0.  1.
       -4    1    3    3    0  502 -0.73875088497E+03 -0.38686379910E+03  0.74828258663E+03  0.11204217561E+04  0.12699999809E+01 0. -1.
</event>
<event>
 5   0  0.2261755E-04  0.1915619E+04  0.7818609E-02  0.8647121E-01
       -1   -1    0    0    0  501  0.00000000000E+00  0.00000000000E+00  0.62152780953E+03  0.62152780955E+03  0.50400001928E-02 0.  1.
        1   -1    0    0  501    0  0.00000000000E+00  0.00000000000E+00 -0.14760380574E+04  0.14760380574E+04  0.50400001928E-02 0. -1.
    10030    2    1    2    0    0  0.00000000000E+00  0.00000000000E+00 -0.85451024790E+03  0.20975658670E+04  0.19156186475E+04 0.  0.
        1    1    3    3  502    0  0.67368762786E+03 -0.20810698430E+03 -0.11370825021E+04  0.13379537188E+04  0.50400001928E-02 0.  1.
       -1    1    3    3    0  502 -0.67368762786E+03  0.20810698430E+03  0.28257225424E+03  0.75961214823E+03  0.50400001928E-02 0. -1.
</event>
<event>
 5   0  0.4761944E-04  0.1609843E+04  0.7818609E-02  0.8814524E-01
        2   -1    0    0  501    0  0.00000000000E+00  0.00000000000E+00  0.83863988231E+03  0.83863988231E+03  0.25500000920E-02 0.  1.
       -2   -1    0    0    0  501  0.00000000000E+00  0.00000000000E+00 -0.77255832360E+03  0.77255832360E+03  0.25500000920E-02 0. -1.
    10030    2    1    2    0    0  0.00000000000E+00  0.00000000000E+00  0.66081558710E+02  0.16111982059E+04  0.16098425036E+04 0.  0.
        4    1    3    3  502    0 -0.16778756838E+03 -0.19083389513E+02  0.82071038332E+03  0.83790452323E+03  0.12699999809E+01 0.  1.
       -4    1    3    3    0  502  0.16778756838E+03  0.19083389513E+02 -0.75462882461E+03  0.77329368269E+03  0.12699999809E+01 0. -1.
</event>
<event>
 5   0  0.2317458E-04  0.1860696E+04  0.7818609E-02  0.8674672E-01
        1   -1    0    0  501    0  0.00000000000E+00  0.00000000000E+00  0.85831499133E+03  0.85831499135E+03  0.50400001928E-02 0.  1.
       -1   -1    0    0    0  501  0.00000000000E+00  0.00000000000E+00 -0.10084258714E+04  0.10084258714E+04  0.50400001928E-02 0. -1.
    10030    2    1    2    0    0  0.00000000000E+00  0.00000000000E+00 -0.15011088008E+03  0.18667408628E+04  0.18606956152E+04 0.  0.
        3    1    3    3  502    0 -0.16329979719E+02 -0.84316025268E+03  0.31910924102E+03  0.90167433026E+03  0.10100000352E+00 0.  1.
       -3    1    3    3    0  502  0.16329979719E+02  0.84316025268E+03 -0.46922012109E+03  0.96506653252E+03  0.10100000352E+00 0. -1.
</event>
<event>
 5   0  0.4802635E-04  0.1911636E+04  0.7818609E-02  0.8649086E-01
        2   -1    0    0  501    0  0.00000000000E+00  0.00000000000E+00  0.19087455695E+04  0.19087455695E+04  0.25500000920E-02 0. -1.
       -2   -1    0    0    0  501  0.00000000000E+00  0.00000000000E+00 -0.47863281755E+03  0.47863281756E+03  0.25500000920E-02 0.  1.
    10030    2    1    2    0    0  0.00000000000E+00  0.00000000000E+00  0.14301127520E+04  0.23873783871E+04  0.19116362310E+04 0.  0.
        3    1    3    3  502    0  0.54822842527E+03 -0.30606647547E+03 -0.18495721768E+03  0.65455349381E+03  0.10100000352E+00 0.  1.
       -3    1    3    3    0  502 -0.54822842527E+03  0.30606647547E+03  0.16150699696E+04  0.17328248933E+04  0.10100000352E+00 0. -1.
</event>
<event>
 5   0  0.4839293E-04  0.1690045E+04  0.7818609E-02  0.8767063E-01
       -2   -1    0    0    0  501  0.00000000000E+00  0.00000000000E+00  0.41363324537E+03  0.41363324537E+03  0.25500000920E-02 0. -1.
        2   -1    0    0  501    0  0.00000000000E+00  0.00000000000E+00 -0.17263190589E+04  0.17263190589E+04  0.25500000920E-02 0.  1.
    10030    2    1    2    0    0  0.00000000000E+00  0.00000000000E+00 -0.13126858135E+04  0.21399523043E+04  0.16900449164E+04 0.  0.
        5    1    3    3  502    0  0.12933013391E+03 -0.55712596164E+03 -0.14439677015E+04  0.15531195813E+04  0.46999998093E+01 0.  1.
       -5    1    3    3    0  502 -0.12933013391E+03  0.55712596164E+03  0.13128188800E+03  0.58683272300E+03  0.46999998093E+01 0. -1.
</event>
<event>
 5   0  0.2261755E-04  0.1958032E+04  0.7818609E-02  0.8626497E-01
       -1   -1    0    0    0  501  0.00000000000E+00  0.00000000000E+00  0.58873390594E+03  0.58873390596E+03  0.50400001928E-02 0.  1.
        1   -1    0    0  501    0  0.00000000000E+00  0.00000000000E+00 -0.16280232669E+04  0.16280232669E+04  0.50400001928E-02 0. -1.
    10030    2    1    2    0    0  0.00000000000E+00  0.00000000000E+00 -0.10392893610E+04  0.22167571729E+04  0.19580321723E+04 0.  0.
        1    1    3    3  502    0  0.86097296379E+03  0.43771981204E+03 -0.33850510290E+03  0.10234543385E+04  0.50400001928E-02 0.  1.
       -1    1    3    3    0  502 -0.86097296379E+03 -0.43771981204E+03 -0.70078425809E+03  0.11933028344E+04  0.50400001928E-02 0. -1.
</event>
<event>
 5   0  0.2261755E-04  0.1839720E+04  0.7818609E-02  0.8685457E-01
        1   -1    0    0  501    0  0.00000000000E+00  0.00000000000E+00  0.15176366094E+04  0.15176366094E+04  0.50400001928E-02 0. -1.
       -1   -1    0    0    0  501  0.00000000000E+00  0.00000000000E+00 -0.55753981614E+03  0.55753981616E+03  0.50400001928E-02 0.  1.
    10030    2    1    2    0    0  0.00000000000E+00  0.00000000000E+00  0.96009679327E+03  0.20751764256E+04  0.18397204529E+04 0.  0.
        1    1    3    3  502    0 -0.43692937873E+03  0.50514493069E+03 -0.23340893970E+03  0.70750153085E+03  0.50400001928E-02 0.  1.
       -1    1    3    3    0  502  0.43692937873E+03 -0.50514493069E+03  0.11935057330E+04  0.13676748947E+04  0.50400001928E-02 0. -1.
</event>
<event>
 5   0  0.4973411E-04  0.1889807E+04  0.7818609E-02  0.8659947E-01
       -2   -1    0    0    0  501  0.00000000000E+00  0.00000000000E+00  0.98529743389E+03  0.98529743389E+03  0.25500000920E-02 0.  1.
        2   -1    0    0  501    0  0.00000000000E+00  0.00000000000E+00 -0.90616592042E+03  0.90616592043E+03  0.25500000920E-02 0. -1.
    10030    2    1    2    0    0  0.00000000000E+00  0.00000000000E+00  0.79131513464E+02  0.18914633543E+04  0.18898073511E+04 0.  0.
        1    1    3    3  502    0 -0.15416579386E+03 -0.79282619311E+03 -0.45127451466E+03  0.92519681802E+03  0.50400001928E-02 0. -1.
       -1    1    3    3    0  502  0.15416579386E+03  0.79282619311E+03  0.53040602812E+03  0.96626653630E+03  0.50400001928E-02 0.  1.
</event>
<event>
 5   0  0.2510069E-04  0.1245105E+04  0.7818609E-02  0.9074267E-01
        1   -1    0    0  501    0  0.00000000000E+00  0.00000000000E+00  0.83560688125E+03  0.83560688126E+03  0.50400001928E-02 0. -1.
       -1   -1    0    0    0  501  0.00000000000E+00  0.00000000000E+00 -0.46382086039E+03  0.46382086042E+03  0.50400001928E-02 0.  1.
    10030    2    1    2    0    0  0.00000000000E+00  0.00000000000E+00  0.37178602085E+03  0.12994277417E+04  0.12451054616E+04 0.  0.
        4    1    3    3  502    0  0.15901393947E+03  0.46137326163E+03 -0.21751984879E+03  0.53429132223E+03  0.12699999809E+01 0.  1.
       -4    1    3    3    0  502 -0.15901393947E+03 -0.46137326163E+03  0.58930586964E+03  0.76513641946E+03  0.12699999809E+01 0. -1.
</event>
<event>
 5   0  0.4839293E-04  0.1860860E+04  0.7818609E-02  0.8674588E-01
       -2   -1    0    0    0  501  0.00000000000E+00  0.00000000000E+00  0.48982863131E+03  0.48982863132E+03  0.25500000920E-02 0. -1.
        2   -1    0    0  501    0  0.00000000000E+00  0.00000000000E+00 -0.17673521350E+04  0.17673521350E+04  0.25500000920E-02 0.  1.
    10030    2    1    2    0    0  0.00000000000E+00  0.00000000000E+00 -0.12775235037E+04  0.22571807663E+04  0.18608596695E+04 0.  0.
        5    1    3    3  502    0  0.35878028861E+03  0.82084211748E+03 -0.94363322128E+03  0.13011421228E+04  0.46999998093E+01 0.  1.
       -5    1    3    3    0  502 -0.35878028861E+03 -0.82084211748E+03 -0.33389028243E+03  0.95603864358E+03  0.46999998093E+01 0. -1.
</event>
<event>
 5   0  0.2376359E-04  0.1923143E+04  0.7818609E-02  0.8643422E-01
        1   -1    0    0  501    0  0.00000000000E+00  0.00000000000E+00  0.90369485681E+03  0.90369485683E+03  0.50400001928E-02 0.  1.
       -1   -1    0    0    0  501  0.00000000000E+00  0.00000000000E+00 -0.10231549897E+04  0.10231549897E+04  0.50400001928E-02 0. -1.
    10030    2    1    2    0    0  0.00000000000E+00  0.00000000000E+00 -0.11946013288E+03  0.19268498465E+04  0.19231431584E+04 0.  0.
        2    1    3    3  502    0 -0.19164982901E+03  0.47001546950E+03  0.75852982770E+03  0.91269474527E+03  0.25500000920E-02 0.  1.
       -2    1    3    3    0  502  0.19164982901E+03 -0.47001546950E+03 -0.87798996058E+03  0.10141551013E+04  0.25500000920E-02 0. -1.
</event>
<event>
 5   0  0.2355414E-04  0.1590380E+04  0.7818609E-02  0.8826480E-01
        1   -1    0    0  501    0  0.00000000000E+00  0.00000000000E+00  0.93582483434E+03  0.93582483435E+03  0.50400001928E-02 0.  1.
       -1   -1    0    0    0  501  0.00000000000E+00  0.00000000000E+00 -0.67568970750E+03  0.67568970751E+03  0.50400001928E-02 0. -1.
    10030    2    1    2    0    0  0.00000000000E+00  0.00000000000E+00  0.26013512684E+03  0.16115145419E+04  0.15903800912E+04 0.  0.
        5    1    3    3  502    0 -0.36225407988E+03 -0.48072115964E+03  0.65657259599E+03  0.89074716701E+03  0.46999998093E+01 0.  1.
       -5    1    3    3    0  502  0.36225407988E+03  0.48072115964E+03 -0.39643746915E+03  0.72076737486E+03  0.46999998093E+01 0. -1.
</event>
<event>
 5   0  0.2261755E-04  0.1895610E+04  0.7818609E-02  0.8657045E-01
        1   -1    0    0  501    0  0.00000000000E+00  0.00000000000E+00  0.10464153664E+04  0.10464153664E+04  0.50400001928E-02 0. -1.
       -1   -1    0    0    0  501  0.00000000000E+00  0.00000000000E+00 -0.85848710789E+03  0.85848710791E+03  0.50400001928E-02 0.  1.
    10030    2    1    2    0    0  0.00000000000E+00  0.00000000000E+00  0.18792825852E+03  0.19049024743E+04  0.18956097717E+04 0.  0.
        1    1    3    3  502    0 -0.75919619771E+03 -0.51138116482E+03  0.34102407561E+03  0.97682494978E+03  0.50400001928E-02 0. -1.
       -1    1    3    3    0  502  0.75919619771E+03  0.51138116482E+03 -0.15309581708E+03  0.92807752455E+03  0.50400001928E-02 0.  1.
</event>
<event>
 5   0  0.4839293E-04  0.1887523E+04  0.7818609E-02  0.8661092E-01
       -2   -1    0    0    0  501  0.00000000000E+00  0.00000000000E+00  0.71231868678E+03  0.71231868679E+03  0.25500000920E-02 0.  1.
        2   -1    0    0  501    0  0.00000000000E+00  0.00000000000E+00 -0.12504030954E+04  0.12504030954E+04  0.25500000920E-02 0. -1.
    10030    2    1    2    0    0  0.00000000000E+00  0.00000000000E+00 -0.53808440860E+03  0.19627217822E+04  0.18875227054E+04 0.  0.
        5    1    3    3  502    0  0.23495293676E+03  0.90682690344E+03 -0.38817305612E+03  0.10140208710E+04  0.46999998093E+01 0. -1.
       -5    1    3    3    0  502 -0.23495293676E+03 -0.90682690344E+03 -0.14991135248E+03  0.94870091119E+03  0.46999998093E+01 0.  1.
</event>
<event>
 5   0  0.2376359E-04  0.1545704E+04  0.7818609E-02  0.8854616E-01
        1   -1    0    0  501    0  0.00000000000E+00  0.00000000000E+00  0.14312181765E+04  0.14312181765E+04  0.50400001928E-02 0.  1.
       -1   -1    0    0    0  501  0.00000000000E+00  0.00000000000E+00 -0.41733693411E+03  0.41733693414E+03  0.50400001928E-02 0. -1.
    10030    2    1    2    0    0  0.00000000000E+00  0.00000000000E+00  0.10138812424E+04  0.18485551106E+04  0.15457039896E+04 0.  0.
        2    1    3    3  502    0 -0.70941231224E+03  0.12683890202E+03  0.17305036636E+03  0.74114800487E+03  0.25500000920E-02 0. -1.
       -2    1    3    3    0  502  0.70941231224E+03 -0.12683890202E+03  0.84083087603E+03  0.11074071058E+04  0.25500000920E-02 0.  1.
</event>
<event>
 5   0  0.2317458E-04  0.1878903E+04  0.7818609E-02  0.8665430E-01
        1   -1    0    0  501    0  0.00000000000E+00  0.00000000000E+00  0.98474051175E+03  0.98474051176E+03  0.50400001928E-02 0.  1.
       -1   -1    0    0    0  501  0.00000000000E+00  0.00000000000E+00 -0.89624522975E+03  0.89624522976E+03  0.50400001928E-02 0. -1.
    10030    2    1    2    0    0  0.00000000000E+00  0.00000000000E+00  0.88495281996E+02  0.18809857415E+04  0.18789028567E+04 0.  0.
        3    1    3    3  502    0  0.48247796107E+03 -0.48201016505E+03  0.69106774563E+03  0.97092400392E+03  0.10100000352E+00 0.  1.
       -3    1    3    3    0  502 -0.48247796107E+03  0.48201016505E+03 -0.60257246364E+03  0.91006173761E+03  0.10100000352E+00 0. -1.
</event>
<event>
 5   0  0.4802635E-04  0.1872868E+04  0.7818609E-02  0.8668481E-01
        2   -1    0    0  501    0  0.00000000000E+00  0.00000000000E+00  0.18906389772E+04  0.18906389772E+04  0.25500000920E-02 0. -1.
       -2   -1    0    0    0  501  0.00000000000E+00  0.00000000000E+00 -0.46381583273E+03  0.46381583274E+03  0.25500000920E-02 0.  1.
    10030    2    1    2    0    0  0.00000000000E+00  0.00000000000E+00  0.14268231445E+04  0.23544548100E+04  0.18728676319E+04 0.  0.
        3    1    3    3  502    0 -0.36874210501E+03 -0.30221753663E+03 -0.29981596883E+03  0.56320138922E+03  0.10100000352E+00 0.  1.
       -3    1    3    3    0  502  0.36874210501E+03  0.30221753663E+03  0.17266391133E+04  0.17912534207E+04  0.10100000352E+00 0. -1.
</event>
<event>
 5   0  0.4839293E-04  0.1906724E+04  0.7818609E-02  0.8651517E-01
       -2   -1    0    0    0  501  0.00000000000E+00  0.00000000000E+00  0.83356070159E+03  0.83356070160E+03  0.25500000920E-02 0.  1.
        2   -1    0    0  501    0  0.00000000000E+00  0.00000000000E+00 -0.10903812077E+04  0.10903812077E+04  0.25500000920E-02 0. -1.
    10030    2    1    2    0    0  0.00000000000E+00  0.00000000000E+00 -0.25682050609E+03  0.19239419093E+04  0.19067238127E+04 0.  0.
        5    1    3    3  502    0 -0.37196923798E+03  0.82040220885E+03  0.18658812202E+03  0.91992288567E+03  0.46999998093E+01 0. -1.
       -5    1    3    3    0  502  0.37196923798E+03 -0.82040220885E+03 -0.44340862811E+03  0.10040190236E+04  0.46999998093E+01 0.  1.
</event>
<event>
 5   0  0.4973411E-04  0.1865149E+04  0.7818609E-02  0.8672401E-01
       -2   -1    0    0    0  501  0.00000000000E+00  0.00000000000E+00  0.42980252591E+03  0.42980252592E+03  0.25500000920E-02 0.  1.
        2   -1    0    0  501    0  0.00000000000E+00  0.00000000000E+00 -0.20234762610E+04  0.20234762610E+04  0.25500000920E-02 0. -1.
    10030    2    1    2    0    0  0.00000000000E+00  0.00000000000E+00 -0.15936737351E+04  0.24532787870E+04  0.18651490108E+04 0.  0.
        1    1    3    3  502    0 -0.28439949033E+02 -0.72399803384E+03 -0.15690947356E+04  0.17283056075E+04  0.50400001928E-02 0. -1.
       -1    1    3    3    0  502  0.28439949033E+02  0.72399803384E+03 -0.24578999570E+02  0.72497317946E+03  0.50400001928E-02 0.  1.
</event>
<event>
 5   0  0.2510069E-04  0.1933531E+04  0.7818609E-02  0.8638344E-01
       -1   -1    0    0    0  501  0.00000000000E+00  0.00000000000E+00  0.17680178271E+04  0.17680178271E+04  0.50400001928E-02 0. -1.
        1   -1    0    0  501    0  0.00000000000E+00  0.00000000000E+00 -0.52863458683E+03  0.52863458685E+03  0.50400001928E-02 0.  1.
    10030    2    1    2    0    0  0.00000000000E+00  0.00000000000E+00  0.12393832403E+04  0.22966524140E+04  0.19335308361E+04 0.  0.
        4    1    3    3  502    0 -0.21101714477E+03 -0.75159592126E+03 -0.57677683417E+02  0.78278540629E+03  0.12699999809E+01 0.  1.
       -4    1    3    3    0  502  0.21101714477E+03  0.75159592126E+03  0.12970609237E+04  0.15138670077E+04  0.12699999809E+01 0. -1.
</event>
<event>
 5   0  0.2355414E-04  0.1868667E+04  0.7818609E-02  0.8670612E-01
        1   -1    0    0  501    0  0.00000000000E+00  0.00000000000E+00  0.73679006323E+03  0.73679006324E+03  0.50400001928E-02 0. -1.
       -1   -1    0    0    0  501  0.00000000000E+00  0.00000000000E+00 -0.11848404647E+04  0.11848404647E+04  0.50400001928E-02 0.  1.
    10030    2    1    2    0    0  0.00000000000E+00  0.00000000000E+00 -0.44805040146E+03  0.19216305279E+04  0.18686665630E+04 0.  0.
        5    1    3    3  502    0 -0.78120820350E+03 -0.48250040416E+03 -0.46316031710E+02  0.91938031414E+03  0.46999998093E+01 0. -1.
       -5    1    3    3    0  502  0.78120820350E+03  0.48250040416E+03 -0.40173436975E+03  0.10022502138E+04  0.46999998093E+01 0.  1.
</event>
<event>
 5   0  0.2317458E-04  0.1327923E+04  0.7818609E-02  0.9007711E-01
        1   -1    0    0  501    0  0.00000000000E+00  0.00000000000E+00  0.82193700022E+03  0.82193700024E+03  0.50400001928E-02 0. -1.
       -1   -1    0    0    0  501  0.00000000000E+00  0.00000000000E+00 -0.53634845702E+03  0.53634845704E+03  0.50400001928E-02 0.  1.
    10030    2    1    2    0    0  0.00000000000E+00  0.00000000000E+00  0.28558854321E+03  0.13582854573E+04  0.13279226512E+04 0.  0.
        3    1    3    3  502    0 -0.53105483341E+03 -0.38797085756E+03  0.49584341100E+02  0.65954472137E+03  0.10100000352E+00 0.  1.
       -3    1    3    3    0  502  0.53105483341E+03  0.38797085756E+03  0.23600420211E+03  0.69874073591E+03  0.10100000352E+00 0. -1.
</event>
<event>
 5   0  0.4829134E-04  0.2140126E+04  0.7818609E-02  0.8543771E-01
        2   -1    0    0  501    0  0.00000000000E+00  0.00000000000E+00  0.64730425829E+03  0.64730425830E+03  0.25500000920E-02 0.  1.
       -2   -1    0    0    0  501  0.00000000000E+00  0.00000000000E+00 -0.17689281834E+04  0.17689281834E+04  0.25500000920E-02 0. -1.
    10030    2    1    2    0    0  0.00000000000E+00  0.00000000000E+00 -0.11216239251E+04  0.24162324416E+04  0.21401259269E+04 0.  0.
        2    1    3    3  502    0 -0.10390442978E+04  0.16368642888E+03 -0.78270976473E+03  0.13111219911E+04  0.25500000920E-02 0. -1.
       -2    1    3    3    0  502  0.10390442978E+04 -0.16368642888E+03 -0.33891416033E+03  0.11051104505E+04  0.25500000920E-02 0.  1.
</event>
<event>
 5   0  0.2317458E-04  0.1907920E+04  0.7818609E-02  0.8650924E-01
        1   -1    0    0  501    0  0.00000000000E+00  0.00000000000E+00  0.13668862940E+04  0.13668862940E+04  0.50400001928E-02 0.  1.
       -1   -1    0    0    0  501  0.00000000000E+00  0.00000000000E+00 -0.66577559404E+03  0.66577559406E+03  0.50400001928E-02 0. -1.
    10030    2    1    2    0    0  0.00000000000E+00  0.00000000000E+00  0.70111069994E+03  0.20326618881E+04  0.19079198457E+04 0.  0.
        3    1    3    3  502    0 -0.74149039259E+03 -0.19748641387E+03  0.95438369954E+03  0.12246048922E+04  0.10100000352E+00 0.  1.
       -3    1    3    3    0  502  0.74149039259E+03  0.19748641387E+03 -0.25327299959E+03  0.80805699582E+03  0.10100000352E+00 0. -1.
</event>
<event>
 5   0  0.2376359E-04  0.1962505E+04  0.7818609E-02  0.8624354E-01
        1   -1    0    0  501    0  0.00000000000E+00  0.00000000000E+00  0.73665480729E+03  0.73665480730E+03  0.50400001928E-02 0. -1.
       -1   -1    0    0    0  501  0.00000000000E+00  0.00000000000E+00 -0.13070657982E+04  0.13070657982E+04  0.50400001928E-02 0.  1.
    10030    2    1    2    0    0  0.00000000000E+00  0.00000000000E+00 -0.57041099089E+03  0.20437206055E+04  0.19625048318E+04 0.  0.
        2    1    3    3  502    0 -0.63021330981E+03  0.24221435210E+03 -0.10267260672E+04  0.12288218037E+04  0.25500000920E-02 0.  1.
       -2    1    3    3    0  502  0.63021330981E+03 -0.24221435210E+03  0.45631507632E+03  0.81489880176E+03  0.25500000920E-02 0. -1.
</event>
<event>
 5   0  0.2510069E-04  0.1865522E+04  0.7818609E-02  0.8672211E-01
       -1   -1    0    0    0  501  0.00000000000E+00  0.00000000000E+00  0.57845500975E+03  0.57845500977E+03  0.50400001928E-02 0. -1.
        1   -1    0    0  501    0  0.00000000000E+00  0.00000000000E+00 -0.15040800316E+04  0.15040800316E+04  0.50400001928E-02 0.  1.
    10030    2    1    2    0    0  0.00000000000E+00  0.00000000000E+00 -0.92562502183E+03  0.20825350414E+04  0.18655215135E+04 0.  0.
        4    1    3    3  502    0 -0.21409981747E+03 -0.28634545271E+02  0.55014873859E+03  0.59103630725E+03  0.12699999809E+01 0. -1.
       -4    1    3    3    0  502  0.21409981747E+03  0.28634545271E+02 -0.14757737604E+04  0.14914987341E+04  0.12699999809E+01 0.  1.
</event>
<event>
 5   0  0.4802635E-04  0.1901164E+04  0.7818609E-02  0.8654277E-01
        2   -1    0    0  501    0  0.00000000000E+00  0.00000000000E+00  0.16823876891E+04  0.16823876892E+04  0.25500000920E-02 0. -1.
       -2   -1    0    0    0  501  0.00000000000E+00  0.00000000000E+00 -0.53709766922E+03  0.53709766923E+03  0.25500000920E-02 0.  1.
    10030    2    1    2    0    0  0.00000000000E+00  0.00000000000E+00  0.11452900199E+04  0.22194853584E+04  0.19011643870E+04 0.  0.
        3    1    3    3  502    0  0.36312658158E+03 -0.68461733407E+03 -0.70021918686E+02  0.77811624303E+03  0.10100000352E+00 0.  1.
       -3    1    3    3    0  502 -0.36312658158E+03  0.68461733407E+03  0.12153119386E+04  0.14413691154E+04  0.10100000352E+00 0. -1.
</event>
<event>
 5   0  0.4802635E-04  0.1834772E+04  0.7818609E-02  0.8688024E-01
       -2   -1    0    0    0  501  0.00000000000E+00  0.00000000000E+00  0.72997601825E+03  0.72997601826E+03  0.25500000920E-02 0. -1.
        2   -1    0    0  501    0  0.00000000000E+00  0.00000000000E+00 -0.11529099581E+04  0.11529099581E+04  0.25500000920E-02 0.  1.
    10030    2    1    2    0    0  0.00000000000E+00  0.00000000000E+00 -0.42293393990E+03  0.18828859764E+04  0.18347715069E+04 0.  0.
        3    1    3    3  502    0  0.76520235331E+03  0.39033507581E+03 -0.54193728445E+03  0.10156732464E+04  0.10100000352E+00 0.  1.
       -3    1    3    3    0  502 -0.76520235331E+03 -0.39033507581E+03  0.11900334456E+03  0.86721273003E+03  0.10100000352E+00 0. -1.
</event>
<event>
 5   0  0.2376359E-04  0.1942380E+04  0.7818609E-02  0.8634044E-01
       -1   -1    0    0    0  501  0.00000000000E+00  0.00000000000E+00  0.17486895333E+04  0.17486895333E+04  0.50400001928E-02 0. -1.
        1   -1    0    0  501    0  0.00000000000E+00  0.00000000000E+00 -0.53938131482E+03  0.53938131484E+03  0.50400001928E-02 0.  1.
    10030    2    1    2    0    0  0.00000000000E+00  0.00000000000E+00  0.12093082185E+04  0.22880708482E+04  0.19423804568E+04 0.  0.
        2    1    3    3  502    0 -0.15114516914E+03 -0.42589162196E+03  0.16172871083E+04  0.16792397466E+04  0.25500000920E-02 0. -1.
       -2    1    3    3    0  502  0.15114516914E+03  0.42589162196E+03 -0.40797888976E+03  0.60883110163E+03  0.25500000920E-02 0.  1.
</event>
<event>
 5   0  0.2355414E-04  0.2296802E+04  0.7818609E-02  0.8479183E-01
        1   -1    0    0  501    0  0.00000000000E+00  0.00000000000E+00  0.15239310548E+04  0.15239310548E+04  0.50400001928E-02 0.  1.
       -1   -1    0    0    0  501  0.00000000000E+00  0.00000000000E+00 -0.86540955876E+03  0.86540955878E+03  0.50400001928E-02 0. -1.
    10030    2    1    2    0    0  0.00000000000E+00  0.00000000000E+00  0.65852149602E+03  0.23893406136E+04  0.22968016908E+04 0.  0.
        5    1    3    3  502    0  0.75908408770E+03 -0.25193806501E+01 -0.56719397072E+03  0.94760017407E+03  0.46999998093E+01 0. -1.
       -5    1    3    3    0  502 -0.75908408770E+03  0.25193806501E+01  0.12257154667E+04  0.14417404395E+04  0.46999998093E+01 0.  1.
</event>
<event>
 5   0  0.4839293E-04  0.1149013E+04  0.7818609E-02  0.9158695E-01
        2   -1    0    0  501    0  0.00000000000E+00  0.00000000000E+00  0.16273767103E+04  0.16273767103E+04  0.25500000920E-02 0. -1.
       -2   -1    0    0    0  501  0.00000000000E+00  0.00000000000E+00 -0.20281564202E+03  0.20281564204E+03  0.25500000920E-02 0.  1.
    10030    2    1    2    0    0  0.00000000000E+00  0.00000000000E+00  0.14245610682E+04  0.18301923523E+04  0.11490125366E+04 0.  0.
        5    1    3    3  502    0  0.38015984792E+03  0.42792922008E+03  0.79015775290E+03  0.97571322213E+03  0.46999998093E+01 0.  1.
       -5    1    3    3    0  502 -0.38015984792E+03 -0.42792922008E+03  0.63440331534E+03  0.85447913016E+03  0.46999998093E+01 0. -1.
</event>
<event>
 5   0  0.4973411E-04  0.1435068E+04  0.7818609E-02  0.8928819E-01
        2   -1    0    0  501    0  0.00000000000E+00  0.00000000000E+00  0.51752032743E+03  0.51752032743E+03  0.25500000920E-02 0.  1.
       -2   -1    0    0    0  501  0.00000000000E+00  0.00000000000E+00 -0.99484962302E+03  0.99484962303E+03  0.25500000920E-02 0. -1.
    10030    2    1    2    0    0  0.00000000000E+00  0.00000000000E+00 -0.47732929560E+03  0.15123699505E+04  0.14350678070E+04 0.  0.
        1    1    3    3  502    0 -0.26133779380E+03  0.16408679122E+03 -0.92134975208E+03  0.97165183229E+03  0.50400001928E-02 0. -1.
       -1    1    3    3    0  502  0.26133779380E+03 -0.16408679122E+03  0.44402045648E+03  0.54071811817E+03  0.50400001928E-02 0.  1.
</event>
<event>
 5   0  0.1729375E-04  0.1868153E+04  0.7818609E-02  0.8670873E-01
       -3   -1    0    0    0  501  0.00000000000E+00  0.00000000000E+00  0.52515364319E+03  0.52515365291E+03  0.10100000352E+00 0.  1.
        3   -1    0    0  501    0  0.00000000000E+00  0.00000000000E+00 -0.16614167554E+04  0.16614167584E+04  0.10100000352E+00 0. -1.
    10030    2    1    2    0    0  0.00000000000E+00  0.00000000000E+00 -0.11362631122E+04  0.21865704113E+04  0.18681531799E+04 0.  0.
        4    1    3    3  502    0 -0.56419783294E+03 -0.51521987557E+03  0.60787122436E+02  0.76646422097E+03  0.12699999809E+01 0.  1.
       -4    1    3    3    0  502  0.56419783294E+03  0.51521987557E+03 -0.11970502346E+04  0.14201061904E+04  0.12699999809E+01 0. -1.
</event>
<event>
 5   0  0.2510069E-04  0.1626243E+04  0.7818609E-02  0.8804586E-01
        1   -1    0    0  501    0  0.00000000000E+00  0.00000000000E+00  0.19623073717E+04  0.19623073717E+04  0.50400001928E-02 0. -1.
       -1   -1    0    0    0  501  0.00000000000E+00  0.00000000000E+00 -0.33693313372E+03  0.33693313376E+03  0.50400001928E-02 0.  1.
    10030    2    1    2    0    0  0.00000000000E+00  0.00000000000E+00  0.16253742380E+04  0.22992405055E+04  0.16262427520E+04 0.  0.
        4    1    3    3  502    0 -0.24501356286E+03 -0.46558627274E+03 -0.63848467693E+02  0.52998156862E+03  0.12699999809E+01 0.  1.
       -4    1    3    3    0  502  0.24501356286E+03  0.46558627274E+03  0.16892227057E+04  0.17692589369E+04  0.12699999809E+01 0. -1.
</event>
<event>
 5   0  0.4761944E-04  0.1924550E+04  0.7818609E-02  0.8642732E-01
        2   -1    0    0  501    0  0.00000000000E+00  0.00000000000E+00  0.26711180055E+04  0.26711180055E+04  0.25500000920E-02 0. -1.
       -2   -1    0    0    0  501  0.00000000000E+00  0.00000000000E+00 -0.34666117964E+03  0.34666117965E+03  0.25500000920E-02 0.  1.
    10030    2    1    2    0    0  0.00000000000E+00  0.00000000000E+00  0.23244568259E+04  0.30177791852E+04  0.19245497331E+04 0.  0.
        4    1    3    3  502    0 -0.40448994720E+03 -0.17611496275E+02 -0.20660240967E+03  0.45454202311E+03  0.12699999809E+01 0.  1.
       -4    1    3    3    0  502  0.40448994720E+03  0.17611496275E+02  0.25310592356E+04  0.25632371621E+04  0.12699999809E+01 0. -1.
</event>
<event>
 5   0  0.4802635E-04  0.1917417E+04  0.7818609E-02  0.8646235E-01
       -2   -1    0    0    0  501  0.00000000000E+00  0.00000000000E+00  0.79048781104E+03  0.79048781105E+03  0.25500000920E-02 0.  1.
        2   -1    0    0  501    0  0.00000000000E+00  0.00000000000E+00 -0.11627277007E+04  0.11627277007E+04  0.25500000920E-02 0. -1.
    10030    2    1    2    0    0  0.00000000000E+00  0.00000000000E+00 -0.37223988967E+03  0.19532155118E+04  0.19174170908E+04 0.  0.
        3    1    3    3  502    0 -0.84406327839E+03  0.51106793821E+02  0.27405219847E+03  0.88890907295E+03  0.10100000352E+00 0.  1.
       -3    1    3    3    0  502  0.84406327839E+03 -0.51106793821E+02 -0.64629208814E+03  0.10643064388E+04  0.10100000352E+00 0. -1.
</event>
<event>
 5   0  0.4839293E-04  0.1984018E+04  0.7818609E-02  0.8614129E-01
        2   -1    0    0  501    0  0.00000000000E+00  0.00000000000E+00  0.79333688266E+03  0.79333688266E+03  0.25500000920E-02 0.  1.
       -2   -1    0    0    0  501  0.00000000000E+00  0.00000000000E+00 -0.12404341306E+04  0.12404341306E+04  0.25500000920E-02 0. -1.
    10030    2    1    2    0    0  0.00000000000E+00  0.00000000000E+00 -0.44709724795E+03  0.20337710133E+04  0.19840182926E+04 0.  0.
        5    1    3    3  502    0  0.86928773560E+03  0.36958200704E+03  0.87047987461E+02  0.94860501228E+03  0.46999998093E+01 0.  1.
       -5    1    3    3    0  502 -0.86928773560E+03 -0.36958200704E+03 -0.53414523541E+03  0.10851660010E+04  0.46999998093E+01 0. -1.
</event>
<event>
 5   0  0.4839293E-04  0.2123486E+04  0.7818609E-02  0.8550968E-01
        2   -1    0    0  501    0  0.00000000000E+00  0.00000000000E+00  0.89367509310E+03  0.89367509311E+03  0.25500000920E-02 0. -1.
       -2   -1    0    0    0  501  0.00000000000E+00  0.00000000000E+00 -0.12614184737E+04  0.12614184737E+04  0.25500000920E-02 0.  1.
    10030    2    1    2    0    0  0.00000000000E+00  0.00000000000E+00 -0.36774338061E+03  0.21550935668E+04  0.21234860696E+04 0.  0.
        5    1    3    3  502    0 -0.98322538915E+03  0.28791509637E+03 -0.46667494638E+03  0.11258040967E+04  0.46999998093E+01 0.  1.
       -5    1    3    3    0  502  0.98322538915E+03 -0.28791509637E+03  0.98931565776E+02  0.10292894701E+04  0.46999998093E+01 0. -1.
</event>
<event>
 5   0  0.4839293E-04  0.1915796E+04  0.7818609E-02  0.8647034E-01
        2   -1    0    0  501    0  0.00000000000E+00  0.00000000000E+00  0.13018598331E+04  0.13018598331E+04  0.25500000920E-02 0.  1.
       -2   -1    0    0    0  501  0.00000000000E+00  0.00000000000E+00 -0.70481344158E+03  0.70481344158E+03  0.25500000920E-02 0. -1.
    10030    2    1    2    0    0  0.00000000000E+00  0.00000000000E+00  0.59704639148E+03  0.20066732746E+04  0.19157957192E+04 0.  0.
        5    1    3    3  502    0 -0.69096557718E+03 -0.15530696926E+03 -0.37704662011E+03  0.80233404969E+03  0.46999998093E+01 0. -1.
       -5    1    3    3    0  502  0.69096557718E+03  0.15530696926E+03  0.97409301159E+03  0.12043392250E+04  0.46999998093E+01 0.  1.
</event>
<event>
 5   0  0.2355414E-04  0.1336436E+04  0.7818609E-02  0.9001160E-01
        1   -1    0    0  501    0  0.00000000000E+00  0.00000000000E+00  0.54074085263E+03  0.54074085265E+03  0.50400001928E-02 0. -1.
       -1   -1    0    0    0  501  0.00000000000E+00  0.00000000000E+00 -0.82574694045E+03  0.82574694047E+03  0.50400001928E-02 0.  1.
    10030    2    1    2    0    0  0.00000000000E+00  0.00000000000E+00 -0.28500608783E+03  0.13664877931E+04  0.13364357144E+04 0.  0.
        5    1    3    3  502    0 -0.15731794397E+03 -0.59796535343E+03 -0.40154055972E+03  0.73727092069E+03  0.46999998093E+01 0. -1.
       -5    1    3    3    0  502  0.15731794397E+03  0.59796535343E+03  0.11653447190E+03  0.62921687242E+03  0.46999998093E+01 0.  1.
</event>
<event>
 5   0  0.4973411E-04  0.1895324E+04  0.7818609E-02  0.8657187E-01
        2   -1    0    0  501    0  0.00000000000E+00  0.00000000000E+00  0.10292606662E+04  0.10292606662E+04  0.25500000920E-02 0. -1.
       -2   -1    0    0    0  501  0.00000000000E+00  0.00000000000E+00 -0.87253277618E+03  0.87253277619E+03  0.25500000920E-02 0.  1.
    10030    2    1    2    0    0  0.00000000000E+00  0.00000000000E+00  0.15672789003E+03  0.19017934424E+04  0.18953244224E+04 0.  0.
        1    1    3    3  502    0 -0.60130950642E+03 -0.54897341201E+03  0.56490938517E+03  0.99099321041E+03  0.50400001928E-02 0. -1.
       -1    1    3    3    0  502  0.60130950642E+03  0.54897341201E+03 -0.40818149514E+03  0.91080023199E+03  0.50400001928E-02 0.  1.
</event>
<event>
 5   0  0.2376359E-04  0.1627265E+04  0.7818609E-02  0.8803971E-01
        1   -1    0    0  501    0  0.00000000000E+00  0.00000000000E+00  0.17580120272E+04  0.17580120272E+04  0.50400001928E-02 0.  1.
       -1   -1    0    0    0  501  0.00000000000E+00  0.00000000000E+00 -0.37656061600E+03  0.37656061604E+03  0.50400001928E-02 0. -1.
    10030    2    1    2    0    0  0.00000000000E+00  0.00000000000E+00  0.13814514112E+04  0.21345726432E+04  0.16272653034E+04 0.  0.
        2    1    3    3  502    0  0.77887433836E+03 -0.23147838511E+03  0.63552882359E+03  0.10315640374E+04  0.25500000920E-02 0.  1.
       -2    1    3    3    0  502 -0.77887433836E+03  0.23147838511E+03  0.74592258758E+03  0.11030086058E+04  0.25500000920E-02 0. -1.
</event>
<event>
 5   0  0.2510069E-04  0.1724507E+04  0.7818609E-02  0.8747509E-01
        1   -1    0    0  501    0  0.00000000000E+00  0.00000000000E+00  0.10787799798E+04  0.10787799798E+04  0.50400001928E-02 0. -1.
       -1   -1    0    0    0  501  0.00000000000E+00  0.00000000000E+00 -0.68918720516E+03  0.68918720518E+03  0.50400001928E-02 0.  1.
    10030    2    1    2    0    0  0.00000000000E+00  0.00000000000E+00  0.38959277461E+03  0.17679671850E+04  0.17245073027E+04 0.  0.
        4    1    3    3  502    0 -0.57478897497E+03 -0.44105401960E+03  0.67409169675E+03  0.98960206269E+03  0.12699999809E+01 0. -1.
       -4    1    3    3    0  502  0.57478897497E+03  0.44105401960E+03 -0.28449892215E+03  0.77836512226E+03  0.12699999809E+01 0.  1.
</event>
<event>
 5   0  0.2317458E-04  0.1866592E+04  0.7818609E-02  0.8671667E-01
        1   -1    0    0  501    0  0.00000000000E+00  0.00000000000E+00  0.10021125363E+04  0.10021125363E+04  0.50400001928E-02 0.  1.
       -1   -1    0    0    0  501  0.00000000000E+00  0.00000000000E+00 -0.86920490516E+03  0.86920490517E+03  0.50400001928E-02 0. -1.
    10030    2    1    2    0    0  0.00000000000E+00  0.00000000000E+00  0.13290763112E+03  0.18713174415E+04  0.18665916876E+04 0.  0.
        3    1    3    3  502    0  0.76371127285E+03  0.43301186351E+03  0.38393670723E+03  0.95820748670E+03  0.10100000352E+00 0.  1.
       -3    1    3    3    0  502 -0.76371127285E+03 -0.43301186351E+03 -0.25102907611E+03  0.91310995475E+03  0.10100000352E+00 0. -1.
</event>
<event>
 5   0  0.4973411E-04  0.1911689E+04  0.7818609E-02  0.8649060E-01
        2   -1    0    0  501    0  0.00000000000E+00  0.00000000000E+00  0.63448271965E+03  0.63448271966E+03  0.25500000920E-02 0.  1.
       -2   -1    0    0    0  501  0.00000000000E+00  0.00000000000E+00 -0.14399739100E+04  0.14399739100E+04  0.25500000920E-02 0. -1.
    10030    2    1    2    0    0  0.00000000000E+00  0.00000000000E+00 -0.80549119037E+03  0.20744566297E+04  0.19116888478E+04 0.  0.
        1    1    3    3  502    0  0.39039830403E+03 -0.49157308820E+03  0.37944912663E+03  0.73350976582E+03  0.50400001928E-02 0.  1.
       -1    1    3    3    0  502 -0.39039830403E+03  0.49157308820E+03 -0.11849403170E+04  0.13409468639E+04  0.50400001928E-02 0. -1.
</event>
<event>
 5   0  0.2510069E-04  0.1894213E+04  0.7818609E-02  0.8657743E-01
        1   -1    0    0  501    0  0.00000000000E+00  0.00000000000E+00  0.53982768061E+03  0.53982768063E+03  0.50400001928E-02 0.  1.
       -1   -1    0    0    0  501  0.00000000000E+00  0.00000000000E+00 -0.16616604166E+04  0.16616604166E+04  0.50400001928E-02 0. -1.
    10030    2    1    2    0    0  0.00000000000E+00  0.00000000000E+00 -0.11218327360E+04  0.22014880973E+04  0.18942125421E+04 0.  0.
        4    1    3    3  502    0  0.50613808969E+03 -0.60209896864E+03 -0.11740453399E+04  0.14131818733E+04  0.12699999809E+01 0. -1.
       -4    1    3    3    0  502 -0.50613808969E+03  0.60209896864E+03  0.52212603896E+02  0.78830622399E+03  0.12699999809E+01 0.  1.
</event>
<event>
 5   0  0.2510069E-04  0.1925375E+04  0.7818609E-02  0.8642327E-01
       -1   -1    0    0    0  501  0.00000000000E+00  0.00000000000E+00  0.69811445446E+03  0.69811445448E+03  0.50400001928E-02 0. -1.
        1   -1    0    0  501    0  0.00000000000E+00  0.00000000000E+00 -0.13275297169E+04  0.13275297169E+04  0.50400001928E-02 0.  1.
    10030    2    1    2    0    0  0.00000000000E+00  0.00000000000E+00 -0.62941526246E+03  0.20256441714E+04  0.19253754794E+04 0.  0.
        4    1    3    3  502    0  0.70506378594E+03 -0.42526524373E+03  0.21006772863E+03  0.84976204509E+03  0.12699999809E+01 0. -1.
       -4    1    3    3    0  502 -0.70506378594E+03  0.42526524373E+03 -0.83948299109E+03  0.11758821263E+04  0.12699999809E+01 0.  1.
</event>
<event>
 5   0  0.2355414E-04  0.1870575E+04  0.7818609E-02  0.8669643E-01
        1   -1    0    0  501    0  0.00000000000E+00  0.00000000000E+00  0.14622116444E+04  0.14622116444E+04  0.50400001928E-02 0.  1.
       -1   -1    0    0    0  501  0.00000000000E+00  0.00000000000E+00 -0.59824624199E+03  0.59824624201E+03  0.50400001928E-02 0. -1.
    10030    2    1    2    0    0  0.00000000000E+00  0.00000000000E+00  0.86396540240E+03  0.20604578864E+04  0.18705749076E+04 0.  0.
        5    1    3    3  502    0  0.41843534922E+03 -0.72318490242E+03  0.89495266705E+03  0.12243557125E+04  0.46999998093E+01 0.  1.
       -5    1    3    3    0  502 -0.41843534922E+03  0.72318490242E+03 -0.30987264655E+02  0.83610217386E+03  0.46999998093E+01 0. -1.
</event>
<event>
 5   0  0.4829134E-04  0.1887632E+04  0.7818609E-02  0.8661037E-01
       -2   -1    0    0    0  501  0.00000000000E+00  0.00000000000E+00  0.88911703880E+03  0.88911703880E+03  0.25500000920E-02 0.  1.
        2   -1    0    0  501    0  0.00000000000E+00  0.00000000000E+00 -0.10018798038E+04  0.10018798038E+04  0.25500000920E-02 0. -1.
    10030    2    1    2    0    0  0.00000000000E+00  0.00000000000E+00 -0.11276276499E+03  0.18909968426E+04  0.18876317484E+04 0.  0.
        2    1    3    3  502    0 -0.47082872865E+03 -0.36588567463E+03  0.67652135729E+03  0.90179441421E+03  0.25500000920E-02 0.  1.
       -2    1    3    3    0  502  0.47082872865E+03  0.36588567463E+03 -0.78928412228E+03  0.98920242838E+03  0.25500000920E-02 0. -1.
</event>
<event>
 5   0  0.4761944E-04  0.1923655E+04  0.7818609E-02  0.8643171E-01
       -2   -1    0    0    0  501  0.00000000000E+00  0.00000000000E+00  0.94916864280E+03  0.94916864281E+03  0.25500000920E-02 0.  1.
        2   -1    0    0  501    0  0.00000000000E+00  0.00000000000E+00 -0.97465482359E+03  0.97465482359E+03  0.25500000920E-02 0. -1.
    10030    2    1    2    0    0  0.00000000000E+00  0.00000000000E+00 -0.25486180787E+02  0.19238234664E+04  0.19236546427E+04 0.  0.
        4    1    3    3  502    0  0.80239692212E+02  0.95832785115E+03  0.39767712529E+01  0.96169023397E+03  0.12699999809E+01 0. -1.
       -4    1    3    3    0  502 -0.80239692212E+02 -0.95832785115E+03 -0.29462952040E+02  0.96213323243E+03  0.12699999809E+01 0.  1.
</event>
<event>
 5   0  0.4839293E-04  0.1910569E+04  0.7818609E-02  0.8649613E-01
       -2   -1    0    0    0  501  0.00000000000E+00  0.00000000000E+00  0.88622162700E+03  0.88622162700E+03  0.25500000920E-02 0.  1.
        2   -1    0    0  501    0  0.00000000000E+00  0.00000000000E+00 -0.10297292714E+04  0.10297292715E+04  0.25500000920E-02 0. -1.
    10030    2    1    2    0    0  0.00000000000E+00  0.00000000000E+00 -0.14350764445E+03  0.19159508985E+04  0.19105688685E+04 0.  0.
        5    1    3    3  502    0  0.82539488179E+03  0.45981168474E+03  0.69507335635E+02  0.94739477305E+03  0.46999998093E+01 0.  1.
       -5    1    3    3    0  502 -0.82539488179E+03 -0.45981168474E+03 -0.21301498009E+03  0.96855612540E+03  0.46999998093E+01 0. -1.
</event>
<event>
 5   0  0.4802635E-04  0.1823732E+04  0.7818609E-02  0.8693780E-01
       -2   -1    0    0    0  501  0.00000000000E+00  0.00000000000E+00  0.57741902566E+03  0.57741902566E+03  0.25500000920E-02 0.  1.
        2   -1    0    0  501    0  0.00000000000E+00  0.00000000000E+00 -0.14400283657E+04  0.14400283657E+04  0.25500000920E-02 0. -1.
    10030    2    1    2    0    0  0.00000000000E+00  0.00000000000E+00 -0.86260934005E+03  0.20174473914E+04  0.18237321907E+04 0.  0.
        3    1    3    3  502    0  0.84864212305E+03 -0.16802577211E+03 -0.11246466487E+03  0.87239579559E+03  0.10100000352E+00 0.  1.
       -3    1    3    3    0  502 -0.84864212305E+03  0.16802577211E+03 -0.75014467518E+03  0.11450515958E+04  0.10100000352E+00 0. -1.
</event>
<event>
 5   0  0.4839293E-04  0.1956082E+04  0.7818609E-02  0.8627434E-01
        2   -1    0    0  501    0  0.00000000000E+00  0.00000000000E+00  0.14316361328E+04  0.14316361328E+04  0.25500000920E-02 0. -1.
       -2   -1    0    0    0  501  0.00000000000E+00  0.00000000000E+00 -0.66816149174E+03  0.66816149175E+03  0.25500000920E-02 0.  1.
    10030    2    1    2    0    0  0.00000000000E+00  0.00000000000E+00  0.76347464110E+03  0.20997976246E+04  0.19560819351E+04 0.  0.
        5    1    3    3  502    0 -0.92830591429E+02 -0.59349662982E+03  0.12102500684E+04  0.13511414013E+04  0.46999998093E+01 0. -1.
       -5    1    3    3    0  502  0.92830591429E+02  0.59349662982E+03 -0.44677542725E+03  0.74865622331E+03  0.46999998093E+01 0.  1.
</event>
<event>
 5   0  0.4829134E-04  0.1819915E+04  0.7818609E-02  0.8695780E-01
        2   -1    0    0  501    0  0.00000000000E+00  0.00000000000E+00  0.14549220534E+04  0.14549220534E+04  0.25500000920E-02 0.  1.
       -2   -1    0    0    0  501  0.00000000000E+00  0.00000000000E+00 -0.56911813136E+03  0.56911813137E+03  0.25500000920E-02 0. -1.
    10030    2    1    2    0    0  0.00000000000E+00  0.00000000000E+00  0.88580392203E+03  0.20240401848E+04  0.18199148555E+04 0.  0.
        2    1    3    3  502    0 -0.57582976766E+03 -0.37105090195E+03 -0.22324857963E+03  0.72048499045E+03  0.25500000920E-02 0. -1.
       -2    1    3    3    0  502  0.57582976766E+03  0.37105090195E+03  0.11090525017E+04  0.13035551943E+04  0.25500000920E-02 0.  1.
</event>
<event>
 5   0  0.2261755E-04  0.1727940E+04  0.7818609E-02  0.8745588E-01
        1   -1    0    0  501    0  0.00000000000E+00  0.00000000000E+00  0.60096690105E+03  0.60096690107E+03  0.50400001928E-02 0.  1.
       -1   -1    0    0    0  501  0.00000000000E+00  0.00000000000E+00 -0.12420712977E+04  0.12420712977E+04  0.50400001928E-02 0. -1.
    10030    2    1    2    0    0  0.00000000000E+00  0.00000000000E+00 -0.64110439662E+03  0.18430381988E+04  0.17279395113E+04 0.  0.
        1    1    3    3  502    0  0.14183513059E+03 -0.75131396988E+03 -0.74966090090E+03  0.10707853902E+04  0.50400001928E-02 0.  1.
       -1    1    3    3    0  502 -0.14183513059E+03  0.75131396988E+03  0.10855650428E+03  0.77225280851E+03  0.50400001928E-02 0. -1.
</event>
<event>
 5   0  0.2510069E-04  0.1923616E+04  0.7818609E-02  0.8643190E-01
       -1   -1    0    0    0  501  0.00000000000E+00  0.00000000000E+00  0.10685204950E+04  0.10685204950E+04  0.50400001928E-02 0. -1.
        1   -1    0    0  501    0  0.00000000000E+00  0.00000000000E+00 -0.86575285490E+03  0.86575285492E+03  0.50400001928E-02 0.  1.
    10030    2    1    2    0    0  0.00000000000E+00  0.00000000000E+00  0.20276764005E+03  0.19342733499E+04  0.19236160418E+04 0.  0.
        4    1    3    3  502    0  0.72170629354E+03 -0.22022860355E+03 -0.49833680843E+03  0.90426865449E+03  0.12699999809E+01 0.  1.
       -4    1    3    3    0  502 -0.72170629354E+03  0.22022860355E+03  0.70110444848E+03  0.10300046954E+04  0.12699999809E+01 0. -1.
</event>
<event>
 5   0  0.4761944E-04  0.1688210E+04  0.7818609E-02  0.8768118E-01
        2   -1    0    0  501    0  0.00000000000E+00  0.00000000000E+00  0.46301996068E+03  0.46301996069E+03  0.25500000920E-02 0.  1.
       -2   -1    0    0    0  501  0.00000000000E+00  0.00000000000E+00 -0.15388385657E+04  0.15388385657E+04  0.25500000920E-02 0. -1.
    10030    2    1    2    0    0  0.00000000000E+00  0.00000000000E+00 -0.10758186050E+04  0.20018585264E+04  0.16882096697E+04 0.  0.
        4    1    3    3  502    0 -0.74393559098E+03  0.34366354223E+03 -0.29790348070E+03  0.87194775675E+03  0.12699999809E+01 0.  1.
       -4    1    3    3    0  502  0.74393559098E+03 -0.34366354223E+03 -0.77791512429E+03  0.11299107696E+04  0.12699999809E+01 0. -1.
</event>
<event>
 5   0  0.4761944E-04  0.1809206E+04  0.7818609E-02  0.8701419E-01
       -2   -1    0    0    0  501  0.00000000000E+00  0.00000000000E+00  0.65000816833E+03  0.65000816834E+03  0.25500000920E-02 0. -1.
        2   -1    0    0  501    0  0.00000000000E+00  0.00000000000E+00 -0.12589168830E+04  0.12589168830E+04  0.25500000920E-02 0.  1.
    10030    2    1    2    0    0  0.00000000000E+00  0.00000000000E+00 -0.60890871466E+03  0.19089250513E+04  0.18092056348E+04 0.  0.
        4    1    3    3  502    0 -0.69066145517E+03  0.53054466239E+03 -0.46405763363E+02  0.87215021196E+03  0.12699999809E+01 0. -1.
       -4    1    3    3    0  502  0.69066145517E+03 -0.53054466239E+03 -0.56250295130E+03  0.10367748394E+04  0.12699999809E+01 0.  1.
</event>
<event>
 5   0  0.2376359E-04  0.1917095E+04  0.7818609E-02  0.8646394E-01
       -1   -1    0    0    0  501  0.00000000000E+00  0.00000000000E+00  0.29863679373E+03  0.29863679377E+03  0.50400001928E-02 0. -1.
        1   -1    0    0  501    0  0.00000000000E+00  0.00000000000E+00 -0.30766921285E+04  0.30766921285E+04  0.50400001928E-02 0.  1.
    10030    2    1    2    0    0  0.00000000000E+00  0.00000000000E+00 -0.27780553348E+04  0.33753289223E+04  0.19170951699E+04 0.  0.
        2    1    3    3  502    0  0.11570979802E+03 -0.22023932939E+02  0.28584671202E+03  0.30916363590E+03  0.25500000920E-02 0. -1.
       -2    1    3    3    0  502 -0.11570979802E+03  0.22023932939E+02 -0.30639020468E+04  0.30661652864E+04  0.25500000920E-02 0.  1.
</event>
<event>
 5   0  0.2376359E-04  0.1946697E+04  0.7818609E-02  0.8631955E-01
       -1   -1    0    0    0  501  0.00000000000E+00  0.00000000000E+00  0.10724898570E+04  0.10724898570E+04  0.50400001928E-02 0. -1.
        1   -1    0    0  501    0  0.00000000000E+00  0.00000000000E+00 -0.88337147396E+03  0.88337147397E+03  0.50400001928E-02 0.  1.
    10030    2    1    2    0    0  0.00000000000E+00  0.00000000000E+00  0.18911838303E+03  0.19558613310E+04  0.19466966336E+04 0.  0.
        2    1    3    3  502    0 -0.72989843642E+03 -0.63603017379E+03  0.19563517676E+03  0.98770402037E+03  0.25500000920E-02 0.  1.
       -2    1    3    3    0  502  0.72989843642E+03  0.63603017379E+03 -0.65167937322E+01  0.96815731060E+03  0.25500000920E-02 0. -1.
</event>
<event>
 5   0  0.4829134E-04  0.1666266E+04  0.7818609E-02  0.8780841E-01
        2   -1    0    0  501    0  0.00000000000E+00  0.00000000000E+00  0.74612709094E+03  0.74612709095E+03  0.25500000920E-02 0. -1.
       -2   -1    0    0    0  501  0.00000000000E+00  0.00000000000E+00 -0.93028479091E+03  0.93028479091E+03  0.25500000920E-02 0.  1.
    10030    2    1    2    0    0  0.00000000000E+00  0.00000000000E+00 -0.18415769997E+03  0.16764118819E+04  0.16662661069E+04 0.  0.
        2    1    3    3  502    0 -0.55071468584E+03  0.56305540691E+03  0.18122318121E+03  0.80818308437E+03  0.25500000920E-02 0. -1.
       -2    1    3    3    0  502  0.55071468584E+03 -0.56305540691E+03 -0.36538088118E+03  0.86822879749E+03  0.25500000920E-02 0.  1.
</event>
<event>
 5   0  0.4802635E-04  0.1912243E+04  0.7818609E-02  0.8648786E-01
        2   -1    0    0  501    0  0.00000000000E+00  0.00000000000E+00  0.64767646491E+03  0.64767646492E+03  0.25500000920E-02 0. -1.
       -2   -1    0    0    0  501  0.00000000000E+00  0.00000000000E+00 -0.14114585085E+04  0.14114585085E+04  0.25500000920E-02 0.  1.
    10030    2    1    2    0    0  0.00000000000E+00  0.00000000000E+00 -0.76378204358E+03  0.20591349734E+04  0.19122431406E+04 0.  0.
        3    1    3    3  502    0 -0.22528614665E+03 -0.48498559536E+03  0.47158613888E+03  0.71299254706E+03  0.10100000352E+00 0. -1.
       -3    1    3    3    0  502  0.22528614665E+03  0.48498559536E+03 -0.12353681825E+04  0.13461424264E+04  0.10100000352E+00 0.  1.
</event>
<event>
 5   0  0.4829134E-04  0.1925556E+04  0.7818609E-02  0.8642239E-01
       -2   -1    0    0    0  501  0.00000000000E+00  0.00000000000E+00  0.68881126752E+03  0.68881126753E+03  0.25500000920E-02 0. -1.
        2   -1    0    0  501    0  0.00000000000E+00  0.00000000000E+00 -0.13457118477E+04  0.13457118477E+04  0.25500000920E-02 0.  1.
    10030    2    1    2    0    0  0.00000000000E+00  0.00000000000E+00 -0.65690058014E+03  0.20345231152E+04  0.19255560065E+04 0.  0.
        2    1    3    3  502    0  0.87727310703E+00  0.33623166432E+03 -0.12816613178E+04  0.13250314091E+04  0.25500000920E-02 0.  1.
       -2    1    3    3    0  502 -0.87727310703E+00 -0.33623166432E+03  0.62476073763E+03  0.70949170607E+03  0.25500000920E-02 0. -1.
</event>
<event>
 5   0  0.4973411E-04  0.1916105E+04  0.7818609E-02  0.8646881E-01
       -2   -1    0    0    0  501  0.00000000000E+00  0.00000000000E+00  0.45708581165E+03  0.45708581165E+03  0.25500000920E-02 0.  1.
        2   -1    0    0  501    0  0.00000000000E+00  0.00000000000E+00 -0.20080798930E+04  0.20080798930E+04  0.25500000920E-02 0. -1.
    10030    2    1    2    0    0  0.00000000000E+00  0.00000000000E+00 -0.15509940813E+04  0.24651657046E+04  0.19161052453E+04 0.  0.
        1    1    3    3  502    0 -0.22370039161E+03 -0.86403432029E+03 -0.12235189461E+04  0.15144622093E+04  0.50400001928E-02 0. -1.
       -1    1    3    3    0  502  0.22370039161E+03  0.86403432029E+03 -0.32747513522E+03  0.95070349535E+03  0.50400001928E-02 0.  1.
</event>
<event>
 5   0  0.2355414E-04  0.2085396E+04  0.7818609E-02  0.8567704E-01
        1   -1    0    0  501    0  0.00000000000E+00  0.00000000000E+00  0.12031907454E+04  0.12031907454E+04  0.50400001928E-02 0.  1.
       -1   -1    0    0    0  501  0.00000000000E+00  0.00000000000E+00 -0.90361313825E+03  0.90361313827E+03  0.50400001928E-02 0. -1.
    10030    2    1    2    0    0  0.00000000000E+00  0.00000000000E+00  0.29957760714E+03  0.21068038837E+04  0.20853958525E+04 0.  0.
        5    1    3    3  502    0  0.97227166184E+03  0.30451943936E+03  0.37376860817E+03  0.10852508170E+04  0.46999998093E+01 0.  1.
       -5    1    3    3    0  502 -0.97227166184E+03 -0.30451943936E+03 -0.74191001026E+02  0.10215530667E+04  0.46999998093E+01 0. -1.
</event>
<event>
 5   0  0.4839293E-04  0.1881693E+04  0.7818609E-02  0.8664023E-01
        2   -1    0    0  501    0  0.00000000000E+00  0.00000000000E+00  0.19484067017E+04  0.19484067017E+04  0.25500000920E-02 0.  1.
       -2   -1    0    0    0  501  0.00000000000E+00  0.00000000000E+00 -0.45431606731E+03  0.45431606731E+03  0.25500000920E-02 0. -1.
    10030    2    1    2    0    0  0.00000000000E+00  0.00000000000E+00  0.14940906344E+04  0.24027227690E+04  0.18816933546E+04 0.  0.
        5    1    3    3  502    0 -0.65279865201E+03 -0.16526694814E+03 -0.91934355266E+02  0.67965672209E+03  0.46999998093E+01 0. -1.
       -5    1    3    3    0  502  0.65279865201E+03  0.16526694814E+03  0.15860249896E+04  0.17230660469E+04  0.46999998093E+01 0.  1.
</event>
<event>
 5   0  0.4761944E-04  0.1919161E+04  0.7818609E-02  0.8645377E-01
       -2   -1    0    0    0  501  0.00000000000E+00  0.00000000000E+00  0.11721582105E+04  0.11721582105E+04  0.25500000920E-02 0. -1.
        2   -1    0    0  501    0  0.00000000000E+00  0.00000000000E+00 -0.78555481256E+03  0.78555481256E+03  0.25500000920E-02 0.  1.
    10030    2    1    2    0    0  0.00000000000E+00  0.00000000000E+00  0.38660339791E+03  0.19577130230E+04  0.19191607784E+04 0.  0.
        4    1    3    3  502    0  0.38486695264E+03 -0.55689564004E+03  0.88706477980E+03  0.11158588000E+04  0.12699999809E+01 0. -1.
       -4    1    3    3    0  502 -0.38486695264E+03  0.55689564004E+03 -0.50046138189E+03  0.84185422301E+03  0.12699999809E+01 0.  1.
</event>
<event>
 5   0  0.4829134E-04  0.1862321E+04  0.7818609E-02  0.8673842E-01
       -2   -1    0    0    0  501  0.00000000000E+00  0.00000000000E+00  0.50869435513E+03  0.50869435513E+03  0.25500000920E-02 0. -1.
        2   -1    0    0  501    0  0.00000000000E+00  0.00000000000E+00 -0.17044811273E+04  0.17044811273E+04  0.25500000920E-02 0.  1.
    10030    2    1    2    0    0  0.00000000000E+00  0.00000000000E+00 -0.11957867721E+04  0.22131754824E+04  0.18623210549E+04 0.  0.
        2    1    3    3  502    0  0.12191183855E+03  0.71235487491E+03  0.99876386629E+02  0.72958019217E+03  0.25500000920E-02 0. -1.
       -2    1    3    3    0  502 -0.12191183855E+03 -0.71235487491E+03 -0.12956631588E+04  0.14835952902E+04  0.25500000920E-02 0.  1.
</event>
<event>
 5   0  0.2355414E-04  0.1919851E+04  0.7818609E-02  0.8645038E-01
       -1   -1    0    0    0  501  0.00000000000E+00  0.00000000000E+00  0.10106097175E+04  0.10106097175E+04  0.50400001928E-02 0. -1.
        1   -1    0    0  501    0  0.00000000000E+00  0.00000000000E+00 -0.91178316114E+03  0.91178316116E+03  0.50400001928E-02 0.  1.
    10030    2    1    2    0    0  0.00000000000E+00  0.00000000000E+00  0.98826556370E+02  0.19223928787E+04  0.19198509556E+04 0.  0.
        5    1    3    3  502    0 -0.68930664916E+02  0.73945471140E+03  0.65840445974E+03  0.99250351606E+03  0.46999998093E+01 0. -1.
       -5    1    3    3    0  502  0.68930664916E+02 -0.73945471140E+03 -0.55957790337E+03  0.92988936262E+03  0.46999998093E+01 0.  1.
</event>
<event>
 5   0  0.2355414E-04  0.1958037E+04  0.7818609E-02  0.8626495E-01
       -1   -1    0    0    0  501  0.00000000000E+00  0.00000000000E+00  0.14883202541E+04  0.14883202541E+04  0.50400001928E-02 0.  1.
        1   -1    0    0  501    0  0.00000000000E+00  0.00000000000E+00 -0.64399954351E+03  0.64399954353E+03  0.50400001928E-02 0. -1.
    10030    2    1    2    0    0  0.00000000000E+00  0.00000000000E+00  0.84432071063E+03  0.21323197977E+04  0.19580373483E+04 0.  0.
        5    1    3    3  502    0  0.41438943488E+03 -0.64327365340E+03 -0.24288069066E+03  0.80282794968E+03  0.46999998093E+01 0. -1.
       -5    1    3    3    0  502 -0.41438943488E+03  0.64327365340E+03  0.10872014013E+04  0.13294918480E+04  0.46999998093E+01 0.  1.
</event>
<event>
 5   0  0.4973411E-04  0.1839586E+04  0.7818609E-02  0.8685527E-01
        2   -1    0    0  501    0  0.00000000000E+00  0.00000000000E+00  0.12587238263E+04  0.12587238263E+04  0.25500000920E-02 0.  1.
       -2   -1    0    0    0  501  0.00000000000E+00  0.00000000000E+00 -0.67212477499E+03  0.67212477499E+03  0.25500000920E-02 0. -1.
    10030    2    1    2    0    0  0.00000000000E+00  0.00000000000E+00  0.58659905133E+03  0.19308486013E+04  0.18395863324E+04 0.  0.
        1    1    3    3  502    0  0.50203497689E+02 -0.38025952676E+03  0.11707772853E+04  0.12320053371E+04  0.50400001928E-02 0.  1.
       -1    1    3    3    0  502 -0.50203497689E+02  0.38025952676E+03 -0.58417823397E+03  0.69884326421E+03  0.50400001928E-02 0. -1.
</event>
<event>
 5   0  0.4839293E-04  0.1864410E+04  0.7818609E-02  0.8672777E-01
       -2   -1    0    0    0  501  0.00000000000E+00  0.00000000000E+00  0.73776640169E+03  0.73776640170E+03  0.25500000920E-02 0.  1.
        2   -1    0    0  501    0  0.00000000000E+00  0.00000000000E+00 -0.11778883238E+04  0.11778883238E+04  0.25500000920E-02 0. -1.
    10030    2    1    2    0    0  0.00000000000E+00  0.00000000000E+00 -0.44012192208E+03  0.19156547255E+04  0.18644102877E+04 0.  0.
        5    1    3    3  502    0 -0.18484028985E+03  0.70212976423E+03  0.38067306398E+03  0.81980864243E+03  0.46999998093E+01 0.  1.
       -5    1    3    3    0  502  0.18484028985E+03 -0.70212976423E+03 -0.82079498606E+03  0.10958460830E+04  0.46999998093E+01 0. -1.
</event>
<event>
 5   0  0.4839293E-04  0.1299788E+04  0.7818609E-02  0.9029733E-01
        2   -1    0    0  501    0  0.00000000000E+00  0.00000000000E+00  0.21934998578E+04  0.21934998578E+04  0.25500000920E-02 0. -1.
       -2   -1    0    0    0  501  0.00000000000E+00  0.00000000000E+00 -0.19255173693E+03  0.19255173694E+03  0.25500000920E-02 0.  1.
    10030    2    1    2    0    0  0.00000000000E+00  0.00000000000E+00  0.20009481208E+04  0.23860515947E+04  0.12997879944E+04 0.  0.
        5    1    3    3  502    0  0.30821325432E+03 -0.56929726754E+03  0.11050511735E+04  0.12807243947E+04  0.46999998093E+01 0.  1.
       -5    1    3    3    0  502 -0.30821325432E+03  0.56929726754E+03  0.89589694729E+03  0.11053272000E+04  0.46999998093E+01 0. -1.
</event>
<event>
 5   0  0.2510069E-04  0.1958974E+04  0.7818609E-02  0.8626045E-01
        1   -1    0    0  501    0  0.00000000000E+00  0.00000000000E+00  0.22307264712E+04  0.22307264712E+04  0.50400001928E-02 0. -1.
       -1   -1    0    0    0  501  0.00000000000E+00  0.00000000000E+00 -0.43008179004E+03  0.43008179007E+03  0.50400001928E-02 0.  1.
    10030    2    1    2    0    0  0.00000000000E+00  0.00000000000E+00  0.18006446812E+04  0.26608082613E+04  0.19589740518E+04 0.  0.
        4    1    3    3  502    0  0.87044831852E+03  0.28342917276E+03  0.13735389546E+04  0.16506432818E+04  0.12699999809E+01 0. -1.
       -4    1    3    3    0  502 -0.87044831852E+03 -0.28342917276E+03  0.42710572663E+03  0.10101649795E+04  0.12699999809E+01 0.  1.
</event>
<event>
 5   0  0.2510069E-04  0.1797918E+04  0.7818609E-02  0.8707407E-01
       -1   -1    0    0    0  501  0.00000000000E+00  0.00000000000E+00  0.58155993364E+03  0.58155993366E+03  0.50400001928E-02 0. -1.
        1   -1    0    0  501    0  0.00000000000E+00  0.00000000000E+00 -0.13895854396E+04  0.13895854396E+04  0.50400001928E-02 0.  1.
    10030    2    1    2    0    0  0.00000000000E+00  0.00000000000E+00 -0.80802550599E+03  0.19711453733E+04  0.17979179248E+04 0.  0.
        4    1    3    3  502    0  0.10337821395E+03  0.87353067730E+03 -0.60730405914E+03  0.10689072609E+04  0.12699999809E+01 0. -1.
       -4    1    3    3    0  502 -0.10337821395E+03 -0.87353067730E+03 -0.20072144685E+03  0.90223811238E+03  0.12699999809E+01 0.  1.
</event>
<event>
 5   0  0.2376359E-04  0.1804849E+04  0.7818609E-02  0.8703725E-01
       -1   -1    0    0    0  501  0.00000000000E+00  0.00000000000E+00  0.76303636884E+03  0.76303636886E+03  0.50400001928E-02 0.  1.
        1   -1    0    0  501    0  0.00000000000E+00  0.00000000000E+00 -0.10672753602E+04  0.10672753602E+04  0.50400001928E-02 0. -1.
    10030    2    1    2    0    0  0.00000000000E+00  0.00000000000E+00 -0.30423899136E+03  0.18303117291E+04  0.18048489304E+04 0.  0.
        2    1    3    3  502    0  0.54016606891E+03  0.31740153660E+02  0.58027649859E+03  0.79341517138E+03  0.25500000920E-02 0.  1.
       -2    1    3    3    0  502 -0.54016606891E+03 -0.31740153660E+02 -0.88451548996E+03  0.10368965577E+04  0.25500000920E-02 0. -1.
</event>
<event>
 5   0  0.4973411E-04  0.1932073E+04  0.7818609E-02  0.8639054E-01
        2   -1    0    0  501    0  0.00000000000E+00  0.00000000000E+00  0.86246997155E+03  0.86246997156E+03  0.25500000920E-02 0. -1.
       -2   -1    0    0    0  501  0.00000000000E+00  0.00000000000E+00 -0.10820390556E+04  0.10820390556E+04  0.25500000920E-02 0.  1.
    10030    2    1    2    0    0  0.00000000000E+00  0.00000000000E+00 -0.21956908408E+03  0.19445090272E+04  0.19320726627E+04 0.  0.
        1    1    3    3  502    0 -0.42266571865E+03  0.85326540838E+03  0.54107214309E+02  0.95374826738E+03  0.50400001928E-02 0.  1.
       -1    1    3    3    0  502  0.42266571865E+03 -0.85326540838E+03 -0.27367629839E+03  0.99076075981E+03  0.50400001928E-02 0. -1.
</event>
<event>
 5   0  0.4839293E-04  0.1895767E+04  0.7818609E-02  0.8656966E-01
       -2   -1    0    0    0  501  0.00000000000E+00  0.00000000000E+00  0.45854219791E+03  0.45854219791E+03  0.25500000920E-02 0.  1.
        2   -1    0    0  501    0  0.00000000000E+00  0.00000000000E+00 -0.19594346995E+04  0.19594346995E+04  0.25500000920E-02 0. -1.
    10030    2    1    2    0    0  0.00000000000E+00  0.00000000000E+00 -0.15008925016E+04  0.24179768974E+04  0.18957673842E+04 0.  0.
        5    1    3    3  502    0 -0.40501229933E+03  0.15902077881E+03  0.32362411444E+03  0.54228887887E+03  0.46999998093E+01 0.  1.
       -5    1    3    3    0  502  0.40501229933E+03 -0.15902077881E+03 -0.18245166160E+04  0.18756880185E+04  0.46999998093E+01 0. -1.
</event>
<event>
 5   0  0.4802635E-04  0.1965683E+04  0.7818609E-02  0.8622835E-01
        2   -1    0    0  501    0  0.00000000000E+00  0.00000000000E+00  0.15355964615E+04  0.15355964615E+04  0.25500000920E-02 0. -1.
       -2   -1    0    0    0  501  0.00000000000E+00  0.00000000000E+00 -0.62905686560E+03  0.62905686561E+03  0.25500000920E-02 0.  1.
    10030    2    1    2    0    0  0.00000000000E+00  0.00000000000E+00  0.90653959591E+03  0.21646533271E+04  0.19656830842E+04 0.  0.
        3    1    3    3  502    0 -0.53606378650E+03  0.40301469044E+03  0.12444594495E+04  0.14136705966E+04  0.10100000352E+00 0. -1.
       -3    1    3    3    0  502  0.53606378650E+03 -0.40301469044E+03 -0.33791985361E+03  0.75098273055E+03  0.10100000352E+00 0.  1.
</event>
<event>
 5   0  0.2261755E-04  0.1893854E+04  0.7818609E-02  0.8657922E-01
       -1   -1    0    0    0  501  0.00000000000E+00  0.00000000000E+00  0.11183395039E+04  0.11183395039E+04  0.50400001928E-02 0.  1.
        1   -1    0    0  501    0  0.00000000000E+00  0.00000000000E+00 -0.80178739307E+03  0.80178739308E+03  0.50400001928E-02 0. -1.
    10030    2    1    2    0    0  0.00000000000E+00  0.00000000000E+00  0.31655211086E+03  0.19201268970E+04  0.18938537593E+04 0.  0.
        1    1    3    3  502    0  0.61462471585E+03 -0.44186004331E+03 -0.41853355122E+03  0.86497061958E+03  0.50400001928E-02 0. -1.
       -1    1    3    3    0  502 -0.61462471585E+03  0.44186004331E+03  0.73508566207E+03  0.10551562774E+04  0.50400001928E-02 0.  1.
</event>
<event>
 5   0  0.4973411E-04  0.1939258E+04  0.7818609E-02  0.8635558E-01
        2   -1    0    0  501    0  0.00000000000E+00  0.00000000000E+00  0.12095271778E+04  0.12095271778E+04  0.25500000920E-02 0.  1.
       -2   -1    0    0    0  501  0.00000000000E+00  0.00000000000E+00 -0.77731263551E+03  0.77731263552E+03  0.25500000920E-02 0. -1.
    10030    2    1    2    0    0  0.00000000000E+00  0.00000000000E+00  0.43221454233E+03  0.19868398134E+04  0.19392583720E+04 0.  0.
        1    1    3    3  502    0  0.79746770424E+03  0.51113770059E+03  0.37432707379E+01  0.94722251893E+03  0.50400001928E-02 0. -1.
       -1    1    3    3    0  502 -0.79746770424E+03 -0.51113770059E+03  0.42847127159E+03  0.10396172944E+04  0.50400001928E-02 0.  1.
</event>
<event>
 5   0  0.2510069E-04  0.1830203E+04  0.7818609E-02  0.8690401E-01
       -1   -1    0    0    0  501  0.00000000000E+00  0.00000000000E+00  0.61801684648E+03  0.61801684650E+03  0.50400001928E-02 0. -1.
        1   -1    0    0  501    0  0.00000000000E+00  0.00000000000E+00 -0.13549970282E+04  0.13549970282E+04  0.50400001928E-02 0.  1.
    10030    2    1    2    0    0  0.00000000000E+00  0.00000000000E+00 -0.73698018174E+03  0.19730138747E+04  0.18302032569E+04 0.  0.
        4    1    3    3  502    0  0.74793671930E+03 -0.14983191236E+03  0.17647556244E+03  0.78294583150E+03  0.12699999809E+01 0.  1.
       -4    1    3    3    0  502 -0.74793671930E+03  0.14983191236E+03 -0.91345574418E+03  0.11900680432E+04  0.12699999809E+01 0. -1.
</event>
<event>
 5   0  0.4802635E-04  0.1888134E+04  0.7818609E-02  0.8660786E-01
       -2   -1    0    0    0  501  0.00000000000E+00  0.00000000000E+00  0.61571572614E+03  0.61571572615E+03  0.25500000920E-02 0. -1.
        2   -1    0    0  501    0  0.00000000000E+00  0.00000000000E+00 -0.14475224942E+04  0.14475224942E+04  0.25500000920E-02 0.  1.
    10030    2    1    2    0    0  0.00000000000E+00  0.00000000000E+00 -0.83180676810E+03  0.20632382204E+04  0.18881338551E+04 0.  0.
        3    1    3    3  502    0  0.31963349397E+03 -0.58432383520E+03 -0.11470288699E+04  0.13263767012E+04  0.10100000352E+00 0.  1.
       -3    1    3    3    0  502 -0.31963349397E+03  0.58432383520E+03  0.31522210178E+03  0.73686151922E+03  0.10100000352E+00 0. -1.
</event>
<event>
 5   0  0.4761944E-04  0.1955581E+04  0.7818609E-02  0.8627674E-01
        2   -1    0    0  501    0  0.00000000000E+00  0.00000000000E+00  0.80351152509E+03  0.80351152509E+03  0.25500000920E-02 0. -1.
       -2   -1    0    0    0  501  0.00000000000E+00  0.00000000000E+00 -0.11898697401E+04  0.11898697401E+04  0.25500000920E-02 0.  1.
    10030    2    1    2    0    0  0.00000000000E+00  0.00000000000E+00 -0.38635821505E+03  0.19933812652E+04  0.19555807828E+04 0.  0.
        4    1    3    3  502    0 -0.84147171047E+03  0.49267042114E+03 -0.26720274083E+03  0.10110379325E+04  0.12699999809E+01 0. -1.
       -4    1    3    3    0  502  0.84147171047E+03 -0.49267042114E+03 -0.11915547421E+03  0.98234333271E+03  0.12699999809E+01 0.  1.
</event>
<event>
 5   0  0.2261755E-04  0.1592646E+04  0.7818609E-02  0.8825078E-01
       -1   -1    0    0    0  501  0.00000000000E+00  0.00000000000E+00  0.48705650690E+03  0.48705650693E+03  0.50400001928E-02 0.  1.
        1   -1    0    0  501    0  0.00000000000E+00  0.00000000000E+00 -0.13019652955E+04  0.13019652955E+04  0.50400001928E-02 0. -1.
    10030    2    1    2    0    0  0.00000000000E+00  0.00000000000E+00 -0.81490878864E+03  0.17890218025E+04  0.15926464378E+04 0.  0.
        1    1    3    3  502    0 -0.59530695025E+03  0.44992290567E+03 -0.95124751430E+02  0.75224311524E+03  0.50400001928E-02 0.  1.
       -1    1    3    3    0  502  0.59530695025E+03 -0.44992290567E+03 -0.71978403721E+03  0.10367786872E+04  0.50400001928E-02 0. -1.
</event>
<event>
 5   0  0.4973411E-04  0.1896311E+04  0.7818609E-02  0.8656695E-01
        2   -1    0    0  501    0  0.00000000000E+00  0.00000000000E+00  0.98534460741E+03  0.98534460742E+03  0.25500000920E-02 0. -1.
       -2   -1    0    0    0  501  0.00000000000E+00  0.00000000000E+00 -0.91236962525E+03  0.91236962526E+03  0.25500000920E-02 0.  1.
    10030    2    1    2    0    0  0.00000000000E+00  0.00000000000E+00  0.72974982160E+02  0.18977142327E+04  0.18963106182E+04 0.  0.
        1    1    3    3  502    0  0.45361843680E+03 -0.41315942978E+03 -0.68690860188E+03  0.92103953660E+03  0.50400001928E-02 0.  1.
       -1    1    3    3    0  502 -0.45361843680E+03  0.41315942978E+03  0.75988358404E+03  0.97667469607E+03  0.50400001928E-02 0. -1.
</event>
<event>
 5   0  0.2355414E-04  0.1540796E+04  0.7818609E-02  0.8857768E-01
        1   -1    0    0  501    0  0.00000000000E+00  0.00000000000E+00  0.38582466929E+03  0.38582466932E+03  0.50400001928E-02 0.  1.
       -1   -1    0    0    0  501  0.00000000000E+00  0.00000000000E+00 -0.15382977382E+04  0.15382977382E+04  0.50400001928E-02 0. -1.
    10030    2    1    2    0    0  0.00000000000E+00  0.00000000000E+00 -0.11524730689E+04  0.19241224075E+04  0.15407961788E+04 0.  0.
        5    1    3    3  502    0 -0.45388557991E+03  0.57913383600E+03 -0.29124265874E+03  0.79136116655E+03  0.46999998093E+01 0. -1.
       -5    1    3    3    0  502  0.45388557991E+03 -0.57913383600E+03 -0.86123041016E+03  0.11327612410E+04  0.46999998093E+01 0.  1.
</event>
<event>
 5   0  0.2355414E-04  0.1910617E+04  0.7818609E-02  0.8649589E-01
        1   -1    0    0  501    0  0.00000000000E+00  0.00000000000E+00  0.10071133803E+04  0.10071133803E+04  0.50400001928E-02 0.  1.
       -1   -1    0    0    0  501  0.00000000000E+00  0.00000000000E+00 -0.90616871761E+03  0.90616871762E+03  0.50400001928E-02 0. -1.
    10030    2    1    2    0    0  0.00000000000E+00  0.00000000000E+00  0.10094466271E+03  0.19132820980E+04  0.19106173247E+04 0.  0.
        5    1    3    3  502    0  0.15914981919E+02  0.95513524100E+03  0.57961740394E+02  0.95703618980E+03  0.46999998093E+01 0.  1.
       -5    1    3    3    0  502 -0.15914981919E+02 -0.95513524100E+03  0.42982922314E+02  0.95624590815E+03  0.46999998093E+01 0. -1.
</event>
<event>
 5   0  0.2261755E-04  0.1570182E+04  0.7818609E-02  0.8839078E-01
        1   -1    0    0  501    0  0.00000000000E+00  0.00000000000E+00  0.14165709037E+04  0.14165709037E+04  0.50400001928E-02 0. -1.
       -1   -1    0    0    0  501  0.00000000000E+00  0.00000000000E+00 -0.43511287797E+03  0.43511287800E+03  0.50400001928E-02 0.  1.
    10030    2    1    2    0    0  0.00000000000E+00  0.00000000000E+00  0.98145802572E+03  0.18516837817E+04  0.15701824643E+04 0.  0.
        1    1    3    3  502    0 -0.18210284090E+03  0.24944898390E+03  0.13419220458E+04  0.13770043635E+04  0.50400001928E-02 0. -1.
       -1    1    3    3    0  502  0.18210284090E+03 -0.24944898390E+03 -0.36046402006E+03  0.47467941815E+03  0.50400001928E-02 0.  1.
</event>
<event>
 5   0  0.2317458E-04  0.1021620E+04  0.7818609E-02  0.9285145E-01
       -1   -1    0    0    0  501  0.00000000000E+00  0.00000000000E+00  0.28086702190E+03  0.28086702194E+03  0.50400001928E-02 0.  1.
        1   -1    0    0  501    0  0.00000000000E+00  0.00000000000E+00 -0.92900543736E+03  0.92900543737E+03  0.50400001928E-02 0. -1.
    10030    2    1    2    0    0  0.00000000000E+00  0.00000000000E+00 -0.64813841546E+03  0.12098724593E+04  0.10216202632E+04 0.  0.
        3    1    3    3  502    0  0.26375438443E+03  0.21062989593E+03 -0.77811780361E+03  0.84817371739E+03  0.10100000352E+00 0. -1.
       -3    1    3    3    0  502 -0.26375438443E+03 -0.21062989593E+03  0.12997938815E+03  0.36169874193E+03  0.10100000352E+00 0.  1.
</event>
<event>
 5   0  0.2317458E-04  0.1859035E+04  0.7818609E-02  0.8675520E-01
       -1   -1    0    0    0  501  0.00000000000E+00  0.00000000000E+00  0.48335226391E+03  0.48335226394E+03  0.50400001928E-02 0.  1.
        1   -1    0    0  501    0  0.00000000000E+00  0.00000000000E+00 -0.17875223971E+04  0.17875223971E+04  0.50400001928E-02 0. -1.
    10030    2    1    2    0    0  0.00000000000E+00  0.00000000000E+00 -0.13041701332E+04  0.22708746610E+04  0.18590352309E+04 0.  0.
        3    1    3    3  502    0 -0.69769587499E+03  0.59734080401E+03 -0.47758340557E+03  0.10352205029E+04  0.10100000352E+00 0. -1.
       -3    1    3    3    0  502  0.69769587499E+03 -0.59734080401E+03 -0.82658672759E+03  0.12356541581E+04  0.10100000352E+00 0.  1.
</event>
<event>
 5   0  0.2510069E-04  0.2168144E+04  0.7818609E-02  0.8531805E-01
        1   -1    0    0  501    0  0.00000000000E+00  0.00000000000E+00  0.13999417363E+04  0.13999417363E+04  0.50400001928E-02 0.  1.
       -1   -1    0    0    0  501  0.00000000000E+00  0.00000000000E+00 -0.83947213926E+03  0.83947213927E+03  0.50400001928E-02 0. -1.
    10030    2    1    2    0    0  0.00000000000E+00  0.00000000000E+00  0.56046959700E+03  0.22394138755E+04  0.21681439843E+04 0.  0.
        4    1    3    3  502    0 -0.38753036936E+03  0.10003964568E+04  0.11943290008E+03  0.10794622219E+04  0.12699999809E+01 0. -1.
       -4    1    3    3    0  502  0.38753036936E+03 -0.10003964568E+04  0.44103669692E+03  0.11599516537E+04  0.12699999809E+01 0.  1.
</event>
<event>
 5   0  0.2317458E-04  0.1883833E+04  0.7818609E-02  0.8662946E-01
        1   -1    0    0  501    0  0.00000000000E+00  0.00000000000E+00  0.18392880649E+04  0.18392880649E+04  0.50400001928E-02 0. -1.
       -1   -1    0    0    0  501  0.00000000000E+00  0.00000000000E+00 -0.48236400699E+03  0.48236400702E+03  0.50400001928E-02 0.  1.
    10030    2    1    2    0    0  0.00000000000E+00  0.00000000000E+00  0.13569240579E+04  0.23216520719E+04  0.18838326476E+04 0.  0.
        3    1    3    3  502    0  0.28261280757E+03 -0.88515632307E+03  0.86872710295E+03  0.12720292862E+04  0.10100000352E+00 0.  1.
       -3    1    3    3    0  502 -0.28261280757E+03  0.88515632307E+03  0.48819695491E+03  0.10496227857E+04  0.10100000352E+00 0. -1.
</event>
<event>
 5   0  0.2261755E-04  0.1866768E+04  0.7818609E-02  0.8671577E-01
        1   -1    0    0  501    0  0.00000000000E+00  0.00000000000E+00  0.97958388670E+03  0.97958388671E+03  0.50400001928E-02 0. -1.
       -1   -1    0    0    0  501  0.00000000000E+00  0.00000000000E+00 -0.88936314792E+03  0.88936314794E+03  0.50400001928E-02 0.  1.
    10030    2    1    2    0    0  0.00000000000E+00  0.00000000000E+00  0.90220738778E+02  0.18689470346E+04  0.18667681261E+04 0.  0.
        1    1    3    3  502    0 -0.56498303200E+03  0.74035471376E+03  0.10743156460E+03  0.93748198368E+03  0.50400001928E-02 0. -1.
       -1    1    3    3    0  502  0.56498303200E+03 -0.74035471376E+03 -0.17210825825E+02  0.93146505097E+03  0.50400001928E-02 0.  1.
</event>
<event>
 5   0  0.2355414E-04  0.1559065E+04  0.7818609E-02  0.8846098E-01
       -1   -1    0    0    0  501  0.00000000000E+00  0.00000000000E+00  0.14188857929E+04  0.14188857929E+04  0.50400001928E-02 0. -1.
        1   -1    0    0  501    0  0.00000000000E+00  0.00000000000E+00 -0.42827309316E+03  0.42827309319E+03  0.50400001928E-02 0.  1.
    10030    2    1    2    0    0  0.00000000000E+00  0.00000000000E+00  0.99061269972E+03  0.18471588861E+04  0.15590646008E+04 0.  0.
        5    1    3    3  502    0 -0.26102340062E+03  0.27360578889E+02 -0.37433566868E+03  0.45719919049E+03  0.46999998093E+01 0.  1.
       -5    1    3    3    0  502  0.26102340062E+03 -0.27360578889E+02  0.13649483684E+04  0.13899596956E+04  0.46999998093E+01 0. -1.
</event>
<event>
 5   0  0.4802635E-04  0.1743028E+04  0.7818609E-02  0.8737197E-01
       -2   -1    0    0    0  501  0.00000000000E+00  0.00000000000E+00  0.36735365893E+03  0.36735365894E+03  0.25500000920E-02 0. -1.
        2   -1    0    0  501    0  0.00000000000E+00  0.00000000000E+00 -0.20675895652E+04  0.20675895652E+04  0.25500000920E-02 0.  1.
    10030    2    1    2    0    0  0.00000000000E+00  0.00000000000E+00 -0.17002359063E+04  0.24349432241E+04  0.17430279309E+04 0.  0.
        3    1    3    3  502    0 -0.10650487713E+03 -0.46742806406E+03  0.16660175274E+03  0.50753171146E+03  0.10100000352E+00 0. -1.
       -3    1    3    3    0  502  0.10650487713E+03  0.46742806406E+03 -0.18668376590E+04  0.19274115127E+04  0.10100000352E+00 0.  1.
</event>
<event>
 5   0  0.4829134E-04  0.1896518E+04  0.7818609E-02  0.8656592E-01
       -2   -1    0    0    0  501  0.00000000000E+00  0.00000000000E+00  0.70966169039E+03  0.70966169039E+03  0.25500000920E-02 0. -1.
        2   -1    0    0  501    0  0.00000000000E+00  0.00000000000E+00 -0.12670752626E+04  0.12670752626E+04  0.25500000920E-02 0.  1.
    10030    2    1    2    0    0  0.00000000000E+00  0.00000000000E+00 -0.55741357224E+03  0.19767369530E+04  0.18965176221E+04 0.  0.
        2    1    3    3  502    0  0.22609227495E+03 -0.28947362458E+03  0.63250396674E+03  0.73141914390E+03  0.25500000920E-02 0. -1.
       -2    1    3    3    0  502 -0.22609227495E+03  0.28947362458E+03 -0.11899175390E+04  0.12453178091E+04  0.25500000920E-02 0.  1.
</event>
<event>
 5   0  0.2355414E-04  0.1950746E+04  0.7818609E-02  0.8630001E-01
       -1   -1    0    0    0  501  0.00000000000E+00  0.00000000000E+00  0.53419637005E+03  0.53419637007E+03  0.50400001928E-02 0.  1.
        1   -1    0    0  501    0  0.00000000000E+00  0.00000000000E+00 -0.17809040091E+04  0.17809040091E+04  0.50400001928E-02 0. -1.
    10030    2    1    2    0    0  0.00000000000E+00  0.00000000000E+00 -0.12467076391E+04  0.23151003792E+04  0.19507459672E+04 0.  0.
        5    1    3    3  502    0  0.34456855747E+03  0.87547239392E+03 -0.31811680551E+03  0.99317661836E+03  0.46999998093E+01 0.  1.
       -5    1    3    3    0  502 -0.34456855747E+03 -0.87547239392E+03 -0.92859083357E+03  0.13219237609E+04  0.46999998093E+01 0. -1.
</event>
<event>
 5   0  0.4802635E-04  0.1426540E+04  0.7818609E-02  0.8934829E-01
        2   -1    0    0  501    0  0.00000000000E+00  0.00000000000E+00  0.13968936120E+04  0.13968936120E+04  0.25500000920E-02 0.  1.
       -2   -1    0    0    0  501  0.00000000000E+00  0.00000000000E+00 -0.36420375079E+03  0.36420375080E+03  0.25500000920E-02 0. -1.
    10030    2    1    2    0    0  0.00000000000E+00  0.00000000000E+00  0.10326898612E+04  0.17610973628E+04  0.14265397197E+04 0.  0.
        3    1    3    3  502    0  0.57372581831E+03  0.26464555738E+03  0.92496170277E+03  0.11201574655E+04  0.10100000352E+00 0.  1.
       -3    1    3    3    0  502 -0.57372581831E+03 -0.26464555738E+03  0.10772815839E+03  0.64093989730E+03  0.10100000352E+00 0. -1.
</event>
<event>
 5   0  0.4973411E-04  0.1874104E+04  0.7818609E-02  0.8667855E-01
       -2   -1    0    0    0  501  0.00000000000E+00  0.00000000000E+00  0.45148985112E+03  0.45148985113E+03  0.25500000920E-02 0. -1.
        2   -1    0    0  501    0  0.00000000000E+00  0.00000000000E+00 -0.19448197920E+04  0.19448197920E+04  0.25500000920E-02 0.  1.
    10030    2    1    2    0    0  0.00000000000E+00  0.00000000000E+00 -0.14933299409E+04  0.23963096431E+04  0.18741039441E+04 0.  0.
        1    1    3    3  502    0  0.57118065393E+03 -0.23193031092E+03 -0.16490167410E+04  0.17604815309E+04  0.50400001928E-02 0.  1.
       -1    1    3    3    0  502 -0.57118065393E+03  0.23193031092E+03  0.15568680011E+03  0.63582811223E+03  0.50400001928E-02 0. -1.
</event>
<event>
 5   0  0.4761944E-04  0.1638266E+04  0.7818609E-02  0.8797379E-01
       -2   -1    0    0    0  501  0.00000000000E+00  0.00000000000E+00  0.59732901907E+03  0.59732901907E+03  0.25500000920E-02 0. -1.
        2   -1    0    0  501    0  0.00000000000E+00  0.00000000000E+00 -0.11232982976E+04  0.11232982976E+04  0.25500000920E-02 0.  1.
    10030    2    1    2    0    0  0.00000000000E+00  0.00000000000E+00 -0.52596927850E+03  0.17206273166E+04  0.16382657540E+04 0.  0.
        4    1    3    3  502    0 -0.34093687605E+03 -0.48989800923E+03  0.32623575654E+03  0.68019805545E+03  0.12699999809E+01 0. -1.
       -4    1    3    3    0  502  0.34093687605E+03  0.48989800923E+03 -0.85220503504E+03  0.10404292612E+04  0.12699999809E+01 0.  1.
</event>
<event>
 5   0  0.4829134E-04  0.1516528E+04  0.7818609E-02  0.8873536E-01
        2   -1    0    0  501    0  0.00000000000E+00  0.00000000000E+00  0.13803365028E+04  0.13803365028E+04  0.25500000920E-02 0. -1.
       -2   -1    0    0    0  501  0.00000000000E+00  0.00000000000E+00 -0.41653901651E+03  0.41653901651E+03  0.25500000920E-02 0.  1.
    10030    2    1    2    0    0  0.00000000000E+00  0.00000000000E+00  0.96379748626E+03  0.17968755193E+04  0.15165276250E+04 0.  0.
        2    1    3    3  502    0 -0.18959909110E+03  0.69673830451E+03  0.75614222130E+03  0.10455348579E+04  0.25500000920E-02 0. -1.
       -2    1    3    3    0  502  0.18959909110E+03 -0.69673830451E+03  0.20765526495E+03  0.75134066134E+03  0.25500000920E-02 0.  1.
</event>
<event>
 5   0  0.2355414E-04  0.2004977E+04  0.7818609E-02  0.8604297E-01
        1   -1    0    0  501    0  0.00000000000E+00  0.00000000000E+00  0.18346738875E+04  0.18346738875E+04  0.50400001928E-02 0.  1.
       -1   -1    0    0    0  501  0.00000000000E+00  0.00000000000E+00 -0.54777194986E+03  0.54777194988E+03  0.50400001928E-02 0. -1.
    10030    2    1    2    0    0  0.00000000000E+00  0.00000000000E+00  0.12869019377E+04  0.23824458374E+04  0.20049767009E+04 0.  0.
        5    1    3    3  502    0  0.11210680810E+03 -0.79319524143E+02  0.18234304819E+04  0.18286006496E+04  0.46999998093E+01 0.  1.
       -5    1    3    3    0  502 -0.11210680810E+03  0.79319524143E+02 -0.53652854422E+03  0.55384518784E+03  0.46999998093E+01 0. -1.
</event>
<event>
 5   0  0.4829134E-04  0.1832119E+04  0.7818609E-02  0.8689403E-01
        2   -1    0    0  501    0  0.00000000000E+00  0.00000000000E+00  0.17709934381E+04  0.17709934381E+04  0.25500000920E-02 0.  1.
       -2   -1    0    0    0  501  0.00000000000E+00  0.00000000000E+00 -0.47383864935E+03  0.47383864935E+03  0.25500000920E-02 0. -1.
    10030    2    1    2    0    0  0.00000000000E+00  0.00000000000E+00  0.12971547888E+04  0.22448320875E+04  0.18321191432E+04 0.  0.
        2    1    3    3  502    0 -0.37768846817E+03  0.12377469099E+02  0.16710415793E+04  0.17132372108E+04  0.25500000920E-02 0.  1.
       -2    1    3    3    0  502  0.37768846817E+03 -0.12377469099E+02 -0.37388679055E+03  0.53159487665E+03  0.25500000920E-02 0. -1.
</event>
<event>
 5   0  0.2355414E-04  0.1901924E+04  0.7818609E-02  0.8653899E-01
       -1   -1    0    0    0  501  0.00000000000E+00  0.00000000000E+00  0.95803417929E+03  0.95803417930E+03  0.50400001928E-02 0.  1.
        1   -1    0    0  501    0  0.00000000000E+00  0.00000000000E+00 -0.94394177478E+03  0.94394177480E+03  0.50400001928E-02 0. -1.
    10030    2    1    2    0    0  0.00000000000E+00  0.00000000000E+00  0.14092404506E+02  0.19019759541E+04  0.19019237456E+04 0.  0.
        5    1    3    3  502    0 -0.54285415462E+03  0.27322671858E+03  0.73847787429E+03  0.95640740991E+03  0.46999998093E+01 0.  1.
       -5    1    3    3    0  502  0.54285415462E+03 -0.27322671858E+03 -0.72438546978E+03  0.94556854419E+03  0.46999998093E+01 0. -1.
</event>
<event>
 5   0  0.2510069E-04  0.1848480E+04  0.7818609E-02  0.8680935E-01
       -1   -1    0    0    0  501  0.00000000000E+00  0.00000000000E+00  0.84001456216E+03  0.84001456217E+03  0.50400001928E-02 0. -1.
        1   -1    0    0  501    0  0.00000000000E+00  0.00000000000E+00 -0.10169108134E+04  0.10169108134E+04  0.50400001928E-02 0.  1.
    10030    2    1    2    0    0  0.00000000000E+00  0.00000000000E+00 -0.17689625120E+03  0.18569253755E+04  0.18484803398E+04 0.  0.
        4    1    3    3  502    0 -0.69965199719E+03 -0.18765253142E+03 -0.66508442695E+03  0.98339478217E+03  0.12699999809E+01 0.  1.
       -4    1    3    3    0  502  0.69965199719E+03  0.18765253142E+03  0.48818817575E+03  0.87353059338E+03  0.12699999809E+01 0. -1.
</event>
<event>
 5   0  0.2376359E-04  0.1902423E+04  0.7818609E-02  0.8653651E-01
        1   -1    0    0  501    0  0.00000000000E+00  0.00000000000E+00  0.78011922920E+03  0.78011922922E+03  0.50400001928E-02 0. -1.
       -1   -1    0    0    0  501  0.00000000000E+00  0.00000000000E+00 -0.11598268312E+04  0.11598268312E+04  0.50400001928E-02 0.  1.
    10030    2    1    2    0    0  0.00000000000E+00  0.00000000000E+00 -0.37970760198E+03  0.19399460604E+04  0.19024228905E+04 0.  0.
        2    1    3    3  502    0  0.72507111239E+03  0.35376899348E+03  0.32399253668E+03  0.86939736749E+03  0.25500000920E-02 0. -1.
       -2    1    3    3    0  502 -0.72507111239E+03 -0.35376899348E+03 -0.70370013866E+03  0.10705486929E+04  0.25500000920E-02 0.  1.
</event>
<event>
 5   0  0.2510069E-04  0.1918615E+04  0.7818609E-02  0.8645646E-01
       -1   -1    0    0    0  501  0.00000000000E+00  0.00000000000E+00  0.76273467385E+03  0.76273467386E+03  0.50400001928E-02 0.  1.
        1   -1    0    0  501    0  0.00000000000E+00  0.00000000000E+00 -0.12065414244E+04  0.12065414244E+04  0.50400001928E-02 0. -1.
    10030    2    1    2    0    0  0.00000000000E+00  0.00000000000E+00 -0.44380675053E+03  0.19692760982E+04  0.19186151045E+04 0.  0.
        4    1    3    3  502    0  0.43790619423E+03  0.79730545780E+03  0.90790761185E+02  0.91416760126E+03  0.12699999809E+01 0.  1.
       -4    1    3    3    0  502 -0.43790619423E+03 -0.79730545780E+03 -0.53459751171E+03  0.10551084970E+04  0.12699999809E+01 0. -1.
</event>
<event>
 5   0  0.4973411E-04  0.1901845E+04  0.7818609E-02  0.8653938E-01
        2   -1    0    0  501    0  0.00000000000E+00  0.00000000000E+00  0.14370051417E+04  0.14370051417E+04  0.25500000920E-02 0.  1.
       -2   -1    0    0    0  501  0.00000000000E+00  0.00000000000E+00 -0.62926277273E+03  0.62926277273E+03  0.25500000920E-02 0. -1.
    10030    2    1    2    0    0  0.00000000000E+00  0.00000000000E+00  0.80774236894E+03  0.20662679144E+04  0.19018452512E+04 0.  0.
        1    1    3    3  502    0  0.22536685855E+03 -0.53408426317E+03  0.12228427120E+04  0.13532850843E+04  0.50400001928E-02 0.  1.
       -1    1    3    3    0  502 -0.22536685855E+03  0.53408426317E+03 -0.41510034309E+03  0.71298283006E+03  0.50400001928E-02 0. -1.
</event>
<event>
 5   0  0.4761944E-04  0.1895337E+04  0.7818609E-02  0.8657181E-01
        2   -1    0    0  501    0  0.00000000000E+00  0.00000000000E+00  0.92466088269E+03  0.92466088270E+03  0.25500000920E-02 0. -1.
       -2   -1    0    0    0  501  0.00000000000E+00  0.00000000000E+00 -0.97124812612E+03  0.97124812613E+03  0.25500000920E-02 0.  1.
    10030    2    1    2    0    0  0.00000000000E+00  0.00000000000E+00 -0.46587243429E+02  0.18959090088E+04  0.18953365396E+04 0.  0.
        4    1    3    3  502    0 -0.93569592972E+03 -0.95080856218E+02 -0.13954530882E+03  0.95081110018E+03  0.12699999809E+01 0.  1.
       -4    1    3    3    0  502  0.93569592972E+03  0.95080856218E+02  0.92958065394E+02  0.94509790865E+03  0.12699999809E+01 0. -1.
</event>
<event>
 5   0  0.2317458E-04  0.1667786E+04  0.7818609E-02  0.8779954E-01
        1   -1    0    0  501    0  0.00000000000E+00  0.00000000000E+00  0.13734260661E+04  0.13734260661E+04  0.50400001928E-02 0.  1.
       -1   -1    0    0    0  501  0.00000000000E+00  0.00000000000E+00 -0.50630856833E+03  0.50630856835E+03  0.50400001928E-02 0. -1.
    10030    2    1    2    0    0  0.00000000000E+00  0.00000000000E+00  0.86711749775E+03  0.18797346344E+04  0.16677858199E+04 0.  0.
        3    1    3    3  502    0  0.77260241253E+03  0.15126790163E+03  0.12370102792E+03  0.79693062460E+03  0.10100000352E+00 0. -1.
       -3    1    3    3    0  502 -0.77260241253E+03 -0.15126790163E+03  0.74341646983E+03  0.10828040098E+04  0.10100000352E+00 0.  1.
</event>
<event>
 5   0  0.4802635E-04  0.1350734E+04  0.7818609E-02  0.8990273E-01
        2   -1    0    0  501    0  0.00000000000E+00  0.00000000000E+00  0.11414283642E+04  0.11414283642E+04  0.25500000920E-02 0.  1.
       -2   -1    0    0    0  501  0.00000000000E+00  0.00000000000E+00 -0.39960501226E+03  0.39960501227E+03  0.25500000920E-02 0. -1.
    10030    2    1    2    0    0  0.00000000000E+00  0.00000000000E+00  0.74182335197E+03  0.15410333765E+04  0.13507338679E+04 0.  0.
        3    1    3    3  502    0 -0.34927870590E+03  0.31872595169E+03 -0.17924934640E+03  0.50567992353E+03  0.10100000352E+00 0. -1.
       -3    1    3    3    0  502  0.34927870590E+03 -0.31872595169E+03  0.92107269837E+03  0.10353534530E+04  0.10100000352E+00 0.  1.
</event>
<event>
 5   0  0.2317458E-04  0.1877417E+04  0.7818609E-02  0.8666180E-01
        1   -1    0    0  501    0  0.00000000000E+00  0.00000000000E+00  0.12660157017E+04  0.12660157017E+04  0.50400001928E-02 0.  1.
       -1   -1    0    0    0  501  0.00000000000E+00  0.00000000000E+00 -0.69602091945E+03  0.69602091946E+03  0.50400001928E-02 0. -1.
    10030    2    1    2    0    0  0.00000000000E+00  0.00000000000E+00  0.56999478228E+03  0.19620366212E+04  0.18774167494E+04 0.  0.
        3    1    3    3  502    0  0.55793268908E+03 -0.69889196712E+03 -0.13232199467E+02  0.89437909667E+03  0.10100000352E+00 0. -1.
       -3    1    3    3    0  502 -0.55793268908E+03  0.69889196712E+03  0.58322698175E+03  0.10676575245E+04  0.10100000352E+00 0.  1.
</event>
<event>
 5   0  0.2376359E-04  0.1912628E+04  0.7818609E-02  0.8648596E-01
       -1   -1    0    0    0  501  0.00000000000E+00  0.00000000000E+00  0.69798581620E+03  0.69798581622E+03  0.50400001928E-02 0.  1.
        1   -1    0    0  501    0  0.00000000000E+00  0.00000000000E+00 -0.13102505289E+04  0.13102505289E+04  0.50400001928E-02 0. -1.
    10030    2    1    2    0    0  0.00000000000E+00  0.00000000000E+00 -0.61226471266E+03  0.20082363451E+04  0.19126278099E+04 0.  0.
        2    1    3    3  502    0 -0.85989052495E+03  0.10380650254E+03 -0.73179701978E+03  0.11338934619E+04  0.25500000920E-02 0. -1.
       -2    1    3    3    0  502  0.85989052495E+03 -0.10380650254E+03  0.11953230712E+03  0.87434288315E+03  0.25500000920E-02 0.  1.
</event>
<event>
 5   0  0.4829134E-04  0.1869846E+04  0.7818609E-02  0.8670013E-01
        2   -1    0    0  501    0  0.00000000000E+00  0.00000000000E+00  0.16561417771E+04  0.16561417771E+04  0.25500000920E-02 0.  1.
       -2   -1    0    0    0  501  0.00000000000E+00  0.00000000000E+00 -0.52778169951E+03  0.52778169952E+03  0.25500000920E-02 0. -1.
    10030    2    1    2    0    0  0.00000000000E+00  0.00000000000E+00  0.11283600775E+04  0.21839234766E+04  0.18698463271E+04 0.  0.
        2    1    3    3  502    0  0.92352073312E+03  0.43574085545E+02  0.40195384202E+03  0.10081448986E+04  0.25500000920E-02 0.  1.
       -2    1    3    3    0  502 -0.92352073312E+03 -0.43574085545E+02  0.72640623552E+03  0.11757785780E+04  0.25500000920E-02 0. -1.
</event>
<event>
 5   0  0.1729375E-04  0.1986594E+04  0.7818609E-02  0.8612914E-01
        3   -1    0    0  501    0  0.00000000000E+00  0.00000000000E+00  0.75516818999E+03  0.75516819674E+03  0.10100000352E+00 0. -1.
       -3   -1    0    0    0  501  0.00000000000E+00  0.00000000000E+00 -0.13065155510E+04  0.13065155549E+04  0.10100000352E+00 0.  1.
    10030    2    1    2    0    0  0.00000000000E+00  0.00000000000E+00 -0.55134736106E+03  0.20616837517E+04  0.19865940651E+04 0.  0.
        2    1    3    3  502    0 -0.56717594874E+03  0.72818999005E+03 -0.65654671896E+03  0.11326971407E+04  0.25500000920E-02 0.  1.
       -2    1    3    3    0  502  0.56717594874E+03 -0.72818999005E+03  0.10519935790E+03  0.92898661096E+03  0.25500000920E-02 0. -1.
</event>
<event>
 5   0  0.2261755E-04  0.2057577E+04  0.7818609E-02  0.8580165E-01
       -1   -1    0    0    0  501  0.00000000000E+00  0.00000000000E+00  0.31931390734E+03  0.31931390738E+03  0.50400001928E-02 0.  1.
        1   -1    0    0  501    0  0.00000000000E+00  0.00000000000E+00 -0.33146260197E+04  0.33146260197E+04  0.50400001928E-02 0. -1.
    10030    2    1    2    0    0  0.00000000000E+00  0.00000000000E+00 -0.29953121124E+04  0.36339399271E+04  0.20575773967E+04 0.  0.
        1    1    3    3  502    0  0.10049173981E+04  0.10114140723E+03 -0.11519389640E+04  0.15320091181E+04  0.50400001928E-02 0.  1.
       -1    1    3    3    0  502 -0.10049173981E+04 -0.10114140723E+03 -0.18433731485E+04  0.21019308090E+04  0.50400001928E-02 0. -1.
</event>
<event>
 5   0  0.4761944E-04  0.1864700E+04  0.7818609E-02  0.8672630E-01
       -2   -1    0    0    0  501  0.00000000000E+00  0.00000000000E+00  0.60801396836E+03  0.60801396836E+03  0.25500000920E-02 0.  1.
        2   -1    0    0  501    0  0.00000000000E+00  0.00000000000E+00 -0.14296975117E+04  0.14296975117E+04  0.25500000920E-02 0. -1.
    10030    2    1    2    0    0  0.00000000000E+00  0.00000000000E+00 -0.82168354338E+03  0.20377114801E+04  0.18646995014E+04 0.  0.
        4    1    3    3  502    0  0.75416594745E+03  0.36223026199E+03 -0.86047561147E+03  0.12001653760E+04  0.12699999809E+01 0.  1.
       -4    1    3    3    0  502 -0.75416594745E+03 -0.36223026199E+03  0.38792068091E+02  0.83754610407E+03  0.12699999809E+01 0. -1.
</event>
<event>
 5   0  0.2261755E-04  0.1803422E+04  0.7818609E-02  0.8704482E-01
        1   -1    0    0  501    0  0.00000000000E+00  0.00000000000E+00  0.86474314024E+03  0.86474314025E+03  0.50400001928E-02 0.  1.
       -1   -1    0    0    0  501  0.00000000000E+00  0.00000000000E+00 -0.94025908178E+03  0.94025908179E+03  0.50400001928E-02 0. -1.
    10030    2    1    2    0    0  0.00000000000E+00  0.00000000000E+00 -0.75515941539E+02  0.18050022220E+04  0.18034218486E+04 0.  0.
        1    1    3    3  502    0  0.29259629780E+03 -0.33382996677E+03 -0.82331999733E+03  0.93536669720E+03  0.50400001928E-02 0. -1.
       -1    1    3    3    0  502 -0.29259629780E+03  0.33382996677E+03  0.74780405579E+03  0.86963552485E+03  0.50400001928E-02 0.  1.
</event>
<event>
 5   0  0.4761944E-04  0.1879264E+04  0.7818609E-02  0.8665247E-01
        2   -1    0    0  501    0  0.00000000000E+00  0.00000000000E+00  0.94293050904E+03  0.94293050904E+03  0.25500000920E-02 0.  1.
       -2   -1    0    0    0  501  0.00000000000E+00  0.00000000000E+00 -0.93634511880E+03  0.93634511880E+03  0.25500000920E-02 0. -1.
    10030    2    1    2    0    0  0.00000000000E+00  0.00000000000E+00  0.65853902449E+01  0.18792756278E+04  0.18792640895E+04 0.  0.
        4    1    3    3  502    0 -0.40316857836E+03  0.77769313378E+03  0.34322897253E+03  0.94082902452E+03  0.12699999809E+01 0.  1.
       -4    1    3    3    0  502  0.40316857836E+03 -0.77769313378E+03 -0.33664358228E+03  0.93844660332E+03  0.12699999809E+01 0. -1.
</event>
<event>
 5   0  0.4839293E-04  0.1796814E+04  0.7818609E-02  0.8707996E-01
       -2   -1    0    0    0  501  0.00000000000E+00  0.00000000000E+00  0.46575926685E+03  0.46575926686E+03  0.25500000920E-02 0. -1.
        2   -1    0    0  501    0  0.00000000000E+00  0.00000000000E+00 -0.17329450812E+04  0.17329450812E+04  0.25500000920E-02 0.  1.
    10030    2    1    2    0    0  0.00000000000E+00  0.00000000000E+00 -0.12671858143E+04  0.21987043481E+04  0.17968141034E+04 0.  0.
        5    1    3    3  502    0 -0.40781891272E+03  0.29326042770E+03  0.27785118365E+03  0.57405689116E+03  0.46999998093E+01 0. -1.
       -5    1    3    3    0  502  0.40781891272E+03 -0.29326042770E+03 -0.15450369980E+04  0.16246474569E+04  0.46999998093E+01 0.  1.
</event>
<event>
 5   0  0.2510069E-04  0.1883353E+04  0.7818609E-02  0.8663187E-01
       -1   -1    0    0    0  501  0.00000000000E+00  0.00000000000E+00  0.84336346385E+03  0.84336346387E+03  0.50400001928E-02 0. -1.
        1   -1    0    0  501    0  0.00000000000E+00  0.00000000000E+00 -0.10514505053E+04  0.10514505053E+04  0.50400001928E-02 0.  1.
    10030    2    1    2    0    0  0.00000000000E+00  0.00000000000E+00 -0.20808704144E+03  0.18948139692E+04  0.18833533288E+04 0.  0.
        4    1    3    3  502    0 -0.17737242347E+03 -0.17028356693E+03  0.81049617660E+03  0.84697292457E+03  0.12699999809E+01 0. -1.
       -4    1    3    3    0  502  0.17737242347E+03  0.17028356693E+03 -0.10185832180E+04  0.10478410446E+04  0.12699999809E+01 0.  1.
</event>
<event>
 5   0  0.4839293E-04  0.2055399E+04  0.7818609E-02  0.8581149E-01
        2   -1    0    0  501    0  0.00000000000E+00  0.00000000000E+00  0.12297770328E+04  0.12297770328E+04  0.25500000920E-02 0. -1.
       -2   -1    0    0    0  501  0.00000000000E+00  0.00000000000E+00 -0.85882737723E+03  0.85882737723E+03  0.25500000920E-02 0.  1.
    10030    2    1    2    0    0  0.00000000000E+00  0.00000000000E+00  0.37094965558E+03  0.20886044100E+04  0.20553989235E+04 0.  0.
        5    1    3    3  502    0  0.42714586260E+03  0.92963955146E+03  0.86636764087E+02  0.10267479255E+04  0.46999998093E+01 0.  1.
       -5    1    3    3    0  502 -0.42714586260E+03 -0.92963955146E+03  0.28431289149E+03  0.10618564846E+04  0.46999998093E+01 0. -1.
</event>
<event>
 5   0  0.2376359E-04  0.1941203E+04  0.7818609E-02  0.8634614E-01
       -1   -1    0    0    0  501  0.00000000000E+00  0.00000000000E+00  0.12236995129E+04  0.12236995129E+04  0.50400001928E-02 0. -1.
        1   -1    0    0  501    0  0.00000000000E+00  0.00000000000E+00 -0.76985184762E+03  0.76985184764E+03  0.50400001928E-02 0.  1.
    10030    2    1    2    0    0  0.00000000000E+00  0.00000000000E+00  0.45384766530E+03  0.19935513606E+04  0.19412030610E+04 0.  0.
        2    1    3    3  502    0 -0.10513473534E+03  0.84909092157E+03  0.69760489073E+03  0.11039299295E+04  0.25500000920E-02 0. -1.
       -2    1    3    3    0  502  0.10513473534E+03 -0.84909092157E+03 -0.24375722543E+03  0.88962143107E+03  0.25500000920E-02 0.  1.
</event>
<event>
 5   0  0.4829134E-04  0.1858310E+04  0.7818609E-02  0.8675891E-01
       -2   -1    0    0    0  501  0.00000000000E+00  0.00000000000E+00  0.10333502142E+04  0.10333502142E+04  0.25500000920E-02 0.  1.
        2   -1    0    0  501    0  0.00000000000E+00  0.00000000000E+00 -0.83546582524E+03  0.83546582524E+03  0.25500000920E-02 0. -1.
    10030    2    1    2    0    0  0.00000000000E+00  0.00000000000E+00  0.19788438892E+03  0.18688160394E+04  0.18583097583E+04 0.  0.
        2    1    3    3  502    0  0.36987119318E+03  0.31142185033E+03 -0.69897953093E+03  0.84991802727E+03  0.25500000920E-02 0. -1.
       -2    1    3    3    0  502 -0.36987119318E+03 -0.31142185033E+03  0.89686391985E+03  0.10188980121E+04  0.25500000920E-02 0.  1.
</event>
<event>
 5   0  0.2355414E-04  0.1913684E+04  0.7818609E-02  0.8648075E-01
       -1   -1    0    0    0  501  0.00000000000E+00  0.00000000000E+00  0.70852265367E+03  0.70852265369E+03  0.50400001928E-02 0.  1.
        1   -1    0    0  501    0  0.00000000000E+00  0.00000000000E+00 -0.12921911218E+04  0.12921911219E+04  0.50400001928E-02 0. -1.
    10030    2    1    2    0    0  0.00000000000E+00  0.00000000000E+00 -0.58366846817E+03  0.20007137755E+04  0.19136840729E+04 0.  0.
        5    1    3    3  502    0 -0.73039376899E+03  0.43841985039E+03  0.16368403841E+03  0.86746848785E+03  0.46999998093E+01 0.  1.
       -5    1    3    3    0  502  0.73039376899E+03 -0.43841985039E+03 -0.74735250658E+03  0.11332452877E+04  0.46999998093E+01 0. -1.
</event>
</LesHouchesEvents>
